/*--------------------------------*- C++ -*----------------------------------*\
| =========                 |                                                 |
| \\      /  F ield         | OpenFOAM: The Open Source CFD Toolbox           |
|  \\    /   O peration     | Version:  2406                                  |
|   \\  /    A nd           | Website:  www.openfoam.com                      |
|    \\/     M anipulation  |                                                 |
\*---------------------------------------------------------------------------*/
FoamFile
{
    version     2.0;
    format      ascii;
    arch        "LSB;label=32;scalar=64";
    class       volScalarField;
    location    "2.85";
    object      C;
}
// * * * * * * * * * * * * * * * * * * * * * * * * * * * * * * * * * * * * * //

dimensions      [1 -3 0 0 0 0 0];

internalField   nonuniform List<scalar> 
14400
(
0.816781
0.805087
0.780122
0.751777
0.728113
0.711292
0.702325
0.701775
0.709893
0.726647
0.751698
0.784253
0.822256
0.856998
0.877476
0.886308
0.887816
0.881736
0.862376
0.831823
0.803215
0.781751
0.769256
0.766701
0.7747
0.793662
0.82382
0.865176
0.91733
0.978984
1.04581
1.09532
1.12728
1.15456
1.17855
1.19971
1.21838
1.23485
1.24931
1.26193
1.27284
1.28215
1.28995
1.29629
1.30124
1.30483
1.30709
1.30805
1.30772
1.3061
1.30318
1.29896
1.2934
1.28649
1.27818
1.26841
1.25713
1.24425
1.22967
1.21327
1.1949
1.17438
1.15147
1.12587
1.09721
1.06502
1.02358
0.961659
0.887503
0.820541
0.763299
0.716229
0.679286
0.652267
0.634933
0.627052
0.628413
0.638817
0.658067
0.68591
0.72191
0.76511
0.81277
0.848688
0.868586
0.881572
0.889408
0.892496
0.890977
0.884753
0.873448
0.854286
0.820812
0.780268
0.7448
0.716519
0.696178
0.684
0.679804
0.682981
0.692428
0.706318
0.721467
0.730705
0.721653
0.706688
0.692988
0.68377
0.680889
0.685473
0.698161
0.719167
0.748301
0.784849
0.826711
0.861322
0.881637
0.894468
0.902665
0.906665
0.826566
0.818312
0.796995
0.768015
0.743383
0.725794
0.716325
0.715599
0.723878
0.741105
0.766876
0.800355
0.838981
0.869283
0.885407
0.893633
0.895391
0.890533
0.876693
0.849124
0.819358
0.796902
0.783696
0.78073
0.788619
0.807777
0.838444
0.880629
0.9339
0.996682
1.05826
1.10081
1.13119
1.15785
1.18138
1.20219
1.2206
1.23685
1.25115
1.26363
1.27444
1.28367
1.2914
1.29769
1.30259
1.30615
1.3084
1.30934
1.30901
1.30739
1.30449
1.30028
1.29476
1.28789
1.27963
1.26993
1.25873
1.24595
1.23149
1.21524
1.19706
1.17677
1.15415
1.12893
1.10074
1.06911
1.03165
0.97607
0.902733
0.835139
0.777091
0.729312
0.691812
0.664402
0.646852
0.638939
0.640452
0.651186
0.67094
0.699466
0.736309
0.780194
0.826138
0.856842
0.874481
0.886721
0.894157
0.897102
0.895681
0.889835
0.879308
0.863324
0.835275
0.795705
0.759722
0.730792
0.710038
0.697817
0.694027
0.698087
0.708938
0.724754
0.741771
0.748712
0.74196
0.725121
0.709471
0.698828
0.695047
0.699207
0.711918
0.733312
0.763067
0.800077
0.840823
0.869919
0.887062
0.899102
0.906861
0.910665
0.844132
0.838676
0.825295
0.799455
0.773514
0.754598
0.744157
0.74309
0.751691
0.769831
0.796814
0.831412
0.86646
0.887737
0.900113
0.907424
0.909583
0.906534
0.898232
0.879731
0.850639
0.826881
0.812407
0.808674
0.816348
0.835868
0.867467
0.91111
0.96582
1.02797
1.07631
1.11006
1.13881
1.16429
1.18693
1.20707
1.22496
1.24081
1.25479
1.26702
1.27762
1.28669
1.29428
1.30047
1.30529
1.30879
1.311
1.31192
1.31158
1.30997
1.30709
1.30293
1.29747
1.29068
1.28252
1.27295
1.26191
1.24932
1.2351
1.21915
1.20133
1.18149
1.15944
1.13495
1.10772
1.07741
1.04356
0.998684
0.933
0.864258
0.804663
0.75552
0.716937
0.688754
0.67077
0.662792
0.664608
0.675985
0.696694
0.726473
0.764872
0.810046
0.847826
0.870226
0.885717
0.896675
0.903394
0.906074
0.90481
0.899597
0.890344
0.876911
0.857483
0.826031
0.78927
0.759073
0.73749
0.725144
0.722119
0.72779
0.74106
0.759417
0.772463
0.774959
0.77259
0.759742
0.741526
0.728431
0.723009
0.726367
0.739163
0.761336
0.792312
0.830029
0.862325
0.882717
0.897319
0.908015
0.915012
0.918469
0.867154
0.86347
0.856573
0.841635
0.817178
0.7972
0.785371
0.783832
0.792911
0.812373
0.840308
0.873686
0.89631
0.909711
0.91988
0.926367
0.928981
0.927725
0.92281
0.91431
0.896027
0.871185
0.854979
0.850241
0.857606
0.877602
0.910387
0.955948
1.01134
1.05921
1.09389
1.1232
1.1497
1.17356
1.19499
1.2142
1.23137
1.24665
1.26017
1.27204
1.28235
1.29117
1.29858
1.30461
1.30932
1.31273
1.31488
1.31577
1.31541
1.31382
1.31098
1.30688
1.30151
1.29483
1.28683
1.27744
1.26663
1.25432
1.24045
1.22491
1.20761
1.18841
1.16717
1.1437
1.1178
1.08924
1.05776
1.02272
0.973828
0.906891
0.84582
0.794882
0.75478
0.725459
0.706818
0.698741
0.701016
0.713322
0.735315
0.766514
0.805919
0.846378
0.871766
0.888453
0.901487
0.910866
0.916671
0.91899
0.917887
0.9134
0.905561
0.894452
0.880316
0.860371
0.831173
0.800438
0.777841
0.765232
0.76328
0.770913
0.78623
0.799346
0.804438
0.805524
0.804484
0.799518
0.786588
0.77139
0.763974
0.766199
0.779202
0.802298
0.833724
0.863529
0.884213
0.899283
0.911479
0.920627
0.926702
0.92973
0.893861
0.891465
0.887038
0.881238
0.868942
0.85207
0.838751
0.836824
0.846374
0.867266
0.892435
0.912075
0.924255
0.934877
0.943329
0.949181
0.95225
0.952574
0.950427
0.946369
0.940023
0.92685
0.909996
0.904685
0.911686
0.932184
0.965702
1.01203
1.0533
1.08533
1.1131
1.13916
1.16323
1.18525
1.20527
1.22338
1.23967
1.25425
1.26721
1.27862
1.28855
1.29708
1.30424
1.31008
1.31464
1.31794
1.32001
1.32086
1.32049
1.31891
1.31612
1.3121
1.30684
1.30032
1.29251
1.28336
1.27284
1.26089
1.24745
1.23245
1.21579
1.19738
1.17712
1.15488
1.13054
1.10398
1.07512
1.04395
1.00945
0.961675
0.900178
0.847292
0.805426
0.77464
0.75509
0.746882
0.749807
0.763297
0.786744
0.818829
0.856431
0.881488
0.89707
0.910332
0.920911
0.928631
0.933435
0.935329
0.934348
0.930553
0.924047
0.91502
0.903825
0.891081
0.874223
0.852168
0.829379
0.81638
0.815698
0.824431
0.832702
0.836649
0.837766
0.838213
0.837757
0.836637
0.832783
0.82464
0.816127
0.816979
0.830317
0.853424
0.875893
0.893258
0.906721
0.918723
0.928689
0.936311
0.941441
0.944017
0.922963
0.921489
0.918824
0.915524
0.912386
0.906272
0.900033
0.899045
0.907849
0.92164
0.934718
0.944212
0.953629
0.962211
0.96938
0.974778
0.978262
0.979894
0.979953
0.978966
0.977739
0.976257
0.971522
0.969519
0.976141
0.997088
1.02814
1.05936
1.08532
1.10989
1.13402
1.15711
1.1788
1.19894
1.21746
1.23436
1.24968
1.26347
1.27578
1.28667
1.29617
1.30434
1.31122
1.31683
1.32121
1.32439
1.32636
1.32716
1.32678
1.32522
1.32249
1.31857
1.31345
1.3071
1.29952
1.29066
1.28048
1.26896
1.25602
1.24163
1.22572
1.20821
1.18905
1.16817
1.1455
1.12103
1.09478
1.06688
1.0376
1.006
0.963934
0.911511
0.868621
0.836183
0.815421
0.807039
0.810875
0.825622
0.849998
0.878996
0.89999
0.912854
0.924643
0.934892
0.943196
0.94931
0.953107
0.954541
0.953623
0.950418
0.945054
0.937755
0.928881
0.918978
0.908798
0.897481
0.884217
0.873942
0.870988
0.872209
0.872182
0.871727
0.871762
0.871805
0.871692
0.871593
0.871993
0.872047
0.870891
0.873961
0.884421
0.897914
0.909556
0.920228
0.930688
0.940198
0.948241
0.954485
0.958734
0.960881
0.95354
0.952704
0.951244
0.949579
0.948323
0.948288
0.949137
0.951044
0.956368
0.96241
0.968886
0.97628
0.983837
0.990957
0.997199
1.00229
1.00613
1.00879
1.01052
1.0118
1.0133
1.01593
1.02075
1.02588
1.03584
1.05331
1.07375
1.09317
1.11374
1.13492
1.15599
1.17644
1.19593
1.21424
1.23126
1.24693
1.26123
1.27418
1.28579
1.2961
1.30512
1.3129
1.31946
1.32482
1.329
1.33202
1.3339
1.33463
1.33424
1.33271
1.33004
1.32623
1.32127
1.31513
1.30781
1.29927
1.28948
1.27842
1.26606
1.25234
1.23723
1.2207
1.2027
1.18323
1.16227
1.13986
1.11611
1.09119
1.06543
1.03931
1.0128
0.979524
0.942238
0.908787
0.886724
0.878067
0.882857
0.897578
0.913711
0.927293
0.93611
0.945144
0.953755
0.961397
0.967669
0.972305
0.975143
0.976106
0.975186
0.97244
0.967995
0.962065
0.954968
0.947149
0.939171
0.931699
0.925312
0.919165
0.91419
0.909995
0.907562
0.906315
0.90575
0.905553
0.905615
0.906048
0.907175
0.9095
0.913618
0.918614
0.92481
0.931382
0.939115
0.947409
0.955603
0.963141
0.969593
0.974655
0.978127
0.979891
0.984953
0.984541
0.983869
0.983226
0.983011
0.983665
0.985491
0.988529
0.992073
0.996619
1.00209
1.00819
1.01448
1.02058
1.02617
1.03105
1.03517
1.0386
1.04156
1.04442
1.04772
1.05212
1.05835
1.06713
1.07863
1.09187
1.10694
1.12368
1.14157
1.16004
1.17857
1.19674
1.21424
1.23084
1.24641
1.26086
1.27413
1.28622
1.2971
1.3068
1.31532
1.32268
1.3289
1.33398
1.33795
1.34081
1.34257
1.34324
1.34283
1.34133
1.33874
1.33505
1.33026
1.32435
1.31731
1.30911
1.29975
1.2892
1.27744
1.26443
1.25017
1.23464
1.21784
1.19977
1.18048
1.16004
1.13859
1.11635
1.09363
1.07086
1.04863
1.02758
1.0049
0.982378
0.964402
0.955012
0.953996
0.958007
0.962386
0.966398
0.971829
0.977856
0.983837
0.98927
0.993779
0.997098
0.999053
0.999553
0.998574
0.99616
0.992421
0.98754
0.981779
0.975477
0.969037
0.96287
0.957284
0.952288
0.947799
0.944227
0.941757
0.940218
0.939371
0.939041
0.939165
0.93981
0.941158
0.943452
0.946877
0.951264
0.956232
0.961854
0.968112
0.97469
0.981175
0.987168
0.992334
0.996415
0.999229
1.00066
1.01678
1.01664
1.01646
1.01645
1.01683
1.01787
1.01973
1.02243
1.0258
1.0299
1.03466
1.03989
1.04533
1.05072
1.05584
1.06058
1.0649
1.06887
1.07268
1.07661
1.08105
1.08647
1.09331
1.10196
1.11249
1.12461
1.1382
1.15305
1.16882
1.1851
1.20151
1.21772
1.23344
1.24848
1.26269
1.27596
1.28823
1.29945
1.3096
1.31868
1.32668
1.33361
1.33947
1.34426
1.348
1.35069
1.35233
1.35294
1.35251
1.35104
1.34853
1.34497
1.34036
1.3347
1.32796
1.32013
1.31122
1.30119
1.29005
1.27778
1.26439
1.24986
1.23424
1.21754
1.19984
1.18123
1.16188
1.14199
1.12186
1.10188
1.08251
1.0643
1.04787
1.03379
1.02161
1.01253
1.00652
1.003
1.00245
1.00401
1.00695
1.01062
1.01447
1.01807
1.02108
1.02325
1.02442
1.02448
1.0234
1.02121
1.01799
1.01389
1.00913
1.00395
0.99863
0.99346
0.988649
0.984299
0.980479
0.977356
0.975022
0.973429
0.972476
0.972074
0.972193
0.972869
0.974193
0.976274
0.979166
0.98279
0.986988
0.991689
0.996788
1.00206
1.00724
1.01202
1.01616
1.01944
1.02171
1.02287
1.04874
1.04877
1.04891
1.04926
1.04999
1.05125
1.05313
1.05567
1.05881
1.06253
1.06677
1.07138
1.07622
1.08111
1.08591
1.09054
1.09499
1.09932
1.10368
1.10828
1.11342
1.11938
1.12648
1.13491
1.14475
1.15589
1.16821
1.18151
1.19555
1.21003
1.22466
1.23917
1.25333
1.26695
1.2799
1.29206
1.30336
1.31375
1.32318
1.33164
1.33912
1.34561
1.3511
1.35559
1.3591
1.36161
1.36314
1.36368
1.36323
1.36179
1.35937
1.35595
1.35153
1.34611
1.33969
1.33225
1.32379
1.3143
1.30379
1.29226
1.27972
1.26619
1.2517
1.23631
1.22009
1.20317
1.18569
1.16786
1.14995
1.13228
1.11523
1.09922
1.08467
1.07195
1.06123
1.05264
1.04631
1.04226
1.04039
1.04025
1.04135
1.04319
1.04534
1.04745
1.04922
1.05042
1.05089
1.05054
1.04933
1.04727
1.04443
1.04092
1.0369
1.03254
1.02808
1.02369
1.01955
1.01578
1.01246
1.0097
1.00754
1.006
1.00503
1.00459
1.00466
1.00528
1.00647
1.00828
1.01072
1.01374
1.01724
1.02113
1.02528
1.02954
1.03369
1.03752
1.04084
1.04348
1.0453
1.04624
1.08067
1.08081
1.08112
1.0817
1.08263
1.084
1.08589
1.0883
1.09123
1.09464
1.09848
1.10266
1.10707
1.11159
1.11614
1.12067
1.12518
1.12973
1.13443
1.13943
1.14494
1.15117
1.1583
1.16646
1.17571
1.186
1.19722
1.20923
1.22183
1.23481
1.24792
1.26097
1.27375
1.2861
1.2979
1.30903
1.31942
1.329
1.33773
1.34559
1.35255
1.3586
1.36372
1.36792
1.37119
1.37352
1.37493
1.3754
1.37493
1.37353
1.3712
1.36792
1.3637
1.35854
1.35243
1.34538
1.33738
1.32844
1.31856
1.30776
1.29605
1.28347
1.27007
1.2559
1.24106
1.22566
1.20985
1.19382
1.1778
1.16206
1.14691
1.13267
1.11964
1.1081
1.09821
1.09009
1.08381
1.07936
1.0766
1.07526
1.07499
1.07544
1.07627
1.07718
1.07792
1.07831
1.07818
1.07747
1.07612
1.07413
1.07155
1.06846
1.06499
1.06126
1.05744
1.05367
1.05009
1.0468
1.04389
1.04143
1.03946
1.038
1.03705
1.03658
1.0366
1.03711
1.03813
1.03966
1.04171
1.04421
1.0471
1.0503
1.05368
1.05712
1.06046
1.06354
1.0662
1.06832
1.06979
1.07054
1.11246
1.11266
1.11308
1.11378
1.11482
1.11625
1.11811
1.12041
1.12316
1.12633
1.12987
1.13371
1.13779
1.14204
1.14639
1.15082
1.15534
1.16
1.16487
1.17008
1.17575
1.18205
1.18908
1.19693
1.20564
1.21517
1.22545
1.23636
1.24775
1.25944
1.27126
1.28303
1.2946
1.30581
1.31656
1.32674
1.33627
1.34509
1.35316
1.36043
1.36689
1.37251
1.37727
1.38117
1.38421
1.38637
1.38765
1.38805
1.38757
1.38621
1.38396
1.38083
1.37681
1.37191
1.36612
1.35946
1.35191
1.34351
1.33424
1.32415
1.31325
1.30158
1.2892
1.27618
1.26259
1.24856
1.23423
1.21977
1.20537
1.19126
1.17769
1.1649
1.15313
1.14259
1.13341
1.1257
1.11949
1.11475
1.11139
1.10919
1.10793
1.10732
1.10712
1.10707
1.10699
1.1067
1.10607
1.10503
1.10353
1.10157
1.09917
1.09639
1.09333
1.09007
1.08675
1.08347
1.08034
1.07745
1.07487
1.07266
1.07086
1.0695
1.06857
1.06809
1.06804
1.06844
1.06927
1.07054
1.07223
1.07429
1.07666
1.07927
1.08202
1.08481
1.0875
1.08997
1.09211
1.09381
1.09499
1.09559
1.14405
1.14428
1.14477
1.14553
1.14662
1.14806
1.14988
1.15209
1.15468
1.15764
1.16094
1.16453
1.16835
1.17237
1.17656
1.18089
1.18537
1.19005
1.19498
1.20025
1.20595
1.21219
1.21903
1.22654
1.23474
1.2436
1.25305
1.26301
1.27335
1.28395
1.29464
1.30531
1.3158
1.32599
1.33579
1.3451
1.35383
1.36195
1.36938
1.3761
1.38207
1.38727
1.39168
1.3953
1.3981
1.40009
1.40125
1.40159
1.4011
1.39977
1.39762
1.39463
1.39081
1.38617
1.3807
1.37441
1.36732
1.35943
1.35076
1.34135
1.33122
1.32041
1.30898
1.297
1.28456
1.27177
1.25875
1.24565
1.23264
1.21992
1.20768
1.19611
1.1854
1.17571
1.16715
1.1598
1.15369
1.14878
1.145
1.1422
1.1402
1.1388
1.1378
1.13701
1.13626
1.13542
1.13438
1.13306
1.13142
1.12945
1.12717
1.12461
1.12185
1.11895
1.11602
1.11312
1.11035
1.10778
1.10547
1.10348
1.10183
1.10056
1.09966
1.09916
1.09905
1.09932
1.09997
1.101
1.10237
1.10405
1.10598
1.1081
1.11033
1.11258
1.11475
1.11674
1.11845
1.11982
1.12077
1.12125
1.17541
1.17566
1.17617
1.17696
1.17806
1.17949
1.18126
1.18337
1.18583
1.18862
1.19172
1.1951
1.19872
1.20255
1.20658
1.2108
1.21521
1.21984
1.22475
1.22999
1.23562
1.24171
1.24832
1.25547
1.26318
1.27142
1.28015
1.28927
1.29871
1.30834
1.31806
1.32775
1.33729
1.34657
1.35551
1.36402
1.37203
1.37947
1.38631
1.3925
1.39801
1.40282
1.4069
1.41023
1.41281
1.41463
1.41568
1.41596
1.41545
1.41417
1.4121
1.40926
1.40564
1.40125
1.39609
1.39017
1.38351
1.37613
1.36803
1.35926
1.34985
1.33985
1.32931
1.31829
1.30689
1.2952
1.28334
1.27144
1.25964
1.2481
1.23699
1.22646
1.21665
1.20769
1.19968
1.19267
1.18668
1.18169
1.17763
1.1744
1.17187
1.16988
1.16827
1.1669
1.16562
1.16434
1.16296
1.1614
1.15963
1.15764
1.15544
1.15304
1.1505
1.14788
1.14524
1.14264
1.14016
1.13785
1.13577
1.13395
1.13243
1.13123
1.13037
1.12984
1.12966
1.12982
1.13031
1.13111
1.13221
1.13356
1.13512
1.13683
1.13863
1.14044
1.14218
1.14377
1.14515
1.14625
1.14701
1.14739
1.20651
1.20677
1.20729
1.20809
1.20918
1.21058
1.21229
1.21431
1.21665
1.2193
1.22223
1.22543
1.22887
1.23254
1.23642
1.24051
1.24482
1.24937
1.25419
1.25933
1.26482
1.27072
1.27706
1.28385
1.29109
1.29877
1.30683
1.31523
1.32386
1.33266
1.34152
1.35034
1.35903
1.3675
1.37566
1.38344
1.39078
1.39761
1.4039
1.40959
1.41467
1.41909
1.42285
1.42592
1.42829
1.42995
1.43088
1.4311
1.43059
1.42934
1.42737
1.42466
1.42124
1.41709
1.41223
1.40668
1.40043
1.39353
1.38598
1.37782
1.36909
1.35983
1.3501
1.33997
1.3295
1.3188
1.30797
1.29712
1.28637
1.27586
1.26572
1.25608
1.24705
1.23873
1.23121
1.22451
1.21867
1.21366
1.20944
1.20592
1.203
1.20057
1.1985
1.19668
1.195
1.19337
1.1917
1.18995
1.18807
1.18605
1.18389
1.18161
1.17924
1.17683
1.17441
1.17205
1.1698
1.1677
1.16579
1.16412
1.16271
1.16157
1.16073
1.16018
1.15994
1.15999
1.16032
1.16093
1.16179
1.16286
1.1641
1.16547
1.16691
1.16836
1.16975
1.17103
1.17213
1.17301
1.17361
1.17393
1.23736
1.23762
1.23814
1.23893
1.24
1.24135
1.243
1.24494
1.24717
1.24968
1.25247
1.25551
1.25879
1.26231
1.26604
1.27
1.27419
1.27862
1.28331
1.28831
1.29363
1.2993
1.30535
1.31177
1.31857
1.32573
1.3332
1.34093
1.34886
1.35691
1.36501
1.37306
1.381
1.38873
1.39619
1.40331
1.41003
1.4163
1.42207
1.4273
1.43197
1.43604
1.43949
1.44231
1.44447
1.44598
1.44681
1.44697
1.44645
1.44524
1.44336
1.44079
1.43755
1.43364
1.42908
1.42386
1.41802
1.41157
1.40454
1.39695
1.38885
1.38028
1.3713
1.36197
1.35235
1.34254
1.33262
1.3227
1.31287
1.30326
1.29396
1.28509
1.27674
1.26899
1.2619
1.25551
1.24983
1.24485
1.24054
1.23683
1.23364
1.23089
1.22849
1.22633
1.22434
1.22243
1.22054
1.21863
1.21665
1.2146
1.21247
1.21027
1.20803
1.20577
1.20353
1.20136
1.19928
1.19735
1.19559
1.19403
1.1927
1.19162
1.19079
1.19022
1.18992
1.18987
1.19007
1.19051
1.19115
1.19198
1.19296
1.19404
1.19518
1.19633
1.19744
1.19846
1.19934
1.20004
1.20052
1.20077
1.26795
1.2682
1.26871
1.26948
1.27052
1.27183
1.27341
1.27527
1.2774
1.2798
1.28245
1.28535
1.28849
1.29185
1.29545
1.29926
1.30331
1.3076
1.31214
1.31696
1.32208
1.3275
1.33325
1.33932
1.3457
1.35237
1.3593
1.36644
1.37373
1.38112
1.38854
1.39591
1.40316
1.41024
1.41706
1.42358
1.42974
1.43548
1.44078
1.44558
1.44986
1.4536
1.45677
1.45935
1.46132
1.46268
1.46342
1.46352
1.46299
1.46183
1.46003
1.4576
1.45454
1.45086
1.44657
1.44168
1.43622
1.4302
1.42365
1.4166
1.40908
1.40115
1.39285
1.38425
1.3754
1.36638
1.35728
1.34817
1.33916
1.33033
1.32177
1.31358
1.30582
1.29858
1.29189
1.28579
1.28029
1.27538
1.27103
1.26721
1.26385
1.26088
1.25822
1.25582
1.25358
1.25146
1.2494
1.24736
1.24531
1.24323
1.24112
1.23898
1.23683
1.23469
1.23259
1.23056
1.22863
1.22683
1.22518
1.22372
1.22246
1.22141
1.22059
1.22
1.21964
1.2195
1.21958
1.21987
1.22033
1.22096
1.22171
1.22255
1.22344
1.22435
1.22523
1.22603
1.22673
1.22728
1.22766
1.22786
1.29828
1.29853
1.29903
1.29977
1.30078
1.30204
1.30356
1.30534
1.30737
1.30966
1.31219
1.31495
1.31795
1.32118
1.32463
1.3283
1.33219
1.33632
1.34069
1.34532
1.35022
1.35538
1.36083
1.36655
1.37253
1.37875
1.38519
1.39179
1.39851
1.40531
1.41211
1.41887
1.42551
1.43199
1.43824
1.44421
1.44985
1.45512
1.45997
1.46438
1.46831
1.47173
1.47463
1.47699
1.47878
1.48001
1.48065
1.48071
1.48018
1.47905
1.47733
1.47503
1.47214
1.46868
1.46465
1.46008
1.45497
1.44935
1.44325
1.4367
1.42973
1.42239
1.41472
1.40677
1.39861
1.39031
1.38193
1.37356
1.36526
1.35712
1.34922
1.34163
1.3344
1.32761
1.32129
1.31547
1.31015
1.30534
1.30101
1.29713
1.29366
1.29054
1.28771
1.28513
1.28272
1.28044
1.27825
1.27611
1.27399
1.27189
1.26979
1.26769
1.26562
1.26357
1.26158
1.25966
1.25784
1.25614
1.25459
1.2532
1.25199
1.25098
1.25016
1.24954
1.24913
1.24892
1.24889
1.24905
1.24936
1.24981
1.25037
1.25101
1.25169
1.2524
1.25308
1.25371
1.25425
1.25469
1.25499
1.25514
1.32837
1.32861
1.32909
1.32981
1.33078
1.33199
1.33344
1.33514
1.33709
1.33927
1.34168
1.34433
1.34719
1.35028
1.35358
1.3571
1.36084
1.3648
1.36899
1.37342
1.37808
1.38299
1.38814
1.39352
1.39912
1.40493
1.4109
1.41702
1.42322
1.42948
1.43574
1.44194
1.44803
1.45397
1.4597
1.46517
1.47034
1.47517
1.47962
1.48365
1.48725
1.49039
1.49304
1.49519
1.49681
1.49791
1.49847
1.49848
1.49795
1.49686
1.49523
1.49304
1.49032
1.48706
1.48329
1.479
1.47423
1.46899
1.46331
1.45722
1.45075
1.44395
1.43685
1.42951
1.42198
1.41432
1.40659
1.39886
1.3912
1.38368
1.37636
1.3693
1.36256
1.35618
1.3502
1.34464
1.33951
1.33482
1.33054
1.32665
1.32312
1.31991
1.31697
1.31425
1.31172
1.30933
1.30704
1.30483
1.30266
1.30054
1.29845
1.29639
1.29437
1.2924
1.29049
1.28866
1.28693
1.28532
1.28384
1.28251
1.28134
1.28034
1.27952
1.27889
1.27843
1.27814
1.27803
1.27807
1.27825
1.27855
1.27894
1.27941
1.27993
1.28046
1.28099
1.28147
1.28189
1.28223
1.28246
1.28258
1.35821
1.35844
1.35891
1.3596
1.36053
1.36169
1.36308
1.36471
1.36656
1.36864
1.37095
1.37347
1.37621
1.37916
1.38232
1.38569
1.38927
1.39305
1.39705
1.40127
1.4057
1.41035
1.41521
1.42027
1.42552
1.43093
1.43649
1.44215
1.44789
1.45366
1.45941
1.46511
1.47071
1.47616
1.48141
1.48643
1.49117
1.49559
1.49967
1.50337
1.50667
1.50953
1.51195
1.5139
1.51538
1.51636
1.51684
1.51681
1.51627
1.51522
1.51366
1.5116
1.50903
1.50597
1.50243
1.49842
1.49396
1.48907
1.48378
1.47812
1.47211
1.4658
1.45923
1.45243
1.44547
1.43839
1.43124
1.4241
1.41701
1.41004
1.40324
1.39666
1.39034
1.38434
1.37868
1.37337
1.36844
1.36387
1.35967
1.35581
1.35227
1.34901
1.346
1.3432
1.34058
1.33811
1.33576
1.33349
1.3313
1.32917
1.32709
1.32506
1.32308
1.32116
1.31932
1.31756
1.3159
1.31436
1.31293
1.31165
1.31051
1.30953
1.30871
1.30805
1.30755
1.3072
1.30701
1.30695
1.30701
1.30719
1.30745
1.30778
1.30815
1.30854
1.30893
1.3093
1.30962
1.30987
1.31005
1.31014
1.38783
1.38805
1.38849
1.38916
1.39005
1.39116
1.39249
1.39404
1.39581
1.3978
1.4
1.40241
1.40502
1.40784
1.41085
1.41407
1.41748
1.42109
1.4249
1.42891
1.43311
1.4375
1.44208
1.44683
1.45174
1.45679
1.46196
1.46721
1.47252
1.47784
1.48315
1.48839
1.49354
1.49854
1.50336
1.50796
1.51231
1.51636
1.5201
1.52349
1.5265
1.52912
1.53133
1.5331
1.53443
1.5353
1.53571
1.53565
1.53511
1.5341
1.53261
1.53065
1.52823
1.52536
1.52203
1.51828
1.51412
1.50956
1.50463
1.49936
1.49378
1.48792
1.48182
1.47552
1.46907
1.46252
1.4559
1.44928
1.44271
1.43623
1.42989
1.42374
1.41782
1.41217
1.4068
1.40174
1.397
1.39257
1.38846
1.38465
1.38112
1.37785
1.37481
1.37197
1.3693
1.36678
1.36438
1.36208
1.35987
1.35774
1.35567
1.35366
1.35173
1.34986
1.34807
1.34637
1.34476
1.34327
1.34189
1.34064
1.33953
1.33856
1.33773
1.33705
1.33651
1.33611
1.33585
1.3357
1.33567
1.33574
1.33588
1.33609
1.33635
1.33662
1.3369
1.33717
1.3374
1.33759
1.33773
1.3378
1.41722
1.41743
1.41786
1.41849
1.41934
1.4204
1.42168
1.42316
1.42485
1.42674
1.42884
1.43113
1.43362
1.43631
1.43918
1.44225
1.4455
1.44893
1.45255
1.45635
1.46032
1.46447
1.46878
1.47323
1.47783
1.48254
1.48734
1.49221
1.49713
1.50205
1.50694
1.51177
1.5165
1.5211
1.52553
1.52975
1.53374
1.53746
1.54088
1.54398
1.54674
1.54913
1.55114
1.55274
1.55394
1.55471
1.55505
1.55495
1.55442
1.55344
1.55203
1.55017
1.54789
1.54519
1.54207
1.53856
1.53467
1.53041
1.52582
1.52091
1.51572
1.51028
1.50461
1.49877
1.49278
1.4867
1.48056
1.47442
1.4683
1.46227
1.45636
1.4506
1.44504
1.43971
1.43461
1.42979
1.42523
1.42096
1.41695
1.41322
1.40973
1.40647
1.40342
1.40056
1.39787
1.39533
1.39291
1.39059
1.38837
1.38624
1.38418
1.3822
1.3803
1.37847
1.37673
1.37507
1.37352
1.37206
1.37072
1.3695
1.36841
1.36744
1.36661
1.36591
1.36533
1.36489
1.36456
1.36435
1.36423
1.36421
1.36426
1.36437
1.36452
1.3647
1.36489
1.36507
1.36524
1.36537
1.36547
1.36552
1.4464
1.4466
1.44701
1.44762
1.44843
1.44944
1.45065
1.45207
1.45368
1.45548
1.45748
1.45966
1.46203
1.46459
1.46733
1.47024
1.47333
1.47659
1.48002
1.48361
1.48737
1.49127
1.49532
1.4995
1.50379
1.50819
1.51266
1.51718
1.52173
1.52628
1.53079
1.53525
1.5396
1.54383
1.5479
1.55178
1.55544
1.55885
1.56198
1.56482
1.56734
1.56952
1.57134
1.5728
1.57387
1.57455
1.57483
1.5747
1.57417
1.57323
1.57188
1.57012
1.56797
1.56543
1.5625
1.55922
1.55558
1.5516
1.54732
1.54275
1.53792
1.53285
1.52759
1.52216
1.5166
1.51094
1.50524
1.49952
1.49382
1.48819
1.48266
1.47727
1.47204
1.467
1.46217
1.45756
1.4532
1.44907
1.44518
1.44153
1.4381
1.43487
1.43185
1.42899
1.4263
1.42375
1.42132
1.419
1.41679
1.41467
1.41263
1.41067
1.4088
1.407
1.4053
1.40368
1.40216
1.40075
1.39944
1.39824
1.39716
1.3962
1.39535
1.39463
1.39403
1.39355
1.39317
1.39289
1.39271
1.3926
1.39257
1.3926
1.39266
1.39276
1.39287
1.39299
1.3931
1.39319
1.39325
1.39329
1.47537
1.47557
1.47596
1.47654
1.47731
1.47828
1.47943
1.48078
1.48231
1.48403
1.48593
1.48801
1.49026
1.49269
1.49529
1.49806
1.50099
1.50408
1.50732
1.51072
1.51426
1.51793
1.52174
1.52565
1.52966
1.53376
1.53792
1.54212
1.54633
1.55054
1.55471
1.55882
1.56283
1.56672
1.57047
1.57403
1.57738
1.58051
1.58338
1.58598
1.58828
1.59026
1.59192
1.59323
1.59419
1.59479
1.59501
1.59486
1.59433
1.59342
1.59213
1.59047
1.58844
1.58605
1.5833
1.58022
1.57682
1.57311
1.56911
1.56485
1.56034
1.55563
1.55073
1.54567
1.5405
1.53524
1.52992
1.52459
1.51928
1.51401
1.50884
1.50377
1.49884
1.49407
1.48949
1.4851
1.48092
1.47694
1.47317
1.46962
1.46626
1.46309
1.46009
1.45726
1.45458
1.45204
1.44962
1.44732
1.44511
1.443
1.44099
1.43905
1.43721
1.43545
1.43378
1.43219
1.43071
1.42932
1.42803
1.42686
1.42578
1.42483
1.42398
1.42324
1.42261
1.42209
1.42167
1.42134
1.4211
1.42093
1.42083
1.42078
1.42078
1.42081
1.42086
1.42092
1.42098
1.42103
1.42107
1.42109
1.50416
1.50434
1.50471
1.50526
1.506
1.50692
1.50802
1.5093
1.51076
1.51239
1.5142
1.51617
1.51831
1.52062
1.52309
1.52571
1.52849
1.53141
1.53448
1.53768
1.54102
1.54447
1.54804
1.5517
1.55545
1.55927
1.56314
1.56704
1.57095
1.57484
1.5787
1.58249
1.58618
1.58977
1.59321
1.59648
1.59956
1.60243
1.60506
1.60743
1.60953
1.61134
1.61284
1.61402
1.61488
1.6154
1.61557
1.6154
1.61487
1.61399
1.61276
1.61119
1.60927
1.60702
1.60444
1.60155
1.59837
1.5949
1.59116
1.58718
1.58298
1.57859
1.57402
1.56931
1.56449
1.55958
1.55463
1.54965
1.54468
1.53975
1.53489
1.53013
1.52548
1.52097
1.51662
1.51243
1.50843
1.5046
1.50096
1.4975
1.49423
1.49112
1.48817
1.48538
1.48273
1.48021
1.47781
1.47552
1.47334
1.47125
1.46926
1.46735
1.46553
1.4638
1.46216
1.46061
1.45915
1.45779
1.45653
1.45536
1.4543
1.45334
1.45249
1.45174
1.45109
1.45054
1.45008
1.44971
1.44941
1.44919
1.44903
1.44893
1.44886
1.44884
1.44883
1.44884
1.44886
1.44889
1.4489
1.44891
1.53275
1.53293
1.53328
1.53381
1.53451
1.53538
1.53643
1.53764
1.53903
1.54058
1.5423
1.54417
1.5462
1.54839
1.55073
1.55321
1.55584
1.5586
1.56149
1.56451
1.56765
1.57089
1.57424
1.57767
1.58117
1.58473
1.58833
1.59195
1.59557
1.59918
1.60274
1.60624
1.60965
1.61295
1.61612
1.61912
1.62195
1.62458
1.62699
1.62916
1.63107
1.63272
1.63408
1.63514
1.6359
1.63635
1.63648
1.63628
1.63576
1.63491
1.63374
1.63225
1.63043
1.62831
1.62589
1.62318
1.6202
1.61695
1.61346
1.60974
1.60582
1.60172
1.59745
1.59306
1.58856
1.58398
1.57935
1.57469
1.57004
1.56542
1.56086
1.55637
1.55198
1.54772
1.54358
1.53959
1.53575
1.53208
1.52856
1.52521
1.52202
1.51899
1.5161
1.51336
1.51075
1.50826
1.50589
1.50363
1.50147
1.49941
1.49744
1.49556
1.49377
1.49207
1.49046
1.48894
1.4875
1.48616
1.48492
1.48377
1.48271
1.48176
1.4809
1.48014
1.47947
1.47889
1.4784
1.47799
1.47765
1.47739
1.47718
1.47702
1.47691
1.47684
1.47679
1.47676
1.47675
1.47675
1.47675
1.47675
1.56117
1.56134
1.56168
1.56218
1.56284
1.56367
1.56467
1.56582
1.56714
1.56861
1.57023
1.57201
1.57394
1.57601
1.57822
1.58057
1.58305
1.58566
1.58839
1.59123
1.59418
1.59722
1.60035
1.60356
1.60683
1.61015
1.61349
1.61686
1.62022
1.62356
1.62685
1.63008
1.63323
1.63627
1.63918
1.64195
1.64454
1.64695
1.64916
1.65114
1.65288
1.65438
1.65561
1.65656
1.65724
1.65762
1.65771
1.65749
1.65698
1.65616
1.65504
1.65362
1.65191
1.64991
1.64763
1.64509
1.64229
1.63925
1.63598
1.6325
1.62884
1.625
1.62102
1.61692
1.61271
1.60843
1.6041
1.59974
1.59538
1.59104
1.58674
1.58251
1.57837
1.57432
1.57039
1.56659
1.56292
1.55939
1.556
1.55276
1.54967
1.54671
1.54389
1.5412
1.53864
1.53619
1.53386
1.53163
1.5295
1.52747
1.52553
1.52368
1.52192
1.52025
1.51867
1.51717
1.51576
1.51444
1.51321
1.51207
1.51103
1.51008
1.50922
1.50844
1.50776
1.50716
1.50664
1.5062
1.50583
1.50552
1.50527
1.50508
1.50493
1.50481
1.50473
1.50467
1.50463
1.5046
1.50459
1.50458
1.58943
1.58959
1.5899
1.59038
1.59101
1.5918
1.59274
1.59384
1.59508
1.59648
1.59802
1.5997
1.60153
1.60349
1.60558
1.6078
1.61014
1.61259
1.61516
1.61784
1.6206
1.62346
1.62639
1.62939
1.63244
1.63553
1.63865
1.64177
1.64489
1.64798
1.65103
1.65401
1.65692
1.65972
1.6624
1.66494
1.66732
1.66953
1.67155
1.67336
1.67495
1.6763
1.67741
1.67827
1.67887
1.67919
1.67924
1.67901
1.6785
1.67771
1.67664
1.67529
1.67367
1.67178
1.66964
1.66725
1.66462
1.66177
1.65871
1.65545
1.65202
1.64844
1.64471
1.64087
1.63694
1.63293
1.62887
1.62478
1.62069
1.61661
1.61256
1.60857
1.60465
1.60082
1.59708
1.59345
1.58994
1.58656
1.5833
1.58017
1.57717
1.5743
1.57155
1.56892
1.56641
1.56401
1.56172
1.55953
1.55744
1.55544
1.55354
1.55172
1.54999
1.54834
1.54678
1.54531
1.54393
1.54263
1.54141
1.54029
1.53925
1.5383
1.53744
1.53666
1.53596
1.53535
1.53481
1.53434
1.53394
1.5336
1.53332
1.53309
1.5329
1.53275
1.53264
1.53255
1.53249
1.53245
1.53242
1.53241
1.61752
1.61767
1.61797
1.61843
1.61902
1.61977
1.62067
1.6217
1.62288
1.6242
1.62566
1.62726
1.62898
1.63083
1.63281
1.6349
1.63711
1.63942
1.64184
1.64435
1.64694
1.64962
1.65236
1.65516
1.65801
1.66089
1.66379
1.66669
1.66958
1.67245
1.67527
1.67802
1.6807
1.68328
1.68575
1.68809
1.69027
1.6923
1.69414
1.6958
1.69724
1.69847
1.69947
1.70024
1.70076
1.70103
1.70105
1.7008
1.7003
1.69953
1.69851
1.69723
1.69569
1.69391
1.69189
1.68964
1.68718
1.6845
1.68163
1.67858
1.67537
1.67201
1.66852
1.66492
1.66123
1.65748
1.65367
1.64983
1.64598
1.64214
1.63833
1.63456
1.63085
1.62721
1.62366
1.6202
1.61685
1.6136
1.61046
1.60745
1.60454
1.60176
1.59909
1.59653
1.59407
1.59173
1.58948
1.58733
1.58528
1.58332
1.58145
1.57966
1.57796
1.57635
1.57482
1.57337
1.57201
1.57073
1.56953
1.56842
1.56739
1.56644
1.56558
1.56479
1.56409
1.56346
1.5629
1.56241
1.56199
1.56162
1.56131
1.56105
1.56084
1.56066
1.56052
1.56041
1.56033
1.56027
1.56024
1.56022
1.64547
1.64561
1.64589
1.64632
1.64689
1.6476
1.64844
1.64943
1.65054
1.65179
1.65317
1.65468
1.65631
1.65805
1.65992
1.66189
1.66397
1.66614
1.66842
1.67077
1.67321
1.67571
1.67828
1.68089
1.68355
1.68623
1.68893
1.69162
1.69431
1.69696
1.69957
1.70211
1.70459
1.70696
1.70924
1.71138
1.71339
1.71524
1.71693
1.71844
1.71976
1.72087
1.72177
1.72245
1.72291
1.72313
1.72311
1.72286
1.72236
1.72162
1.72064
1.71942
1.71797
1.71628
1.71438
1.71226
1.70994
1.70743
1.70473
1.70187
1.69886
1.69571
1.69244
1.68906
1.6856
1.68208
1.6785
1.67489
1.67127
1.66765
1.66406
1.66049
1.65698
1.65352
1.65014
1.64685
1.64364
1.64053
1.63751
1.6346
1.6318
1.6291
1.62651
1.62402
1.62163
1.61934
1.61714
1.61504
1.61303
1.61111
1.60927
1.60752
1.60585
1.60427
1.60277
1.60134
1.6
1.59874
1.59756
1.59646
1.59544
1.5945
1.59364
1.59285
1.59214
1.59149
1.59092
1.59042
1.58997
1.58959
1.58925
1.58897
1.58873
1.58854
1.58838
1.58825
1.58815
1.58808
1.58803
1.58801
1.67327
1.6734
1.67367
1.67408
1.67461
1.67528
1.67608
1.67701
1.67807
1.67925
1.68055
1.68197
1.68351