/*--------------------------------*- C++ -*----------------------------------*\
| =========                 |                                                 |
| \\      /  F ield         | OpenFOAM: The Open Source CFD Toolbox           |
|  \\    /   O peration     | Version:  2406                                  |
|   \\  /    A nd           | Website:  www.openfoam.com                      |
|    \\/     M anipulation  |                                                 |
\*---------------------------------------------------------------------------*/
FoamFile
{
    version     2.0;
    format      ascii;
    arch        "LSB;label=32;scalar=64";
    class       volScalarField;
    location    "0.25";
    object      C;
}
// * * * * * * * * * * * * * * * * * * * * * * * * * * * * * * * * * * * * * //

dimensions      [1 -3 0 0 0 0 0];

internalField   nonuniform List<scalar> 
14400
(
3.8898
3.88956
3.88903
3.88818
3.88688
3.8849
3.88166
3.87444
3.88199
3.88551
3.8878
3.88941
3.89059
3.89146
3.89208
3.89249
3.8927
3.89272
3.89253
3.8921
3.89136
3.8902
3.88837
3.8853
3.8783
3.8861
3.88987
3.89243
3.89435
3.89587
3.89712
3.89817
3.89906
3.89983
3.90049
3.90106
3.90156
3.90197
3.90233
3.90262
3.90286
3.90304
3.90317
3.90325
3.90328
3.90326
3.9032
3.90309
3.90294
3.90274
3.90249
3.90219
3.90185
3.90145
3.90101
3.90051
3.89995
3.89933
3.89865
3.8979
3.89707
3.89616
3.89515
3.89404
3.89281
3.89145
3.88991
3.88816
3.88616
3.8838
3.88093
3.87728
3.87223
3.86256
3.86699
3.86662
3.86129
3.87007
3.87432
3.87714
3.87916
3.88065
3.88177
3.88259
3.88319
3.88357
3.88378
3.88381
3.88367
3.88335
3.88286
3.88216
3.88121
3.87994
3.87824
3.87585
3.87222
3.86454
3.87158
3.87464
3.87641
3.87746
3.87802
3.87818
3.87796
3.87735
3.87625
3.87442
3.87131
3.86422
3.87185
3.87543
3.87778
3.87944
3.88068
3.8816
3.88228
3.88277
3.88308
3.88324
3.89005
3.88983
3.88936
3.88863
3.88757
3.88614
3.88437
3.88284
3.88468
3.88674
3.88847
3.88984
3.8909
3.8917
3.89229
3.89268
3.8929
3.89293
3.89277
3.8924
3.89178
3.89087
3.8896
3.88801
3.88669
3.88876
3.89107
3.89308
3.89475
3.89614
3.89732
3.89832
3.89919
3.89994
3.90058
3.90114
3.90163
3.90204
3.90239
3.90268
3.90291
3.90309
3.90322
3.90329
3.90332
3.90331
3.90324
3.90314
3.90298
3.90278
3.90253
3.90224
3.9019
3.90151
3.90106
3.90056
3.90001
3.8994
3.89872
3.89797
3.89715
3.89625
3.89526
3.89416
3.89295
3.89161
3.89011
3.88843
3.88651
3.8843
3.88172
3.87868
3.87514
3.87157
3.87103
3.87062
3.87031
3.87303
3.87574
3.87795
3.87968
3.88102
3.88206
3.88283
3.88339
3.88376
3.88395
3.88397
3.88384
3.88354
3.88307
3.8824
3.88152
3.88038
3.87892
3.8771
3.87492
3.87295
3.87432
3.87591
3.87714
3.87796
3.87842
3.87855
3.87836
3.87785
3.87697
3.87569
3.87404
3.87262
3.87454
3.87667
3.87846
3.87988
3.88098
3.88184
3.88248
3.88294
3.88324
3.88339
3.89053
3.89034
3.88997
3.8894
3.88863
3.88773
3.88684
3.88639
3.88713
3.88831
3.88952
3.89058
3.89146
3.89216
3.89269
3.89306
3.89327
3.89333
3.89322
3.89295
3.8925
3.89189
3.89114
3.89044
3.89019
3.89116
3.89259
3.89406
3.89542
3.89663
3.89769
3.89862
3.89943
3.90014
3.90076
3.9013
3.90177
3.90217
3.90251
3.90279
3.90302
3.90319
3.90331
3.90339
3.90342
3.9034
3.90334
3.90323
3.90307
3.90287
3.90263
3.90234
3.902
3.90161
3.90117
3.90068
3.90013
3.89952
3.89886
3.89812
3.89731
3.89643
3.89546
3.8944
3.89323
3.89194
3.89051
3.88892
3.88715
3.88518
3.88297
3.88057
3.87808
3.87594
3.87493
3.87452
3.8747
3.87601
3.87766
3.87923
3.88059
3.88171
3.8826
3.88329
3.88378
3.88411
3.88429
3.8843
3.88418
3.8839
3.88346
3.88286
3.88209
3.88113
3.87998
3.87869
3.87739
3.87652
3.87683
3.87756
3.87827
3.87882
3.87914
3.87923
3.87909
3.87871
3.8781
3.87733
3.87655
3.87619
3.87701
3.87826
3.87951
3.88062
3.88154
3.88229
3.88286
3.88328
3.88355
3.88369
3.89118
3.89104
3.89076
3.89035
3.88984
3.8893
3.88886
3.88874
3.88914
3.88987
3.8907
3.8915
3.89221
3.8928
3.89326
3.8936
3.89381
3.89389
3.89384
3.89368
3.8934
3.89304
3.89266
3.8924
3.89248
3.8931
3.89407
3.89516
3.89624
3.89726
3.89819
3.89903
3.89977
3.90044
3.90102
3.90153
3.90198
3.90236
3.90269
3.90296
3.90318
3.90334
3.90346
3.90353
3.90356
3.90354
3.90347
3.90336
3.90321
3.90301
3.90277
3.90248
3.90215
3.90176
3.90133
3.90085
3.90031
3.89971
3.89906
3.89834
3.89756
3.8967
3.89576
3.89474
3.89362
3.8924
3.89106
3.8896
3.88801
3.88628
3.88443
3.88253
3.88069
3.87917
3.87824
3.87783
3.87795
3.87865
3.87966
3.88074
3.88175
3.88262
3.88335
3.88393
3.88435
3.88463
3.88477
3.88478
3.88466
3.88441
3.88402
3.8835
3.88285
3.88207
3.88119
3.88027
3.87945
3.87893
3.87891
3.87921
3.87958
3.8799
3.8801
3.88015
3.88004
3.87979
3.87941
3.87898
3.87863
3.87859
3.87906
3.87984
3.88071
3.88154
3.88228
3.8829
3.8834
3.88376
3.884
3.88412
3.89199
3.89188
3.89168
3.89141
3.89108
3.89077
3.89056
3.89056
3.89084
3.89132
3.89191
3.89251
3.89307
3.89356
3.89396
3.89426
3.89446
3.89457
3.89458
3.89451
3.89437
3.8942
3.89406
3.89403
3.89422
3.89471
3.89542
3.89626
3.89713
3.89798
3.89878
3.89953
3.9002
3.90081
3.90135
3.90183
3.90225
3.90261
3.90292
3.90318
3.90338
3.90354
3.90365
3.90372
3.90374
3.90372
3.90365
3.90355
3.90339
3.9032
3.90296
3.90267
3.90234
3.90197
3.90154
3.90107
3.90054
3.89996
3.89933
3.89863
3.89787
3.89705
3.89615
3.89517
3.89412
3.89297
3.89174
3.89041
3.88899
3.88749
3.88595
3.88441
3.88299
3.88182
3.88102
3.88061
3.88061
3.88098
3.88159
3.88231
3.88303
3.88369
3.88426
3.88471
3.88506
3.88529
3.8854
3.88539
3.88528
3.88505
3.88472
3.88427
3.88373
3.88311
3.88244
3.88177
3.8812
3.88081
3.8807
3.88078
3.88094
3.8811
3.88121
3.88123
3.88115
3.88099
3.88076
3.88054
3.88041
3.88047
3.88079
3.88132
3.88194
3.88257
3.88315
3.88365
3.88406
3.88437
3.88458
3.88468
3.89289
3.89282
3.89269
3.89251
3.89231
3.89215
3.89206
3.89211
3.89232
3.89267
3.8931
3.89356
3.894
3.89441
3.89475
3.89502
3.89522
3.89535
3.89541
3.89541
3.89538
3.89534
3.89534
3.89543
3.89567
3.89609
3.89666
3.89732
3.89803
3.89875
3.89944
3.90009
3.9007
3.90125
3.90174
3.90219
3.90258
3.90292
3.90321
3.90345
3.90364
3.90379
3.90389
3.90395
3.90397
3.90395
3.90388
3.90377
3.90362
3.90342
3.90319
3.90291
3.90259
3.90222
3.9018
3.90134
3.90083
3.90027
3.89965
3.89898
3.89825
3.89746
3.89661
3.89569
3.8947
3.89364
3.89251
3.89131
3.89005
3.88876
3.88745
3.88619
3.88504
3.88409
3.8834
3.883
3.8829
3.88306
3.88342
3.88388
3.88437
3.88485
3.88527
3.88562
3.88588
3.88605
3.88613
3.88612
3.88601
3.88581
3.88552
3.88514
3.8847
3.8842
3.88368
3.88318
3.88275
3.88244
3.88229
3.88226
3.8823
3.88236
3.8824
3.8824
3.88234
3.88224
3.88212
3.88202
3.88199
3.88208
3.88233
3.88271
3.88316
3.88363
3.88408
3.88449
3.88482
3.88508
3.88525
3.88534
3.89386
3.89382
3.89373
3.89363
3.89352
3.89344
3.89342
3.89349
3.89367
3.89393
3.89426
3.89462
3.89498
3.89531
3.89561
3.89586
3.89605
3.89619
3.89629
3.89635
3.8964
3.89644
3.89653
3.89668
3.89694
3.89731
3.89779
3.89834
3.89893
3.89954
3.90014
3.90071
3.90124
3.90174
3.90219
3.9026
3.90296
3.90327
3.90354
3.90376
3.90394
3.90408
3.90418
3.90423
3.90424
3.90421
3.90414
3.90404
3.90389
3.90369
3.90346
3.90319
3.90287
3.90251
3.90211
3.90166
3.90117
3.90063
3.90003
3.89939
3.8987
3.89795
3.89714
3.89628
3.89535
3.89438
3.89335
3.89227
3.89116
3.89003
3.88892
3.88785
3.8869
3.88609
3.88549
3.8851
3.88493
3.88496
3.88513
3.88541
3.88573
3.88606
3.88635
3.88661
3.8868
3.88692
3.88696
3.88693
3.88683
3.88665
3.8864
3.88608
3.88572
3.88532
3.88491
3.88451
3.88417
3.88391
3.88375
3.88367
3.88365
3.88365
3.88364
3.88362
3.88358
3.88352
3.88346
3.88342
3.88344
3.88354
3.88374
3.88403
3.88436
3.88472
3.88507
3.88539
3.88566
3.88587
3.88601
3.88608
3.89488
3.89485
3.8948
3.89475
3.89469
3.89467
3.89469
3.89477
3.89492
3.89514
3.8954
3.89569
3.89598
3.89626
3.89652
3.89674
3.89693
3.89709
3.89721
3.89731
3.89741
3.89751
3.89765
3.89784
3.8981
3.89844
3.89885
3.89932
3.89982
3.90034
3.90086
3.90136
3.90183
3.90228
3.90268
3.90305
3.90338
3.90367
3.90392
3.90412
3.90429
3.90441
3.9045
3.90455
3.90455
3.90452
3.90445
3.90434
3.90419
3.90401
3.90378
3.90351
3.9032
3.90285
3.90246
3.90203
3.90156
3.90103
3.90047
3.89985
3.89919
3.89848
3.89773
3.89692
3.89607
3.89517
3.89423
3.89326
3.89228
3.89129
3.89033
3.88942
3.8886
3.8879
3.88735
3.88698
3.88676
3.8867
3.88675
3.8869
3.88709
3.88729
3.88749
3.88766
3.88778
3.88785
3.88787
3.88783
3.88772
3.88756
3.88734
3.88708
3.88677
3.88645
3.88611
3.8858
3.88552
3.88529
3.88513
3.88503
3.88496
3.88493
3.8849
3.88487
3.88484
3.8848
3.88477
3.88477
3.88481
3.88491
3.88507
3.88529
3.88555
3.88582
3.88609
3.88634
3.88656
3.88672
3.88684
3.8869
3.89592
3.89591
3.89589
3.89586
3.89584
3.89585
3.89589
3.89598
3.89611
3.89629
3.89651
3.89675
3.89699
3.89723
3.89746
3.89766
3.89785
3.89801
3.89815
3.89828
3.8984
3.89854
3.89871
3.89892
3.89917
3.89949
3.89985
3.90026
3.90069
3.90114
3.90159
3.90203
3.90245
3.90285
3.90322
3.90355
3.90385
3.90411
3.90434
3.90452
3.90467
3.90479
3.90486
3.9049
3.9049
3.90487
3.9048
3.90469
3.90454
3.90436
3.90413
3.90387
3.90357
3.90324
3.90286
3.90244
3.90199
3.90149
3.90095
3.90036
3.89974
3.89907
3.89836
3.89761
3.89682
3.896
3.89515
3.89427
3.89339
3.89252
3.89168
3.89089
3.89017
3.88955
3.88906
3.88869
3.88844
3.88832
3.88829
3.88833
3.88842
3.88854
3.88865
3.88875
3.88882
3.88885
3.88884
3.88878
3.88868
3.88853
3.88833
3.88811
3.88785
3.88758
3.8873
3.88704
3.8868
3.88661
3.88645
3.88634
3.88626
3.8862
3.88616
3.88612
3.88609
3.88607
3.88606
3.88607
3.88612
3.88621
3.88634
3.88651
3.88671
3.88692
3.88713
3.88733
3.8875
3.88763
3.88773
3.88777
3.89698
3.89698
3.89697
3.89696
3.89697
3.89699
3.89705
3.89713
3.89726
3.89741
3.8976
3.8978
3.89801
3.89822
3.89842
3.89861
3.89878
3.89895
3.8991
3.89924
3.89939
3.89955
3.89973
3.89995
3.9002
3.90048
3.90081
3.90117
3.90155
3.90194
3.90234
3.90273
3.9031
3.90345
3.90378
3.90408
3.90435
3.90459
3.90479
3.90496
3.9051
3.9052
3.90526
3.9053
3.90529
3.90525
3.90518
3.90507
3.90492
3.90474
3.90453
3.90427
3.90398
3.90366
3.9033
3.9029
3.90246
3.90198
3.90147
3.90092
3.90033
3.8997
3.89903
3.89834
3.89761
3.89685
3.89608
3.89529
3.89451
3.89373
3.89298
3.89228
3.89165
3.89109
3.89063
3.89027
3.89001
3.88984
3.88975
3.88973
3.88974
3.88978
3.88983
3.88987
3.88989
3.88989
3.88985
3.88978
3.88968
3.88954
3.88936
3.88916
3.88894
3.88871
3.88848
3.88826
3.88805
3.88788
3.88773
3.88762
3.88753
3.88746
3.88741
3.88737
3.88734
3.88732
3.88732
3.88734
3.88738
3.88746
3.88757
3.8877
3.88786
3.88803
3.88819
3.88835
3.88848
3.88859
3.88866
3.8887
3.89805
3.89805
3.89805
3.89806
3.89808
3.89811
3.89817
3.89826
3.89837
3.89851
3.89867
3.89884
3.89902
3.89921
3.89939
3.89957
3.89974
3.8999
3.90005
3.90021
3.90037
3.90054
3.90073
3.90094
3.90118
3.90144
3.90174
3.90206
3.9024
3.90274
3.90309
3.90343
3.90376
3.90408
3.90437
3.90464
3.90488
3.9051
3.90528
3.90543
3.90555
3.90564
3.9057
3.90572
3.90571
3.90567
3.90559
3.90549
3.90534
3.90517
3.90496
3.90471
3.90443
3.90412
3.90377
3.90339
3.90297
3.90252
3.90203
3.90151
3.90095
3.90036
3.89974
3.8991
3.89842
3.89773
3.89703
3.89631
3.8956
3.89491
3.89424
3.89361
3.89304
3.89253
3.8921
3.89175
3.89148
3.89129
3.89115
3.89107
3.89103
3.89102
3.89101
3.891
3.89099
3.89095
3.8909
3.89082
3.89071
3.89058
3.89042
3.89024
3.89005
3.88985
3.88965
3.88945
3.88927
3.88912
3.88898
3.88887
3.88878
3.88871
3.88865
3.88861
3.88858
3.88856
3.88856
3.88858
3.88862
3.88868
3.88877
3.88888
3.889
3.88913
3.88926
3.88938
3.88949
3.88957
3.88963
3.88966
3.89911
3.89911
3.89912
3.89914
3.89917
3.89921
3.89927
3.89935
3.89946
3.89958
3.89972
3.89987
3.90003
3.9002
3.90037
3.90053
3.90069
3.90085
3.90101
3.90117
3.90133
3.90151
3.90169
3.9019
3.90213
3.90238
3.90265
3.90293
3.90323
3.90354
3.90385
3.90415
3.90445
3.90473
3.90499
3.90523
3.90544
3.90564
3.9058
3.90594
3.90604
3.90612
3.90617
3.90618
3.90617
3.90612
3.90605
3.90594
3.9058
3.90562
3.90542
3.90518
3.90491
3.90461
3.90428
3.90391
3.90351
3.90308
3.90262
3.90213
3.90161
3.90106
3.90048
3.89988
3.89926
3.89862
3.89798
3.89733
3.89669
3.89606
3.89546
3.89489
3.89437
3.8939
3.8935
3.89316
3.89288
3.89266
3.8925
3.89239
3.8923
3.89224
3.89219
3.89215
3.8921
3.89205
3.89197
3.89188
3.89177
3.89164
3.89149
3.89133
3.89116
3.89098
3.89081
3.89063
3.89048
3.89033
3.89021
3.8901
3.89001
3.88994
3.88988
3.88983
3.8898
3.88979
3.88979
3.8898
3.88983
3.88988
3.88995
3.89004
3.89013
3.89023
3.89034
3.89043
3.89051
3.89058
3.89062
3.89065
3.90017
3.90017
3.90019
3.90021
3.90024
3.90029
3.90035
3.90043
3.90052
3.90063
3.90076
3.9009
3.90104
3.90119
3.90135
3.9015
3.90166
3.90181
3.90197
3.90212
3.90229
3.90246
3.90264
3.90284
3.90306
3.90329
3.90354
3.90379
3.90406
3.90434
3.90461
3.90488
3.90514
3.90539
3.90562
3.90584
3.90603
3.9062
3.90635
3.90647
3.90656
3.90663
3.90667
3.90667
3.90665
3.90661
3.90653
3.90642
3.90628
3.90611
3.90591
3.90568
3.90543
3.90514
3.90482
3.90447
3.90409
3.90368
3.90324
3.90278
3.90229
3.90178
3.90124
3.90068
3.90011
3.89952
3.89893
3.89834
3.89776
3.89719
3.89664
3.89612
3.89564
3.89521
3.89482
3.89449
3.89422
3.89399
3.89381
3.89366
3.89355
3.89345
3.89338
3.8933
3.89323
3.89315
3.89306
3.89296
3.89285
3.89272
3.89258
3.89243
3.89228
3.89212
3.89196
3.89181
3.89166
3.89153
3.89141
3.89131
3.89122
3.89115
3.89109
3.89105
3.89101
3.891
3.89099
3.891
3.89103
3.89107
3.89112
3.89119
3.89126
3.89134
3.89142
3.89149
3.89156
3.89161
3.89164
3.89166
3.90122
3.90123
3.90124
3.90127
3.9013
3.90135
3.90141
3.90148
3.90157
3.90167
3.90179
3.90191
3.90205
3.90218
3.90233
3.90247
3.90262
3.90277
3.90292
3.90307
3.90323
3.9034
3.90358
3.90377
3.90397
3.90418
3.90441
3.90465
3.90489
3.90513
3.90538
3.90562
3.90585
3.90607
3.90628
3.90647
3.90664
3.90679
3.90692
3.90703
3.90711
3.90716
3.90719
3.90719
3.90717
3.90712
3.90704
3.90693
3.90679
3.90663
3.90644
3.90622
3.90597
3.90569
3.90539
3.90505
3.90469
3.90431
3.9039
3.90346
3.903
3.90252
3.90202
3.9015
3.90097
3.90043
3.89989
3.89935
3.89881
3.89829
3.89779
3.89731
3.89687
3.89646
3.8961
3.89578
3.8955
3.89527
3.89507
3.89491
3.89477
3.89465
3.89455
3.89445
3.89436
3.89427
3.89417
3.89406
3.89394
3.89382
3.89368
3.89354
3.8934
3.89325
3.89311
3.89297
3.89283
3.89271
3.8926
3.8925
3.89242
3.89235
3.89229
3.89224
3.89221
3.89219
3.89218
3.89219
3.8922
3.89223
3.89228
3.89233
3.89238
3.89244
3.8925
3.89256
3.89261
3.89265
3.89268
3.89269
3.90227
3.90228
3.90229
3.90232
3.90235
3.9024
3.90246
3.90253
3.90261
3.9027
3.90281
3.90292
3.90304
3.90317
3.9033
3.90344
3.90358
3.90372
3.90387
3.90401
3.90417
3.90433
3.9045
3.90468
3.90487
3.90507
3.90528
3.90549
3.90571
3.90593
3.90615
3.90636
3.90657
3.90677
3.90695
3.90712
3.90727
3.90741
3.90752
3.90761
3.90768
3.90772
3.90775
3.90774
3.90771
3.90766
3.90758
3.90747
3.90734
3.90718
3.90699
3.90678
3.90654
3.90627
3.90598
3.90567
3.90533
3.90496
3.90457
3.90416
3.90373
3.90328
3.90281
3.90233
3.90184
3.90134
3.90084
3.90034
3.89985
3.89937
3.89891
3.89847
3.89806
3.89768
3.89733
3.89702
3.89675
3.89651
3.89631
3.89613
3.89597
3.89584
3.89571
3.8956
3.89549
3.89538
3.89528
3.89516
3.89504
3.89492
3.89479
3.89466
3.89452
3.89438
3.89425
3.89412
3.894
3.89388
3.89378
3.89369
3.89361
3.89354
3.89348
3.89343
3.8934
3.89337
3.89336
3.89336
3.89337
3.89339
3.89342
3.89346
3.8935
3.89355
3.89359
3.89364
3.89368
3.89371
3.89373
3.89374
3.90331
3.90331
3.90333
3.90336
3.90339
3.90344
3.90349
3.90356
3.90363
3.90372
3.90382
3.90392
3.90403
3.90415
3.90428
3.9044
3.90453
3.90467
3.90481
3.90495
3.9051
3.90526
3.90542
3.90559
3.90576
3.90595
3.90613
3.90633
3.90653
3.90672
3.90692
3.90711
3.9073
3.90747
3.90764
3.90779
3.90792
3.90804
3.90814
3.90822
3.90827
3.90831
3.90832
3.90831
3.90828
3.90822
3.90814
3.90804
3.90791
3.90775
3.90757
3.90737
3.90714
3.90688
3.90661
3.90631
3.90598
3.90564
3.90527
3.90488
3.90448
3.90406
3.90362
3.90318
3.90272
3.90226
3.90179
3.90133
3.90088
3.90044
3.90001
3.8996
3.89921
3.89886
3.89853
3.89823
3.89796
3.89772
3.89751
3.89732
3.89716
3.89701
3.89687
3.89674
3.89662
3.89651
3.89639
3.89627
3.89615
3.89603
3.8959
3.89577
3.89564
3.89551
3.89539
3.89527
3.89515
3.89504
3.89495
3.89486
3.89478
3.89471
3.89465
3.89461
3.89457
3.89454
3.89453
3.89452
3.89452
3.89454
3.89456
3.89459
3.89462
3.89465
3.89469
3.89472
3.89475
3.89477
3.89479
3.8948
3.90433
3.90434
3.90436
3.90438
3.90442
3.90446
3.90451
3.90458
3.90465
3.90473
3.90482
3.90491
3.90502
3.90513
3.90524
3.90536
3.90549
3.90562
3.90575
3.90588
3.90602
3.90617
3.90632
3.90648
3.90665
3.90682
3.90699
3.90717
3.90734
3.90752
3.9077
3.90787
3.90803
3.90819
3.90834
3.90847
3.90859
3.90869
3.90878
3.90884
3.90889
3.90892
3.90892
3.90891
3.90887
3.90881
3.90873
3.90863
3.9085
3.90835
3.90817
3.90798
3.90776
3.90752
3.90725
3.90697
3.90666
3.90633
3.90599
3.90562
3.90524
3.90485
3.90444
3.90403
3.9036
3.90317
3.90274
3.90232
3.9019
3.90148
3.90109
3.9007
3.90034
3.90001
3.89969
3.8994
3.89914
3.8989
3.89869
3.8985
3.89832
3.89816
3.89802
3.89788
3.89775
3.89763
3.8975
3.89738
3.89726
3.89713
3.89701
3.89689
3.89676
3.89664
3.89652
3.89641
3.8963
3.8962
3.8961
3.89602
3.89594
3.89587
3.89582
3.89577
3.89573
3.8957
3.89568
3.89567
3.89567
3.89568
3.89569
3.89571
3.89573
3.89575
3.89578
3.8958
3.89583
3.89584
3.89586
3.89586
3.90536
3.90536
3.90538
3.9054
3.90544
3.90548
3.90553
3.90559
3.90565
3.90573
3.90581
3.9059
3.906
3.9061
3.90621
3.90632
3.90644
3.90656
3.90668
3.90681
3.90694
3.90708
3.90722
3.90737
3.90752
3.90768
3.90784
3.908
3.90816
3.90832
3.90848
3.90863
3.90878
3.90892
3.90905
3.90917
3.90927
3.90936
3.90943
3.90949
3.90953
3.90955
3.90955
3.90953
3.90949
3.90943
3.90934
3.90924
3.90912
3.90897
3.9088
3.90861
3.9084
3.90817
3.90792
3.90765
3.90736
3.90705
3.90672
3.90638
3.90602
3.90566
3.90527
3.90489
3.90449
3.90409
3.90369
3.90329
3.9029
3.90252
3.90215
3.90179
3.90145
3.90113
3.90083
3.90055
3.9003
3.90006
3.89985
3.89965
3.89947
3.89931
3.89916
3.89901
3.89888
3.89874
3.89862
3.89849
3.89837
3.89824
3.89812
3.898
3.89788
3.89776
3.89765
3.89754
3.89744
3.89734
3.89725
3.89717
3.89709
3.89703
3.89697
3.89692
3.89688
3.89685
3.89683
3.89682
3.89681
3.89681
3.89681
3.89683
3.89684
3.89686
3.89687
3.89689
3.89691
3.89692
3.89693
3.89693
3.90637
3.90638
3.90639
3.90641
3.90645
3.90648
3.90653
3.90659
3.90665
3.90672
3.9068
3.90688
3.90697
3.90706
3.90717
3.90727
3.90738
3.90749
3.90761
3.90773
3.90786
3.90799
3.90812
3.90826
3.9084
3.90854
3.90869
3.90883
3.90898
3.90913
3.90927
3.9094
3.90954
3.90966
3.90977
3.90988
3.90997
3.91004
3.91011
3.91015
3.91018
3.91019
3.91019
3.91017
3.91012
3.91006
3.90998
3.90988
3.90975
3.90961
3.90945
3.90927
3.90907
3.90884
3.90861
3.90835
3.90807
3.90778
3.90747
3.90715
3.90682
3.90647
3.90611
3.90575
3.90538
3.90501
3.90464
3.90427
3.9039
3.90354
3.90319
3.90286
3.90254
3.90223
3.90195
3.90168
3.90143
3.9012
3.90099
3.90079
3.90061
3.90044
3.90028
3.90013
3.89999
3.89986
3.89973
3.8996
3.89948
3.89935
3.89923
3.89911
3.899
3.89888
3.89877
3.89867
3.89857
3.89848
3.89839
3.89831
3.89824
3.89817
3.89812
3.89807
3.89803
3.89799
3.89797
3.89795
3.89794
3.89793
3.89793
3.89794
3.89795
3.89796
3.89797
3.89798
3.89799
3.898
3.89801
3.89801
3.90737
3.90738
3.9074
3.90742
3.90745
3.90748
3.90753
3.90758
3.90764
3.9077
3.90777
3.90785
3.90794
3.90802
3.90812
3.90822
3.90832
3.90843
3.90854
3.90865
3.90877
3.90889
3.90901
3.90914
3.90927
3.9094
3.90953
3.90967
3.9098
3.90993
3.91006
3.91018
3.9103
3.91041
3.91051
3.9106
3.91068
3.91074
3.91079
3.91083
3.91085
3.91086
3.91085
3.91082
3.91078
3.91071
3.91063
3.91053
3.91041
3.91027
3.91012
3.90994
3.90975
3.90954
3.90931
3.90907
3.9088
3.90853
3.90824
3.90794
3.90762
3.9073
3.90696
3.90662
3.90628
3.90593
3.90558
3.90523
3.90489
3.90456
3.90423
3.90391
3.90361
3.90332
3.90305
3.90279
3.90255
3.90232
3.90211
3.90191
3.90173
3.90156
3.9014
3.90125
3.90111
3.90097
3.90084
3.90071
3.90058
3.90046
3.90034
3.90022
3.90011
3.9
3.89989
3.89979
3.8997
3.89961
3.89952
3.89944
3.89937
3.89931
3.89925
3.8992
3.89916
3.89913
3.8991
3.89908
3.89906
3.89905
3.89905
3.89905
3.89905
3.89906
3.89906
3.89907
3.89908
3.89908
3.89909
3.89909
3.90837
3.90838
3.90839
3.90841
3.90844
3.90848
3.90852
3.90856
3.90862
3.90868
3.90875
3.90882
3.9089
3.90898
3.90907
3.90916
3.90926
3.90935
3.90946
3.90956
3.90967
3.90979
3.9099
3.91002
3.91014
3.91026
3.91038
3.9105
3.91062
3.91074
3.91085
3.91096
3.91107
3.91116
3.91125
3.91133
3.9114
3.91145
3.9115
3.91153
3.91154
3.91154
3.91153
3.9115
3.91145
3.91138
3.9113
3.9112
3.91109
3.91095
3.9108
3.91063
3.91045
3.91025
3.91003
3.9098
3.90955
3.90929
3.90902
3.90873
3.90843
3.90813
3.90782
3.9075
3.90717
3.90685
3.90652
3.9062
3.90587
3.90556
3.90525
3.90495
3.90467
3.90439
3.90413
3.90388
3.90365
3.90343
3.90322
3.90303
3.90284
3.90267
3.90251
3.90236
3.90221
3.90207
3.90194
3.90181
3.90169
3.90156
3.90145
3.90133
3.90122
3.90111
3.90101
3.90091
3.90082
3.90073
3.90065
3.90057
3.9005
3.90044
3.90038
3.90033
3.90029
3.90025
3.90022
3.9002
3.90018
3.90017
3.90016
3.90016
3.90015
3.90016
3.90016
3.90016
3.90017
3.90017
3.90017
3.90017
3.90936
3.90937
3.90938
3.9094
3.90943
3.90946
3.9095
3.90954
3.90959
3.90965
3.90971
3.90978
3.90985
3.90993
3.91001
3.9101
3.91019
3.91028
3.91038
3.91048
3.91058
3.91068
3.91079
3.9109
3.91101
3.91112
3.91123
3.91134
3.91145
3.91155
3.91165
3.91175
3.91184
3.91193
3.91201
3.91207
3.91213
3.91218
3.91221
3.91224
3.91225
3.91224
3.91222
3.91219
3.91214
3.91207
3.91199
3.91189
3.91178
3.91165
3.9115
3.91134
3.91117
3.91097
3.91077
3.91055
3.91031
3.91006
3.90981
3.90954
3.90926
3.90897
3.90867
3.90837
3.90807
3.90776
3.90746
3.90715
3.90685
3.90656
3.90626
3.90598
3.90571
3.90545
3.9052
3.90496
3.90473
3.90452
3.90431
3.90412
3.90394
3.90377
3.90361
3.90346
3.90331
3.90317
3.90304
3.90291
3.90278
3.90266
3.90255
3.90243
3.90233
3.90222
3.90212
3.90202
3.90193
3.90185
3.90177
3.90169
3.90162
3.90156
3.90151
3.90146
3.90141
3.90137
3.90134
3.90132
3.9013
3.90128
3.90127
3.90126
3.90125
3.90125
3.90125
3.90125
3.90125
3.90125
3.90125
3.90126
3.91035
3.91035
3.91037
3.91038
3.91041
3.91044
3.91047
3.91052
3.91056
3.91062
3.91067
3.91074
3.9108
3.91088
3.91095
3.91103
3.91112
3.9112
3.91129
3.91138
3.91148
3.91157
3.91167
3.91177
3.91187
3.91197
3.91207
3.91217
3.91227
3.91237
3.91246
3.91255
3.91263
3.9127
3.91277
3.91283
3.91288
3.91291
3.91294
3.91296
3.91296
3.91295
3.91293
3.91289
3.91284
3.91278
3.9127
3.9126
3.91249
3.91236
3.91222
3.91207
3.9119
3.91171
3.91152
3.91131
3.91108
3.91085
3.91061
3.91035
3.91009
3.90982
3.90954
3.90926
3.90897
3.90868
3.9084
3.90811
3.90782
3.90754
3.90727
3.907
3.90674
3.90649
3.90625
3.90602
3.9058
3.9056
3.9054
3.90521
3.90503
3.90486
3.9047
3.90455
3.90441
3.90427
3.90413
3.904
3.90388
3.90376
3.90364
3.90353
3.90343
3.90332
3.90323
3.90313
3.90304
3.90296
3.90288
3.90281
3.90274
3.90268
3.90262
3.90257
3.90253
3.90249
3.90246
3.90243
3.9024
3.90239
3.90237
3.90236
3.90235
3.90235
3.90234
3.90234
3.90234
3.90234
3.90234
3.90234
3.91133
3.91133
3.91134
3.91136
3.91138
3.91141
3.91144
3.91148
3.91153
3.91158
3.91163
3.91169
3.91175
3.91182
3.91189
3.91196
3.91204
3.91212
3.9122
3.91229
3.91238
3.91247
3.91256
3.91265
3.91274
3.91283
3.91292
3.91301
3.9131
3.91319
3.91327
3.91334
3.91342
3.91348
3.91354
3.91359
3.91363
3.91366
3.91368
3.91369
3.91369
3.91368
3.91365
3.91361
3.91356
3.91349
3.91341
3.91332
3.91321
3.91309
3.91296
3.91281
3.91264
3.91247
3.91228
3.91208
3.91187
3.91165
3.91142
3.91117
3.91093
3.91067
3.91041
3.91014
3.90987
3.9096
3.90933
3.90906
3.90879
3.90853
3.90827
3.90801
3.90777
3.90753
3.9073
3.90708
3.90687
3.90666
3.90647
3.90629
3.90611
3.90595
3.90579
3.90564
3.90549
3.90535
3.90522
3.90509
3.90497
3.90485
3.90474
3.90463
3.90452
3.90442
3.90433
3.90423
3.90415
3.90406
3.90399
3.90392
3.90385
3.90379
3.90373
3.90368
3.90364
3.9036
3.90356
3.90353
3.90351
3.90349
3.90347
3.90346
3.90345
3.90344
3.90343
3.90343
3.90343
3.90342
3.90342
3.90342
3.9123
3.9123
3.91231
3.91233
3.91235
3.91238
3.91241
3.91244
3.91249
3.91253
3.91258
3.91264
3.91269
3.91276
3.91282
3.91289
3.91296
3.91304
3.91311
3.91319
3.91327
3.91335
3.91344
3.91352
3.91361
3.91369
3.91377
3.91385
3.91393
3.91401
3.91408
3.91415
3.91421
3.91427
3.91432
3.91436
3.91439
3.91442
3.91444
3.91444
3.91443
3.91442
3.91439
3.91435
3.91429
3.91423
3.91415
3.91406
3.91395
3.91383
3.9137
3.91356
3.9134
3.91323
3.91306
3.91287
3.91266
3.91245
3.91223
3.91201
3.91177
3.91153
3.91128
3.91103
3.91078
3.91052
3.91027
3.91001
3.90976
3.90951
3.90926
3.90902
3.90878
3.90856
3.90834
3.90812
3.90792
3.90772
3.90754
3.90736
3.90718
3.90702
3.90686
3.90672
3.90657
3.90644
3.9063
3.90618
3.90606
3.90594
3.90583
3.90572
3.90562
3.90552
3.90542
3.90533
3.90525
3.90517
3.90509
3.90502
3.90495
3.90489
3.90484
3.90479
3.90474
3.9047
3.90467
3.90463
3.90461
3.90459
3.90457
3.90455
3.90454
3.90453
3.90452
3.90451
3.90451
3.90451
3.90451
3.9045
3.91326
3.91327
3.91328
3.91329
3.91331
3.91334
3.91337
3.9134
3.91344
3.91348
3.91353
3.91358
3.91363
3.91369
3.91375
3.91381
3.91388
3.91395
3.91402
3.91409
3.91417
3.91424
3.91432
3.9144
3.91447
3.91455
3.91462
3.9147
3.91477
3.91483
3.9149
3.91496
3.91501
3.91506
3.91511
3.91514
3.91517
3.91519
3.9152
3.9152
3.91519
3.91517
3.91513
3.91509
3.91504
3.91497
3.91489
3.9148
3.9147
3.91459
3.91446
3.91432
3.91417
3.91401
3.91384
3.91366
3.91347
3.91327
3.91306
3.91285
3.91262
3.91239
3.91216
3.91192
3.91168
3.91144
3.9112
3.91096
3.91072
3.91048
3.91025
3.91002
3.90979
3.90958
3.90936
3.90916
3.90896
3.90877
3.90859
3.90842
3.90825
3.90809
3.90793
3.90779
3.90765
3.90751
3.90738
3.90726
3.90714
3.90702
3.90691
3.9068
3.9067
3.90661
3.90651
3.90642
3.90634
3.90626
3.90619
3.90612
3.90605
3.90599
3.90594
3.90589
3.90584
3.9058
3.90576
3.90573
3.9057
3.90568
3.90566
3.90564
3.90563
3.90562
3.90561
3.9056
3.90559
3.90559
3.90559
3.90559
3.91423
3.91423
3.91424
3.91425
3.91427
3.91429
3.91432
3.91435
3.91439
3.91443
3.91447
3.91452
3.91457
3.91462
3.91468
3.91474
3.9148
3.91486
3.91493
3.91499
3.91506
3.91513
3.9152
3.91527
3.91534
3.91541
3.91547
3.91554
3.9156
3.91566
3.91572
3.91577
3.91582
3.91586
3.9159
3.91593
3.91595
3.91596
3.91597
3.91596
3.91595
3.91593
3.91589
3.91585
3.91579
3.91573
3.91565
3.91556
3.91546
3.91535
3.91523
3.9151
3.91495
3.9148
3.91464
3.91446
3.91428
3.91409
3.9139
3.91369
3.91348
3.91326
3.91304
3.91282
3.91259
3.91236
3.91213
3.9119
3.91168
3.91145
3.91123
3.91101
3.9108
3.91059
3.91039
3.91019
3.91
3.90981
3.90964
3.90947
3.90931
3.90915
3.909
3.90885
3.90871
3.90858
3.90845
3.90833
3.90821
3.9081
3.90799
3.90789
3.90779
3.90769
3.9076
3.90751
3.90743
3.90735
3.90728
3.90721
3.90715
3.90709
3.90703
3.90698
3.90694
3.90689
3.90686
3.90682
3.90679
3.90677
3.90675
3.90673
3.90671
3.9067
3.90669
3.90668
3.90667
3.90667
3.90667
3.90667
3.91518
3.91519
3.9152
3.91521
3.91523
3.91525
3.91527
3.9153
3.91533
3.91537
3.91541
3.91545
3.9155
3.91555
3.9156
3.91565
3.91571
3.91577
3.91583
3.91589
3.91595
3.91602
3.91608
3.91614
3.91621
3.91627
3.91633
3.91639
3.91644
3.9165
3.91655
3.91659
3.91663
3.91667
3.9167
3.91672
3.91674
3.91675
3.91675
3.91674
3.91672
3.9167
3.91666
3.91662
3.91656
3.9165
3.91642
3.91633
3.91624
3.91613
3.91601
3.91588
3.91575
3.9156
3.91544
3.91528
3.9151
3.91492
3.91474
3.91454
3.91434
3.91414
3.91393
3.91371
3.9135
3.91328
3.91307
3.91285
3.91263
3.91242
3.91221
3.912
3.91179
3.91159
3.9114
3.91121
3.91103
3.91085
3.91068
3.91051
3.91036
3.9102
3.91005
3.90991
3.90978
3.90965
3.90952
3.9094
3.90928
3.90917
3.90907
3.90896
3.90886
3.90877
3.90868
3.9086
3.90851
3.90844
3.90837
3.9083
3.90823
3.90818
3.90812
3.90807
3.90802
3.90798
3.90795
3.90791
3.90788
3.90786
3.90783
3.90781
3.9078
3.90778
3.90777
3.90776
3.90775
3.90775
3.90775
3.90774
3.91614
3.91614
3.91615
3.91616
3.91617
3.91619
3.91622
3.91624
3.91627
3.91631
3.91634
3.91638
3.91643
3.91647
3.91652
3.91657
3.91662
3.91668
3.91673
3.91679
3.91684
3.9169
3.91696
3.91702
3.91707
3.91713
3.91718
3.91724
3.91729
3.91733
3.91738
3.91742
3.91745
3.91748
3.91751
3.91752
3.91754
3.91754
3.91754
3.91753
3.91751
3.91748
3.91744
3.91739
3.91734
3.91727
3.9172
3.91711
3.91702
3.91692
3.9168
3.91668
3.91655
3.91641
3.91626
3.9161
3.91593
3.91576
3.91558
3.9154
3.91521
3.91501
3.91482
3.91461
3.91441
3.9142
3.914
3.91379
3.91359
3.91338
3.91318
3.91298
3.91279
3.9126
3.91241
3.91223
3.91205
3.91188
3.91171
3.91155
3.9114
3.91125
3.91111
3.91097
3.91083
3.91071
3.91058
3.91046
3.91035
3.91024
3.91014
3.91003
3.90994
3.90985
3.90976
3.90967
3.90959
3.90952
3.90945
3.90938
3.90932
3.90926
3.90921
3.90916
3.90911
3.90907
3.90903
3.909
3.90897
3.90894
3.90892
3.90889
3.90888
3.90886
3.90885
3.90884
3.90883
3.90883
3.90882
3.90882
3.91708
3.91709
3.91709
3.91711
3.91712
3.91714
3.91716
3.91718
3.91721
3.91724
3.91728
3.91731
3.91735
3.9174
3.91744
3.91748
3.91753
3.91758
3.91763
3.91768
3.91774
3.91779
3.91784
3.91789
3.91794
3.91799
3.91804
3.91809
3.91813
3.91817
3.91821
3.91824
3.91827
3.9183
3.91832
3.91833
3.91834
3.91834
3.91833
3.91832
3.9183
3.91827
3.91823
3.91818
3.91813
3.91806
3.91799
3.9179
3.91781
3.91771
3.9176
3.91748
3.91736
3.91722
3.91708
3.91693
3.91677
3.91661
3.91644
3.91626
3.91608
3.91589
3.91571
3.91551
3.91532
3.91513
3.91493
3.91473
3.91454
3.91434
3.91415
3.91396
3.91378
3.91359
3.91341
3.91324
3.91307
3.9129
3.91274
3.91259
3.91244
3.91229
3.91215
3.91202
3.91189
3.91176
3.91164
3.91152
3.91141
3.9113
3.9112
3.9111
3.91101
3.91092
3.91083
3.91075
3.91067
3.9106
3.91053
3.91046
3.9104
3.91034
3.91029
3.91024
3.91019
3.91015
3.91011
3.91008
3.91005
3.91002
3.90999
3.90997
3.90995
3.90994
3.90993
3.90992
3.90991
3.9099
3.9099
3.90989
3.91803
3.91803
3.91804
3.91805
3.91806
3.91808
3.9181
3.91812
3.91815
3.91818
3.91821
3.91824
3.91828
3.91831
3.91836
3.9184
3.91844
3.91849
3.91853
3.91858
3.91863
3.91867
3.91872
3.91877
3.91881
3.91886
3.9189
3.91894
3.91898
3.91902
3.91905
3.91908
3.9191
3.91912
3.91914
3.91915
3.91915
3.91915
3.91914
3.91912
3.9191
3.91906
3.91902
3.91898
3.91892
3.91886
3.91878
3.9187
3.91861
3.91852
3.91841
3.9183
3.91817
3.91804
3.91791
3.91776
3.91761
3.91746
3.91729
3.91713
3.91696
3.91678
3.9166
3.91642
3.91623
3.91605
3.91586
3.91567
3.91549
3.9153
3.91512
3.91494
3.91476
3.91458
3.91441
3.91424
3.91408
3.91392
3.91377
3.91362
3.91347
3.91333
3.91319