/*--------------------------------*- C++ -*----------------------------------*\
| =========                 |                                                 |
| \\      /  F ield         | OpenFOAM: The Open Source CFD Toolbox           |
|  \\    /   O peration     | Version:  2406                                  |
|   \\  /    A nd           | Website:  www.openfoam.com                      |
|    \\/     M anipulation  |                                                 |
\*---------------------------------------------------------------------------*/
FoamFile
{
    version     2.0;
    format      ascii;
    arch        "LSB;label=32;scalar=64";
    class       volScalarField;
    location    "0.25";
    object      C_0;
}
// * * * * * * * * * * * * * * * * * * * * * * * * * * * * * * * * * * * * * //

dimensions      [1 -3 0 0 0 0 0];

internalField   nonuniform List<scalar> 
14400
(
3.89118
3.89093
3.89042
3.88958
3.88829
3.88633
3.88314
3.87602
3.88346
3.88694
3.8892
3.89079
3.89195
3.89281
3.89342
3.89383
3.89404
3.89406
3.89387
3.89344
3.89271
3.89157
3.88976
3.88673
3.87983
3.88752
3.89124
3.89377
3.89567
3.89717
3.8984
3.89944
3.90032
3.90108
3.90173
3.9023
3.90278
3.9032
3.90355
3.90383
3.90407
3.90424
3.90437
3.90445
3.90448
3.90447
3.90441
3.9043
3.90415
3.90395
3.9037
3.90341
3.90307
3.90268
3.90224
3.90175
3.9012
3.90058
3.89991
3.89917
3.89835
3.89745
3.89646
3.89536
3.89415
3.8928
3.89128
3.88956
3.88758
3.88524
3.88242
3.87881
3.87382
3.86429
3.86866
3.86828
3.86304
3.87168
3.87588
3.87867
3.88066
3.88214
3.88324
3.88406
3.88464
3.88502
3.88522
3.88525
3.88511
3.88481
3.88432
3.88362
3.88268
3.88144
3.87976
3.8774
3.87382
3.86625
3.87318
3.8762
3.87795
3.87899
3.87954
3.87969
3.87948
3.87888
3.87779
3.87598
3.87292
3.86593
3.87344
3.87698
3.8793
3.88094
3.88216
3.88307
3.88375
3.88423
3.88454
3.88469
3.89142
3.8912
3.89074
3.89002
3.88897
3.88756
3.88581
3.8843
3.88611
3.88816
3.88986
3.89121
3.89226
3.89305
3.89363
3.89402
3.89423
3.89426
3.89411
3.89374
3.89313
3.89223
3.89097
3.8894
3.8881
3.89014
3.89243
3.89441
3.89606
3.89743
3.8986
3.89959
3.90044
3.90118
3.90182
3.90238
3.90285
3.90326
3.90361
3.90389
3.90412
3.9043
3.90442
3.9045
3.90453
3.90451
3.90445
3.90434
3.90419
3.90399
3.90375
3.90346
3.90312
3.90273
3.90229
3.9018
3.90125
3.90065
3.89998
3.89924
3.89843
3.89754
3.89656
3.89548
3.89429
3.89296
3.89148
3.88982
3.88792
3.88574
3.88319
3.88019
3.87669
3.87317
3.87264
3.87223
3.87192
3.87461
3.87729
3.87947
3.88118
3.88251
3.88352
3.88429
3.88484
3.8852
3.88539
3.88542
3.88529
3.88499
3.88452
3.88387
3.88299
3.88187
3.88043
3.87863
3.87647
3.87453
3.87588
3.87746
3.87867
3.87948
3.87993
3.88006
3.87988
3.87937
3.87851
3.87724
3.87561
3.87421
3.8761
3.87821
3.87997
3.88137
3.88247
3.88331
3.88395
3.8844
3.8847
3.88484
3.89189
3.89171
3.89134
3.89077
3.89002
3.88913
3.88825
3.8878
3.88854
3.88971
3.89089
3.89194
3.89281
3.89351
3.89403
3.8944
3.8946
3.89466
3.89455
3.89429
3.89384
3.89324
3.8925
3.8918
3.89156
3.89252
3.89393
3.89538
3.89672
3.89791
3.89896
3.89988
3.90068
3.90139
3.902
3.90253
3.90299
3.90339
3.90372
3.904
3.90422
3.9044
3.90452
3.90459
3.90462
3.9046
3.90454
3.90443
3.90428
3.90408
3.90384
3.90355
3.90322
3.90283
3.9024
3.90191
3.90137
3.90077
3.90011
3.89939
3.89859
3.89772
3.89676
3.89571
3.89456
3.89328
3.89187
3.89031
3.88856
3.88661
3.88443
3.88205
3.8796
3.87748
3.87649
3.87608
3.87626
3.87755
3.87918
3.88074
3.88208
3.88318
3.88406
3.88474
3.88523
3.88556
3.88573
3.88575
3.88562
3.88534
3.88491
3.88432
3.88356
3.88261
3.88148
3.8802
3.87892
3.87806
3.87836
3.87908
3.87979
3.88033
3.88065
3.88074
3.88059
3.88022
3.87962
3.87886
3.87809
3.87773
3.87854
3.87977
3.88101
3.88211
3.88302
3.88375
3.88432
3.88473
3.885
3.88514
3.89254
3.8924
3.89212
3.89172
3.89122
3.89068
3.89025
3.89012
3.89052
3.89124
3.89206
3.89285
3.89355
3.89413
3.89459
3.89492
3.89513
3.89521
3.89517
3.895
3.89473
3.89437
3.894
3.89374
3.89382
3.89444
3.89539
3.89646
3.89753
3.89854
3.89946
3.90028
3.90102
3.90168
3.90225
3.90276
3.9032
3.90358
3.9039
3.90417
3.90438
3.90455
3.90466
3.90473
3.90476
3.90474
3.90468
3.90457
3.90442
3.90422
3.90398
3.9037
3.90337
3.90299
3.90256
3.90208
3.90155
3.90096
3.90032
3.89961
3.89883
3.89799
3.89706
3.89605
3.89494
3.89374
3.89242
3.89097
3.8894
3.88769
3.88587
3.88399
3.88218
3.88068
3.87975
3.87935
3.87947
3.88016
3.88116
3.88222
3.88322
3.88409
3.8848
3.88537
3.88579
3.88607
3.88621
3.88622
3.8861
3.88585
3.88547
3.88495
3.88431
3.88354
3.88267
3.88177
3.88095
3.88043
3.88042
3.88071
3.88108
3.8814
3.88159
3.88164
3.88154
3.88128
3.88091
3.88048
3.88014
3.8801
3.88056
3.88133
3.88219
3.88302
3.88375
3.88436
3.88485
3.88521
3.88545
3.88557
3.89333
3.89323
3.89304
3.89276
3.89244
3.89214
3.89193
3.89193
3.8922
3.89267
3.89325
3.89385
3.8944
3.89488
3.89528
3.89558
3.89578
3.89589
3.8959
3.89583
3.89569
3.89552
3.89538
3.89535
3.89554
3.89602
3.89673
3.89755
3.89841
3.89925
3.90005
3.90078
3.90145
3.90205
3.90258
3.90305
3.90347
3.90383
3.90413
3.90438
3.90459
3.90474
3.90486
3.90492
3.90494
3.90492
3.90485
3.90475
3.9046
3.9044
3.90417
3.90389
3.90356
3.90319
3.90277
3.9023
3.90178
3.90121
3.90058
3.89989
3.89914
3.89833
3.89744
3.89648
3.89544
3.89431
3.89309
3.89177
3.89037
3.88889
3.88737
3.88585
3.88445
3.88329
3.8825
3.8821
3.8821
3.88246
3.88306
3.88377
3.88448
3.88514
3.8857
3.88615
3.88649
3.88671
3.88682
3.88682
3.88671
3.88648
3.88615
3.88572
3.88518
3.88457
3.8839
3.88324
3.88267
3.8823
3.88218
3.88226
3.88242
3.88258
3.88269
3.88271
3.88263
3.88247
3.88225
3.88203
3.8819
3.88196
3.88228
3.8828
3.88341
3.88403
3.8846
3.8851
3.8855
3.88581
3.88601
3.88611
3.89422
3.89416
3.89402
3.89385
3.89366
3.89349
3.8934
3.89345
3.89366
3.89401
3.89443
3.89488
3.89532
3.89572
3.89606
3.89633
3.89653
3.89665
3.89671
3.89672
3.89669
3.89665
3.89664
3.89673
3.89697
3.89738
3.89794
3.8986
3.8993
3.90001
3.90069
3.90134
3.90193
3.90248
3.90297
3.90341
3.90379
3.90413
3.90441
3.90465
3.90484
3.90499
3.90509
3.90515
3.90517
3.90514
3.90508
3.90497
3.90482
3.90463
3.90439
3.90412
3.9038
3.90344
3.90303
3.90257
3.90207
3.90151
3.9009
3.90024
3.89952
3.89874
3.8979
3.89699
3.89601
3.89496
3.89385
3.89266
3.89142
3.89014
3.88885
3.88761
3.88647
3.88553
3.88485
3.88446
3.88436
3.88452
3.88487
3.88532
3.88581
3.88628
3.8867
3.88704
3.8873
3.88747
3.88755
3.88754
3.88743
3.88723
3.88694
3.88657
3.88614
3.88565
3.88513
3.88463
3.88421
3.8839
3.88375
3.88373
3.88377
3.88383
3.88387
3.88386
3.88381
3.88371
3.88359
3.88349
3.88346
3.88355
3.8838
3.88417
3.88462
3.88508
3.88553
3.88592
3.88625
3.88651
3.88668
3.88676
3.89519
3.89514
3.89506
3.89495
3.89485
3.89477
3.89475
3.89482
3.89499
3.89526
3.89558
3.89593
3.89629
3.89662
3.89691
3.89715
3.89735
3.89749
3.89758
3.89765
3.89769
3.89774
3.89782
3.89797
3.89823
3.89859
3.89906
3.89961
3.90019
3.90079
3.90138
3.90194
3.90248
3.90296
3.90341
3.90381
3.90417
3.90448
3.90474
3.90496
3.90514
3.90528
3.90537
3.90542
3.90544
3.90541
3.90534
3.90523
3.90508
3.90489
3.90466
3.90439
3.90408
3.90373
3.90333
3.90289
3.9024
3.90186
3.90128
3.90064
3.89996
3.89922
3.89842
3.89757
3.89666
3.89569
3.89467
3.89361
3.89251
3.8914
3.8903
3.88925
3.8883
3.88751
3.88691
3.88653
3.88636
3.88639
3.88656
3.88684
3.88715
3.88747
3.88777
3.88802
3.88821
3.88833
3.88837
3.88834
3.88824
3.88806
3.88781
3.8875
3.88714
3.88675
3.88634
3.88595
3.88561
3.88536
3.8852
3.88512
3.88509
3.88509
3.88509
3.88507
3.88503
3.88497
3.88491
3.88487
3.88489
3.88499
3.88519
3.88547
3.8858
3.88616
3.8865
3.88682
3.88708
3.88729
3.88743
3.8875
3.89619
3.89616
3.89612
3.89606
3.89601
3.89598
3.896
3.89608
3.89623
3.89644
3.8967
3.89699
3.89728
3.89755
3.89781
3.89803
3.89822
3.89837
3.89849
3.89859
3.89868
3.89879
3.89892
3.89911
3.89937
3.8997
3.90011
3.90057
3.90107
3.90158
3.90209
3.90259
3.90306
3.90349
3.9039
3.90426
3.90459
3.90487
3.90511
3.90532
3.90548
3.90561
3.90569
3.90574
3.90574
3.90571
3.90564
3.90553
3.90539
3.9052
3.90498
3.90471
3.90441
3.90407
3.90368
3.90325
3.90278
3.90227
3.90171
3.9011
3.90045
3.89975
3.899
3.8982
3.89736
3.89647
3.89555
3.89459
3.89362
3.89264
3.89169
3.89079
3.88998
3.8893
3.88876
3.88838
3.88817
3.88811
3.88816
3.8883
3.88849
3.88869
3.88889
3.88905
3.88918
3.88925
3.88927
3.88922
3.88912
3.88896
3.88875
3.88848
3.88818
3.88786
3.88753
3.88722
3.88694
3.88672
3.88656
3.88646
3.8864
3.88636
3.88633
3.8863
3.88627
3.88623
3.8862
3.8862
3.88624
3.88634
3.8865
3.88672
3.88697
3.88724
3.88751
3.88776
3.88797
3.88814
3.88825
3.88831
3.89722
3.89721
3.89718
3.89716
3.89714
3.89715
3.89719
3.89727
3.89741
3.89758
3.8978
3.89803
3.89827
3.89851
3.89874
3.89894
3.89912
3.89928
3.89942
3.89955
3.89967
3.89981
3.89997
3.90018
3.90043
3.90074
3.9011
3.9015
3.90193
3.90237
3.90282
3.90325
3.90367
3.90406
3.90442
3.90475
3.90505
3.9053
3.90553
3.90571
3.90586
3.90597
3.90605
3.90609
3.90609
3.90605
3.90598
3.90587
3.90573
3.90555
3.90533
3.90507
3.90478
3.90444
3.90407
3.90366
3.90321
3.90271
3.90218
3.9016
3.90099
3.90033
3.89963
3.89888
3.89811
3.89729
3.89645
3.89559
3.89472
3.89386
3.89303
3.89225
3.89154
3.89093
3.89044
3.89007
3.88983
3.88971
3.88968
3.88972
3.88981
3.88992
3.89004
3.89013
3.8902
3.89023
3.89022
3.89017
3.89006
3.88992
3.88973
3.8895
3.88925
3.88898
3.88871
3.88845
3.88821
3.88802
3.88786
3.88775
3.88767
3.88762
3.88758
3.88754
3.88751
3.88749
3.88748
3.88749
3.88753
3.88762
3.88775
3.88792
3.88812
3.88833
3.88854
3.88873
3.8889
3.88903
3.88913
3.88917
3.89827
3.89826
3.89825
3.89825
3.89825
3.89828
3.89833
3.89842
3.89854
3.89869
3.89887
3.89907
3.89928
3.89948
3.89968
3.89987
3.90005
3.90021
3.90036
3.9005
3.90065
3.9008
3.90098
3.90119
3.90144
3.90173
3.90205
3.9024
3.90278
3.90317
3.90356
3.90394
3.90431
3.90465
3.90498
3.90527
3.90554
3.90578
3.90598
3.90615
3.90628
3.90638
3.90644
3.90648
3.90647
3.90643
3.90636
3.90625
3.90611
3.90593
3.90572
3.90547
3.90518
3.90486
3.9045
3.90411
3.90367
3.9032
3.9027
3.90215
3.90157
3.90095
3.90029
3.8996
3.89888
3.89814
3.89737
3.8966
3.89582
3.89505
3.89432
3.89362
3.893
3.89245
3.89199
3.89164
3.89138
3.89121
3.89113
3.8911
3.89111
3.89115
3.8912
3.89124
3.89126
3.89126
3.89122
3.89115
3.89105
3.89091
3.89074
3.89054
3.89033
3.8901
3.88987
3.88965
3.88945
3.88927
3.88913
3.88902
3.88893
3.88886
3.88881
3.88877
3.88874
3.88873
3.88872
3.88874
3.88879
3.88886
3.88897
3.8891
3.88926
3.88942
3.88958
3.88974
3.88987
3.88997
3.89005
3.89008
3.89932
3.89932
3.89932
3.89933
3.89935
3.89938
3.89944
3.89953
3.89964
3.89977
3.89993
3.9001
3.90028
3.90046
3.90064
3.90082
3.90099
3.90115
3.9013
3.90145
3.90161
3.90178
3.90196
3.90217
3.90241
3.90267
3.90297
3.90328
3.90361
3.90396
3.9043
3.90464
3.90496
3.90527
3.90556
3.90583
3.90607
3.90628
3.90646
3.90661
3.90673
3.90682
3.90687
3.9069
3.90689
3.90685
3.90677
3.90666
3.90652
3.90635
3.90614
3.9059
3.90562
3.90531
3.90497
3.90459
3.90418
3.90373
3.90325
3.90273
3.90218
3.9016
3.90099
3.90035
3.89969
3.89901
3.89831
3.8976
3.8969
3.89622
3.89556
3.89494
3.89437
3.89387
3.89345
3.8931
3.89283
3.89264
3.89251
3.89243
3.89239
3.89237
3.89237
3.89236
3.89235
3.89231
3.89226
3.89218
3.89207
3.89194
3.89178
3.89161
3.89142
3.89122
3.89102
3.89083
3.89065
3.8905
3.89036
3.89025
3.89016
3.89009
3.89004
3.89
3.88997
3.88995
3.88995
3.88997
3.89001
3.89007
3.89016
3.89026
3.89038
3.89051
3.89064
3.89076
3.89086
3.89094
3.891
3.89103
3.90037
3.90037
3.90038
3.9004
3.90042
3.90047
3.90053
3.90061
3.90071
3.90083
3.90097
3.90112
3.90128
3.90145
3.90161
3.90177
3.90193
3.90209
3.90224
3.9024
3.90256
3.90273
3.90292
3.90312
3.90335
3.90359
3.90386
3.90414
3.90444
3.90474
3.90505
3.90535
3.90564
3.90591
3.90617
3.90641
3.90662
3.90681
3.90697
3.90711
3.90721
3.90729
3.90734
3.90735
3.90734
3.90729
3.90722
3.90711
3.90697
3.9068
3.9066
3.90636
3.9061
3.9058
3.90547
3.90511
3.90471
3.90429
3.90383
3.90335
3.90283
3.90229
3.90172
3.90113
3.90051
3.89989
3.89925
3.89861
3.89797
3.89735
3.89676
3.8962
3.89568
3.89522
3.89482
3.89449
3.89421
3.894
3.89384
3.89373
3.89364
3.89358
3.89354
3.89349
3.89345
3.89339
3.89332
3.89323
3.89312
3.89299
3.89284
3.89269
3.89252
3.89234
3.89217
3.892
3.89184
3.8917
3.89157
3.89147
3.89138
3.89131
3.89125
3.89121
3.89118
3.89116
3.89116
3.89117
3.8912
3.89126
3.89132
3.89141
3.8915
3.8916
3.8917
3.89179
3.89188
3.89194
3.89199
3.89201
3.90141
3.90142
3.90143
3.90145
3.90149
3.90153
3.90159
3.90167
3.90176
3.90187
3.902
3.90213
3.90228
3.90243
3.90258
3.90273
3.90288
3.90303
3.90319
3.90334
3.90351
3.90368
3.90386
3.90405
3.90427
3.90449
3.90474
3.90499
3.90526
3.90553
3.9058
3.90607
3.90632
3.90657
3.9068
3.90701
3.9072
3.90737
3.90751
3.90763
3.90773
3.90779
3.90783
3.90784
3.90782
3.90777
3.90769
3.90758
3.90745
3.90728
3.90709
3.90686
3.9066
3.90632
3.906
3.90566
3.90528
3.90488
3.90445
3.90399
3.90351
3.903
3.90247
3.90192
3.90135
3.90078
3.90019
3.89961
3.89903
3.89847
3.89792
3.89741
3.89694
3.89651
3.89613
3.89581
3.89553
3.89531
3.89513
3.89499
3.89487
3.89478
3.8947
3.89463
3.89456
3.89448
3.89439
3.8943
3.89418
3.89406
3.89392
3.89377
3.89362
3.89346
3.8933
3.89315
3.89301
3.89288
3.89276
3.89266
3.89258
3.8925
3.89245
3.8924
3.89237
3.89235
3.89235
3.89236
3.89238
3.89242
3.89248
3.89254
3.89261
3.89269
3.89277
3.89284
3.89291
3.89296
3.89299
3.89301
3.90245
3.90246
3.90248
3.9025
3.90253
3.90258
3.90264
3.90271
3.9028
3.9029
3.90301
3.90314
3.90327
3.9034
3.90354
3.90369
3.90383
3.90398
3.90413
3.90428
3.90444
3.90461
3.90478
3.90497
3.90517
3.90538
3.9056
3.90583
3.90607
3.90631
3.90656
3.90679
3.90702
3.90724
3.90745
3.90763
3.9078
3.90795
3.90808
3.90819
3.90827
3.90832
3.90835
3.90835
3.90833
3.90828
3.9082
3.90809
3.90796
3.90779
3.9076
3.90739
3.90714
3.90687
3.90657
3.90624
3.90588
3.9055
3.90509
3.90466
3.90421
3.90373
3.90324
3.90273
3.9022
3.90167
3.90114
3.9006
3.90007
3.89955
3.89906
3.89859
3.89815
3.89775
3.89739
3.89708
3.89681
3.89657
3.89638
3.89622
3.89608
3.89596
3.89586
3.89577
3.89568
3.89558
3.89548
3.89538
3.89526
3.89514
3.89501
3.89487
3.89473
3.89458
3.89444
3.8943
3.89417
3.89405
3.89394
3.89384
3.89376
3.89369
3.89363
3.89359
3.89355
3.89353
3.89352
3.89353
3.89355
3.89358
3.89362
3.89367
3.89372
3.89378
3.89384
3.8939
3.89395
3.89399
3.89402
3.89403
3.90349
3.90349
3.90351
3.90353
3.90357
3.90362
3.90367
3.90374
3.90382
3.90392
3.90402
3.90413
3.90425
3.90438
3.90451
3.90464
3.90478
3.90492
3.90506
3.90521
3.90536
3.90552
3.90569
3.90587
3.90606
3.90625
3.90646
3.90667
3.90688
3.9071
3.90732
3.90753
3.90773
3.90793
3.90811
3.90828
3.90843
3.90856
3.90867
3.90876
3.90883
3.90887
3.9089
3.90889
3.90886
3.90881
3.90873
3.90862
3.90849
3.90833
3.90815
3.90794
3.9077
3.90744
3.90715
3.90684
3.90651
3.90614
3.90576
3.90536
3.90493
3.90449
3.90402
3.90355
3.90306
3.90257
3.90208
3.90158
3.9011
3.90062
3.90017
3.89973
3.89933
3.89895
3.89861
3.8983
3.89804
3.8978
3.8976
3.89742
3.89727
3.89713
3.89701
3.8969
3.89679
3.89669
3.89658
3.89647
3.89635
3.89623
3.8961
3.89597
3.89583
3.8957
3.89557
3.89544
3.89532
3.8952
3.8951
3.89501
3.89493
3.89486
3.8948
3.89476
3.89472
3.8947
3.89469
3.89469
3.8947
3.89472
3.89475
3.89478
3.89483
3.89487
3.89492
3.89496
3.895
3.89503
3.89505
3.89506
3.90451
3.90452
3.90454
3.90456
3.90459
3.90464
3.90469
3.90476
3.90483
3.90492
3.90502
3.90512
3.90523
3.90535
3.90547
3.90559
3.90572
3.90586
3.906
3.90614
3.90628
3.90644
3.9066
3.90676
3.90694
3.90712
3.9073
3.9075
3.90769
3.90789
3.90808
3.90827
3.90845
3.90863
3.90879
3.90894
3.90907
3.90918
3.90928
3.90936
3.90942
3.90945
3.90947
3.90946
3.90942
3.90937
3.90929
3.90918
3.90905
3.9089
3.90872
3.90852
3.90829
3.90804
3.90777
3.90747
3.90715
3.90681
3.90645
3.90607
3.90567
3.90525
3.90482
3.90438
3.90393
3.90348
3.90302
3.90256
3.90211
3.90168
3.90125
3.90085
3.90047
3.90012
3.89979
3.8995
3.89923
3.89899
3.89879
3.8986
3.89844
3.89829
3.89816
3.89803
3.89791
3.89779
3.89768
3.89756
3.89744
3.89732
3.8972
3.89707
3.89694
3.89681
3.89669
3.89657
3.89646
3.89635
3.89625
3.89617
3.89609
3.89602
3.89596
3.89592
3.89588
3.89586
3.89584
3.89583
3.89584
3.89585
3.89587
3.8959
3.89593
3.89596
3.896
3.89603
3.89606
3.89608
3.8961
3.89611
3.90553
3.90554
3.90555
3.90558
3.90561
3.90565
3.9057
3.90577
3.90584
3.90592
3.906
3.9061
3.9062
3.90631
3.90642
3.90654
3.90667
3.90679
3.90692
3.90706
3.9072
3.90734
3.90749
3.90765
3.90781
3.90798
3.90815
3.90832
3.9085
3.90867
3.90885
3.90902
3.90918
3.90933
3.90948
3.90961
3.90973
3.90983
3.90991
3.90998
3.91003
3.91005
3.91006
3.91004
3.91001
3.90995
3.90987
3.90977
3.90964
3.90949
3.90932
3.90912
3.90891
3.90867
3.90841
3.90812
3.90782
3.9075
3.90716
3.9068
3.90642
3.90604
3.90563
3.90522
3.9048
3.90438
3.90396
3.90353
3.90312
3.90271
3.90232
3.90194
3.90158
3.90125
3.90094
3.90066
3.9004
3.90016
3.89995
3.89976
3.89959
3.89943
3.89929
3.89915
3.89903
3.8989
3.89878
3.89866
3.89854
3.89842
3.89829
3.89817
3.89805
3.89793
3.89781
3.8977
3.89759
3.89749
3.8974
3.89731
3.89724
3.89717
3.89711
3.89707
3.89703
3.897
3.89698
3.89697
3.89697
3.89698
3.89699
3.89701
3.89703
3.89705
3.89708
3.8971
3.89712
3.89714
3.89715
3.89716
3.90654
3.90654
3.90656
3.90658
3.90661
3.90666
3.9067
3.90676
3.90683
3.9069
3.90698
3.90707
3.90717
3.90727
3.90738
3.90749
3.9076
3.90772
3.90784
3.90797
3.9081
3.90824
3.90838
3.90853
3.90868
3.90883
3.90899
3.90915
3.90931
3.90947
3.90962
3.90977
3.90992
3.91005
3.91018
3.9103
3.9104
3.91049
3.91056
3.91062
3.91065
3.91067
3.91067
3.91065
3.91061
3.91055
3.91047
3.91037
3.91025
3.9101
3.90994
3.90975
3.90954
3.90931
3.90907
3.9088
3.90851
3.90821
3.90788
3.90755
3.90719
3.90683
3.90645
3.90607
3.90568
3.90529
3.90489
3.9045
3.90411
3.90373
3.90337
3.90301
3.90268
3.90236
3.90207
3.90179
3.90154
3.90131
3.9011
3.9009
3.90073
3.90056
3.90041
3.90027
3.90013
3.90001
3.89988
3.89976
3.89963
3.89951
3.89939
3.89927
3.89915
3.89904
3.89893
3.89882
3.89871
3.89862
3.89853
3.89845
3.89837
3.89831
3.89825
3.89821
3.89817
3.89814
3.89811
3.8981
3.89809
3.89809
3.8981
3.89811
3.89812
3.89814
3.89816
3.89818
3.89819
3.8982
3.89821
3.89822
3.90754
3.90754
3.90756
3.90758
3.90761
3.90765
3.9077
3.90775
3.90781
3.90788
3.90796
3.90804
3.90813
3.90822
3.90832
3.90843
3.90853
3.90865
3.90876
3.90888
3.90901
3.90913
3.90927
3.9094
3.90954
3.90968
3.90983
3.90997
3.91011
3.91026
3.9104
3.91053
3.91066
3.91078
3.9109
3.911
3.91109
3.91116
3.91123
3.91127
3.9113
3.91131
3.91131
3.91128
3.91124
3.91118
3.9111
3.911
3.91088
3.91074
3.91058
3.9104
3.9102
3.90998
3.90974
3.90949
3.90922
3.90893
3.90863
3.90831
3.90798
3.90764
3.90728
3.90692
3.90656
3.90619
3.90582
3.90546
3.9051
3.90474
3.9044
3.90407
3.90375
3.90345
3.90317
3.9029
3.90266
3.90243
3.90222
3.90203
3.90185
3.90168
3.90152
3.90138
3.90124
3.90111
3.90098
3.90085
3.90073
3.90061
3.90049
3.90037
3.90026
3.90014
3.90004
3.89993
3.89983
3.89974
3.89965
3.89958
3.8995
3.89944
3.89938
3.89934
3.8993
3.89926
3.89924
3.89922
3.89921
3.89921
3.89921
3.89921
3.89922
3.89923
3.89924
3.89925
3.89926
3.89927
3.89928
3.89928
3.90853
3.90854
3.90855
3.90857
3.9086
3.90864
3.90868
3.90873
3.90879
3.90885
3.90892
3.909
3.90908
3.90917
3.90926
3.90936
3.90946
3.90957
3.90968
3.90979
3.9099
3.91002
3.91015
3.91027
3.9104
3.91053
3.91066
3.91079
3.91092
3.91105
3.91118
3.9113
3.91142
3.91152
3.91162
3.91171
3.91179
3.91185
3.91191
3.91194
3.91196
3.91197
3.91196
3.91193
3.91189
3.91183
3.91174
3.91164
3.91153
3.91139
3.91124
3.91106
3.91087
3.91066
3.91044
3.9102
3.90994
3.90967
3.90938
3.90908
3.90877
3.90845
3.90812
3.90778
3.90744
3.9071
3.90676
3.90641
3.90608
3.90574
3.90542
3.90511
3.90481
3.90452
3.90425
3.904
3.90376
3.90354
3.90333
3.90314
3.90296
3.90279
3.90263
3.90248
3.90234
3.9022
3.90207
3.90194
3.90182
3.9017
3.90158
3.90147
3.90135
3.90125
3.90114
3.90104
3.90095
3.90086
3.90077
3.9007
3.90063
3.90056
3.90051
3.90046
3.90042
3.90038
3.90036
3.90034
3.90032
3.90031
3.90031
3.90031
3.90031
3.90031
3.90032
3.90033
3.90034
3.90034
3.90035
3.90035
3.90951
3.90952
3.90953
3.90956
3.90958
3.90962
3.90966
3.9097
3.90976
3.90982
3.90988
3.90996
3.91003
3.91011
3.9102
3.91029
3.91039
3.91048
3.91059
3.91069
3.9108
3.91091
3.91102
3.91114
3.91126
3.91138
3.9115
3.91162
3.91174
3.91185
3.91196
3.91207
3.91218
3.91227
3.91236
3.91243
3.9125
3.91256
3.9126
3.91263
3.91264
3.91265
3.91263
3.9126
3.91255
3.91249
3.91241
3.91231
3.91219
3.91206
3.91191
3.91175
3.91156
3.91137
3.91115
3.91092
3.91068
3.91042
3.91015
3.90987
3.90957
3.90927
3.90896
3.90865
3.90833
3.90801
3.90768
3.90736
3.90705
3.90674
3.90643
3.90614
3.90585
3.90558
3.90532
3.90508
3.90485
3.90463
3.90442
3.90423
3.90405
3.90388
3.90372
3.90357
3.90343
3.90329
3.90316
3.90303
3.90291
3.90279
3.90267
3.90256
3.90245
3.90234
3.90224
3.90214
3.90205
3.90197
3.90188
3.90181
3.90174
3.90168
3.90162
3.90157
3.90153
3.9015
3.90147
3.90144
3.90143
3.90141
3.9014
3.9014
3.9014
3.9014
3.9014
3.9014
3.90141
3.90141
3.90141
3.90142
3.91049
3.9105
3.91051
3.91053
3.91056
3.91059
3.91063
3.91067
3.91072
3.91078
3.91084
3.91091
3.91098
3.91105
3.91113
3.91122
3.91131
3.9114
3.91149
3.91159
3.91169
3.9118
3.9119
3.91201
3.91212
3.91222
3.91233
3.91244
3.91255
3.91265
3.91276
3.91285
3.91294
3.91303
3.9131
3.91317
3.91323
3.91327
3.91331
3.91333
3.91334
3.91333
3.91332
3.91328
3.91323
3.91317
3.91309
3.91299
3.91288
3.91275
3.91261
3.91245
3.91227
3.91208
3.91188
3.91166
3.91143
3.91118
3.91093
3.91066
3.91039
3.9101
3.90981
3.90952
3.90922
3.90891
3.90861
3.90831
3.90801
3.90772
3.90743
3.90715
3.90688
3.90663
3.90638
3.90614
3.90592
3.90571
3.90551
3.90532
3.90514
3.90497
3.90481
3.90466
3.90452
3.90438
3.90425
3.90412
3.904
3.90388
3.90376
3.90365
3.90354
3.90344
3.90334
3.90324
3.90315
3.90307
3.90299
3.90292
3.90285
3.90279
3.90273
3.90268
3.90264
3.9026
3.90257
3.90255
3.90253
3.90251
3.9025
3.90249
3.90248
3.90248
3.90248
3.90248
3.90248
3.90248
3.90248
3.90249
3.91146
3.91147
3.91148
3.9115
3.91152
3.91155
3.91159
3.91163
3.91168
3.91173
3.91179
3.91185
3.91192
3.91199
3.91206
3.91214
3.91222
3.91231
3.9124
3.91249
3.91258
3.91268
3.91277
3.91287
3.91297
3.91307
3.91317
3.91327
3.91337
3.91346
3.91355
3.91364
3.91372
3.91379
3.91386
3.91391
3.91396
3.914
3.91403
3.91404
3.91405
3.91404
3.91401
3.91398
3.91393
3.91386
3.91378
3.91369
3.91358
3.91346
3.91332
3.91316
3.913
3.91281
3.91262
3.91241
3.91219
3.91196
3.91172
3.91147
3.91121
3.91094
3.91067
3.91039
3.91011
3.90982
3.90954
3.90925
3.90897
3.9087
3.90843
3.90816
3.90791
3.90766
3.90742
3.90719
3.90698
3.90677
3.90658
3.90639
3.90622
3.90605
3.90589
3.90574
3.9056
3.90546
3.90533
3.9052
3.90508
3.90496
3.90484
3.90473
3.90463
3.90453
3.90443
3.90434
3.90425
3.90417
3.90409
3.90402
3.90395
3.90389
3.90383
3.90379
3.90374
3.9037
3.90367
3.90364
3.90362
3.9036
3.90359
3.90358
3.90357
3.90356
3.90356
3.90356
3.90356
3.90355
3.90355
3.90355
3.91243
3.91244
3.91245
3.91246
3.91249
3.91251
3.91255
3.91259
3.91263
3.91268
3.91273
3.91279
3.91285
3.91292
3.91299
3.91306
3.91314
3.91322
3.9133
3.91338
3.91347
3.91356
3.91365
3.91374
3.91383
3.91392
3.91401
3.9141
3.91418
3.91427
3.91435
3.91442
3.9145
3.91456
3.91462
3.91467
3.91471
3.91474
3.91476
3.91477
3.91477
3.91475
3.91473
3.91469
3.91464
3.91457
3.91449
3.9144
3.91429
3.91417
3.91404
3.91389
3.91373
3.91356
3.91337
3.91318
3.91297
3.91275
3.91252
3.91228
3.91204
3.91178
3.91152
3.91126
3.911
3.91073
3.91046
3.91019
3.90993
3.90967
3.90941
3.90916
3.90892
3.90868
3.90845
3.90824
3.90803
3.90783
3.90764
3.90745
3.90728
3.90712
3.90696
3.90681
3.90667
3.90653
3.9064
3.90627
3.90615
3.90604
3.90592
3.90582
3.90571
3.90561
3.90552
3.90543
3.90534
3.90526
3.90518
3.90511
3.90505
3.90499
3.90493
3.90488
3.90484
3.9048
3.90476
3.90474
3.90471
3.90469
3.90467
3.90466
3.90465
3.90464
3.90463
3.90463
3.90463
3.90463
3.90462
3.90462
3.91339
3.9134
3.91341
3.91342
3.91344
3.91347
3.9135
3.91354
3.91358
3.91362
3.91367
3.91372
3.91378
3.91384
3.91391
3.91398
3.91405
3.91412
3.9142
3.91427
3.91435
3.91443
3.91452
3.9146
3.91468
3.91477
3.91485
3.91493
3.91501
3.91508
3.91515
3.91522
3.91528
3.91534
3.91539
3.91543
3.91546
3.91549
3.9155
3.91551
3.9155
3.91548
3.91545
3.91541
3.91536
3.9153
3.91522
3.91513
3.91502
3.91491
3.91478
3.91464
3.91448
3.91432
3.91414
3.91395
3.91375
3.91354
3.91333
3.9131
3.91287
3.91263
3.91239
3.91214
3.91189
3.91164
3.91138
3.91113
3.91088
3.91063
3.91039
3.91015
3.90992
3.90969
3.90948
3.90927
3.90907
3.90887
3.90869
3.90851
3.90834
3.90818
3.90802
3.90788
3.90774
3.9076
3.90747
3.90735
3.90723
3.90711
3.907
3.90689
3.90679
3.90669
3.9066
3.90651
3.90643
3.90635
3.90627
3.9062
3.90614
3.90608
3.90602
3.90597
3.90593
3.90589
3.90585
3.90582
3.9058
3.90577
3.90575
3.90574
3.90573
3.90572
3.90571
3.9057
3.9057
3.9057
3.90569
3.90569
3.91435
3.91435
3.91436
3.91437
3.91439
3.91442
3.91445
3.91448
3.91452
3.91456
3.91461
3.91466
3.91471
3.91477
3.91483
3.91489
3.91495
3.91502
3.91509
3.91516
3.91524
3.91531
3.91539
3.91546
3.91554
3.91561
3.91569
3.91576
3.91583
3.9159
3.91596
3.91602
3.91607
3.91612
3.91616
3.9162
3.91623
3.91624
3.91625
3.91625
3.91624
3.91622
3.91619
3.91615
3.9161
3.91603
3.91595
3.91586
3.91576
3.91565
3.91553
3.91539
3.91524
3.91508
3.91491
3.91474
3.91455
3.91435
3.91414
3.91393
3.91371
3.91349
3.91325
3.91302
3.91278
3.91254
3.91231
3.91207
3.91183
3.9116
3.91136
3.91114
3.91092
3.9107
3.91049
3.91029
3.9101
3.90991
3.90973
3.90956
3.90939
3.90923
3.90908
3.90894
3.9088
3.90866
3.90853
3.90841
3.90829
3.90818
3.90807
3.90797
3.90786
3.90777
3.90768
3.90759
3.90751
3.90743
3.90735
3.90729
3.90722
3.90716
3.90711
3.90706
3.90701
3.90697
3.90694
3.90691
3.90688
3.90685
3.90683
3.90682
3.9068
3.90679
3.90678
3.90677
3.90677
3.90676
3.90676
3.90676
3.9153
3.9153
3.91531
3.91532
3.91534
3.91536
3.91539
3.91542
3.91546
3.91549
3.91554
3.91558
3.91563
3.91568
3.91574
3.9158
3.91586
3.91592
3.91599
3.91605
3.91612
3.91619
3.91626
3.91633
3.91639
3.91646
3.91653
3.91659
3.91666
3.91672
3.91677
3.91682
3.91687
3.91691
3.91695
3.91698
3.917
3.91701
3.91702
3.91701
3.917
3.91697
3.91694
3.9169
3.91684
3.91678
3.9167
3.91661
3.91652
3.91641
3.91629
3.91616
3.91601
3.91586
3.9157
3.91553
3.91535
3.91516
3.91497
3.91477
3.91456
3.91434
3.91413
3.9139
3.91368
3.91345
3.91323
3.913
3.91278
3.91255
3.91233
3.91212
3.91191
3.9117
3.9115
3.91131
3.91112
3.91094
3.91076
3.9106
3.91043
3.91028
3.91013
3.90999
3.90985
3.90972
3.90959
3.90947
3.90936
3.90924
3.90914
3.90903
3.90893
3.90884
3.90875
3.90866
3.90858
3.90851
3.90843
3.90836
3.9083
3.90824
3.90819
3.90814
3.90809
3.90805
3.90802
3.90798
3.90796
3.90793
3.90791
3.90789
3.90788
3.90786
3.90785
3.90784
3.90784
3.90783
3.90783
3.90783
3.91624
3.91624
3.91625
3.91627
3.91628
3.9163
3.91633
3.91636
3.91639
3.91642
3.91646
3.91651
3.91655
3.9166
3.91665
3.91671
3.91676
3.91682
3.91688
3.91694
3.917
3.91706
3.91713
3.91719
3.91725
3.91731
3.91737
3.91743
3.91749
3.91754
3.91759
3.91763
3.91767
3.91771
3.91774
3.91776
3.91778
3.91778
3.91779
3.91778
3.91776
3.91774
3.9177
3.91766
3.9176
3.91754
3.91746
3.91738
3.91728
3.91717
3.91706
3.91693
3.9168
3.91665
3.9165
3.91633
3.91616
3.91598
3.9158
3.91561
3.91541
3.91521
3.915
3.91479
3.91458
3.91436
3.91415
3.91393
3.91372
3.91351
3.9133
3.91309
3.91289
3.9127
3.9125
3.91232
3.91214
3.91196
3.91179
3.91163
3.91147
3.91132
3.91118
3.91104
3.9109
3.91077
3.91065
3.91053
3.91041
3.9103
3.9102
3.9101
3.91
3.90991
3.90982
3.90973
3.90965
3.90958
3.90951
3.90944
3.90938
3.90932
3.90927
3.90922
3.90917
3.90913
3.90909
3.90906
3.90903
3.909
3.90898
3.90896
3.90894
3.90893
3.90892
3.90891
3.9089
3.9089
3.90889
3.90889
3.91718
3.91718
3.91719
3.9172
3.91722
3.91724
3.91726
3.91729
3.91732
3.91735
3.91739
3.91743
3.91747
3.91751
3.91756
3.91761
3.91766
3.91771
3.91777
3.91782
3.91788
3.91794
3.91799
3.91805
3.91811
3.91816
3.91822
3.91827
3.91832
3.91836
3.91841
3.91845
3.91848
3.91851
3.91853
3.91855
3.91856
3.91857
3.91856
3.91855
3.91853
3.91851
3.91847
3.91842
3.91837
3.9183
3.91823
3.91815
3.91805
3.91795
3.91784
3.91772
3.91759
3.91745
3.9173
3.91714
3.91698
3.91681
3.91663
3.91645
3.91626
3.91607
3.91588
3.91568
3.91548
3.91527
3.91507
3.91487
3.91466
3.91446
3.91426
3.91407
3.91387
3.91368
3.9135
3.91332
3.91315
3.91298
3.91281
3.91266
3.9125
3.91236
3.91221
3.91208
3.91195
3.91182
3.9117
3.91158
3.91147
3.91136
3.91125
3.91116
3.91106
3.91097
3.91088
3.9108
3.91072
3.91065
3.91058
3.91051
3.91045
3.91039
3.91034
3.91029
3.91024
3.9102
3.91016
3.91013
3.9101
3.91007
3.91005
3.91003
3.91001
3.91
3.90998
3.90997
3.90997
3.90996
3.90996
3.90996
3.91812
3.91812
3.91813
3.91814
3.91815
3.91817
3.91819
3.91822
3.91824
3.91827
3.91831
3.91834
3.91838
3.91842
3.91847
3.91851
3.91856
3.91861
3.91866
3.91871
3.91876
3.91881
3.91886
3.91892
3.91897
3.91902
3.91906
3.91911
3.91915
3.91919
3.91923
3.91926
3.91929
3.91932
3.91934
3.91935
3.91936
3.91936
3.91935
3.91934
3.91931
3.91929
3.91925
3.9192
3.91915
3.91908
3.91901
3.91893
3.91884
3.91874
3.91863
3.91851
3.91839
3.91825
3.91811
3.91796
3.91781
3.91765
3.91748
3.9173
3.91713
3.91694
3.91676
3.91657
3.91638
3.91618
3.91599
3.9158
3.9156
3.91541
3.91522
3.91503
3.91485
3.91467
3.91449
3.91432
3.91415
3.91399
3.91383
3.91368
3.91353
3.91338
3.91325
3.91311
3.91298
3.91286
3.91274
3.91263
3.91252
3.91241
3.91231
3.91221
3.91212
3.91203
3.91194
3.91186
3.91178
3.91171
3.91164
3.91158
3.91151
3.91146
3.9114
3.91136
3.91131
3.91127
3.91123
3.9112
3.91117
3.91114
3.91112
3.91109
3.91108
3.91106
3.91105
3.91104
3.91103
3.91102
3.91102
3.91102
3.91905
3.91905
3.91906
3.91907
3.91908
3.9191
3.91912
3.91914
3.91917
3.9192
3.91923
3.91926
3.9193
3.91933
3.91937
3.91941
3.91946
3.9195
3.91955
3.91959
3.91964
3.91969
3.91973
3.91978
3.91982
3.91987
3.91991
3.91995
3.91999
3.92003
3.92006
3.92009
3.92011
3.92013
3.92014
3.92015
3.92016
3.92015
3.92014
3.92013
3.9201
3.92007
3.92003
3.91999
3.91993
3.91987
3.9198
3.91972
3.91963
3.91953
3.91943
3.91931
3.91919
3.91907
3.91893
3.91879
3.91864
3.91849
3.91833
3.91816
3.91799
3.91782
3.91764
3.91746
3.91728
3.91709
3.91691
3.91673
3.91654
3.91636
3.91618
3.916
3.91582
3.91565
3.91548
3.91531
3.91515
3.91499
3.91484
3.91469
3.91455
3.91441
3.91427
3.91414
3.91402
3.9139
3.91378
3.91367
3.91356