/*--------------------------------*- C++ -*----------------------------------*\
| =========                 |                                                 |
| \\      /  F ield         | OpenFOAM: The Open Source CFD Toolbox           |
|  \\    /   O peration     | Version:  2406                                  |
|   \\  /    A nd           | Website:  www.openfoam.com                      |
|    \\/     M anipulation  |                                                 |
\*---------------------------------------------------------------------------*/
FoamFile
{
    version     2.0;
    format      ascii;
    arch        "LSB;label=32;scalar=64";
    class       volScalarField;
    location    "0.25";
    object      C_0_0;
}
// * * * * * * * * * * * * * * * * * * * * * * * * * * * * * * * * * * * * * //

dimensions      [1 -3 0 0 0 0 0];

internalField   nonuniform List<scalar> 
14400
(
3.89254
3.89229
3.89178
3.89095
3.88969
3.88775
3.8846
3.87759
3.88491
3.88835
3.89058
3.89215
3.8933
3.89415
3.89475
3.89515
3.89536
3.89538
3.89519
3.89477
3.89405
3.89292
3.89113
3.88815
3.88135
3.88893
3.8926
3.8951
3.89697
3.89845
3.89967
3.90069
3.90156
3.90231
3.90296
3.90352
3.90399
3.9044
3.90475
3.90503
3.90526
3.90544
3.90556
3.90564
3.90567
3.90566
3.9056
3.90549
3.90534
3.90514
3.9049
3.90461
3.90428
3.90389
3.90346
3.90297
3.90243
3.90182
3.90116
3.90042
3.89962
3.89873
3.89775
3.89667
3.89547
3.89413
3.89263
3.89093
3.88898
3.88667
3.88388
3.88032
3.87539
3.866
3.8703
3.86993
3.86477
3.87328
3.87743
3.88018
3.88215
3.8836
3.88469
3.8855
3.88608
3.88645
3.88665
3.88668
3.88655
3.88624
3.88576
3.88507
3.88415
3.88291
3.88125
3.87893
3.87539
3.86793
3.87476
3.87774
3.87947
3.8805
3.88104
3.88119
3.88099
3.88039
3.87931
3.87753
3.8745
3.86762
3.87502
3.87852
3.8808
3.88243
3.88363
3.88453
3.8852
3.88567
3.88598
3.88613
3.89278
3.89256
3.89211
3.89139
3.89036
3.88896
3.88724
3.88574
3.88753
3.88955
3.89124
3.89257
3.8936
3.89439
3.89496
3.89534
3.89555
3.89558
3.89543
3.89507
3.89446
3.89357
3.89233
3.89078
3.88949
3.89151
3.89377
3.89573
3.89736
3.89871
3.89986
3.90084
3.90168
3.90241
3.90305
3.90359
3.90407
3.90447
3.90481
3.90509
3.90531
3.90549
3.90561
3.90569
3.90572
3.9057
3.90564
3.90554
3.90538
3.90519
3.90495
3.90466
3.90433
3.90394
3.90351
3.90303
3.90249
3.90189
3.90123
3.9005
3.8997
3.89882
3.89785
3.89678
3.8956
3.8943
3.89283
3.89119
3.88932
3.88717
3.88465
3.88168
3.87823
3.87475
3.87422
3.87382
3.87352
3.87617
3.87881
3.88097
3.88266
3.88397
3.88498
3.88573
3.88628
3.88663
3.88682
3.88685
3.88671
3.88642
3.88596
3.88531
3.88445
3.88334
3.88192
3.88014
3.87801
3.87609
3.87743
3.87898
3.88018
3.88098
3.88143
3.88155
3.88137
3.88087
3.88002
3.87877
3.87716
3.87577
3.87764
3.87972
3.88147
3.88285
3.88393
3.88476
3.88539
3.88584
3.88613
3.88628
3.89324
3.89306
3.89269
3.89214
3.8914
3.89051
3.88964
3.8892
3.88993
3.89108
3.89225
3.89329
3.89415
3.89484
3.89535
3.89571
3.89592
3.89597
3.89587
3.8956
3.89517
3.89457
3.89384
3.89315
3.89291
3.89386
3.89525
3.89669
3.89801
3.89919
3.90022
3.90113
3.90192
3.90261
3.90322
3.90375
3.9042
3.90459
3.90492
3.9052
3.90542
3.90559
3.90571
3.90578
3.90581
3.90579
3.90573
3.90562
3.90547
3.90528
3.90504
3.90476
3.90442
3.90405
3.90362
3.90314
3.9026
3.90201
3.90136
3.90064
3.89986
3.899
3.89805
3.89701
3.89587
3.89461
3.89322
3.89167
3.88995
3.88802
3.88587
3.88352
3.8811
3.87901
3.87803
3.87763
3.8778
3.87908
3.88069
3.88222
3.88355
3.88464
3.88551
3.88617
3.88666
3.88698
3.88715
3.88717
3.88704
3.88677
3.88635
3.88576
3.88501
3.88407
3.88295
3.88169
3.88043
3.87958
3.87988
3.88059
3.88129
3.88182
3.88213
3.88222
3.88208
3.88171
3.88112
3.88037
3.8796
3.87926
3.88006
3.88127
3.88249
3.88357
3.88448
3.8852
3.88576
3.88617
3.88644
3.88657
3.89388
3.89374
3.89347
3.89307
3.89257
3.89205
3.89161
3.8915
3.89189
3.8926
3.89341
3.89419
3.89488
3.89545
3.89591
3.89623
3.89644
3.89652
3.89647
3.89631
3.89604
3.89569
3.89532
3.89507
3.89514
3.89575
3.89669
3.89776
3.89881
3.8998
3.90071
3.90153
3.90226
3.9029
3.90347
3.90397
3.90441
3.90478
3.9051
3.90536
3.90557
3.90574
3.90585
3.90592
3.90595
3.90593
3.90586
3.90576
3.90561
3.90542
3.90518
3.9049
3.90457
3.9042
3.90377
3.9033
3.90278
3.9022
3.90156
3.90086
3.90009
3.89926
3.89834
3.89734
3.89625
3.89506
3.89376
3.89233
3.89078
3.88909
3.88729
3.88543
3.88365
3.88216
3.88125
3.88085
3.88097
3.88165
3.88264
3.88369
3.88467
3.88553
3.88624
3.8868
3.88721
3.88749
3.88763
3.88764
3.88752
3.88727
3.88689
3.88639
3.88575
3.88499
3.88413
3.88324
3.88243
3.88192
3.88191
3.8822
3.88256
3.88287
3.88307
3.88312
3.88301
3.88276
3.88239
3.88197
3.88163
3.88159
3.88205
3.88281
3.88366
3.88448
3.8852
3.8858
3.88628
3.88664
3.88688
3.88699
3.89466
3.89456
3.89437
3.8941
3.89378
3.89348
3.89328
3.89327
3.89354
3.89401
3.89458
3.89517
3.89572
3.89619
3.89658
3.89688
3.89708
3.89718
3.8972
3.89713
3.89699
3.89682
3.89668
3.89665
3.89684
3.89732
3.89801
3.89883
3.89968
3.90051
3.90129
3.90202
3.90267
3.90327
3.9038
3.90426
3.90467
3.90503
3.90533
3.90558
3.90578
3.90593
3.90604
3.90611
3.90613
3.90611
3.90604
3.90593
3.90579
3.90559
3.90536
3.90508
3.90476
3.90439
3.90398
3.90352
3.903
3.90244
3.90182
3.90114
3.9004
3.89959
3.89872
3.89777
3.89674
3.89562
3.89442
3.89312
3.89174
3.89028
3.88877
3.88728
3.88589
3.88474
3.88396
3.88357
3.88357
3.88392
3.88452
3.88522
3.88592
3.88657
3.88712
3.88757
3.8879
3.88812
3.88823
3.88823
3.88812
3.8879
3.88757
3.88714
3.88661
3.88601
3.88535
3.8847
3.88414
3.88377
3.88365
3.88373
3.88389
3.88405
3.88415
3.88417
3.88409
3.88393
3.88372
3.8835
3.88337
3.88343
3.88374
3.88426
3.88486
3.88547
3.88604
3.88653
3.88693
3.88723
3.88743
3.88753
3.89554
3.89548
3.89535
3.89517
3.89498
3.89482
3.89473
3.89478
3.89499
3.89533
3.89575
3.8962
3.89663
3.89702
3.89736
3.89762
3.89782
3.89794
3.898
3.89801
3.89797
3.89794
3.89793
3.89802
3.89826
3.89866
3.89922
3.89987
3.90056
3.90126
3.90193
3.90257
3.90316
3.90369
3.90418
3.90461
3.90499
3.90532
3.9056
3.90584
3.90603
3.90617
3.90627
3.90633
3.90635
3.90633
3.90626
3.90615
3.90601
3.90582
3.90559
3.90531
3.905
3.90464
3.90423
3.90378
3.90329
3.90274
3.90214
3.90148
3.90077
3.9
3.89917
3.89827
3.89731
3.89627
3.89517
3.894
3.89278
3.89151
3.89024
3.88901
3.88789
3.88696
3.88629
3.8859
3.8858
3.88596
3.8863
3.88675
3.88723
3.8877
3.88811
3.88845
3.88871
3.88888
3.88895
3.88894
3.88883
3.88863
3.88835
3.88799
3.88755
3.88707
3.88656
3.88607
3.88565
3.88535
3.8852
3.88517
3.88522
3.88528
3.88532
3.88531
3.88526
3.88516
3.88504
3.88494
3.88491
3.885
3.88524
3.88561
3.88605
3.88651
3.88695
3.88735
3.88767
3.88792
3.88809
3.88818
3.89649
3.89645
3.89637
3.89626
3.89616
3.89608
3.89606
3.89613
3.8963
3.89656
3.89688
3.89723
3.89758
3.89791
3.8982
3.89844
3.89863
3.89877
3.89886
3.89892
3.89896
3.89901
3.89909
3.89924
3.8995
3.89986
3.90032
3.90086
3.90144
3.90203
3.90261
3.90317
3.90369
3.90417
3.90461
3.90501
3.90536
3.90567
3.90593
3.90615
3.90632
3.90646
3.90655
3.9066
3.90661
3.90659
3.90652
3.90641
3.90627
3.90608
3.90585
3.90559
3.90528
3.90493
3.90454
3.9041
3.90362
3.90309
3.90251
3.90188
3.9012
3.90047
3.89969
3.89884
3.89795
3.89699
3.89599
3.89494
3.89385
3.89275
3.89167
3.89063
3.8897
3.88891
3.88832
3.88794
3.88778
3.8878
3.88798
3.88825
3.88856
3.88888
3.88917
3.88941
3.8896
3.88972
3.88976
3.88973
3.88963
3.88945
3.88921
3.8889
3.88855
3.88816
3.88776
3.88737
3.88704
3.88679
3.88663
3.88655
3.88653
3.88653
3.88652
3.8865
3.88646
3.8864
3.88634
3.88631
3.88632
3.88643
3.88662
3.8869
3.88723
3.88758
3.88792
3.88823
3.88849
3.88869
3.88883
3.8889
3.89749
3.89746
3.89741
3.89735
3.8973
3.89728
3.8973
3.89738
3.89752
3.89773
3.89799
3.89827
3.89856
3.89883
3.89908
3.8993
3.89949
3.89964
3.89976
3.89986
3.89995
3.90005
3.90018
3.90037
3.90062
3.90095
3.90136
3.90181
3.9023
3.90281
3.90331
3.9038
3.90427
3.9047
3.9051
3.90546
3.90578
3.90606
3.9063
3.9065
3.90666
3.90678
3.90687
3.90691
3.90692
3.90689
3.90682
3.90671
3.90657
3.90638
3.90616
3.9059
3.9056
3.90526
3.90488
3.90446
3.90399
3.90348
3.90293
3.90233
3.90169
3.901
3.90026
3.89947
3.89864
3.89776
3.89685
3.8959
3.89494
3.89398
3.89304
3.89215
3.89135
3.89067
3.89014
3.88977
3.88956
3.8895
3.88956
3.8897
3.88988
3.89008
3.89027
3.89044
3.89056
3.89063
3.89065
3.8906
3.8905
3.89034
3.89013
3.88987
3.88958
3.88926
3.88893
3.88862
3.88835
3.88813
3.88797
3.88787
3.88781
3.88778
3.88775
3.88772
3.88769
3.88765
3.88762
3.88762
3.88766
3.88776
3.88791
3.88813
3.88838
3.88865
3.88891
3.88916
3.88936
3.88953
3.88964
3.8897
3.8985
3.89849
3.89847
3.89844
3.89842
3.89843
3.89847
3.89855
3.89869
3.89886
3.89907
3.8993
3.89954
3.89978
3.9
3.9002
3.90038
3.90053
3.90067
3.9008
3.90092
3.90106
3.90122
3.90142
3.90167
3.90198
3.90233
3.90273
3.90315
3.90359
3.90403
3.90446
3.90487
3.90526
3.90561
3.90594
3.90623
3.90649
3.90671
3.90689
3.90704
3.90715
3.90722
3.90726
3.90726
3.90722
3.90715
3.90705
3.9069
3.90672
3.90651
3.90625
3.90596
3.90563
3.90527
3.90486
3.90441
3.90393
3.9034
3.90283
3.90222
3.90157
3.90088
3.90014
3.89937
3.89857
3.89774
3.89689
3.89603
3.89518
3.89436
3.89359
3.89289
3.89229
3.8918
3.89144
3.89121
3.89108
3.89106
3.8911
3.89119
3.8913
3.89141
3.8915
3.89157
3.8916
3.89159
3.89153
3.89143
3.89129
3.8911
3.89088
3.89063
3.89036
3.89009
3.88984
3.88961
3.88941
3.88926
3.88915
3.88907
3.88902
3.88898
3.88894
3.88891
3.88889
3.88888
3.88889
3.88894
3.88902
3.88915
3.88932
3.88951
3.88972
3.88993
3.89012
3.89029
3.89042
3.89051
3.89055
3.89954
3.89953
3.89952
3.89952
3.89952
3.89955
3.8996
3.89968
3.8998
3.89996
3.90013
3.90033
3.90053
3.90074
3.90094
3.90112
3.90129
3.90145
3.9016
3.90174
3.90189
3.90204
3.90222
3.90242
3.90267
3.90295
3.90327
3.90362
3.90399
3.90437
3.90476
3.90514
3.9055
3.90584
3.90616
3.90646
3.90672
3.90695
3.90715
3.90732
3.90745
3.90755
3.90761
3.90764
3.90764
3.9076
3.90753
3.90742
3.90728
3.9071
3.90689
3.90664
3.90636
3.90604
3.90569
3.9053
3.90487
3.90441
3.90391
3.90337
3.90279
3.90218
3.90153
3.90085
3.90014
3.89941
3.89865
3.89789
3.89712
3.89636
3.89563
3.89495
3.89433
3.89379
3.89334
3.89299
3.89273
3.89257
3.89248
3.89246
3.89247
3.89251
3.89255
3.89259
3.89262
3.89261
3.89258
3.89251
3.89241
3.89227
3.8921
3.89191
3.89169
3.89147
3.89124
3.89102
3.89082
3.89065
3.89051
3.8904
3.89031
3.89025
3.8902
3.89016
3.89013
3.89011
3.89011
3.89013
3.89017
3.89025
3.89035
3.89048
3.89064
3.8908
3.89096
3.89111
3.89124
3.89134
3.89142
3.89145
3.90057
3.90057
3.90058
3.90058
3.9006
3.90064
3.9007
3.90078
3.90089
3.90102
3.90118
3.90135
3.90152
3.9017
3.90188
3.90206
3.90222
3.90238
3.90253
3.90268
3.90284
3.903
3.90319
3.90339
3.90363
3.90389
3.90418
3.90449
3.90482
3.90515
3.90549
3.90583
3.90615
3.90645
3.90674
3.907
3.90724
3.90745
3.90763
3.90778
3.90789
3.90798
3.90804
3.90806
3.90805
3.90801
3.90793
3.90783
3.90769
3.90751
3.90731
3.90707
3.9068
3.90649
3.90615
3.90578
3.90537
3.90493
3.90445
3.90394
3.9034
3.90283
3.90223
3.90159
3.90094
3.90026
3.89958
3.89888
3.89819
3.89751
3.89686
3.89625
3.89569
3.8952
3.89477
3.89443
3.89417
3.89398
3.89385
3.89377
3.89373
3.89371
3.89371
3.8937
3.89369
3.89365
3.8936
3.89352
3.89342
3.89329
3.89313
3.89296
3.89277
3.89257
3.89238
3.89219
3.89202
3.89186
3.89173
3.89162
3.89153
3.89146
3.89141
3.89137
3.89134
3.89132
3.89132
3.89134
3.89138
3.89144
3.89152
3.89163
3.89175
3.89187
3.892
3.89212
3.89222
3.8923
3.89236
3.89239
3.90161
3.90161
3.90162
3.90164
3.90167
3.90171
3.90177
3.90185
3.90195
3.90207
3.9022
3.90235
3.90251
3.90267
3.90284
3.903
3.90316
3.90331
3.90346
3.90362
3.90378
3.90395
3.90413
3.90433
3.90455
3.9048
3.90506
3.90534
3.90563
3.90593
3.90623
3.90653
3.90681
3.90709
3.90734
3.90758
3.90779
3.90797
3.90813
3.90827
3.90837
3.90845
3.90849
3.90851
3.90849
3.90845
3.90837
3.90827
3.90813
3.90796
3.90776
3.90753
3.90727
3.90697
3.90665
3.90629
3.9059
3.90548
3.90503
3.90455
3.90404
3.90351
3.90294
3.90236
3.90175
3.90113
3.9005
3.89987
3.89925
3.89863
3.89804
3.89749
3.89698
3.89653
3.89613
3.8958
3.89553
3.89532
3.89516
3.89505
3.89497
3.89491
3.89486
3.89482
3.89477
3.89472
3.89465
3.89456
3.89445
3.89432
3.89418
3.89402
3.89385
3.89368
3.89351
3.89334
3.89319
3.89305
3.89292
3.89282
3.89273
3.89266
3.8926
3.89256
3.89253
3.89252
3.89251
3.89253
3.89256
3.89261
3.89268
3.89276
3.89285
3.89295
3.89305
3.89314
3.89322
3.89329
3.89333
3.89335
3.90264
3.90265
3.90266
3.90268
3.90271
3.90276
3.90282
3.90289
3.90299
3.9031
3.90322
3.90335
3.9035
3.90364
3.90379
3.90394
3.90409
3.90424
3.90439
3.90455
3.90471
3.90488
3.90506
3.90525
3.90546
3.90569
3.90593
3.90618
3.90644
3.90671
3.90697
3.90724
3.90749
3.90773
3.90796
3.90817
3.90836
3.90853
3.90867
3.90879
3.90888
3.90894
3.90898
3.90899
3.90897
3.90892
3.90884
3.90874
3.9086
3.90844
3.90824
3.90802
3.90777
3.90749
3.90717
3.90683
3.90646
3.90607
3.90564
3.90519
3.90471
3.90421
3.90368
3.90314
3.90258
3.90201
3.90144
3.90086
3.90029
3.89973
3.8992
3.89869
3.89822
3.8978
3.89743
3.89711
3.89684
3.89661
3.89644
3.89629
3.89618
3.89609
3.89601
3.89594
3.89587
3.8958
3.89571
3.89561
3.8955
3.89538
3.89524
3.8951
3.89494
3.89479
3.89463
3.89448
3.89434
3.89421
3.8941
3.894
3.89391
3.89384
3.89379
3.89374
3.89371
3.89369
3.89369
3.8937
3.89372
3.89376
3.89382
3.89388
3.89395
3.89403
3.89411
3.89418
3.89424
3.89429
3.89433
3.89434
3.90367
3.90368
3.90369
3.90372
3.90375
3.90379
3.90385
3.90393
3.90401
3.90411
3.90422
3.90434
3.90447
3.90461
3.90475
3.90489
3.90503
3.90518
3.90532
3.90547
3.90563
3.90579
3.90597
3.90615
3.90635
3.90656
3.90678
3.90701
3.90724
3.90748
3.90772
3.90795
3.90818
3.9084
3.9086
3.90879
3.90895
3.9091
3.90923
3.90933
3.90941
3.90946
3.90949
3.90949
3.90947
3.90942
3.90934
3.90924
3.9091
3.90894
3.90876
3.90854
3.9083
3.90803
3.90773
3.90741
3.90705
3.90668
3.90628
3.90585
3.9054
3.90493
3.90444
3.90394
3.90342
3.9029
3.90237
3.90184
3.90132
3.90081
3.90032
3.89985
3.89942
3.89903
3.89867
3.89836
3.89809
3.89786
3.89767
3.89751
3.89738
3.89726
3.89716
3.89707
3.89698
3.89688
3.89679
3.89668
3.89657
3.89645
3.89631
3.89618
3.89604
3.89589
3.89575
3.89562
3.89549
3.89537
3.89526
3.89517
3.89508
3.89501
3.89496
3.89491
3.89488
3.89486
3.89485
3.89486
3.89487
3.8949
3.89494
3.89499
3.89505
3.89511
3.89516
3.89522
3.89527
3.89531
3.89534
3.89535
3.90469
3.9047
3.90471
3.90474
3.90477
3.90482
3.90487
3.90494
3.90502
3.90511
3.90522
3.90533
3.90545
3.90557
3.9057
3.90583
3.90597
3.90611
3.90625
3.90639
3.90654
3.9067
3.90687
3.90704
3.90723
3.90742
3.90762
3.90783
3.90804
3.90826
3.90847
3.90868
3.90888
3.90908
3.90926
3.90942
3.90957
3.9097
3.90981
3.9099
3.90997
3.91001
3.91003
3.91003
3.91
3.90995
3.90987
3.90976
3.90963
3.90948
3.90929
3.90909
3.90885
3.9086
3.90831
3.908
3.90767
3.90731
3.90694
3.90653
3.90611
3.90568
3.90522
3.90475
3.90427
3.90379
3.9033
3.90281
3.90233
3.90186
3.90141
3.90098
3.90058
3.90021
3.89987
3.89957
3.89931
3.89907
3.89887
3.8987
3.89855
3.89842
3.8983
3.89819
3.89808
3.89797
3.89787
3.89776
3.89764
3.89752
3.89739
3.89726
3.89713
3.897
3.89687
3.89674
3.89662
3.89651
3.89641
3.89632
3.89624
3.89617
3.89611
3.89607
3.89603
3.89601
3.896
3.896
3.89601
3.89603
3.89606
3.8961
3.89614
3.89618
3.89623
3.89627
3.89631
3.89634
3.89636
3.89637
3.9057
3.90571
3.90573
3.90575
3.90578
3.90583
3.90588
3.90595
3.90602
3.90611
3.9062
3.9063
3.90641
3.90653
3.90665
3.90677
3.9069
3.90703
3.90717
3.90731
3.90745
3.9076
3.90776
3.90793
3.9081
3.90828
3.90846
3.90865
3.90884
3.90904
3.90923
3.90941
3.90959
3.90976
3.90992
3.91007
3.9102
3.91032
3.91041
3.91049
3.91055
3.91058
3.91059
3.91059
3.91055
3.9105
3.91042
3.91031
3.91019
3.91004
3.90986
3.90966
3.90944
3.90919
3.90892
3.90863
3.90831
3.90797
3.90762
3.90724
3.90684
3.90643
3.90601
3.90557
3.90513
3.90468
3.90423
3.90378
3.90333
3.9029
3.90248
3.90208
3.90171
3.90136
3.90104
3.90075
3.90049
3.90025
3.90005
3.89986
3.8997
3.89956
3.89942
3.8993
3.89918
3.89907
3.89895
3.89884
3.89872
3.8986
3.89848
3.89835
3.89823
3.8981
3.89798
3.89786
3.89775
3.89764
3.89755
3.89746
3.89738
3.89732
3.89726
3.89721
3.89718
3.89715
3.89714
3.89713
3.89714
3.89715
3.89717
3.89719
3.89723
3.89726
3.89729
3.89733
3.89735
3.89738
3.89739
3.8974
3.90671
3.90671
3.90673
3.90675
3.90679
3.90683
3.90688
3.90694
3.90701
3.90709
3.90718
3.90727
3.90737
3.90748
3.90759
3.90771
3.90783
3.90795
3.90808
3.90822
3.90835
3.9085
3.90865
3.9088
3.90896
3.90912
3.90929
3.90947
3.90964
3.90981
3.90998
3.91015
3.91031
3.91047
3.91061
3.91074
3.91085
3.91095
3.91104
3.9111
3.91115
3.91117
3.91118
3.91117
3.91113
3.91107
3.91099
3.91089
3.91077
3.91062
3.91045
3.91026
3.91004
3.90981
3.90955
3.90927
3.90897
3.90865
3.90832
3.90796
3.90759
3.90721
3.90681
3.9064
3.90599
3.90557
3.90515
3.90474
3.90432
3.90392
3.90353
3.90316
3.90281
3.90248
3.90218
3.90189
3.90164
3.90141
3.9012
3.90101
3.90084
3.90069
3.90054
3.90041
3.90028
3.90016
3.90004
3.89992
3.8998
3.89968
3.89956
3.89944
3.89932
3.8992
3.89908
3.89897
3.89887
3.89877
3.89867
3.89859
3.89852
3.89845
3.8984
3.89835
3.89831
3.89828
3.89827
3.89826
3.89825
3.89826
3.89827
3.89829
3.89831
3.89834
3.89836
3.89838
3.89841
3.89842
3.89843
3.89844
3.9077
3.90771
3.90772
3.90775
3.90778
3.90782
3.90787
3.90793
3.90799
3.90806
3.90814
3.90823
3.90833
3.90843
3.90853
3.90864
3.90875
3.90887
3.90899
3.90912
3.90925
3.90938
3.90952
3.90967
3.90982
3.90997
3.91012
3.91028
3.91044
3.91059
3.91075
3.9109
3.91104
3.91118
3.9113
3.91142
3.91152
3.9116
3.91168
3.91173
3.91177
3.91179
3.91179
3.91177
3.91173
3.91167
3.91159
3.91149
3.91137
3.91122
3.91106
3.91088
3.91067
3.91044
3.9102
3.90993
3.90965
3.90935
3.90903
3.9087
3.90835
3.90799
3.90762
3.90724
3.90686
3.90647
3.90608
3.90569
3.90531
3.90493
3.90457
3.90422
3.90389
3.90358
3.90329
3.90301
3.90277
3.90254
3.90233
3.90214
3.90196
3.9018
3.90165
3.90151
3.90138
3.90125
3.90113
3.901
3.90088
3.90076
3.90064
3.90053
3.90041
3.9003
3.90018
3.90008
3.89998
3.89988
3.89979
3.89971
3.89964
3.89958
3.89952
3.89947
3.89944
3.89941
3.89938
3.89937
3.89936
3.89936
3.89937
3.89938
3.89939
3.89941
3.89943
3.89944
3.89946
3.89947
3.89948
3.89949
3.90869
3.9087
3.90871
3.90873
3.90876
3.9088
3.90885
3.9089
3.90896
3.90903
3.90911
3.90919
3.90927
3.90937
3.90947
3.90957
3.90967
3.90979
3.9099
3.91002
3.91014
3.91027
3.9104
3.91053
3.91067
3.91081
3.91095
3.91109
3.91124
3.91138
3.91152
3.91165
3.91178
3.9119
3.91201
3.91211
3.9122
3.91227
3.91233
3.91238
3.91241
3.91242
3.91241
3.91239
3.91235
3.91229
3.91221
3.91211
3.91199
3.91185
3.91169
3.91151
3.91132
3.9111
3.91087
3.91062
3.91035
3.91006
3.90976
3.90945
3.90912
3.90879
3.90844
3.90808
3.90772
3.90736
3.907
3.90664
3.90628
3.90593
3.90559
3.90526
3.90495
3.90465
3.90438
3.90411
3.90387
3.90365
3.90344
3.90325
3.90307
3.90291
3.90275
3.90261
3.90247
3.90234
3.90221
3.90209
3.90196
3.90185
3.90173
3.90161
3.9015
3.90139
3.90128
3.90118
3.90108
3.90099
3.90091
3.90083
3.90076
3.90069
3.90064
3.90059
3.90055
3.90052
3.90049
3.90048
3.90047
3.90046
3.90046
3.90047
3.90047
3.90048
3.9005
3.90051
3.90052
3.90053
3.90053
3.90054
3.90967
3.90968
3.90969
3.90971
3.90974
3.90978
3.90982
3.90987
3.90993
3.90999
3.91006
3.91014
3.91022
3.9103
3.9104
3.91049
3.91059
3.9107
3.9108
3.91091
3.91103
3.91115
3.91127
3.91139
3.91152
3.91165
3.91178
3.91191
3.91204
3.91216
3.91229
3.91241
3.91252
3.91263
3.91272
3.91281
3.91289
3.91295
3.913
3.91304
3.91306
3.91307
3.91306
3.91303
3.91299
3.91292
3.91284
3.91275
3.91263
3.9125
3.91234
3.91217
3.91198
3.91178
3.91156
3.91132
3.91106
3.91079
3.91051
3.91021
3.90991
3.90959
3.90927
3.90893
3.9086
3.90826
3.90792
3.90758
3.90725
3.90692
3.9066
3.90629
3.906
3.90571
3.90545
3.9052
3.90496
3.90474
3.90453
3.90434
3.90417
3.904
3.90384
3.9037
3.90355
3.90342
3.90329
3.90317
3.90304
3.90292
3.90281
3.90269
3.90258
3.90248
3.90237
3.90227
3.90218
3.90209
3.90201
3.90193
3.90186
3.9018
3.90175
3.9017
3.90166
3.90163
3.9016
3.90158
3.90156
3.90155
3.90155
3.90155
3.90155
3.90156
3.90156
3.90157
3.90158
3.90158
3.90159
3.90159
3.91064
3.91065
3.91066
3.91068
3.91071
3.91074
3.91078
3.91083
3.91088
3.91094
3.91101
3.91108
3.91115
3.91124
3.91132
3.91141
3.9115
3.9116
3.9117
3.91181
3.91191
3.91202
3.91213
3.91225
3.91237
3.91248
3.9126
3.91272
3.91284
3.91295
3.91306
3.91317
3.91327
3.91336
3.91345
3.91353
3.91359
3.91365
3.91369
3.91372
3.91373
3.91373
3.91372
3.91369
3.91364
3.91358
3.9135
3.9134
3.91329
3.91316
3.91301
3.91285
3.91267
3.91247
3.91226
3.91203
3.91179
3.91154
3.91127
3.91099
3.9107
3.9104
3.9101
3.90979
3.90947
3.90915
3.90883
3.90852
3.9082
3.9079
3.9076
3.90731
3.90703
3.90676
3.9065
3.90626
3.90603
3.90582
3.90562
3.90543
3.90525
3.90508
3.90492
3.90478
3.90463
3.9045
3.90437
3.90424
3.90412
3.904
3.90389
3.90377
3.90367
3.90356
3.90346
3.90336
3.90327
3.90319
3.90311
3.90303
3.90297
3.9029
3.90285
3.9028
3.90276
3.90272
3.90269
3.90267
3.90265
3.90264
3.90263
3.90263
3.90263
3.90263
3.90263
3.90263
3.90264
3.90264
3.90264
3.90264
3.91161
3.91162
3.91163
3.91165
3.91167
3.9117
3.91174
3.91178
3.91183
3.91189
3.91195
3.91202
3.91209
3.91216
3.91224
3.91233
3.91241
3.9125
3.9126
3.91269
3.91279
3.91289
3.913
3.9131
3.91321
3.91332
3.91343
3.91353
3.91364
3.91374
3.91384
3.91394
3.91403
3.91411
3.91419
3.91425
3.91431
3.91435
3.91439
3.91441
3.91442
3.91441
3.9144
3.91436
3.91431
3.91425
3.91417
3.91408
3.91396
3.91384
3.9137
3.91354
3.91337
3.91318
3.91298
3.91276
3.91253
3.91229
3.91204
3.91178
3.9115
3.91122
3.91094
3.91064
3.91035
3.91005
3.90975
3.90945
3.90916
3.90887
3.90859
3.90831
3.90804
3.90779
3.90754
3.90731
3.90709
3.90688
3.90668
3.9065
3.90632
3.90615
3.906
3.90585
3.90571
3.90557
3.90544
3.90531
3.90519
3.90507
3.90496
3.90485
3.90474
3.90464
3.90454
3.90445
3.90436
3.90428
3.9042
3.90413
3.90406
3.904
3.90394
3.9039
3.90385
3.90382
3.90379
3.90376
3.90374
3.90372
3.90371
3.9037
3.9037
3.9037
3.9037
3.9037
3.9037
3.9037
3.9037
3.9037
3.91257
3.91258
3.91259
3.9126
3.91263
3.91266
3.91269
3.91273
3.91278
3.91283
3.91289
3.91295
3.91301
3.91308
3.91316
3.91324
3.91332
3.9134
3.91349
3.91358
3.91367
3.91377
3.91386
3.91396
3.91406
3.91416
3.91425
3.91435
3.91445
3.91454
3.91463
3.91471
3.91479
3.91486
3.91493
3.91499
3.91503
3.91507
3.9151
3.91511
3.91512
3.91511
3.91509
3.91505
3.915
3.91494
3.91486
3.91476
3.91466
3.91453
3.9144
3.91425
3.91408
3.9139
3.91371
3.9135
3.91329
3.91306
3.91282
3.91257
3.91231
3.91205
3.91178
3.9115
3.91123
3.91094
3.91066
3.91038
3.91011
3.90983
3.90957
3.90931
3.90905
3.90881
3.90857
3.90835
3.90814
3.90793
3.90774
3.90756
3.90738
3.90722
3.90706
3.90691
3.90677
3.90664
3.90651
3.90638
3.90626
3.90614
3.90603
3.90592
3.90582
3.90572
3.90562
3.90553
3.90544
3.90536
3.90528
3.90521
3.90515
3.90509
3.90503
3.90498
3.90494
3.9049
3.90487
3.90484
3.90482
3.9048
3.90479
3.90478
3.90477
3.90476
3.90476
3.90476
3.90476
3.90476
3.90476
3.90476
3.91352
3.91353
3.91354
3.91356
3.91358
3.91361
3.91364
3.91368
3.91372
3.91377
3.91382
3.91388
3.91394
3.914
3.91407
3.91414
3.91422
3.9143
3.91438
3.91446
3.91455
3.91463
3.91472
3.91481
3.9149
3.91499
3.91508
3.91517
3.91525
3.91534
3.91542
3.91549
3.91556
3.91562
3.91568
3.91573
3.91577
3.9158
3.91582
3.91583
3.91583
3.91582
3.91579
3.91575
3.9157
3.91564
3.91556
3.91547
3.91536
3.91524
3.91511
3.91497
3.91481
3.91464
3.91445
3.91426
3.91405
3.91384
3.91361
3.91337
3.91313
3.91288
3.91263
3.91237
3.91211
3.91184
3.91158
3.91131
3.91105
3.91079
3.91054
3.91029
3.91005
3.90982
3.90959
3.90938
3.90917
3.90897
3.90879
3.90861
3.90844
3.90827
3.90812
3.90797
3.90783
3.9077
3.90757
3.90744
3.90732
3.90721
3.9071
3.90699
3.90689
3.90679
3.90669
3.9066
3.90652
3.90644
3.90636
3.90629
3.90623
3.90617
3.90612
3.90607
3.90602
3.90598
3.90595
3.90592
3.9059
3.90588
3.90586
3.90585
3.90584
3.90583
3.90582
3.90582
3.90582
3.90581
3.90581
3.90581
3.91447
3.91448
3.91449
3.9145
3.91452
3.91455
3.91458
3.91461
3.91465
3.9147
3.91475
3.9148
3.91486
3.91492
3.91498
3.91505
3.91512
3.91519
3.91527
3.91534
3.91542
3.9155
3.91558
3.91566
3.91575
3.91583
3.91591
3.91599
3.91606
3.91614
3.91621
3.91628
3.91634
3.91639
3.91644
3.91648
3.91652
3.91654
3.91655
3.91656
3.91655
3.91654
3.91651
3.91647
3.91642
3.91635
3.91627
3.91618
3.91608
3.91597
3.91584
3.9157
3.91555
3.91538
3.91521
3.91502
3.91483
3.91462
3.91441
3.91419
3.91396
3.91372
3.91348
3.91323
3.91299
3.91274
3.91249
3.91224
3.91199
3.91175
3.91151
3.91127
3.91104
3.91082
3.91061
3.9104
3.9102
3.91001
3.90982
3.90965
3.90948
3.90932
3.90917
3.90902
3.90889
3.90875
3.90862
3.9085
3.90838
3.90827
3.90816
3.90805
3.90795
3.90786
3.90776
3.90767
3.90759
3.90751
3.90744
3.90737
3.90731
3.90725
3.90719
3.90714
3.9071
3.90706
3.90703
3.907
3.90697
3.90695
3.90693
3.90691
3.9069
3.90689
3.90688
3.90688
3.90687
3.90687
3.90687
3.90687
3.91541
3.91542
3.91543
3.91544
3.91546
3.91549
3.91551
3.91555
3.91558
3.91563
3.91567
3.91572
3.91577
3.91583
3.91589
3.91595
3.91601
3.91608
3.91615
3.91622
3.91629
3.91637
3.91644
3.91652
3.91659
3.91667
3.91674
3.91681
3.91688
3.91694
3.91701
3.91707
3.91712
3.91717
3.91721
3.91724
3.91727
3.91729
3.9173
3.9173
3.91729
3.91727
3.91724
3.9172
3.91714
3.91708
3.917
3.91691
3.91681
3.9167
3.91658
3.91644
3.9163
3.91614
3.91598
3.9158
3.91561
3.91542
3.91521
3.915
3.91479
3.91456
3.91434
3.9141
3.91387
3.91363
3.9134
3.91316
3.91293
3.9127
3.91247
3.91225
3.91203
3.91181
3.91161
3.91141
3.91122
3.91103
3.91085
3.91068
3.91052
3.91036
3.91021
3.91007
3.90993
3.9098
3.90967
3.90955
3.90944
3.90932
3.90922
3.90911
3.90901
3.90892
3.90883
3.90874
3.90866
3.90858
3.90851
3.90844
3.90838
3.90832
3.90827
3.90822
3.90817
3.90813
3.9081
3.90807
3.90804
3.90801
3.90799
3.90798
3.90796
3.90795
3.90794
3.90794
3.90793
3.90793
3.90792
3.90792
3.91635
3.91636
3.91636
3.91638
3.9164
3.91642
3.91644
3.91648
3.91651
3.91655
3.91659
3.91664
3.91668
3.91674
3.91679
3.91685
3.91691
3.91697
3.91703
3.9171
3.91717
3.91723
3.9173
3.91737
3.91744
3.9175
3.91757
3.91763
3.91769
3.91775
3.91781
3.91786
3.91791
3.91795
3.91798
3.91801
3.91803
3.91804
3.91805
3.91805
3.91803
3.91801
3.91798
3.91793
3.91788
3.91782
3.91774
3.91765
3.91756
3.91745
3.91733
3.9172
3.91706
3.91691
3.91675
3.91658
3.91641
3.91622
3.91603
3.91583
3.91562
3.91541
3.9152
3.91498
3.91476
3.91453
3.91431
3.91409
3.91386
3.91364
3.91343
3.91321
3.91301
3.9128
3.9126
3.91241
3.91223
3.91205
3.91188
3.91171
3.91155
3.9114
3.91125
3.91111
3.91097
3.91084
3.91072
3.9106
3.91049
3.91037
3.91027
3.91017
3.91007
3.90998
3.90989
3.9098
3.90972
3.90965
3.90957
3.90951
3.90944
3.90939
3.90933
3.90928
3.90924
3.9092
3.90916
3.90913
3.9091
3.90908
3.90906
3.90904
3.90902
3.90901
3.909
3.90899
3.90899
3.90898
3.90898
3.90898
3.91728
3.91729
3.9173
3.91731
3.91733
3.91735
3.91737
3.9174
3.91743
3.91747
3.91751
3.91755
3.91759
3.91764
3.91769
3.91774
3.9178
3.91786
3.91791
3.91797
3.91804
3.9181
3.91816
3.91822
3.91828
3.91834
3.9184
3.91846
3.91851
3.91857
3.91861
3.91866
3.9187
3.91873
3.91876
3.91879
3.9188
3.91881
3.91881
3.9188
3.91879
3.91876
3.91873
3.91868
3.91863
3.91856
3.91849
3.91841
3.91831
3.91821
3.91809
3.91797
3.91783
3.91769
3.91754
3.91738
3.91721
3.91703
3.91685
3.91666
3.91646
3.91626
3.91606
3.91585
3.91564
3.91543
3.91522
3.91501
3.9148
3.91459
3.91438
3.91418
3.91398
3.91378
3.91359
3.91341
3.91323
3.91306
3.91289
3.91273
3.91257
3.91243
3.91228
3.91214
3.91201
3.91188
3.91176
3.91164
3.91153
3.91142
3.91132
3.91122
3.91112
3.91103
3.91094
3.91086
3.91078
3.9107
3.91063
3.91057
3.91051
3.91045
3.9104
3.91035
3.9103
3.91026
3.91022
3.91019
3.91016
3.91014
3.91012
3.9101
3.91008
3.91007
3.91005
3.91005
3.91004
3.91003
3.91003
3.91003
3.91821
3.91822
3.91823
3.91824
3.91825
3.91827
3.91829
3.91832
3.91835
3.91838
3.91842
3.91846
3.9185
3.91854
3.91859
3.91864
3.91869
3.91874
3.91879
3.91885
3.9189
3.91896
3.91902
3.91907
3.91913
3.91918
3.91924
3.91929
3.91934
3.91938
3.91942
3.91946
3.9195
3.91953
3.91955
3.91957
3.91958
3.91958
3.91958
3.91957
3.91955
3.91952
3.91949
3.91944
3.91939
3.91932
3.91925
3.91917
3.91907
3.91897
3.91886
3.91874
3.91861
3.91848
3.91833
3.91818
3.91802
3.91785
3.91767
3.91749
3.91731
3.91712
3.91692
3.91673
3.91653
3.91633
3.91613
3.91593
3.91573
3.91553
3.91533
3.91514
3.91495
3.91476
3.91458
3.9144
3.91423
3.91406
3.9139
3.91374
3.91359
3.91345
3.91331
3.91317
3.91304
3.91292
3.9128
3.91268
3.91257
3.91246
3.91236
3.91226
3.91217
3.91208
3.91199
3.91191
3.91183
3.91176
3.91169
3.91162
3.91156
3.91151
3.91145
3.91141
3.91136
3.91132
3.91128
3.91125
3.91122
3.91119
3.91117
3.91115
3.91113
3.91112
3.91111
3.9111
3.91109
3.91108
3.91108
3.91108
3.91914
3.91914
3.91915
3.91916
3.91917
3.91919
3.91921
3.91924
3.91926
3.91929
3.91933
3.91936
3.9194
3.91944
3.91948
3.91953
3.91958
3.91962
3.91967
3.91972
3.91977
3.91982
3.91988
3.91993
3.91998
3.92002
3.92007
3.92012
3.92016
3.9202
3.92024
3.92027
3.9203
3.92032
3.92034
3.92035
3.92036
3.92036
3.92036
3.92034
3.92032
3.92029
3.92025
3.92021
3.92015
3.92009
3.92002
3.91994
3.91985
3.91975
3.91964
3.91953
3.9194
3.91927
3.91913
3.91899
3.91883
3.91867
3.91851
3.91833
3.91816
3.91798
3.91779
3.91761
3.91742
3.91723
3.91704
3.91684
3.91665
3.91646
3.91628
3.91609
3.91591
3.91573
3.91556
3.91539
3.91522
3.91506
3.9149
3.91475
3.91461
3.91446
3.91433
3.9142
3.91407
3.91395
3.91383
3.91371
3.91361
3.9135
3.9134
3.9133
3.91321
3.91312
3.91304
3.91296
3.91288
3.91281
3.91274
3.91268
3.91262
3.91256
3.91251
3.91246
3.91242
3.91237
3.91234
3.9123
3.91227
3.91225
3.91222
3.9122
3.91218
3.91217
3.91216
3.91215
3.91214
3.91213
3.91213
3.91213
3.92006
3.92006
3.92007
3.92008
3.92009
3.92011
3.92013
3.92015
3.92017
3.9202
3.92023
3.92027
3.9203
3.92034
3.92038
3.92042
3.92046
3.92051
3.92055
3.9206
3.92064
3.92069
3.92073
3.92078
3.92082
3.92087
3.92091
3.92095
3.92099
3.92102
3.92105
3.92108
3.92111
3.92113
3.92114
3.92115
3.92115
3.92115
3.92114
3.92112
3.9211
3.92107
3.92103
3.92098
3.92093
3.92087
3.9208
3.92072
3.92063
3.92053
3.92043
3.92032
3.9202
3.92007
3.91994
3.9198
3.91965
3.9195
3.91934
3.91918
3.91901
3.91884
3.91867
3.91849
3.91831
3.91813
3.91795
3.91776
3.91758
3.9174
3.91722
3.91705
3.91687
3.9167
3.91653
3.91637
3.91621
3.91605
3.9159
3.91575
3.91561
3.91548
3.91534
3.91521
3.91509
3.91497
3.91485
3.91474