/*--------------------------------*- C++ -*----------------------------------*\
| =========                 |                                                 |
| \\      /  F ield         | OpenFOAM: The Open Source CFD Toolbox           |
|  \\    /   O peration     | Version:  2406                                  |
|   \\  /    A nd           | Website:  www.openfoam.com                      |
|    \\/     M anipulation  |                                                 |
\*---------------------------------------------------------------------------*/
FoamFile
{
    version     2.0;
    format      ascii;
    arch        "LSB;label=32;scalar=64";
    class       volScalarField;
    location    "7.3";
    object      D;
}
// * * * * * * * * * * * * * * * * * * * * * * * * * * * * * * * * * * * * * //

dimensions      [0 2 -1 0 0 0 0];

internalField   nonuniform List<scalar> 
14400
(
6.76832e-05
6.75987e-05
6.74683e-05
6.73326e-05
6.72163e-05
6.71294e-05
6.70741e-05
6.70509e-05
6.7062e-05
6.71131e-05
6.7212e-05
6.73647e-05
6.75651e-05
6.77782e-05
6.79187e-05
6.7861e-05
6.75352e-05
6.70474e-05
6.65061e-05
6.59605e-05
6.54185e-05
6.48727e-05
6.43168e-05
6.37519e-05
6.31876e-05
6.26391e-05
6.21234e-05
6.16569e-05
6.12537e-05
6.09271e-05
6.06912e-05
6.05659e-05
6.05849e-05
6.08153e-05
6.14168e-05
6.29009e-05
6.80911e-05
0.000112534
0.00013824
0.00013824
0.00013824
0.00013824
0.00013824
0.00013824
0.00013824
0.00013824
0.00013824
0.00013824
0.00013824
0.00013824
0.00013824
0.00013824
0.00013824
0.00013824
0.00013824
0.00013824
0.00013824
0.00013824
0.00013824
0.000138224
9.49818e-05
6.71522e-05
6.30058e-05
6.17895e-05
6.13633e-05
6.13026e-05
6.14727e-05
6.18202e-05
6.23209e-05
6.29601e-05
6.37215e-05
6.45768e-05
6.54789e-05
6.63599e-05
6.71406e-05
6.77484e-05
6.81364e-05
6.8295e-05
6.82534e-05
6.80731e-05
6.7839e-05
6.76538e-05
6.7646e-05
6.80173e-05
6.92392e-05
7.32272e-05
9.42255e-05
0.000138139
0.000107605
7.3802e-05
6.84692e-05
6.67157e-05
6.59347e-05
6.55823e-05
6.54675e-05
6.54988e-05
6.56226e-05
6.58016e-05
6.60065e-05
6.62113e-05
6.63907e-05
6.65191e-05
6.65725e-05
6.6533e-05
6.63957e-05
6.6171e-05
6.58804e-05
6.55501e-05
6.52064e-05
6.48744e-05
6.45788e-05
6.43458e-05
6.42068e-05
6.42053e-05
6.44136e-05
6.49783e-05
6.62833e-05
6.9831e-05
8.55221e-05
0.000137877
6.75389e-05
6.73971e-05
6.71928e-05
6.69916e-05
6.68261e-05
6.67063e-05
6.66325e-05
6.66039e-05
6.66221e-05
6.66932e-05
6.68274e-05
6.70353e-05
6.73194e-05
6.76527e-05
6.79373e-05
6.79677e-05
6.75461e-05
6.69308e-05
6.62967e-05
6.56986e-05
6.51351e-05
6.459e-05
6.405e-05
6.35113e-05
6.2979e-05
6.24645e-05
6.19824e-05
6.15475e-05
6.11734e-05
6.08737e-05
6.06638e-05
6.05659e-05
6.06178e-05
6.08959e-05
6.15836e-05
6.32709e-05
6.91695e-05
0.000124296
0.00013824
0.00013824
0.00013824
0.00013824
0.00013824
0.00013824
0.00013824
0.00013824
0.00013824
0.00013824
0.00013824
0.00013824
0.00013824
0.00013824
0.00013824
0.00013824
0.00013824
0.00013824
0.00013824
0.00013824
0.00013824
0.000138239
0.000106634
6.80478e-05
6.32401e-05
6.18883e-05
6.14003e-05
6.12981e-05
6.14328e-05
6.17445e-05
6.22049e-05
6.27964e-05
6.35008e-05
6.429e-05
6.51198e-05
6.59292e-05
6.6648e-05
6.72119e-05
6.75795e-05
6.77428e-05
6.77287e-05
6.75943e-05
6.74191e-05
6.7301e-05
6.73674e-05
6.78284e-05
6.9206e-05
7.38778e-05
0.000103318
0.000138228
0.000120745
7.49302e-05
6.87178e-05
6.67277e-05
6.58349e-05
6.54137e-05
6.52491e-05
6.5241e-05
6.53329e-05
6.54874e-05
6.56762e-05
6.58744e-05
6.60566e-05
6.61951e-05
6.62606e-05
6.62293e-05
6.60935e-05
6.58673e-05
6.5578e-05
6.52559e-05
6.49287e-05
6.46204e-05
6.43544e-05
6.41556e-05
6.40549e-05
6.40975e-05
6.43619e-05
6.50147e-05
6.65277e-05
7.11168e-05
9.95044e-05
0.000138223
6.74609e-05
6.71605e-05
6.67819e-05
6.64443e-05
6.61842e-05
6.60041e-05
6.58974e-05
6.58588e-05
6.58885e-05
6.59937e-05
6.61891e-05
6.64973e-05
6.69445e-05
6.75434e-05
6.82217e-05
6.8605e-05
6.77955e-05
6.68194e-05
6.59681e-05
6.5259e-05
6.46509e-05
6.41031e-05
6.35879e-05
6.30917e-05
6.26124e-05
6.21557e-05
6.17316e-05
6.13522e-05
6.10306e-05
6.07809e-05
6.06208e-05
6.0577e-05
6.06972e-05
6.10818e-05
6.19958e-05
6.44367e-05
7.47003e-05
0.000137182
0.00013824
0.00013824
0.00013824
0.00013824
0.00013824
0.00013824
0.00013824
0.00013824
0.00013824
0.00013824
0.00013824
0.00013824
0.00013824
0.00013824
0.00013824
0.00013824
0.00013824
0.00013824
0.00013824
0.00013824
0.00013824
0.00013824
0.000125598
6.98742e-05
6.38273e-05
6.21328e-05
6.14957e-05
6.1303e-05
6.13663e-05
6.16096e-05
6.19958e-05
6.25017e-05
6.3106e-05
6.37809e-05
6.44876e-05
6.51757e-05
6.57893e-05
6.62782e-05
6.66104e-05
6.67809e-05
6.68136e-05
6.67584e-05
6.6686e-05
6.66883e-05
6.68939e-05
6.75331e-05
6.92187e-05
7.49883e-05
0.00011899
0.00013824
0.00013595
7.89133e-05
6.95909e-05
6.6873e-05
6.57097e-05
6.5146e-05
6.48873e-05
6.4809e-05
6.48465e-05
6.4961e-05
6.51255e-05
6.53168e-05
6.551e-05
6.56734e-05
6.57673e-05
6.57527e-05
6.5615e-05
6.53775e-05
6.5082e-05
6.47674e-05
6.44633e-05
6.41926e-05
6.3976e-05
6.38364e-05
6.38053e-05
6.39328e-05
6.4312e-05
6.51557e-05
6.71128e-05
7.34411e-05
0.00012285
0.00013824
6.79799e-05
6.72089e-05
6.64596e-05
6.58883e-05
6.54866e-05
6.52231e-05
6.50724e-05
6.50201e-05
6.50631e-05
6.52104e-05
6.54856e-05
6.59325e-05
6.66311e-05
6.77277e-05
6.94901e-05
7.21047e-05
6.89308e-05
6.69451e-05
6.5664e-05
6.47693e-05
6.40886e-05
6.35278e-05
6.30352e-05
6.25844e-05
6.21644e-05
6.17744e-05
6.14197e-05
6.11094e-05
6.08556e-05
6.06734e-05
6.05843e-05
6.06223e-05
6.08522e-05
6.14223e-05
6.27955e-05
6.75293e-05
0.00010839
0.000138239
0.00013824
0.00013824
0.00013824
0.00013824
0.00013824
0.00013824
0.00013824
0.00013824
0.00013824
0.00013824
0.00013824
0.00013824
0.00013824
0.00013824
0.00013824
0.00013824
0.00013824
0.00013824
0.00013824
0.00013824
0.00013824
0.00013824
0.000137988
8.07666e-05
6.55424e-05
6.26572e-05
6.16939e-05
6.13435e-05
6.12974e-05
6.14441e-05
6.17314e-05
6.21283e-05
6.26096e-05
6.31483e-05
6.37114e-05
6.42598e-05
6.47529e-05
6.51556e-05
6.54468e-05
6.56252e-05
6.57122e-05
6.57504e-05
6.58032e-05
6.59597e-05
6.63612e-05
6.72992e-05
6.96497e-05
7.77715e-05
0.000134709
0.00013824
0.000138239
0.000110335
7.26687e-05
6.74172e-05
6.56932e-05
6.4895e-05
6.45002e-05
6.43292e-05
6.43002e-05
6.43698e-05
6.45118e-05
6.47054e-05
6.49274e-05
6.51423e-05
6.52931e-05
6.53082e-05
6.51536e-05
6.48776e-05
6.45516e-05
6.42293e-05
6.39416e-05
6.37087e-05
6.35486e-05
6.3483e-05
6.35462e-05
6.38005e-05
6.43742e-05
6.56079e-05
6.8894e-05
8.489e-05
0.000137974
0.00013824
7.12671e-05
6.81851e-05
6.65122e-05
6.55248e-05
6.49124e-05
6.45368e-05
6.43297e-05
6.42592e-05
6.43167e-05
6.45147e-05
6.48914e-05
6.553e-05
6.66264e-05
6.87524e-05
7.45692e-05
0.000104318
7.33434e-05
6.77109e-05
6.55491e-05
6.43581e-05
6.35665e-05
6.29735e-05
6.24912e-05
6.20768e-05
6.17102e-05
6.13841e-05
6.10993e-05
6.08625e-05
6.06851e-05
6.05844e-05
6.05877e-05
6.07424e-05
6.11452e-05
6.2037e-05
6.42603e-05
7.27851e-05
0.00013622
0.00013824
0.00013824
0.00013824
0.00013824
0.00013824
0.00013824
0.00013824
0.00013824
0.00013824
0.00013824
0.00013824
0.00013824
0.00013824
0.00013824
0.00013824
0.00013824
0.00013824
0.00013824
0.00013824
0.00013824
0.00013824
0.00013824
0.00013824
0.00013824
0.000119735
6.92484e-05
6.3629e-05
6.20589e-05
6.14593e-05
6.12606e-05
6.12849e-05
6.14564e-05
6.17334e-05
6.20865e-05
6.24888e-05
6.29125e-05
6.33286e-05
6.37093e-05
6.40323e-05
6.42858e-05
6.44727e-05
6.46129e-05
6.47448e-05
6.49287e-05
6.52598e-05
6.59161e-05
6.73627e-05
7.18201e-05
0.000102129
0.000138231
0.00013824
0.00013824
0.000136997
7.9422e-05
6.87989e-05
6.59991e-05
6.48125e-05
6.42202e-05
6.39308e-05
6.38257e-05
6.38513e-05
6.3981e-05
6.41969e-05
6.44815e-05
6.48022e-05
6.50766e-05
6.51559e-05
6.49385e-05
6.45559e-05
6.41454e-05
6.3781e-05
6.34888e-05
6.32832e-05
6.31787e-05
6.31975e-05
6.33824e-05
6.38254e-05
6.47378e-05
6.67816e-05
7.34719e-05
0.000127126
0.00013824
0.00013824
9.77901e-05
7.24432e-05
6.74585e-05
6.55841e-05
6.46169e-05
6.40743e-05
6.37887e-05
6.36929e-05
6.37682e-05
6.40339e-05
6.45572e-05
6.55022e-05
6.73746e-05
7.26964e-05
0.000108138
0.00013821
9.56546e-05
7.01391e-05
6.58292e-05
6.41494e-05
6.31843e-05
6.25261e-05
6.20316e-05
6.16367e-05
6.13103e-05
6.10385e-05
6.08182e-05
6.06543e-05
6.05591e-05
6.05546e-05
6.06798e-05
6.10107e-05
6.17254e-05
6.33913e-05
6.91067e-05
0.000120227
0.00013824
0.00013824
0.00013824
0.00013824
0.00013824
0.00013824
0.00013824
0.00013824
0.00013824
0.00013824
0.00013824
0.00013824
0.00013824
0.00013824
0.00013824
0.00013824
0.00013824
0.00013824
0.00013824
0.00013824
0.00013824
0.00013824
0.00013824
0.00013824
0.00013824
0.000138143
8.47403e-05
6.59129e-05
6.2762e-05
6.17253e-05
6.13062e-05
6.11762e-05
6.12165e-05
6.13692e-05
6.15981e-05
6.18753e-05
6.21768e-05
6.24806e-05
6.27684e-05
6.30272e-05
6.32523e-05
6.34502e-05
6.36411e-05
6.38632e-05
6.41809e-05
6.47101e-05
6.57015e-05
6.78954e-05
7.50166e-05
0.000130895
0.00013824
0.00013824
0.00013824
0.00013824
0.000127148
7.39751e-05
6.72406e-05
6.51493e-05
6.42045e-05
6.37417e-05
6.35402e-05
6.35215e-05
6.36565e-05
6.39313e-05
6.43461e-05
6.49035e-05
6.55103e-05
6.58038e-05
6.53356e-05
6.46477e-05
6.40248e-05
6.35511e-05
6.32153e-05
6.3017e-05
6.2966e-05
6.30875e-05
6.3445e-05
6.42176e-05
6.59132e-05
7.10744e-05
0.000106941
0.000138238
0.00013824
0.00013824
0.00013821
9.86889e-05
7.13759e-05
6.65575e-05
6.48099e-05
6.39652e-05
6.35518e-05
6.34166e-05
6.3518e-05
6.38914e-05
6.46767e-05
6.62535e-05
7.03097e-05
9.10339e-05
0.000138166
0.00013824
0.000134304
7.48652e-05
6.68534e-05
6.43186e-05
6.30456e-05
6.2258e-05
6.17148e-05
6.13151e-05
6.10116e-05
6.0782e-05
6.06192e-05
6.05278e-05
6.05236e-05
6.06388e-05
6.09396e-05
6.15716e-05
6.29716e-05
6.73298e-05
9.81582e-05
0.000138235
0.00013824
0.00013824
0.00013824
0.00013824
0.00013824
0.00013824
0.00013824
0.00013824
0.00013824
0.00013824
0.00013824
0.00013824
0.00013824
0.00013824
0.00013824
0.00013824
0.00013824
0.00013824
0.00013824
0.00013824
0.00013824
0.00013824
0.00013824
0.00013824
0.00013824
0.00013824
0.000131969
7.10065e-05
6.4194e-05
6.22973e-05
6.15174e-05
6.11742e-05
6.10585e-05
6.10802e-05
6.11899e-05
6.13555e-05
6.15537e-05
6.1767e-05
6.1983e-05
6.2195e-05
6.24032e-05
6.26176e-05
6.28611e-05
6.31769e-05
6.36445e-05
6.44316e-05
6.60113e-05
7.06955e-05
0.000103736
0.000138236
0.00013824
0.00013824
0.00013824
0.00013824
0.00013824
0.000114608
7.24424e-05
6.65551e-05
6.47227e-05
6.39411e-05
6.35825e-05
6.35073e-05
6.36814e-05
6.4094e-05
6.47973e-05
6.60158e-05
6.79674e-05
6.97653e-05
6.75318e-05
6.56794e-05
6.44443e-05
6.37111e-05
6.32497e-05
6.30232e-05
6.30307e-05
6.33072e-05
6.39621e-05
6.54909e-05
6.98848e-05
9.39391e-05
0.00013821
0.00013824
0.00013824
0.00013824
0.00013824
0.000138197
9.42874e-05
7.06844e-05
6.60577e-05
6.44595e-05
6.37894e-05
6.35818e-05
6.37299e-05
6.43149e-05
6.57506e-05
6.94113e-05
8.3837e-05
0.000137878
0.00013824
0.00013824
0.00013824
0.00011932
7.15748e-05
6.54103e-05
6.33349e-05
6.22614e-05
6.16017e-05
6.11611e-05
6.08591e-05
6.06589e-05
6.05488e-05
6.0535e-05
6.06429e-05
6.0928e-05
6.15289e-05
6.28109e-05
6.63661e-05
8.53533e-05
0.000138158
0.00013824
0.00013824
0.00013824
0.00013824
0.00013824
0.00013824
0.00013824
0.00013824
0.00013824
0.00013824
0.00013824
0.00013824
0.00013824
0.00013824
0.00013824
0.00013824
0.00013824
0.00013824
0.00013824
0.00013824
0.00013824
0.00013824
0.00013824
0.00013824
0.00013824
0.00013824
0.00013824
0.00013824
0.000116761
6.92523e-05
6.37068e-05
6.20719e-05
6.13661e-05
6.10379e-05
6.0909e-05
6.0898e-05
6.09603e-05
6.10698e-05
6.12101e-05
6.13721e-05
6.15529e-05
6.17568e-05
6.19977e-05
6.23048e-05
6.27349e-05
6.34015e-05
6.45784e-05
6.72104e-05
7.70082e-05
0.00013676
0.00013824
0.00013824
0.00013824
0.00013824
0.00013824
0.00013824
0.000138239
0.000111994
7.22859e-05
6.65686e-05
6.49817e-05
6.42378e-05
6.40469e-05
6.43597e-05
6.51627e-05
6.66698e-05
7.09743e-05
8.22631e-05
0.000104911
7.91726e-05
7.025e-05
6.61423e-05
6.46925e-05
6.3849e-05
6.3507e-05
6.36059e-05
6.4233e-05
6.55971e-05
7.01655e-05
9.32335e-05
0.000138183
0.00013824
0.00013824
0.00013824
0.00013824
0.00013824
0.00013824
0.000138202
9.96039e-05
7.14138e-05
6.6413e-05
6.5019e-05
6.46362e-05
6.48974e-05
6.60374e-05
7.04176e-05
8.86931e-05
0.000137866
0.00013824
0.00013824
0.00013824
0.00013824
0.000138237
0.000103016
6.97124e-05
6.45461e-05
6.27217e-05
6.17952e-05
6.12491e-05
6.09179e-05
6.0734e-05
6.06774e-05
6.07617e-05
6.10394e-05
6.16229e-05
6.29291e-05
6.6488e-05
8.24344e-05
0.000138021
0.00013824
0.00013824
0.00013824
0.00013824
0.00013824
0.00013824
0.00013824
0.00013824
0.00013824
0.00013824
0.00013824
0.00013824
0.00013824
0.00013824
0.00013824
0.00013824
0.00013824
0.00013824
0.00013824
0.00013824
0.00013824
0.00013824
0.00013824
0.00013824
0.00013824
0.00013824
0.00013824
0.00013824
0.00013824
0.000138238
0.000102934
6.82745e-05
6.34489e-05
6.19251e-05
6.12424e-05
6.09112e-05
6.07613e-05
6.0718e-05
6.07447e-05
6.08229e-05
6.09439e-05
6.11072e-05
6.13211e-05
6.16062e-05
6.20045e-05
6.26073e-05
6.36223e-05
6.5686e-05
7.22291e-05
0.000126383
0.00013824
0.00013824
0.00013824
0.00013824
0.00013824
0.00013824
0.00013824
0.00013824
0.00013824
0.000122052
7.41447e-05
6.92241e-05
6.65185e-05
6.58716e-05
6.68557e-05
6.97019e-05
7.47482e-05
0.000116425
0.000137893
0.000138237
0.000137531
0.000110748
7.3156e-05
6.87396e-05
6.5876e-05
6.50773e-05
6.54178e-05
6.76258e-05
7.19297e-05
0.000106065
0.000138209
0.00013824
0.00013824
0.00013824
0.00013824
0.00013824
0.00013824
0.00013824
0.00013824
0.000138232
0.000118725
7.48992e-05
7.01366e-05
6.89565e-05
6.9777e-05
7.31067e-05
0.00011006
0.000138155
0.00013824
0.00013824
0.00013824
0.00013824
0.00013824
0.00013824
0.000138227
9.71067e-05
6.91486e-05
6.42258e-05
6.2556e-05
6.1746e-05
6.13275e-05
6.11431e-05
6.11555e-05
6.14014e-05
6.20453e-05
6.33628e-05
6.76503e-05
8.86634e-05
0.000138062
0.00013824
0.00013824
0.00013824
0.00013824
0.00013824
0.00013824
0.00013824
0.00013824
0.00013824
0.00013824
0.00013824
0.00013824
0.00013824
0.00013824
0.00013824
0.00013824
0.00013824
0.00013824
0.00013824
0.00013824
0.00013824
0.00013824
0.00013824
0.00013824
0.00013824
0.00013824
0.00013824
0.00013824
0.00013824
0.00013824
0.00013824
0.000138231
9.6965e-05
6.79779e-05
6.33675e-05
6.18641e-05
6.11902e-05
6.08453e-05
6.0672e-05
6.0608e-05
6.06263e-05
6.07149e-05
6.08739e-05
6.11181e-05
6.14808e-05
6.20314e-05
6.29609e-05
6.4825e-05
7.04497e-05
0.000111717
0.00013824
0.00013824
0.00013824
0.00013824
0.00013824
0.00013824
0.00013824
0.00013824
0.00013824
0.00013824
0.00013824
0.000134762
0.000103737
7.65973e-05
7.27159e-05
7.91036e-05
0.000108374
0.00013564
0.00013824
0.00013824
0.00013824
0.00013824
0.00013824
0.000133053
0.000101256
7.42086e-05
7.10321e-05
7.23027e-05
9.05491e-05
0.000127514
0.000138238
0.00013824
0.00013824
0.00013824
0.00013824
0.00013824
0.00013824
0.00013824
0.00013824
0.00013824
0.00013824
0.00013824
0.000136147
0.000115606
0.000101596
0.000112015
0.000133495
0.000138239
0.00013824
0.00013824
0.00013824
0.00013824
0.00013824
0.00013824
0.00013824
0.00013824
0.000138228
0.00010402
7.00417e-05
6.48867e-05
6.31885e-05
6.25128e-05
6.22915e-05
6.24439e-05
6.30749e-05
6.52052e-05
6.96887e-05
0.00010596
0.000138203
0.00013824
0.00013824
0.00013824
0.00013824
0.00013824
0.00013824
0.00013824
0.00013824
0.00013824
0.00013824
0.00013824
0.00013824
0.00013824
0.00013824
0.00013824
0.00013824
0.00013824
0.00013824
0.00013824
0.00013824
0.00013824
0.00013824
0.00013824
0.00013824
0.00013824
0.00013824
0.00013824
0.00013824
0.00013824
0.00013824
0.00013824
0.00013824
0.00013824
0.000138229
9.93694e-05
6.84333e-05
6.35211e-05
6.20156e-05
6.13015e-05
6.09169e-05
6.07246e-05
6.06722e-05
6.07322e-05
6.09033e-05
6.12141e-05
6.17318e-05
6.25852e-05
6.43478e-05
6.96346e-05
0.000104096
0.000138238
0.00013824
0.00013824
0.00013824
0.00013824
0.00013824
0.00013824
0.00013824
0.00013824
0.00013824
0.00013824
0.00013824
0.00013824
0.000138237
0.000136981
0.000133137
0.000137588
0.000138239
0.00013824
0.00013824
0.00013824
0.00013824
0.00013824
0.00013824
0.00013824
0.000138235
0.000135901
0.000127713
0.000133165
0.000138196
0.00013824
0.00013824
0.00013824
0.00013824
0.00013824
0.00013824
0.00013824
0.00013824
0.00013824
0.00013824
0.00013824
0.00013824
0.00013824
0.00013824
0.00013824
0.000138235
0.00013824
0.00013824
0.00013824
0.00013824
0.00013824
0.00013824
0.00013824
0.00013824
0.00013824
0.00013824
0.00013824
0.00013824
0.000138238
0.000123159
7.55154e-05
6.85438e-05
6.66494e-05
6.61847e-05
6.70237e-05
6.91103e-05
8.51495e-05
0.000128168
0.000138239
0.00013824
0.00013824
0.00013824
0.00013824
0.00013824
0.00013824
0.00013824
0.00013824
0.00013824
0.00013824
0.00013824
0.00013824
0.00013824
0.00013824
0.00013824
0.00013824
0.00013824
0.00013824
0.00013824
0.00013824
0.00013824
0.00013824
0.00013824
0.00013824
0.00013824
0.00013824
0.00013824
0.00013824
0.00013824
0.00013824
0.00013824
0.00013824
0.00013824
0.00013824
0.00013824
0.000138236
0.000110589
6.96862e-05
6.4474e-05
6.26186e-05
6.17148e-05
6.12638e-05
6.11006e-05
6.11298e-05
6.13411e-05
6.18055e-05
6.2736e-05
6.4388e-05
6.98769e-05
0.000106709
0.000138237
0.00013824
0.00013824
0.00013824
0.00013824
0.00013824
0.00013824
0.00013824
0.00013824
0.00013824
0.00013824
0.00013824
0.00013824
0.00013824
0.00013824
0.00013824
0.00013824
0.00013824
0.00013824
0.00013824
0.00013824
0.00013824
0.00013824
0.00013824
0.00013824
0.00013824
0.00013824
0.00013824
0.00013824
0.00013824
0.00013824
0.00013824
0.00013824
0.00013824
0.00013824
0.00013824
0.00013824
0.00013824
0.00013824
0.00013824
0.00013824
0.00013824
0.00013824
0.00013824
0.00013824
0.00013824
0.00013824
0.00013824
0.00013824
0.00013824
0.00013824
0.00013824
0.00013824
0.00013824
0.00013824
0.00013824
0.00013824
0.00013824
0.00013824
0.00013824
0.00013824
0.000137375
0.000117402
9.62902e-05
9.20802e-05
0.000104391
0.00012621
0.00013817
0.00013824
0.00013824
0.00013824
0.00013824
0.00013824
0.00013824
0.00013824
0.00013824
0.00013824
0.00013824
0.00013824
0.00013824
0.00013824
0.00013824
0.00013824
0.00013824
0.00013824
0.00013824
0.00013824
0.00013824
0.00013824
0.00013824
0.00013824
0.00013824
0.00013824
0.00013824
0.00013824
0.00013824
0.00013824
0.00013824
0.00013824
0.00013824
0.00013824
0.00013824
0.00013824
0.00013824
0.00013824
0.00013824
0.00013824
0.000127723
7.65692e-05
6.75373e-05
6.41147e-05
6.27921e-05
6.23847e-05
6.23646e-05
6.26888e-05
6.35925e-05
6.65876e-05
7.16192e-05
0.000120131
0.000138239
0.00013824
0.00013824
0.00013824
0.00013824
0.00013824
0.00013824
0.00013824
0.00013824
0.00013824
0.00013824
0.00013824
0.00013824
0.00013824
0.00013824
0.00013824
0.00013824
0.00013824
0.00013824
0.00013824
0.00013824
0.00013824
0.00013824
0.00013824
0.00013824
0.00013824
0.00013824
0.00013824
0.00013824
0.00013824
0.00013824
0.00013824
0.00013824
0.00013824
0.00013824
0.00013824
0.00013824
0.00013824
0.00013824
0.00013824
0.00013824
0.00013824
0.00013824
0.00013824
0.00013824
0.00013824
0.00013824
0.00013824
0.00013824
0.00013824
0.00013824
0.00013824
0.00013824
0.00013824
0.00013824
0.00013824
0.00013824
0.00013824
0.00013824
0.00013824
0.00013824
0.00013824
0.00013824
0.00013824
0.00013823
0.000138218
0.000138239
0.00013824
0.00013824
0.00013824
0.00013824
0.00013824
0.00013824
0.00013824
0.00013824
0.00013824
0.00013824
0.00013824
0.00013824
0.00013824
0.00013824
0.00013824
0.00013824
0.00013824
0.00013824
0.00013824
0.00013824
0.00013824
0.00013824
0.00013824
0.00013824
0.00013824
0.00013824
0.00013824
0.00013824
0.00013824
0.00013824
0.00013824
0.00013824
0.00013824
0.00013824
0.00013824
0.00013824
0.00013824
0.00013824
0.00013824
0.00013824
0.00013824
0.00013824
0.000137735
0.000113122
7.54096e-05
6.84743e-05
6.71979e-05
6.6984e-05
6.78213e-05
7.04057e-05
9.80307e-05
0.000134353
0.00013824
0.00013824
0.00013824
0.00013824
0.00013824
0.00013824
0.00013824
0.00013824
0.00013824
0.00013824
0.00013824
0.00013824
0.00013824
0.00013824
0.00013824
0.00013824
0.00013824
0.00013824
0.00013824
0.00013824
0.00013824
0.00013824
0.00013824
0.00013824
0.00013824
0.00013824
0.00013824
0.00013824
0.00013824
0.00013824
0.00013824
0.00013824
0.00013824
0.00013824
0.00013824
0.00013824
0.00013824
0.00013824
0.00013824
0.00013824
0.00013824
0.00013824
0.00013824
0.00013824
0.00013824
0.00013824
0.00013824
0.00013824
0.00013824
0.00013824
0.00013824
0.00013824
0.00013824
0.00013824
0.00013824
0.00013824
0.00013824
0.00013824
0.00013824
0.00013824
0.00013824
0.00013824
0.00013824
0.00013824
0.00013824
0.00013824
0.00013824
0.00013824
0.00013824
0.00013824
0.00013824
0.00013824
0.00013824
0.00013824
0.00013824
0.00013824
0.00013824
0.00013824
0.00013824
0.00013824
0.00013824
0.00013824
0.00013824
0.00013824
0.00013824
0.00013824
0.00013824
0.00013824
0.00013824
0.00013824
0.00013824
0.00013824
0.00013824
0.00013824
0.00013824
0.00013824
0.00013824
0.00013824
0.00013824
0.00013824
0.00013824
0.00013824
0.00013824
0.00013824
0.00013824
0.00013824
0.00013824
0.00013824
0.00013824
0.00013824
0.00013824
0.00013824
0.000137569
0.000123933
0.000109035
0.000105109
0.000115282
0.000133032
0.000138235
0.00013824
0.00013824
0.00013824
0.00013824
0.00013824
0.00013824
0.00013824
0.00013824
0.00013824
0.00013824
0.00013824
0.00013824
0.00013824
0.00013824
0.00013824
0.00013824
0.00013824
0.00013824
0.00013824
0.00013824
0.00013824
0.00013824
0.00013824
0.00013824
0.00013824
0.00013824
0.00013824
0.00013824
0.00013824
0.00013824
0.00013824
0.00013824
0.00013824
0.00013824
0.00013824
0.00013824
0.00013824
0.00013824
0.00013824
0.00013824
0.00013824
0.00013824
0.00013824
0.00013824
0.00013824
0.00013824
0.00013824
0.00013824
0.00013824
0.00013824
0.00013824
0.00013824
0.00013824
0.00013824
0.00013824
0.00013824
0.00013824
0.00013824
0.00013824
0.00013824
0.00013824
0.00013824
0.00013824
0.00013824
0.00013824
0.00013824
0.00013824
0.00013824
0.00013824
0.00013824
0.00013824
0.00013824
0.00013824
0.00013824
0.00013824
0.00013824
0.00013824
0.00013824
0.00013824
0.00013824
0.00013824
0.00013824
0.00013824
0.00013824
0.00013824
0.00013824
0.00013824
0.00013824
0.00013824
0.00013824
0.00013824
0.00013824
0.00013824
0.00013824
0.00013824
0.00013824
0.00013824
0.00013824
0.00013824
0.00013824
0.00013824
0.00013824
0.00013824
0.00013824
0.00013824
0.00013824
0.00013824
0.00013824
0.00013824
0.00013824
0.00013824
0.00013824
0.00013824
0.00013824
0.00013824
0.00013824
0.000138239
0.00013824
0.00013824
0.00013824
0.00013824
0.00013824
0.00013824
0.00013824
0.00013824
0.00013824
0.00013824
0.00013824
0.00013824
0.00013824
0.00013824
0.00013824
0.00013824
0.00013824
0.00013824
0.00013824
0.00013824
0.00013824
0.00013824
0.00013824
0.00013824
0.00013824
0.00013824
0.00013824
0.00013824
0.00013824
0.00013824
0.00013824
0.00013824
0.00013824
0.00013824
0.00013824
0.00013824
0.00013824
0.00013824
0.00013824
0.00013824
0.00013824
0.00013824
0.00013824
0.00013824
0.00013824
0.00013824
0.00013824
0.00013824
0.00013824
0.00013824
0.00013824
0.00013824
0.00013824
0.00013824
0.00013824
0.00013824
0.00013824
0.00013824
0.00013824
0.00013824
0.00013824
0.00013824
0.00013824
0.00013824
0.00013824
0.00013824
0.00013824
0.00013824
0.00013824
0.00013824
0.00013824
0.00013824
0.00013824
0.00013824
0.00013824
0.00013824
0.00013824
0.00013824
0.00013824
0.00013824
0.00013824
0.00013824
0.00013824
0.00013824
0.00013824
0.00013824
0.00013824
0.00013824
0.00013824
0.00013824
0.00013824
0.00013824
0.00013824
0.00013824
0.00013824
0.00013824
0.00013824
0.00013824
0.00013824
0.00013824
0.00013824
0.00013824
0.00013824
0.00013824
0.00013824
0.00013824
0.00013824
0.00013824
0.00013824
0.00013824
0.00013824
0.00013824
0.00013824
0.00013824
0.00013824
0.00013824
0.00013824
0.00013824
0.00013824
0.00013824
0.00013824
0.00013824
0.00013824
0.00013824
0.00013824
0.00013824
0.00013824
0.00013824
0.00013824
0.00013824
0.00013824
0.00013824
0.00013824
0.00013824
0.00013824
0.00013824
0.00013824
0.00013824
0.00013824
0.00013824
0.00013824
0.00013824
0.00013824
0.00013824
0.00013824
0.00013824
0.00013824
0.00013824
0.00013824
0.00013824
0.00013824
0.00013824
0.00013824
0.00013824
0.00013824
0.00013824
0.00013824
0.00013824
0.00013824
0.00013824
0.00013824
0.00013824
0.00013824
0.00013824
0.00013824
0.00013824
0.00013824
0.00013824
0.00013824
0.00013824
0.00013824
0.00013824
0.00013824
0.00013824
0.00013824
0.00013824
0.00013824
0.00013824
0.00013824
0.00013824
0.00013824
0.00013824
0.00013824
0.00013824
0.00013824
0.00013824
0.00013824
0.00013824
0.00013824
0.00013824
0.00013824
0.00013824
0.00013824
0.00013824
0.00013824
0.00013824
0.00013824
0.00013824
0.00013824
0.00013824
0.00013824
0.00013824
0.00013824
0.00013824
0.00013824
0.00013824
0.00013824
0.00013824
0.00013824
0.00013824
0.00013824
0.00013824
0.00013824
0.00013824
0.00013824
0.00013824
0.00013824
0.00013824
0.00013824
0.00013824
0.00013824
0.00013824
0.00013824
0.00013824
0.00013824
0.00013824
0.00013824
0.00013824
0.00013824
0.00013824
0.00013824
0.00013824
0.00013824
0.00013824
0.00013824
0.00013824
0.00013824
0.00013824
0.00013824
0.00013824
0.00013824
0.00013824
0.00013824
0.00013824
0.00013824
0.00013824
0.00013824
0.00013824
0.00013824
0.00013824
0.00013824
0.00013824
0.00013824
0.00013824
0.00013824
0.00013824
0.00013824
0.00013824
0.00013824
0.00013824
0.00013824
0.00013824
0.00013824
0.00013824
0.00013824
0.00013824
0.00013824
0.00013824
0.00013824
0.00013824
0.00013824
0.00013824
0.00013824
0.00013824
0.00013824
0.00013824
0.00013824
0.00013824
0.00013824
0.00013824
0.00013824
0.00013824
0.00013824
0.00013824
0.00013824
0.00013824
0.00013824
0.00013824
0.00013824
0.00013824
0.00013824
0.00013824
0.00013824
0.00013824
0.00013824
0.00013824
0.00013824
0.00013824
0.00013824
0.00013824
0.00013824
0.00013824
0.00013824
0.00013824
0.00013824
0.00013824
0.00013824
0.00013824
0.00013824
0.00013824
0.00013824
0.00013824
0.00013824
0.00013824
0.00013824
0.00013824
0.00013824
0.00013824
0.00013824
0.00013824
0.00013824
0.00013824
0.00013824
0.00013824
0.00013824
0.00013824
0.00013824
0.00013824
0.00013824
0.00013824
0.00013824
0.00013824
0.00013824
0.00013824
0.00013824
0.00013824
0.00013824
0.00013824
0.00013824
0.00013824
0.00013824
0.00013824
0.00013824
0.00013824
0.00013824
0.00013824
0.00013824
0.00013824
0.00013824
0.00013824
0.00013824
0.00013824
0.00013824
0.00013824
0.00013824
0.00013824
0.00013824
0.00013824
0.00013824
0.00013824
0.00013824
0.00013824
0.00013824
0.00013824
0.00013824
0.00013824
0.00013824
0.00013824
0.00013824
0.00013824
0.00013824
0.00013824
0.00013824
0.00013824
0.00013824
0.00013824
0.00013824
0.00013824
0.00013824
0.00013824
0.00013824
0.00013824
0.00013824
0.00013824
0.00013824
0.00013824
0.00013824
0.00013824
0.00013824
0.00013824
0.00013824
0.00013824
0.00013824
0.00013824
0.00013824
0.00013824
0.00013824
0.00013824
0.00013824
0.00013824
0.00013824
0.00013824
0.00013824
0.00013824
0.00013824
0.00013824
0.00013824
0.00013824
0.00013824
0.00013824
0.00013824
0.00013824
0.00013824
0.00013824
0.00013824
0.00013824
0.00013824
0.00013824
0.00013824
0.00013824
0.00013824
0.00013824
0.00013824
0.00013824
0.00013824
0.00013824
0.00013824
0.00013824
0.00013824
0.00013824
0.00013824
0.00013824
0.00013824
0.00013824
0.00013824
0.00013824
0.00013824
0.00013824
0.00013824
0.00013824
0.00013824
0.00013824
0.00013824
0.00013824
0.00013824
0.00013824
0.00013824
0.00013824
0.00013824
0.00013824
0.00013824
0.00013824
0.00013824
0.00013824
0.00013824
0.00013824
0.00013824
0.00013824
0.00013824
0.00013824
0.00013824
0.00013824
0.00013824
0.00013824
0.00013824
0.00013824
0.00013824
0.00013824
0.00013824
0.00013824
0.00013824
0.00013824
0.00013824
0.00013824
0.00013824
0.00013824
0.00013824
0.00013824
0.00013824
0.00013824
0.00013824
0.00013824
0.00013824
0.00013824
0.00013824
0.00013824
0.00013824
0.00013824
0.00013824
0.00013824
0.00013824
0.00013824
0.00013824
0.00013824
0.00013824
0.00013824
0.00013824
0.00013824
0.00013824
0.00013824
0.00013824
0.00013824
0.00013824
0.00013824
0.00013824
0.00013824
0.00013824
0.00013824
0.00013824
0.00013824
0.00013824
0.00013824
0.00013824
0.00013824
0.00013824
0.00013824
0.00013824
0.00013824
0.00013824
0.00013824
0.00013824
0.00013824
0.00013824
0.00013824
0.00013824
0.00013824
0.00013824
0.00013824
0.00013824
0.00013824
0.00013824
0.00013824
0.00013824
0.00013824
0.00013824
0.00013824
0.00013824
0.00013824
0.00013824
0.00013824
0.00013824
0.00013824
0.00013824
0.00013824
0.00013824
0.00013824
0.00013824
0.00013824
0.00013824
0.00013824
0.00013824
0.00013824
0.00013824
0.00013824
0.00013824
0.00013824
0.00013824
0.00013824
0.00013824
0.00013824
0.00013824
0.00013824
0.00013824
0.00013824
0.00013824
0.00013824
0.00013824
0.00013824
0.00013824
0.00013824
0.00013824
0.00013824
0.00013824
0.00013824
0.00013824
0.00013824
0.00013824
0.00013824
0.00013824
0.00013824
0.00013824
0.00013824
0.00013824
0.00013824
0.00013824
0.00013824
0.00013824
0.00013824
0.00013824
0.00013824
0.00013824
0.00013824
0.00013824
0.00013824
0.00013824
0.00013824
0.00013824
0.00013824
0.00013824
0.00013824
0.00013824
0.00013824
0.00013824
0.00013824
0.00013824
0.00013824
0.00013824
0.00013824
0.00013824
0.00013824
0.00013824
0.00013824
0.00013824
0.00013824
0.00013824
0.00013824
0.00013824
0.00013824
0.00013824
0.00013824
0.00013824
0.00013824
0.00013824
0.00013824
0.00013824
0.00013824
0.00013824
0.00013824
0.00013824
0.00013824
0.00013824
0.00013824
0.00013824
0.00013824
0.00013824
0.00013824
0.00013824
0.00013824
0.00013824
0.00013824
0.00013824
0.00013824
0.00013824
0.00013824
0.00013824
0.00013824
0.00013824
0.00013824
0.00013824
0.00013824
0.00013824
0.00013824
0.00013824
0.00013824
0.00013824
0.00013824
0.00013824
0.00013824
0.00013824
0.00013824
0.00013824
0.00013824
0.00013824
0.00013824
0.00013824
0.00013824
0.00013824
0.00013824
0.00013824
0.00013824
0.00013824
0.00013824
0.00013824
0.00013824
0.00013824
0.00013824
0.00013824
0.00013824
0.00013824
0.00013824
0.00013824
0.00013824
0.00013824
0.00013824
0.00013824
0.00013824
0.00013824
0.00013824
0.00013824
0.00013824
0.00013824