/*--------------------------------*- C++ -*----------------------------------*\
| =========                 |                                                 |
| \\      /  F ield         | OpenFOAM: The Open Source CFD Toolbox           |
|  \\    /   O peration     | Version:  2406                                  |
|   \\  /    A nd           | Website:  www.openfoam.com                      |
|    \\/     M anipulation  |                                                 |
\*---------------------------------------------------------------------------*/
FoamFile
{
    version     2.0;
    format      ascii;
    arch        "LSB;label=32;scalar=64";
    class       volScalarField;
    location    "5.5";
    object      C_0;
}
// * * * * * * * * * * * * * * * * * * * * * * * * * * * * * * * * * * * * * //

dimensions      [1 -3 0 0 0 0 0];

internalField   nonuniform List<scalar> 
14400
(
0.291202
0.289117
0.285643
0.281649
0.27792
0.275064
0.273513
0.273534
0.275247
0.278633
0.283525
0.289585
0.296258
0.302708
0.30775
0.309857
0.307588
0.302392
0.295936
0.289581
0.284338
0.280945
0.279953
0.281799
0.286853
0.295456
0.307939
0.324643
0.345924
0.372163
0.403751
0.441063
0.484394
0.533735
0.587664
0.634598
0.666739
0.690686
0.711602
0.729817
0.745588
0.759113
0.770546
0.780009
0.787599
0.793386
0.797427
0.799759
0.800406
0.799378
0.796674
0.792277
0.786158
0.778274
0.768564
0.756951
0.743335
0.727589
0.709554
0.689029
0.665759
0.63925
0.599754
0.544999
0.491532
0.443269
0.40091
0.364353
0.333263
0.30724
0.285888
0.268847
0.255798
0.246474
0.240651
0.238156
0.238853
0.242644
0.249457
0.25924
0.271942
0.28749
0.305747
0.326437
0.348967
0.371784
0.387857
0.393965
0.393379
0.383928
0.367704
0.3503
0.333802
0.319027
0.306333
0.295854
0.287583
0.281407
0.277126
0.274458
0.273059
0.272547
0.27256
0.272824
0.273253
0.27398
0.275322
0.277684
0.281489
0.287131
0.294941
0.305183
0.318041
0.333609
0.351855
0.372555
0.395089
0.417724
0.433241
0.439089
0.302159
0.299372
0.295001
0.290185
0.285803
0.282482
0.280647
0.280557
0.282328
0.285943
0.291248
0.29793
0.305478
0.313099
0.319581
0.322995
0.319508
0.312799
0.305056
0.297714
0.291742
0.287823
0.286468
0.288085
0.293027
0.301621
0.314191
0.331072
0.352619
0.379205
0.411216
0.449012
0.49285
0.542628
0.59669
0.640675
0.670195
0.693716
0.714302
0.732262
0.747835
0.761204
0.772515
0.781884
0.7894
0.795133
0.799135
0.801443
0.80208
0.801055
0.798366
0.793999
0.787923
0.780099
0.770468
0.758955
0.745464
0.729877
0.712043
0.691774
0.668832
0.642906
0.606411
0.554175
0.499933
0.450908
0.407925
0.370842
0.339305
0.312906
0.291246
0.273961
0.260733
0.251289
0.245411
0.242923
0.243691
0.247619
0.254638
0.264699
0.277756
0.293744
0.312532
0.333837
0.356971
0.379882
0.394757
0.400379
0.400234
0.39293
0.377177
0.359094
0.342003
0.326771
0.313746
0.303058
0.294701
0.288561
0.284431
0.282015
0.280937
0.280758
0.28103
0.281392
0.281713
0.282173
0.283178
0.285219
0.288773
0.294264
0.30204
0.312369
0.325436
0.34133
0.360019
0.381272
0.404366
0.426479
0.439689
0.44477
0.324783
0.320183
0.313813
0.307291
0.301598
0.297356
0.294964
0.294657
0.296539
0.300599
0.306699
0.31457
0.323774
0.333623
0.342936
0.349146
0.343151
0.333376
0.323139
0.313911
0.306546
0.301619
0.299564
0.300739
0.305464
0.314046
0.326794
0.344034
0.366112
0.393393
0.426248
0.465007
0.509831
0.560243
0.612883
0.650842
0.676999
0.69968
0.719627
0.737095
0.752284
0.765352
0.776427
0.785611
0.792984
0.798611
0.802538
0.804799
0.805416
0.804396
0.801738
0.797427
0.791438
0.78373
0.774252
0.762935
0.749691
0.734413
0.716968
0.697191
0.674877
0.649773
0.618111
0.571289
0.516265
0.466087
0.421988
0.383901
0.351487
0.324343
0.302069
0.284297
0.270706
0.261025
0.255035
0.25256
0.253471
0.257673
0.265102
0.275716
0.289475
0.306324
0.326141
0.348647
0.373021
0.395249
0.407342
0.412473
0.412913
0.408392
0.395085
0.376379
0.358356
0.342295
0.328638
0.317545
0.309021
0.30296
0.299152
0.297276
0.296895
0.297462
0.298344
0.298942
0.299001
0.298837
0.29909
0.300432
0.303449
0.308621
0.316319
0.326817
0.340289
0.356813
0.376323
0.398518
0.422381
0.441782
0.451268
0.45552
0.359965
0.351695
0.342037
0.332936
0.325322
0.319747
0.31655
0.315932
0.317977
0.322672
0.329894
0.339401
0.350813
0.363488
0.375832
0.380545
0.376251
0.363237
0.349783
0.338028
0.328755
0.322423
0.319379
0.319925
0.324345
0.332922
0.345947
0.36373
0.386605
0.414924
0.449032
0.489205
0.535513
0.587032
0.632459
0.662785
0.686885
0.708379
0.727431
0.744208
0.758854
0.771494
0.78223
0.791148
0.798316
0.803788
0.807607
0.8098
0.810387
0.809375
0.806762
0.802535
0.79667
0.789133
0.779877
0.768841
0.755952
0.741117
0.724226
0.705145
0.683713
0.659734
0.632494
0.593687
0.54006
0.48882
0.443236
0.403708
0.370008
0.341758
0.318566
0.300062
0.285927
0.275889
0.26973
0.267276
0.2684
0.273012
0.281055
0.292489
0.307281
0.325374
0.346622
0.370628
0.396047
0.415368
0.424517
0.429255
0.430252
0.427677
0.419452
0.40185
0.382859
0.365689
0.351133
0.339456
0.330694
0.32477
0.321484
0.320493
0.321292
0.323189
0.325243
0.326326
0.32585
0.324493
0.323408
0.323572
0.325708
0.33036
0.337925
0.348662
0.362721
0.380144
0.400741
0.423839
0.446872
0.460386
0.467108
0.470521
0.399465
0.392014
0.378992
0.366875
0.356931
0.349712
0.345517
0.344517
0.346773
0.352265
0.360864
0.372288
0.386062
0.401055
0.411109
0.412308
0.410946
0.400514
0.384344
0.369877
0.358406
0.350389
0.346126
0.345889
0.349936
0.358529
0.371937
0.390451
0.414386
0.444067
0.479784
0.521614
0.568962
0.617965
0.652252
0.677003
0.699376
0.719518
0.737512
0.753451
0.767431
0.779539
0.789851
0.798435
0.805343
0.81062
0.8143
0.816407
0.816957
0.815956
0.813401
0.80928
0.803575
0.796255
0.78728
0.776601
0.764158
0.749876
0.733673
0.715449
0.695097
0.672505
0.647583
0.617198
0.571893
0.51938
0.471908
0.430539
0.395165
0.365462
0.341051
0.321572
0.306708
0.29619
0.289802
0.287375
0.288784
0.293944
0.302799
0.315312
0.331448
0.351133
0.37414
0.399702
0.424443
0.438204
0.445457
0.44978
0.451159
0.449745
0.445773
0.434651
0.415422
0.397033
0.381375
0.368965
0.3599
0.354173
0.351639
0.351935
0.354509
0.358556
0.362751
0.364837
0.363264
0.359749
0.356507
0.354904
0.355758
0.359662
0.367031
0.378073
0.392868
0.41142
0.433276
0.456789
0.472929
0.480936
0.486227
0.488935
0.435536
0.432885
0.422793
0.408559
0.396279
0.387279
0.381974
0.380554
0.383066
0.38948
0.399634
0.413002
0.428424
0.441277
0.445365
0.445657
0.444923
0.440538
0.425848
0.409261
0.395591
0.385746
0.380095
0.378953
0.382578
0.391221
0.405129
0.424562
0.449805
0.481133
0.518778
0.562437
0.609951
0.645981
0.671051
0.693502
0.714097
0.732807
0.749646
0.764653
0.777879
0.789379
0.799202
0.807396
0.814001
0.819048
0.822566
0.824572
0.825078
0.82409
0.821604
0.817611
0.812094
0.80503
0.796387
0.786126
0.774201
0.760559
0.745139
0.727881
0.70872
0.687608
0.664523
0.639473
0.605846
0.556841
0.508077
0.464704
0.427338
0.395856
0.369936
0.349237
0.333456
0.322332
0.315654
0.313259
0.315024
0.320866
0.330729
0.344565
0.36232
0.383877
0.408843
0.43555
0.454084
0.463051
0.469316
0.473248
0.474859
0.474281
0.471767
0.466974
0.454979
0.436137
0.419379
0.406205
0.39677
0.391278
0.389734
0.391723
0.396644
0.403738
0.411292
0.415236
0.411636
0.404791
0.39848
0.394554
0.39372
0.396636
0.403765
0.415175
0.430726
0.450421
0.472656
0.489056
0.497845
0.50378
0.507928
0.510059
0.470103
0.469797
0.466464
0.456611
0.442967
0.432346
0.425943
0.424125
0.426912
0.434278
0.446029
0.460648
0.47329
0.478718
0.479667
0.480032
0.479736
0.478766
0.472232
0.455831
0.440416
0.428779
0.421623
0.419486
0.422655
0.431397
0.44593
0.466451
0.493195
0.526282
0.565851
0.60994
0.644973
0.669753
0.691492
0.711855
0.730704
0.747967
0.763611
0.777636
0.790055
0.800895
0.810183
0.817947
0.824215
0.829007
0.832343
0.834236
0.834695
0.833721
0.831314
0.827465
0.822161
0.815385
0.807112
0.797315
0.785962
0.773018
0.758446
0.742213
0.724296
0.704684
0.683401
0.660514
0.635698
0.600484
0.551931
0.506576
0.466958
0.433417
0.405716
0.383556
0.366666
0.354807
0.347775
0.345412
0.347601
0.354259
0.365314
0.380685
0.400242
0.423715
0.45002
0.47195
0.483017
0.490142
0.495507
0.499038
0.500749
0.500751
0.499254
0.49656
0.49187
0.481226
0.464543
0.451075
0.441213
0.435913
0.435593
0.439521
0.446721
0.456504
0.461781
0.46355
0.462279
0.457516
0.448382
0.44223
0.439432
0.44113
0.448048
0.459902
0.475732
0.49556
0.509865
0.518116
0.523804
0.528412
0.531646
0.533312
0.504974
0.504898
0.504825
0.502254
0.495127
0.484115
0.477072
0.475029
0.478013
0.48592
0.498552
0.507956
0.512702
0.51372
0.51455
0.515069
0.515218
0.514999
0.514397
0.507603
0.49253
0.479674
0.470966
0.467818
0.47051
0.47942
0.494713
0.516423
0.544731
0.579072
0.619006
0.650498
0.673508
0.693831
0.713311
0.73172
0.748899
0.764745
0.779197
0.792223
0.803811
0.813962
0.822687
0.829996
0.835904
0.840422
0.843564
0.845335
0.845742
0.844786
0.842465
0.838773
0.833701
0.827236
0.819361
0.810061
0.799315
0.787104
0.773412
0.758232
0.741565
0.723432
0.703884
0.683007
0.660931
0.63665
0.602062
0.556181
0.514342
0.478622
0.448934
0.425088
0.406899
0.394175
0.386724
0.384388
0.38706
0.394657
0.407068
0.424125
0.445441
0.470117
0.493456
0.505994
0.513101
0.518995
0.523532
0.526647
0.528347
0.528721
0.527939
0.526243
0.523955
0.520578
0.512914
0.50233
0.492225
0.487007
0.488027
0.493478
0.49889
0.502292
0.503021
0.502932
0.503752
0.503626
0.500908
0.496248
0.491772
0.492171
0.498957
0.511186
0.524691
0.535262
0.541575
0.546458
0.550844
0.554416
0.556933
0.558232
0.539922
0.539994
0.540208
0.540712
0.540227
0.536993
0.533216
0.53158
0.534425
0.53992
0.544955
0.547398
0.548061
0.548903
0.549742
0.550476
0.551067
0.55154
0.551979
0.552374
0.547577
0.53763
0.527858
0.52401
0.526202
0.535381
0.551585
0.574277
0.603647
0.636286
0.662538
0.682301
0.700689
0.718752
0.736202
0.752815
0.768426
0.782918
0.796209
0.808247
0.819003
0.828457
0.836605
0.843446
0.848981
0.853215
0.856154
0.857799
0.858153
0.857217
0.854988
0.851462
0.846634
0.840495
0.833037
0.824252
0.814131
0.80267
0.789869
0.775737
0.760299
0.743595
0.725695
0.7067
0.686749
0.666028
0.643257
0.61144
0.569174
0.531784
0.500095
0.474384
0.454725
0.441028
0.433093
0.430769
0.433955
0.442584
0.456457
0.475203
0.497522
0.519646
0.532211
0.538683
0.544397
0.549203
0.552981
0.55567
0.55727
0.557849
0.557536
0.55652
0.555047
0.55341
0.551828
0.547936
0.543338
0.540128
0.539481
0.540306
0.540608
0.539277
0.538647
0.538686
0.539451
0.540917
0.543103
0.543612
0.543851
0.545901
0.550899
0.557579
0.563793
0.567662
0.571516
0.575295
0.578698
0.581476
0.583437
0.584451
0.574799
0.574949
0.575298
0.575943
0.577023
0.578639
0.579008
0.579328
0.580722
0.582241
0.582271
0.582579
0.583232
0.584088
0.585039
0.586025
0.587035
0.588114
0.589363
0.590959
0.593131
0.592257
0.589559
0.586794
0.588524
0.598108
0.615227
0.637222
0.659709
0.679667
0.695743
0.711908
0.728194
0.744286
0.759928
0.774911
0.789073
0.80229
0.814473
0.825556
0.835494
0.844259
0.851832
0.8582
0.863359
0.867305
0.870036
0.871553
0.871854
0.87094
0.868807
0.865453
0.860876
0.855073
0.848041
0.839779
0.830288
0.819576
0.807655
0.79455
0.780297
0.764955
0.748602
0.731348
0.713338
0.694756
0.675832
0.655769
0.628298
0.592307
0.559369
0.531792
0.510588
0.49589
0.48743
0.485071
0.488713
0.498367
0.513537
0.533164
0.551028
0.561807
0.567128
0.572112
0.5766
0.580439
0.583519
0.58578
0.587215
0.587869
0.587835
0.587255
0.586305
0.585186
0.584104
0.583252
0.582469
0.581085
0.579182
0.576937
0.575189
0.574088
0.573602
0.573715
0.574446
0.575807
0.577846
0.58066
0.584097
0.587327
0.590345
0.592877
0.595495
0.598455
0.60153
0.604508
0.607177
0.609354
0.610889
0.611683
0.609524
0.609705
0.610094
0.610738
0.611687
0.612944
0.614371
0.615638
0.616222
0.616494
0.616851
0.617412
0.618201
0.619179
0.620301
0.621549
0.622936
0.624518
0.6264
0.62875
0.63181
0.635928
0.639942
0.643363
0.649077
0.65879
0.671884
0.686315
0.699985
0.713133
0.727047
0.741396
0.755891
0.770272
0.784314
0.797829
0.810664
0.822698
0.833836
0.844008
0.85316
0.861254
0.868262
0.874165
0.87895
0.882608
0.885134
0.886523
0.886772
0.885881
0.883846
0.880668
0.876345
0.87088
0.864274
0.856533
0.847667
0.83769
0.826626
0.814509
0.801387
0.787324
0.772409
0.756753
0.7405
0.723825
0.706945
0.690112
0.673284
0.651382
0.624927
0.596606
0.574366
0.558938
0.54996
0.547473
0.551222
0.561341
0.57626
0.58769
0.594894
0.598542
0.602337
0.606038
0.609453
0.612434
0.614876
0.616717
0.617942
0.618575
0.618681
0.618359
0.617729
0.616927
0.616071
0.615234
0.614347
0.613225
0.611793
0.610307
0.609085
0.608284
0.607957
0.608127
0.60881
0.610017
0.611755
0.614003
0.616626
0.619332
0.621842
0.624225
0.626632
0.629133
0.631642
0.63403
0.63615
0.637871
0.639083
0.639708
0.644069
0.644254
0.644635
0.645229
0.646043
0.647047
0.64814
0.649154
0.649927
0.650561
0.651225
0.652018
0.652982
0.654123
0.655438
0.656934
0.658641
0.66062
0.66297
0.665831
0.669386
0.673858
0.679459
0.686495
0.694535
0.703218
0.712501
0.722533
0.733606
0.745461
0.757915
0.770738
0.783703
0.796596
0.809226
0.821426
0.833056
0.844001
0.854167
0.863481
0.871884
0.879334
0.885797
0.891247
0.895667
0.899044
0.901367
0.902631
0.902831
0.901964
0.900029
0.897026
0.892958
0.887827
0.881642
0.874413
0.866156
0.856891
0.84665
0.835474
0.823416
0.810547
0.796956
0.782755
0.768082
0.753101
0.738009
0.723032
0.708429
0.694499
0.679049
0.661405
0.643461
0.628516
0.619122
0.616355
0.618955
0.623832
0.628658
0.631191
0.632836
0.635088
0.637639
0.640251
0.642741
0.644968
0.646832
0.648271
0.64926
0.649809
0.649957
0.649769
0.649328
0.64872
0.648018
0.647264
0.646439
0.645497
0.644446
0.643412
0.64256
0.642006
0.641816
0.642025
0.64265
0.643697
0.645152
0.646971
0.649054
0.651247
0.653418
0.65555
0.657675
0.659801
0.661877
0.663817
0.665523
0.666898
0.667863
0.66836
0.678429
0.678606
0.678962
0.679499
0.680209
0.68106
0.681989
0.682912
0.68377
0.684597
0.68547
0.686453
0.687587
0.688894
0.690393
0.692107
0.694074
0.696353
0.69903
0.702216
0.706044
0.71066
0.71619
0.722718
0.730105
0.738186
0.746909
0.756313
0.766443
0.777192
0.788414
0.799939
0.811587
0.823184
0.834568
0.845593
0.856133
0.866082
0.87535
0.883863
0.891562
0.898402
0.904344
0.90936
0.913428
0.916533
0.918661
0.919804
0.919957
0.919116
0.91728
0.91445
0.910631
0.905829
0.900055
0.893322
0.885651
0.877069
0.86761
0.85732
0.846256
0.834491
0.822113
0.80923
0.795971
0.782489
0.768958
0.755579
0.742573
0.730188
0.718687
0.708316
0.697439
0.687173
0.679273
0.674697
0.672805
0.671594
0.669969
0.669605
0.670159
0.671335
0.67288
0.674587
0.676291
0.677865
0.679213
0.680275
0.681019
0.681442
0.681567
0.681433
0.681094
0.680606
0.680019
0.679363
0.678649
0.677879
0.677082
0.676336
0.675736
0.675364
0.675276
0.675506
0.67607
0.676968
0.678184
0.679676
0.681373
0.683185
0.685033
0.686881
0.688717
0.69052
0.692248
0.69384
0.695225
0.696335
0.69711
0.697508
0.712613
0.712778
0.713107
0.713597
0.714235
0.714996
0.715843
0.716734
0.717644
0.718588
0.719605
0.720737
0.722017
0.723474
0.725134
0.727027
0.729193
0.731688
0.734582
0.737959
0.741916
0.746546
0.751924
0.75808
0.764963
0.772497
0.780636
0.789366
0.798662
0.808448
0.81861
0.829016
0.839522
0.849985
0.860268
0.870244
0.879802
0.888845
0.897287
0.905058
0.912101
0.918366
0.923816
0.92842
0.932153
0.934998
0.936939
0.937968
0.938077
0.937262
0.935524
0.932864
0.929288
0.924804
0.919425
0.913169
0.906058
0.898123
0.889401
0.87994
0.869798
0.859047
0.847774
0.83608
0.824084
0.811925
0.799756
0.787751
0.776097
0.76499
0.754629
0.745193
0.73679
0.72953
0.72322
0.717792
0.71336
0.710191
0.708141
0.707099
0.706861
0.707213
0.707958
0.708925
0.709972
0.710986
0.711881
0.712596
0.713098
0.713375
0.713435
0.713302
0.713008
0.712592
0.712088
0.711522
0.710915
0.710286
0.709667
0.709113
0.708684
0.708439
0.708419
0.708653
0.709154
0.709922
0.71094
0.712175
0.713576
0.715085
0.716648
0.718226
0.71979
0.721313
0.722756
0.72407
0.725203
0.726105
0.726733
0.727056
0.746631
0.746786
0.747093
0.747547
0.748137
0.748847
0.749654
0.750536
0.751484
0.752506
0.753626
0.754871
0.75627
0.757852
0.759642
0.761674
0.763985
0.766625
0.769649
0.773123
0.777113
0.781684
0.786879
0.792715
0.799169
0.806202
0.813774
0.821852
0.830392
0.839327
0.848563
0.857994
0.867501
0.876966
0.886273
0.895313
0.903988
0.912207
0.919894
0.926983
0.933416
0.939146
0.944135
0.94835
0.951767
0.954366
0.95613
0.957051
0.957119
0.956333
0.95469
0.952194
0.948852
0.944673
0.939673
0.93387
0.92729
0.919963
0.911931
0.90324
0.893949
0.884127
0.873856
0.863231
0.852362
0.841369
0.830391
0.819573
0.809072
0.799046
0.789648
0.781008
0.773221
0.766338
0.760327
0.755173
0.750925
0.747652
0.745305
0.743791
0.742973
0.742697
0.742813
0.743183
0.743687
0.744227
0.744727
0.745131
0.745403
0.745525
0.745498
0.745331
0.745046
0.744666
0.744217
0.743722
0.743203
0.742682
0.742189
0.741764
0.74145
0.741287
0.741307
0.741532
0.741973
0.742626
0.743479
0.744507
0.745672
0.746933
0.748248
0.749583
0.750906
0.752187
0.753391
0.75448
0.755412
0.756151
0.756663
0.756925
0.780495
0.780641
0.780931
0.78136
0.781921
0.782601
0.783388
0.784272
0.785249
0.786327
0.78752
0.788851
0.790342
0.792019
0.793908
0.79604
0.798449
0.801176
0.804266
0.807769
0.811732
0.816197
0.821194
0.826732
0.832798
0.839367
0.846405
0.853875
0.861729
0.869904
0.878322
0.886894
0.895522
0.904105
0.912545
0.920749
0.928628
0.936102
0.943101
0.949563
0.955434
0.960668
0.965227
0.969079
0.9722
0.974567
0.976166
0.976985
0.977017
0.976259
0.974709
0.972371
0.969253
0.965365
0.960723
0.955349
0.949267
0.942511
0.935119
0.92714
0.91863
0.909655
0.900292
0.890628
0.880761
0.8708
0.860864
0.851078
0.841573
0.832475
0.823907
0.815971
0.808746
0.802277
0.796575
0.791647
0.787514
0.784188
0.781635
0.779786
0.778542
0.77779
0.777415
0.777306
0.777365
0.777509
0.77767
0.777797
0.777856
0.777825
0.777699
0.777479
0.777177
0.776809
0.776392
0.775947
0.775492
0.775049
0.774643
0.774305
0.774065
0.773952
0.773991
0.774197
0.774577
0.77513
0.775845
0.776701
0.777672
0.778725
0.779828
0.780951
0.782064
0.783138
0.784143
0.785046
0.785815
0.786422
0.786842
0.787057
0.814212
0.814352
0.81463
0.815042
0.815584
0.816247
0.817026
0.817915
0.818915
0.820032
0.821278
0.82267
0.824228
0.825974
0.827932
0.830129
0.832596
0.835364
0.838472
0.841954
0.845847
0.850178
0.854967
0.860219
0.865925
0.872063
0.878605
0.885514
0.892744
0.900238
0.907928
0.915739
0.923586
0.931387
0.939055
0.946509
0.953672
0.960472
0.966845
0.972734
0.978088
0.982864
0.987025
0.990541
0.993385
0.995537
0.996981
0.997707
0.997707
0.996976
0.995515
0.993328
0.990422
0.98681
0.982507
0.977534
0.971919
0.965693
0.958895
0.951571
0.943776
0.935572
0.927029
0.918227
0.909254
0.900207
0.891188
0.882304
0.873664
0.865374
0.857533
0.850225
0.843515
0.837448
0.832047
0.827328
0.823297
0.819951
0.817262
0.815175
0.813619
0.812508
0.811751
0.811261
0.810959
0.810773
0.810647
0.810533
0.810398
0.810222
0.809993
0.809709
0.809375
0.809
0.808597
0.808181
0.807769
0.807378
0.80703
0.806747
0.806552
0.806467
0.806507
0.806687
0.807009
0.807473
0.808069
0.808781
0.809589
0.810467
0.81139
0.81233
0.813262
0.814159
0.814996
0.815745
0.816381
0.816881
0.817227
0.817403
0.84779
0.847925
0.848194
0.848596
0.849125
0.849778
0.850553
0.851447
0.852463
0.853607
0.854889
0.856324
0.857927
0.859717
0.861717
0.86395
0.86644
0.869214
0.872302
0.87573
0.879524
0.883702
0.888278
0.893253
0.898618
0.904356
0.910438
0.916832
0.923495
0.930375
0.937414
0.944545
0.951699
0.958801
0.965778
0.97256
0.979078
0.985269
0.991073
0.996439
1.00132
1.00568
1.00947
1.01267
1.01526
1.01721
1.01852
1.01916
1.01913
1.01842
1.01705
1.015
1.0123
1.00895
1.00496
1.00036
0.995181
0.989446
0.983196
0.976474
0.969332
0.961827
0.954025
0.945996
0.937822
0.929585
0.921375
0.913285
0.905405
0.897825
0.890626
0.883879
0.877641
0.871952
0.86684
0.862319
0.858394
0.855057
0.852285
0.850035
0.848252
0.84687
0.845819
0.845029
0.844435
0.843979
0.84361
0.843288
0.842982
0.842671
0.842342
0.841989
0.841613
0.841219
0.840815
0.840412
0.840024
0.839666
0.839352
0.839101
0.83893
0.838854
0.838886
0.839033
0.8393
0.839684
0.840177
0.840766
0.841436
0.842165
0.842933
0.843716
0.844493
0.84524
0.845936
0.846557
0.847083
0.847496
0.84778
0.847925
0.881232
0.881364
0.881627
0.882021
0.882542
0.883189
0.883961
0.884858
0.885884
0.887045
0.888349
0.889808
0.891437
0.893251
0.89527
0.897512
0.899998
0.902751
0.905791
0.90914
0.912815
0.916829
0.92119
0.925897
0.93094
0.936302
0.94196
0.947882
0.954028
0.960354
0.966807
0.97333
0.979862
0.986339
0.992698
0.998876
1.00481
1.01045
1.01574
1.02063
1.02508
1.02905
1.0325
1.03542
1.03777
1.03954
1.04071
1.04127
1.04122
1.04054
1.03925
1.03734
1.03482
1.03171
1.02802
1.02378
1.019
1.01372
1.00797
1.0018
0.995251
0.98838
0.981246
0.973913
0.966451
0.958936
0.951444
0.944055
0.936847
0.929895
0.923268
0.917025
0.911217
0.905881
0.901041
0.896714
0.892902
0.8896
0.886786
0.884428
0.882484
0.880901
0.879625
0.878601
0.877774
0.877097
0.876527
0.876027
0.875571
0.875138
0.874714
0.874292
0.873869
0.873447
0.873031
0.872629
0.872251
0.871907
0.871611
0.871376
0.871213
0.871134
0.871148
0.87126
0.871474
0.871785
0.872188
0.872672
0.873223
0.873825
0.87446
0.87511
0.875754
0.876374
0.87695
0.877463
0.877898
0.878238
0.878473
0.878592
0.914543
0.914672
0.914931
0.915318
0.915832
0.916474
0.917242
0.91814
0.91917
0.920338
0.921652
0.923123
0.924761
0.926582
0.928599
0.93083
0.933291
0.935999
0.938972
0.942223
0.945767
0.94961
0.953757
0.958204
0.962941
0.967954
0.973218
0.978706
0.984382
0.990205
0.99613
1.00211
1.00808
1.014
1.0198
1.02543
1.03084
1.03598
1.0408
1.04526
1.04932
1.05293
1.05608
1.05873
1.06087
1.06247
1.06352
1.06401
1.06393
1.06328
1.06206
1.06028
1.05794
1.05506
1.05164
1.04772
1.04331
1.03845
1.03317
1.0275
1.02149
1.0152
1.00867
1.00196
0.995134
0.988263
0.98141
0.974645
0.968034
0.96164
0.955524
0.949737
0.944322
0.939312
0.934731
0.930593
0.926902
0.923653
0.92083
0.918408
0.916353
0.914625
0.91318
0.911974
0.910964
0.910108
0.909372
0.908723
0.908138
0.907597
0.907085
0.906596
0.906124
0.905669
0.905233
0.904822
0.904442
0.904102
0.90381
0.903577
0.903411
0.90332
0.903311
0.903387
0.903549
0.903795
0.904117
0.904509
0.904958
0.905452
0.905973
0.906508
0.90704
0.907551
0.908026
0.908449
0.908807
0.909088
0.90928
0.909378
0.947724
0.947851
0.948105
0.948487
0.948996
0.949631
0.950395
0.95129
0.952318
0.953486
0.9548
0.956269
0.957904
0.959715
0.961715
0.963918
0.966336
0.968984
0.971873
0.975015
0.978418
0.982087
0.986022
0.990219
0.994668
0.999353
1.00425
1.00934
1.01459
1.01996
1.0254
1.03088
1.03635
1.04176
1.04707
1.05221
1.05715
1.06184
1.06623
1.0703
1.07399
1.07729
1.08015
1.08256
1.0845
1.08594
1.08688
1.08731
1.08721
1.08659
1.08545
1.08378
1.08161
1.07893
1.07578
1.07215
1.06809
1.06361
1.05874
1.05354
1.04802
1.04225
1.03626
1.03012
1.02387
1.01757
1.01129
1.00508
0.999001
0.993108
0.987452
0.982077
0.977021
0.972314
0.967977
0.964024
0.96046
0.957281
0.954474
0.952021
0.949896
0.948065
0.946496
0.945153
0.943998
0.943001
0.942129
0.941356
0.94066
0.940024
0.939435
0.938882
0.938362
0.937871
0.937411
0.936983
0.936594
0.936247
0.935951
0.935711
0.935534
0.935425
0.935389
0.935428
0.935541
0.935727
0.935978
0.93629
0.93665
0.937049
0.937474
0.93791
0.938345
0.938764
0.939154
0.939501
0.939795
0.940024
0.940182
0.940262
0.980777
0.980903
0.981153
0.981529
0.982032
0.982661
0.983417
0.984305
0.985327
0.986487
0.987793
0.989251
0.99087
0.992659
0.994629
0.99679
0.999152
1.00173
1.00452
1.00755
1.0108
1.0143
1.01803
1.02198
1.02616
1.03054
1.0351
1.03982
1.04467
1.04963
1.05464
1.05967
1.06469
1.06964
1.07449
1.07919
1.0837
1.08798
1.09199
1.0957
1.09907
1.10207
1.10467
1.10687
1.10862
1.10992
1.11076
1.11113
1.11102
1.11042
1.10935
1.10779
1.10577
1.10329
1.10037
1.09702
1.09327
1.08915
1.08467
1.07988
1.07481
1.06951
1.06402
1.05838
1.05264
1.04687
1.0411
1.03538
1.02978
1.02434
1.0191
1.0141
1.00937
1.00495
1.00084
0.997067
0.993633
0.990535
0.987765
0.985307
0.983142
0.981245
0.979587
0.978141
0.976877
0.975767
0.974786
0.973912
0.973123
0.972406
0.971747
0.971137
0.97057
0.970043
0.969555
0.969107
0.968702
0.968343
0.968035
0.967782
0.967589
0.967458
0.967393
0.967394
0.967462
0.967592
0.96778
0.96802
0.968304
0.968621
0.968962
0.969314
0.969666
0.970006
0.970323
0.970606
0.970846
0.971033
0.971162
0.971227
1.01371
1.01383
1.01408
1.01445
1.01494
1.01556
1.01631
1.01719
1.0182
1.01934
1.02063
1.02207
1.02367
1.02542
1.02735
1.02946
1.03176
1.03425
1.03694
1.03984
1.04295
1.04627
1.0498
1.05353
1.05745
1.06154
1.06579
1.07017
1.07466
1.07923
1.08385
1.08848
1.09309
1.09763
1.10207
1.10637
1.11049
1.1144
1.11806
1.12144
1.12451
1.12724
1.12961
1.1316
1.13319
1.13437
1.13512
1.13543
1.1353
1.13473
1.13372
1.13227
1.1304
1.1281
1.12539
1.1223
1.11884
1.11503
1.11091
1.1065
1.10184
1.09697
1.09192
1.08674
1.08147
1.07615
1.07084
1.06558
1.06041
1.05537
1.0505
1.04584
1.04142
1.03726
1.03337
1.02977
1.02647
1.02346
1.02074
1.0183
1.01612
1.01418
1.01247
1.01095
1.0096
1.0084
1.00734
1.00638
1.00552
1.00473
1.00401
1.00335
1.00274
1.00218
1.00166
1.00119
1.00076
1.00039
1.00006
0.999794
0.99958
0.999425
0.99933
0.999295
0.999319
0.999399
0.99953
0.999708
0.999924
1.00017
1.00044
1.00072
1.001
1.00127
1.00153
1.00176
1.00195
1.0021
1.0022
1.00226
1.04651
1.04663
1.04687
1.04724
1.04773
1.04834
1.04907
1.04993
1.05093
1.05206
1.05332
1.05474
1.0563
1.05801
1.05989
1.06194
1.06416
1.06657
1.06916
1.07193
1.07489
1.07804
1.08138
1.08488
1.08856
1.09238
1.09634
1.10041
1.10457
1.1088
1.11305
1.11731
1.12155
1.12571
1.12978
1.13372
1.13749
1.14106
1.14441
1.14749
1.15029
1.15278
1.15494
1.15674
1.15818
1.15924
1.15991
1.16017
1.16003
1.15949
1.15854
1.15718
1.15544
1.1533
1.1508
1.14794
1.14474
1.14123
1.13743
1.13337
1.12908
1.1246
1.11995
1.11518
1.11033
1.10544
1.10054
1.09568
1.0909
1.08623
1.0817
1.07735
1.07321
1.06929
1.06561
1.06218
1.05901
1.0561
1.05344
1.05103
1.04886
1.0469
1.04515
1.04358
1.04217
1.04091
1.03978
1.03876
1.03783
1.03699
1.03621
1.03551
1.03486
1.03426
1.03372
1.03322
1.03278
1.03238
1.03204
1.03175
1.03151
1.03133
1.03121
1.03114
1.03112
1.03115
1.03123
1.03136
1.03151
1.0317
1.0319
1.03212
1.03234
1.03256
1.03276
1.03294
1.03309
1.03321
1.0333
1.03334
1.07919
1.07931
1.07955
1.07991
1.08039
1.08098
1.08171
1.08255
1.08353
1.08463
1.08587
1.08725
1.08877
1.09044
1.09227
1.09425
1.09639
1.0987
1.10118
1.10383
1.10665
1.10963
1.11278
1.11607
1.11952
1.12309
1.12678
1.13056
1.13442
1.13832
1.14225
1.14618
1.15007
1.1539
1.15763
1.16123
1.16469
1.16795
1.17101
1.17383
1.17638
1.17865
1.18061
1.18225
1.18355
1.1845
1.1851
1.18532
1.18517
1.18465
1.18375
1.18249
1.18086
1.17888
1.17657
1.17392
1.17097
1.16773
1.16422
1.16048
1.15652
1.15239
1.14811
1.14371
1.13924
1.13473
1.1302
1.12571
1.12128
1.11694
1.11272
1.10866
1.10478
1.10108
1.0976
1.09433
1.09129
1.08848
1.0859
1.08353
1.08138
1.07942
1.07765
1.07605
1.0746
1.07329
1.07211
1.07104
1.07006
1.06917
1.06835
1.06761
1.06692
1.0663
1.06573
1.06521
1.06474
1.06432
1.06396
1.06365
1.06339
1.06318
1.06303
1.06293
1.06287
1.06286
1.0629
1.06297
1.06307
1.06321
1.06336
1.06352
1.06369
1.06385
1.06401
1.06415
1.06427
1.06437
1.06443
1.06447
1.11176
1.11188
1.11211
1.11246
1.11292
1.11351
1.11422
1.11504
1.11599
1.11707
1.11828
1.11962
1.1211
1.12272
1.12448
1.12639
1.12846
1.13067
1.13304
1.13556
1.13823
1.14106
1.14402
1.14712
1.15035
1.15369
1.15712
1.16064
1.16421
1.16783
1.17146
1.17507
1.17866
1.18217
1.1856
1.18891
1.19207
1.19506
1.19785
1.20042
1.20275
1.20482
1.20661
1.2081
1.20927
1.21013
1.21065
1.21084
1.21068
1.21018
1.20934
1.20816
1.20664
1.20481
1.20266
1.20021
1.19748
1.19448
1.19124
1.18779
1.18414
1.18033
1.17638
1.17232
1.16819
1.16402
1.15984
1.15567
1.15156
1.14752
1.1436
1.1398
1.13615
1.13267
1.12937
1.12626
1.12335
1.12064
1.11813
1.11582
1.11369
1.11175
1.10998
1.10836
1.10689
1.10555
1.10433
1.10322
1.10221
1.10128
1.10043
1.09965
1.09893
1.09828
1.09768
1.09714
1.09665
1.09622
1.09583
1.0955
1.09521
1.09498
1.0948
1.09466
1.09458
1.09453
1.09452
1.09455
1.09461
1.09469
1.0948
1.09491
1.09503
1.09516
1.09528
1.09538
1.09548
1.09555
1.0956
1.09563
1.14421
1.14432
1.14455
1.14489
1.14534
1.14591
1.1466
1.14741
1.14833
1.14938
1.15056
1.15186
1.15329
1.15485
1.15655
1.15839
1.16036
1.16248
1.16474
1.16714
1.16967
1.17234
1.17513
1.17804
1.18107
1.18418
1.18739
1.19065
1.19397
1.19732
1.20067
1.20401
1.20731
1.21054
1.21369
1.21672
1.21962
1.22236
1.22492
1.22727
1.22939
1.23128
1.2329
1.23425
1.23532
1.23608
1.23655
1.2367
1.23653
1.23606
1.23526
1.23416
1.23275
1.23104
1.22904
1.22678
1.22425
1.22148
1.21849
1.21529
1.21192
1.2084
1.20475
1.20101
1.19719
1.19332
1.18945
1.18558
1.18176
1.178
1.17434
1.17078
1.16735
1.16407
1.16094
1.15799
1.1552
1.1526
1.15017
1.14791
1.14583
1.14391
1.14215
1.14053
1.13905
1.13769
1.13645
1.13531
1.13426
1.13331
1.13243
1.13162
1.13088
1.1302
1.12958
1.12902
1.12851
1.12805
1.12765
1.12729
1.12699
1.12673
1.12652
1.12636
1.12624
1.12616
1.12611
1.1261
1.12612
1.12616
1.12622
1.1263
1.12638
1.12647
1.12655
1.12663
1.1267
1.12675
1.12679
1.12681
1.17654
1.17665
1.17687
1.17721
1.17765
1.1782
1.17887
1.17965
1.18055
1.18157
1.1827
1.18396
1.18534
1.18685
1.18848
1.19024
1.19213
1.19415
1.1963
1.19858
1.20098
1.20349
1.20612
1.20886
1.21169
1.2146
1.21758
1.22062
1.2237
1.2268
1.2299
1.23298
1.23602
1.239
1.24189
1.24468
1.24734
1.24984
1.25218
1.25433
1.25627
1.25799
1.25947
1.26069
1.26166
1.26234
1.26275
1.26287
1.2627
1.26225
1.2615
1.26046
1.25915
1.25756
1.25571
1.2536
1.25126
1.2487
1.24593
1.24298
1.23986
1.2366
1.23323
1.22976
1.22622
1.22264
1.21905
1.21546
1.2119
1.2084
1.20497
1.20163
1.19841
1.19531
1.19235
1.18954
1.18688
1.18437
1.18203
1.17984
1.17781
1.17592
1.17417
1.17256
1.17108
1.16971
1.16846
1.1673
1.16624
1.16526
1.16436
1.16353
1.16276
1.16207
1.16143
1.16084
1.16032
1.15984
1.15942
1.15904
1.15872
1.15844
1.1582
1.15801
1.15786
1.15775
1.15767
1.15762
1.15761
1.15761
1.15764
1.15768
1.15772
1.15778
1.15784
1.15789
1.15794
1.15797
1.158
1.15801
1.20877
1.20888
1.20909
1.20941
1.20984
1.21038
1.21103
1.21178
1.21265
1.21363
1.21473
1.21594