/*--------------------------------*- C++ -*----------------------------------*\
| =========                 |                                                 |
| \\      /  F ield         | OpenFOAM: The Open Source CFD Toolbox           |
|  \\    /   O peration     | Version:  2406                                  |
|   \\  /    A nd           | Website:  www.openfoam.com                      |
|    \\/     M anipulation  |                                                 |
\*---------------------------------------------------------------------------*/
FoamFile
{
    version     2.0;
    format      ascii;
    arch        "LSB;label=32;scalar=64";
    class       volScalarField;
    location    "5.3";
    object      C;
}
// * * * * * * * * * * * * * * * * * * * * * * * * * * * * * * * * * * * * * //

dimensions      [1 -3 0 0 0 0 0];

internalField   nonuniform List<scalar> 
14400
(
0.302254
0.299937
0.296107
0.29174
0.287694
0.284626
0.282992
0.283077
0.285011
0.28878
0.294221
0.300993
0.308531
0.315958
0.321985
0.324817
0.322372
0.316622
0.309535
0.302619
0.296948
0.29329
0.292213
0.294166
0.299529
0.308651
0.321868
0.339529
0.361998
0.389654
0.422881
0.462027
0.507317
0.558597
0.61407
0.658098
0.687349
0.710841
0.73138
0.749278
0.764779
0.778075
0.789314
0.798613
0.806065
0.811739
0.815688
0.81795
0.818547
0.817489
0.814773
0.810384
0.804292
0.796454
0.786812
0.775289
0.761787
0.746181
0.728317
0.707996
0.684971
0.658918
0.622558
0.570824
0.515236
0.464561
0.419994
0.381478
0.348675
0.321172
0.298563
0.280476
0.266583
0.256606
0.250316
0.247533
0.248118
0.251967
0.259006
0.269182
0.282441
0.298706
0.31783
0.339504
0.363041
0.386627
0.402695
0.408603
0.408024
0.398772
0.382068
0.363627
0.346126
0.330484
0.317079
0.306043
0.297358
0.290901
0.286455
0.28372
0.282323
0.281854
0.281915
0.282206
0.282629
0.283328
0.284645
0.28702
0.290908
0.296725
0.304826
0.31549
0.328916
0.345205
0.364323
0.386008
0.409496
0.432562
0.447731
0.45336
0.313806
0.310685
0.305859
0.3006
0.295857
0.292298
0.290366
0.290333
0.292324
0.296328
0.302191
0.309602
0.318044
0.326716
0.33438
0.338997
0.334999
0.327514
0.319035
0.311081
0.304654
0.300454
0.299002
0.30072
0.30597
0.315086
0.328399
0.346252
0.369004
0.397035
0.430726
0.470415
0.516264
0.567865
0.622539
0.663392
0.690697
0.713794
0.73402
0.751674
0.766985
0.780131
0.791253
0.800461
0.807842
0.813463
0.817376
0.819615
0.820202
0.819147
0.816447
0.812086
0.806037
0.798258
0.788693
0.777268
0.76389
0.74844
0.730772
0.710701
0.687994
0.662354
0.628804
0.579863
0.523714
0.472432
0.427299
0.388269
0.35501
0.327118
0.304187
0.285843
0.271759
0.261656
0.255306
0.252529
0.253187
0.257177
0.26443
0.274893
0.288517
0.305236
0.324912
0.347245
0.371456
0.394905
0.409433
0.414941
0.414772
0.407723
0.39177
0.37267
0.354576
0.338475
0.324739
0.313496
0.30473
0.298318
0.29404
0.29158
0.290534
0.290431
0.29078
0.29118
0.291484
0.291887
0.292834
0.294858
0.298469
0.304118
0.312173
0.322916
0.336546
0.353163
0.372741
0.39503
0.419189
0.441289
0.453908
0.458927
0.33767
0.332458
0.325423
0.318327
0.312194
0.307668
0.305153
0.304893
0.306997
0.311454
0.31813
0.326752
0.336874
0.347797
0.358283
0.365074
0.359573
0.348876
0.337801
0.327912
0.320057
0.314819
0.312646
0.313909
0.31894
0.328051
0.34156
0.359796
0.383113
0.411884
0.446488
0.487255
0.534285
0.586727
0.637362
0.672131
0.697347
0.71962
0.739231
0.756414
0.771356
0.784213
0.795106
0.804135
0.811378
0.816897
0.820737
0.822931
0.823499
0.82245
0.819781
0.815477
0.809512
0.801849
0.792434
0.781201
0.768064
0.752918
0.735631
0.716041
0.693947
0.669087
0.639532
0.596111
0.540262
0.488159
0.441985
0.401946
0.367786
0.339118
0.315542
0.296685
0.282217
0.271861
0.265391
0.262625
0.263428
0.267703
0.27538
0.286413
0.30076
0.318359
0.339088
0.362647
0.388104
0.41025
0.421828
0.426929
0.427334
0.422891
0.409975
0.390431
0.371418
0.354484
0.340118
0.328475
0.319554
0.313241
0.309316
0.307443
0.307159
0.307874
0.308901
0.309559
0.30958
0.30929
0.309412
0.310672
0.313698
0.318993
0.326946
0.337839
0.351861
0.369099
0.389497
0.412704
0.437398
0.456114
0.465273
0.469511
0.374652
0.365254
0.354661
0.344831
0.336687
0.330778
0.327428
0.326844
0.329115
0.334225
0.342046
0.352334
0.364665
0.378291
0.39126
0.395554
0.39228
0.379444
0.365332
0.352941
0.343156
0.336475
0.333279
0.333894
0.338617
0.347736
0.361546
0.380361
0.404515
0.434365
0.47027
0.512519
0.560999
0.613639
0.654973
0.683144
0.706931
0.728108
0.746872
0.763392
0.777813
0.790257
0.800823
0.809595
0.81664
0.822009
0.825744
0.827873
0.828414
0.827373
0.824749
0.820528
0.814686
0.80719
0.797994
0.787037
0.774248
0.759536
0.742792
0.723886
0.702666
0.678957
0.652569
0.616857
0.564996
0.51193
0.464235
0.422704
0.387205
0.357383
0.332843
0.313213
0.298168
0.287431
0.280776
0.278028
0.279051
0.283751
0.292064
0.303946
0.319353
0.338219
0.360382
0.385392
0.411583
0.430036
0.43892
0.443612
0.444543
0.44187
0.434095
0.416563
0.396604
0.37857
0.36333
0.351115
0.341972
0.335823
0.332464
0.331545
0.332544
0.334713
0.337056
0.338236
0.337689
0.33606
0.334721
0.334698
0.336771
0.341498
0.349284
0.360391
0.374975
0.393076
0.414539
0.438593
0.461477
0.474205
0.480918
0.484333
0.413453
0.406548
0.392701
0.379786
0.369247
0.361664
0.357285
0.356304
0.358798
0.364736
0.373964
0.386222
0.400946
0.416732
0.426181
0.427179
0.426222
0.417343
0.401007
0.386004
0.373997
0.365573
0.361109
0.360917
0.365266
0.374417
0.388643
0.408234
0.433492
0.464717
0.502205
0.546112
0.595587
0.64148
0.672603
0.697014
0.719126
0.739008
0.756755
0.77247
0.786249
0.798178
0.808335
0.816783
0.823575
0.828756
0.832358
0.834404
0.83491
0.83388
0.831314
0.827198
0.821514
0.814232
0.805312
0.794707
0.782355
0.768185
0.752114
0.734046
0.713875
0.691492
0.66679
0.638357
0.597054
0.543694
0.494207
0.450786
0.413557
0.382222
0.356404
0.335744
0.319924
0.308673
0.301771
0.299044
0.300361
0.305631
0.314789
0.327791
0.344584
0.365064
0.388974
0.415463
0.439795
0.45259
0.459795
0.464056
0.465357
0.463853
0.459864
0.449412
0.429827
0.410741
0.394505
0.381578
0.372152
0.366229
0.363667
0.364118
0.36704
0.371521
0.376324
0.378515
0.376873
0.372762
0.369101
0.367166
0.367871
0.3718
0.379353
0.390731
0.406014
0.425142
0.447726
0.471699
0.486844
0.494568
0.499859
0.502569
0.448333
0.446526
0.437458
0.422569
0.409673
0.400344
0.394808
0.393385
0.396158
0.403074
0.413853
0.428127
0.444409
0.456323
0.459878
0.46041
0.459852
0.456629
0.443837
0.426913
0.412675
0.40233
0.396407
0.395284
0.399218
0.408445
0.42321
0.443779
0.470397
0.503224
0.542352
0.587415
0.634272
0.666955
0.690956
0.713181
0.733553
0.752042
0.768671
0.783484
0.796533
0.807872
0.817555
0.825625
0.832123
0.837082
0.840526
0.842475
0.84294
0.841925
0.839427
0.835438
0.829941
0.822911
0.814318
0.804123
0.79228
0.778736
0.763433
0.746308
0.727297
0.706345
0.683413
0.6585
0.627772
0.582553
0.531889
0.48643
0.447193
0.414034
0.386639
0.364691
0.347895
0.335994
0.328776
0.326073
0.327759
0.33374
0.343951
0.358337
0.37681
0.399175
0.424886
0.451844
0.46888
0.477446
0.483615
0.487458
0.488975
0.488297
0.485682
0.481262
0.469968
0.450715
0.433671
0.419961
0.410198
0.40454
0.402995
0.405194
0.410663
0.418197
0.427019
0.430773
0.427426
0.419303
0.412566
0.408112
0.407073
0.409979
0.41726
0.428958
0.444981
0.465023
0.487861
0.503219
0.511274
0.517224
0.521381
0.523516
0.482951
0.482653
0.480242
0.471552
0.457407
0.446731
0.439965
0.4381
0.441191
0.449191
0.461362
0.476824
0.48829
0.492961
0.494145
0.494733
0.494632
0.493832
0.488907
0.474833
0.459193
0.446965
0.439454
0.437332
0.440847
0.450205
0.46563
0.487366
0.51559
0.550105
0.590457
0.634715
0.666642
0.689509
0.711035
0.731201
0.749861
0.766938
0.782404
0.796261
0.808525
0.819224
0.828386
0.83604
0.842211
0.846921
0.85019
0.85203
0.85245
0.851451
0.849033
0.845186
0.839899
0.833153
0.824924
0.815186
0.803905
0.791047
0.776575
0.760455
0.74266
0.723177
0.702018
0.679241
0.654964
0.622926
0.576454
0.529728
0.488488
0.453289
0.424041
0.400555
0.382577
0.369882
0.362276
0.359599
0.361726
0.368557
0.380012
0.396021
0.4164
0.440735
0.467568
0.48755
0.497484
0.504503
0.509762
0.513187
0.514789
0.514678
0.513062
0.510237
0.506083
0.496083
0.480134
0.466008
0.455951
0.450521
0.450175
0.454189
0.462204
0.471256
0.475952
0.477537
0.476477
0.472354
0.46393
0.456996
0.454118
0.455807
0.462859
0.474858
0.49117
0.510543
0.52391
0.531305
0.537038
0.541673
0.544924
0.546598
0.517867
0.517799
0.517746
0.51613
0.509982
0.500002
0.492195
0.490086
0.493393
0.502263
0.514378
0.522835
0.526734
0.527955
0.529005
0.529745
0.530111
0.530115
0.529844
0.524948
0.512801
0.499482
0.490373
0.487326
0.490481
0.50004
0.516193
0.539174
0.569161
0.604692
0.643044
0.671965
0.692972
0.71315
0.732475
0.750728
0.767751
0.783444
0.797746
0.81063
0.822084
0.832113
0.840726
0.847937
0.853758
0.858203
0.861283
0.863006
0.863377
0.862398
0.860066
0.856375
0.851316
0.844877
0.837041
0.827791
0.817107
0.804971
0.791364
0.776278
0.759712
0.741685
0.722242
0.701468
0.679504
0.656486
0.624944
0.580311
0.537736
0.500476
0.469138
0.443887
0.424523
0.410889
0.402821
0.400165
0.402798
0.410605
0.423448
0.44124
0.463488
0.488764
0.50957
0.520537
0.527543
0.533322
0.537742
0.540737
0.542316
0.542565
0.54165
0.53981
0.537356
0.534373
0.527336
0.517747
0.508109
0.502786
0.503723
0.50843
0.512823
0.515506
0.515417
0.515301
0.516146
0.516877
0.514883
0.511306
0.507586
0.507955
0.514921
0.526702
0.539048
0.548847
0.554504
0.559461
0.5639
0.567507
0.570045
0.571354
0.552851
0.552928
0.553151
0.553664
0.553943
0.551445
0.548492
0.547327
0.550058
0.554905
0.559389
0.561185
0.562065
0.56312
0.564176
0.565131
0.56595
0.566667
0.567387
0.568279
0.565543
0.558451
0.548516
0.545183
0.548162
0.557992
0.574769
0.598491
0.629519
0.658847
0.682831
0.701323
0.719666
0.737644
0.754987
0.771483
0.786972
0.801339
0.814508
0.826427
0.837069
0.846418
0.854469
0.861223
0.866681
0.87085
0.873733
0.875334
0.875655
0.874697
0.872457
0.868932
0.864114
0.857998
0.850573
0.84183
0.831763
0.820364
0.807634
0.79358
0.778225
0.761608
0.743795
0.724887
0.705026
0.684399
0.663141
0.634016
0.594331
0.555845
0.522328
0.495223
0.474283
0.459576
0.450977
0.448325
0.451513
0.460399
0.474608
0.494138
0.517186
0.536303
0.546953
0.553253
0.558828
0.563499
0.567146
0.569704
0.571173
0.571617
0.571163
0.569996
0.568355
0.56653
0.564856
0.56159
0.557305
0.554123
0.553254
0.553587
0.553025
0.551607
0.550988
0.551019
0.551775
0.55321
0.555503
0.556884
0.557597
0.559854
0.564767
0.571043
0.576569
0.580319
0.584279
0.588136
0.591594
0.59441
0.596394
0.597419
0.587758
0.587912
0.588267
0.588914
0.589984
0.591676
0.59288
0.593564
0.594842
0.595755
0.595816
0.596352
0.59722
0.598285
0.599448
0.600652
0.601892
0.603218
0.604744
0.606661
0.609263
0.610422
0.609589
0.609157
0.612341
0.622501
0.639319
0.660256
0.680713
0.698417
0.714224
0.730442
0.746723
0.762773
0.778347
0.793246
0.807315
0.820434
0.832517
0.843502
0.853346
0.862021
0.86951
0.875803
0.880895
0.884782
0.887464
0.888942
0.889213
0.888278
0.886134
0.88278
0.878211
0.872426
0.865421
0.857195
0.847749
0.837088
0.825226
0.812185
0.798
0.782727
0.766443
0.749258
0.731313
0.71279
0.693906
0.674873
0.649986
0.618073
0.583318
0.55488
0.532223
0.516386
0.507227
0.504526
0.508238
0.518283
0.533215
0.553362
0.568235
0.576858
0.581905
0.586695
0.591016
0.594703
0.597638
0.599759
0.601055
0.601567
0.601388
0.600654
0.599539
0.598241
0.596958
0.595828
0.594875
0.593469
0.591399
0.589164
0.587492
0.586396
0.585909
0.586011
0.586725
0.588058
0.590063
0.592752
0.596151
0.599546
0.602476
0.605065
0.607902
0.610986
0.614158
0.617208
0.619931
0.622144
0.623703
0.624508
0.62251
0.622695
0.623089
0.623741
0.624696
0.625966
0.627372
0.628675
0.629397
0.629898
0.630433
0.631189
0.632176
0.633352
0.634679
0.636138
0.637747
0.639568
0.64171
0.644347
0.647721
0.65216
0.657722
0.662482
0.668999
0.678978
0.691705
0.705253
0.717749
0.731063
0.745086
0.759497
0.774012
0.788378
0.802381
0.81584
0.828607
0.840566
0.851625
0.861717
0.870791
0.878809
0.885747
0.891585
0.896312
0.899919
0.902401
0.903755
0.903977
0.903067
0.901022
0.897842
0.893526
0.888075
0.881491
0.873779
0.864949
0.855014
0.843998
0.831932
0.818864
0.804855
0.789993
0.774388
0.758179
0.74154
0.724678
0.707836
0.691302
0.672119
0.648626
0.62195
0.597825
0.581259
0.571675
0.568739
0.572502
0.583527
0.596006
0.605186
0.610244
0.61357
0.617114
0.620606
0.62384
0.626656
0.628944
0.630639
0.631719
0.632209
0.632169
0.631695
0.630907
0.629936
0.628901
0.627872
0.626827
0.625586
0.624097
0.622594
0.621381
0.620576
0.620239
0.620393
0.621055
0.622234
0.623934
0.626125
0.628713
0.631408
0.633975
0.636442
0.638968
0.641568
0.644158
0.646608
0.648777
0.650532
0.651766
0.652402
0.657078
0.657267
0.657656
0.658263
0.659093
0.66012
0.66124
0.662317
0.663206
0.664
0.664829
0.665796
0.666942
0.668269
0.669777
0.671474
0.673392
0.675595
0.678183
0.681296
0.685114
0.689844
0.695674
0.702787
0.711013
0.719892
0.729387
0.739739
0.750993
0.762997
0.775558
0.78845
0.801449
0.814347
0.826959
0.839124
0.850707
0.861596
0.871701
0.880951
0.889292
0.896679
0.903083
0.908478
0.912849
0.916181
0.918466
0.919699
0.919875
0.91899
0.917045
0.914039
0.909975
0.904855
0.898688
0.891482
0.883253
0.874023
0.863819
0.852683
0.840666
0.827838
0.814287
0.800121
0.785477
0.770515
0.755428
0.740438
0.725807
0.71184
0.698123
0.682286
0.66605
0.651803
0.642388
0.638724
0.639614
0.642697
0.645862
0.646749
0.648085
0.650061
0.652373
0.654776
0.65708
0.659138
0.660844
0.662133
0.662975
0.66338
0.663383
0.663049
0.662458
0.661696
0.660838
0.65993
0.658973
0.657927
0.656808
0.655734
0.65486
0.654288
0.654079
0.654266
0.654868
0.655888
0.657313
0.659101
0.661166
0.663362
0.665568
0.667759
0.669959
0.672158
0.674298
0.67629
0.678037
0.679442
0.680426
0.680933
0.691457
0.691639
0.692006
0.692561
0.693294
0.694178
0.695153
0.696147
0.697109
0.698067
0.699086
0.700226
0.701525
0.703006
0.704686
0.706588
0.708752
0.711238
0.714131
0.71754
0.721594
0.726426
0.732151
0.738828
0.746381
0.754646
0.763568
0.773187
0.783488
0.794372
0.805698
0.817295
0.828987
0.840602
0.851984
0.862991
0.873501
0.88341
0.892632
0.901096
0.908744
0.915533
0.921426
0.926397
0.930423
0.933489
0.935585
0.936701
0.936832
0.935975
0.934129
0.931296
0.927479
0.922685
0.916923
0.910208
0.90256
0.894003
0.884573
0.874313
0.86328
0.851545
0.839194
0.826333
0.813091
0.799615
0.786079
0.772681
0.759644
0.747215
0.735657
0.725316
0.715844
0.706443
0.698713
0.69361
0.690505
0.687579
0.685619
0.684993
0.685286
0.686217
0.68754
0.689046
0.690567
0.691971
0.693161
0.694072
0.69467
0.694951
0.694934
0.694659
0.694179
0.693551
0.692825
0.692038
0.691208
0.690342
0.689473
0.688675
0.688038
0.687636
0.687521
0.687726
0.688264
0.689137
0.690329
0.6918
0.693487
0.695305
0.697178
0.699067
0.700953
0.702808
0.704585
0.706219
0.707637
0.708772
0.709564
0.709971
0.725654
0.725826
0.726168
0.726679
0.727346
0.728147
0.729047
0.73001
0.731015
0.732075
0.733222
0.734495
0.735928
0.737545
0.739372
0.74144
0.743789
0.746473
0.749562
0.753139
0.757295
0.762117
0.767674
0.773992
0.781038
0.788741
0.797053
0.805953
0.815398
0.825307
0.835568
0.846046
0.856601
0.867091
0.877383
0.887354
0.896895
0.905911
0.91432
0.922055
0.929058
0.935283
0.940693
0.945259
0.948957
0.951769
0.953682
0.954687
0.954776
0.953948
0.9522
0.949536
0.94596
0.941481
0.936111
0.929868
0.922774
0.914858
0.906157
0.896717
0.886597
0.875866
0.86461
0.852928
0.840938
0.828775
0.816594
0.804564
0.792873
0.781718
0.771297
0.761792
0.753256
0.74581
0.739352
0.733775
0.729228
0.725871
0.723589
0.722316
0.72185
0.721983
0.722523
0.7233
0.72417
0.725019
0.725758
0.726324
0.726683
0.72682
0.726744
0.726475
0.726049
0.725503
0.724873
0.72419
0.723478
0.722759
0.722068
0.721456
0.720981
0.720698
0.720645
0.72085
0.721325
0.722069
0.723066
0.724284
0.725679
0.727192
0.728772
0.730377
0.731977
0.733537
0.735015
0.736362
0.737522
0.738445
0.739086
0.739415
0.75968
0.759842
0.760163
0.76064
0.761263
0.762015
0.762878
0.763831
0.764867
0.765994
0.767231
0.768606
0.770144
0.771873
0.773818
0.776011
0.778491
0.781304
0.784506
0.788159
0.792329
0.797074
0.802435
0.808429
0.815039
0.822225
0.82995
0.838173
0.846845
0.855891
0.865219
0.874721
0.88428
0.893778
0.903103
0.912147
0.920815
0.929019
0.936684
0.943745
0.950148
0.955847
0.960804
0.964989
0.968376
0.970948
0.972688
0.973588
0.97364
0.97284
0.971188
0.968687
0.965344
0.961168
0.956173
0.950379
0.94381
0.936497
0.928478
0.919802
0.910524
0.900714
0.890451
0.87983
0.868957
0.857954
0.846956
0.836108
0.825566
0.815486
0.806021
0.797297
0.789393
0.78237
0.776218
0.770923
0.766532
0.763089
0.760548
0.758833
0.757813
0.757341
0.757269
0.75746
0.757796
0.758177
0.758525
0.758784
0.758916
0.758904
0.758744
0.758449
0.758039
0.757538
0.756974
0.756372
0.755755
0.755148
0.754583
0.754098
0.753733
0.753528
0.753512
0.753705
0.754117
0.754746
0.75558
0.756593
0.757751
0.759013
0.760339
0.761693
0.76304
0.764348
0.765578
0.766691
0.767644
0.768398
0.768921
0.769189
0.793543
0.793697
0.794003
0.794456
0.79505
0.795774
0.796617
0.79757
0.798629
0.799802
0.801104
0.802553
0.804171
0.805984
0.808016
0.810296
0.81286
0.815745
0.818998
0.822663
0.826788
0.831413
0.836564
0.842251
0.848462
0.855172
0.862347
0.869946
0.877916
0.886193
0.894698
0.903338
0.912018
0.920639
0.929103
0.937318
0.945198
0.952665
0.959651
0.966094
0.971943
0.977153
0.981688
0.985516
0.988612
0.990957
0.992536
0.993337
0.993354
0.992583
0.991025
0.988681
0.98556
0.981673
0.977034
0.971665
0.96559
0.958842
0.951459
0.943488
0.934984
0.926014
0.916651
0.906983
0.897106
0.887129
0.877168
0.867347
0.857795
0.848641
0.840003
0.831981
0.82465
0.818059
0.812228
0.807165
0.802889
0.799405
0.796681
0.794653
0.793229
0.7923
0.791751
0.791476
0.791376
0.791368
0.791383
0.791371
0.791295
0.791134
0.790881
0.790539
0.790119
0.789637
0.789113
0.788568
0.788021
0.787496
0.787019
0.786619
0.786327
0.786169
0.786168
0.78634
0.786691
0.78722
0.787915
0.788757
0.789719
0.790771
0.79188
0.793014
0.794143
0.795235
0.796258
0.797179
0.797964
0.798584
0.799012
0.79923
0.827253
0.827401
0.827695
0.828132
0.828707
0.829413
0.830246
0.831201
0.832278
0.833483
0.834828
0.836329
0.838005
0.839875
0.841964
0.844298
0.846906
0.849821
0.853076
0.856708
0.860748
0.865226
0.870157
0.875547
0.881387
0.887655
0.894321
0.901346
0.908681
0.916269
0.924039
0.931916
0.939817
0.947656
0.955352
0.962823
0.969993
0.976793
0.98316
0.989037
0.994377
0.999135
1.00328
1.00677
1.0096
1.01173
1.01316
1.01387
1.01386
1.01312
1.01165
1.00945
1.00654
1.00293
0.998626
0.993656
0.988043
0.981821
0.975026
0.967706
0.959911
0.951705
0.943157
0.934345
0.925357
0.916288
0.907239
0.898316
0.889628
0.88128
0.873367
0.865975
0.859167
0.852989
0.847469
0.842621
0.838454
0.834962
0.832118
0.829871
0.828151
0.826877
0.825961
0.825316
0.824864
0.824534
0.824269
0.824021
0.823757
0.823456
0.823106
0.822706
0.82226
0.821778
0.821274
0.820764
0.820265
0.819796
0.819378
0.819034
0.818785
0.818652
0.818653
0.818797
0.819089
0.819527
0.820103
0.8208
0.821597
0.822471
0.823395
0.824341
0.825283
0.826192
0.827041
0.827803
0.828451
0.82896
0.829311
0.829491
0.860816
0.860959
0.861244
0.861669
0.862231
0.862927
0.863754
0.86471
0.865798
0.867024
0.868397
0.869932
0.871642
0.873548
0.875668
0.878027
0.880647
0.883555
0.886778
0.890342
0.894272
0.898585
0.903292
0.908395
0.913883
0.91974
0.925935
0.932435
0.939194
0.946161
0.953275
0.96047
0.967675
0.974818
0.981826
0.988628
0.995159
1.00135
1.00716
1.01252
1.01739
1.02173
1.02551
1.0287
1.03128
1.03321
1.0345
1.03513
1.03509
1.03437
1.03299
1.03094
1.02823
1.02487
1.02089
1.01629
1.01111
1.00537
0.99912
0.992397
0.98525
0.977739
0.969926
0.961883
0.953689
0.945426
0.937183
0.929051
0.921121
0.913481
0.906212
0.899384
0.893053
0.887261
0.882037
0.877396
0.873343
0.869871
0.866957
0.86456
0.862628
0.861097
0.859898
0.858964
0.85823
0.857637
0.857136
0.856686
0.856257
0.855827
0.855383
0.854919
0.854437
0.853941
0.853442
0.85295
0.852479
0.852045
0.851663
0.851352
0.851127
0.851003
0.850993
0.851105
0.85134
0.851697
0.852169
0.852742
0.8534
0.854122
0.854888
0.855673
0.856454
0.857209
0.857912
0.858541
0.859075
0.859494
0.859783
0.85993
0.894235
0.894374
0.894653
0.89507
0.895622
0.89631
0.897131
0.898087
0.89918
0.900417
0.901805
0.903357
0.905085
0.907005
0.909135
0.911493
0.914099
0.916973
0.920138
0.923612
0.927411
0.931549
0.936031
0.940855
0.946012
0.951484
0.957246
0.963264
0.9695
0.975906
0.98243
0.989014
0.995596
1.00211
1.0085
1.01471
1.02066
1.02631
1.0316
1.03649
1.04093
1.04489
1.04834
1.05125
1.05359
1.05535
1.0565
1.05705
1.05699
1.0563
1.055
1.05309
1.05057
1.04745
1.04376
1.03951
1.03472
1.02944
1.02369
1.01751
1.01095
1.00407
0.996925
0.989573
0.982088
0.974544
0.967016
0.959584
0.952325
0.945313
0.938617
0.932296
0.926399
0.920966
0.916022
0.911582
0.907651
0.904223
0.901278
0.898786
0.896704
0.894984
0.893571
0.892412
0.891453
0.890647
0.889952
0.889332
0.888758
0.888212
0.887678
0.887151
0.886627
0.886108
0.885602
0.885115
0.884657
0.884241
0.883879
0.883583
0.883367
0.88324
0.883212
0.883288
0.88347
0.883754
0.884134
0.8846
0.885137
0.88573
0.88636
0.887008
0.887653
0.888276
0.888856
0.889375
0.889814
0.890159
0.890396
0.890517
0.927514
0.927651
0.927924
0.928334
0.928879
0.929559
0.930374
0.931326
0.932419
0.933658
0.935051
0.936606
0.938336
0.940254
0.942373
0.944711
0.947281
0.950102
0.953189
0.956555
0.960213
0.96417
0.968428
0.972983
0.977826
0.982939
0.988299
0.993877
0.999635
1.00553
1.01152
1.01756
1.02358
1.02954
1.03537
1.04103
1.04646
1.05162
1.05644
1.0609
1.06496
1.06857
1.07171
1.07436
1.07648
1.07807
1.07912
1.0796
1.07951
1.07885
1.07763
1.07584
1.07349
1.0706
1.06718
1.06325
1.05884
1.05397
1.04868
1.043
1.03699
1.03068
1.02413
1.0174
1.01055
1.00364
0.996754
0.989944
0.983281
0.976829
0.970645
0.964782
0.959283
0.954182
0.949502
0.945259
0.941457
0.938091
0.935147
0.9326
0.930418
0.928563
0.926991
0.925659
0.924524
0.923548
0.922693
0.921929
0.921233
0.920583
0.919968
0.919378
0.91881
0.918264
0.917742
0.917249
0.916794
0.916383
0.916028
0.915736
0.915517
0.915379
0.915328
0.915367
0.915496
0.915713
0.916013
0.916385
0.916819
0.917301
0.917815
0.918345
0.918875
0.919386
0.919862
0.920288
0.920648
0.920931
0.921125
0.921224
0.960656
0.960791
0.961059
0.961463
0.962
0.962672
0.96348
0.964425
0.965512
0.966746
0.968133
0.96968
0.971399
0.9733
0.975394
0.977695
0.980214
0.982965
0.98596
0.989207
0.992716
0.996489
1.00053
1.00482
1.00937
1.01415
1.01914
1.02431
1.02963
1.03507
1.04058
1.04611
1.05163
1.05708
1.06242
1.06759
1.07255
1.07725
1.08166
1.08573
1.08942
1.09272
1.09558
1.09799
1.09992
1.10135
1.10229
1.1027
1.1026
1.10197
1.10082
1.09915
1.09697
1.09429
1.09112
1.08749
1.08342
1.07893
1.07406
1.06884
1.06331
1.05752
1.05151
1.04534
1.03906
1.03273
1.02641
1.02016
1.01403
1.00808
1.00235
0.996905
0.99177
0.986976
0.982546
0.978495
0.974826
0.971538
0.968619
0.96605
0.963806
0.961858
0.96017
0.958708
0.957438
0.956326
0.955342
0.954461
0.953659
0.952921
0.952232
0.951585
0.950973
0.950395
0.949852
0.949347
0.948885
0.948471
0.948112
0.947815
0.947586
0.947431
0.947353
0.947354
0.947435
0.947591
0.947819
0.94811
0.948454
0.948839
0.949254
0.949684
0.950114
0.95053
0.950919
0.951266
0.951561
0.951791
0.951949
0.95203
0.993664
0.993796
0.99406
0.994457
0.994987
0.99565
0.996448
0.997383
0.998459
0.999681
1.00105
1.00258
1.00428
1.00615
1.00821
1.01046
1.01292
1.01559
1.01848
1.0216
1.02495
1.02854
1.03237
1.03642
1.04068
1.04515
1.04979
1.05459
1.05951
1.06453
1.0696
1.07469
1.07975
1.08474
1.08963
1.09435
1.09889
1.10318
1.10721
1.11092
1.11429
1.11729
1.1199
1.12209
1.12384
1.12514
1.12597
1.12633
1.12621
1.12561
1.12453
1.12297
1.12094
1.11845
1.11552
1.11217
1.10841
1.10427
1.09978
1.09498
1.08989
1.08457
1.07906
1.07339
1.06763
1.06181
1.056
1.05025
1.04459
1.03909
1.03379
1.02872
1.02391
1.01941
1.01521
1.01135
1.00781
1.00462
1.00174
0.999175
0.9969
0.994892
0.993123
0.991566
0.990193
0.988976
0.987889
0.986912
0.986023
0.985209
0.984455
0.983755
0.983101
0.982491
0.981924
0.981402
0.980927
0.980503
0.980135
0.979826
0.979582
0.979405
0.979299
0.979263
0.979297
0.979398
0.979562
0.97978
0.980046
0.980349
0.980678
0.981021
0.981367
0.981703
0.982017
0.982298
0.982536
0.982723
0.982852
0.982917
1.02654
1.02667
1.02693
1.02732
1.02784
1.02849
1.02928
1.0302
1.03126
1.03246
1.03382
1.03532
1.03699
1.03882
1.04083
1.04302
1.0454
1.04798
1.05077
1.05376
1.05696
1.06036
1.06398
1.06779
1.07179
1.07596
1.08029
1.08474
1.0893
1.09393
1.09861
1.10329
1.10794
1.11252
1.11699
1.12132
1.12546
1.12939
1.13306
1.13645
1.13953
1.14227
1.14464
1.14663
1.14822
1.14939
1.15013
1.15044
1.15031
1.14973
1.14871
1.14726
1.14537
1.14306
1.14035
1.13725
1.13377
1.12996
1.12582
1.1214
1.11672
1.11182
1.10675
1.10154
1.09624
1.09089
1.08554
1.08023
1.07501
1.06991
1.06499
1.06026
1.05576
1.05152
1.04755
1.04387
1.04047
1.03737
1.03455
1.03201
1.02973
1.02769
1.02586
1.02424
1.02279
1.02149
1.02033
1.01927
1.01831
1.01743
1.01663
1.01588
1.01518
1.01454
1.01395
1.01341
1.01292
1.01248
1.0121
1.01177
1.01151
1.01131
1.01117
1.0111
1.01109
1.01114
1.01125
1.0114
1.0116
1.01183
1.01209
1.01236
1.01263
1.0129
1.01315
1.01337
1.01356
1.01371
1.01382
1.01387
1.05929
1.05941
1.05967
1.06005
1.06056
1.0612
1.06197
1.06288
1.06392
1.0651
1.06642
1.0679
1.06953
1.07131
1.07327
1.07539
1.07769
1.08018
1.08285
1.0857
1.08875
1.09198
1.09539
1.09898
1.10273
1.10663
1.11066
1.11479
1.11902
1.1233
1.12761
1.13192
1.13619
1.1404
1.1445
1.14846
1.15226
1.15585
1.1592
1.1623
1.16511
1.1676
1.16977
1.17157
1.17301
1.17407
1.17473
1.17499
1.17485
1.1743
1.17334
1.17198
1.17022
1.16808
1.16557
1.16269
1.15949
1.15596
1.15215
1.14807
1.14376
1.13925
1.13458
1.12978
1.1249
1.11997
1.11503
1.11013
1.10529
1.10057
1.09598
1.09157
1.08736
1.08336
1.0796
1.07609
1.07284
1.06984
1.06709
1.06458
1.06231
1.06026
1.05841
1.05674
1.05524
1.05388
1.05266
1.05154
1.05052
1.04959
1.04873
1.04795
1.04722
1.04655
1.04593
1.04537
1.04486
1.0444
1.044
1.04366
1.04338
1.04315
1.04298
1.04288
1.04283
1.04283
1.04289
1.04299
1.04312
1.04329
1.04348
1.04369
1.0439
1.04411
1.0443
1.04448
1.04463
1.04475
1.04483
1.04487
1.0919
1.09203
1.09228
1.09265
1.09315
1.09378
1.09453
1.09542
1.09644
1.09759
1.09888
1.10032
1.1019
1.10364
1.10553
1.10758
1.1098
1.11218
1.11474
1.11746
1.12036
1.12342
1.12664
1.13001
1.13352
1.13716
1.14092
1.14476
1.14867
1.15263
1.15661
1.16058
1.16451
1.16838
1.17214
1.17578
1.17925
1.18254
1.18561
1.18844
1.191
1.19328
1.19524
1.19688
1.19819
1.19914
1.19973
1.19995
1.19979
1.19926
1.19836
1.19709
1.19546
1.19347
1.19114
1.18848
1.18551
1.18226
1.17874
1.17498
1.171
1.16684
1.16254
1.15811
1.15361
1.14906
1.14449
1.13995
1.13547
1.13108
1.12681
1.12269
1.11873
1.11497
1.11141
1.10807
1.10495
1.10205
1.09938
1.09692
1.09468
1.09263
1.09077
1.08908
1.08754
1.08614
1.08487
1.08371
1.08265
1.08167
1.08078
1.07995
1.07919
1.07849
1.07785
1.07727
1.07674
1.07627
1.07585
1.07549
1.07518
1.07493
1.07474
1.0746
1.07451
1.07447
1.07448
1.07453
1.07461
1.07473
1.07486
1.07501
1.07517
1.07533
1.07548
1.07562
1.07573
1.07583
1.07589
1.07592
1.1244
1.12452
1.12476
1.12513
1.12562
1.12623
1.12696
1.12783
1.12882
1.12994
1.1312
1.1326
1.13413
1.13581
1.13764
1.13961
1.14174
1.14402
1.14646
1.14905
1.1518
1.15469
1.15772
1.16089
1.16418
1.16759
1.17108
1.17466
1.17829
1.18195
1.18563
1.18929
1.19291
1.19646
1.19992
1.20325
1.20644
1.20944
1.21225
1.21484
1.21718
1.21925
1.22104
1.22254
1.22371
1.22457
1.22509
1.22527
1.22511
1.22461
1.22376
1.22257
1.22105
1.2192
1.21704
1.21458
1.21183
1.20882
1.20557
1.20209
1.19842
1.19459
1.19061
1.18653
1.18236
1.17815
1.17393
1.16972
1.16556
1.16148
1.15749
1.15363
1.14992
1.14637
1.143
1.13982
1.13683
1.13404
1.13145
1.12906
1.12685
1.12482
1.12296
1.12126
1.1197
1.11828
1.11697
1.11578
1.11468
1.11367
1.11275
1.11189
1.11111
1.11038
1.10972
1.10912
1.10857
1.10808
1.10764
1.10726
1.10693
1.10666
1.10643
1.10626
1.10614
1.10607
1.10603
1.10604
1.10608
1.10614
1.10623
1.10633
1.10644
1.10656
1.10667
1.10677
1.10686
1.10693
1.10698
1.107
1.15677
1.15689
1.15713
1.15748
1.15796
1.15855
1.15927
1.16011
1.16107
1.16216
1.16338
1.16473
1.16621
1.16783
1.16959
1.17149
1.17353
1.17571
1.17803
1.18049
1.18309
1.18582
1.18868
1.19165
1.19474
1.19791
1.20117
1.2045
1.20786
1.21126
1.21465
1.21803
1.22137
1.22464
1.22781
1.23087
1.23379
1.23655
1.23912
1.24149
1.24362
1.24552
1.24715
1.2485
1.24957
1.25033
1.2508
1.25095
1.25078
1.25029
1.24949
1.24838
1.24696
1.24524
1.24324
1.24096
1.23841
1.23563
1.23262
1.22941
1.22602
1.22247
1.21879
1.21501
1.21116
1.20726
1.20335
1.19944
1.19557
1.19177
1.18805
1.18443
1.18094
1.17759
1.1744
1.17137
1.16852
1.16584
1.16333
1.161
1.15884
1.15684
1.15499
1.15329
1.15173
1.15029
1.14897
1.14775
1.14663
1.1456
1.14464
1.14377
1.14296
1.14221
1.14153
1.14091
1.14034
1.13983
1.13938
1.13898
1.13863
1.13833
1.13808
1.13788
1.13773
1.13762
1.13755
1.13751
1.13751
1.13753
1.13758
1.13764
1.13771
1.13779
1.13787
1.13794
1.138
1.13805
1.13809
1.13811
1.18903
1.18914
1.18937
1.18972
1.19018
1.19075
1.19145
1.19226
1.1932
1.19425
1.19543
1.19673
1.19816
1.19972
1.20141
1.20322
1.20517
1.20725
1.20946
1.21179
1.21425
1.21683
1.21952
1.22231
1.22519
1.22816
1.2312
1.23429
1.23741
1.24056
1.2437
1.24682
1.24989
1.2529
1.25583
1.25864
1.26132
1.26385
1.2662
1.26836
1.27031
1.27204
1.27352
1.27475
1.27572
1.27641
1.27681
1.27693
1.27676
1.2763
1.27554
1.2745
1.27318
1.27158
1.26971
1.2676
1.26524
1.26266
1.25987
1.2569
1.25376
1.25048
1.24708
1.24358
1.24001
1.23639
1.23276
1.22913
1.22553
1.22197
1.21849
1.2151
1.21182
1.20866
1.20564
1.20276
1.20003
1.19745
1.19504
1.19277
1.19066
1.1887
1.18688
1.18519
1.18363
1.18219
1.18086
1.17962
1.17849
1.17744
1.17647
1.17557
1.17474
1.17398
1.17328
1.17264
1.17206
1.17153
1.17106
1.17064
1.17027
1.16995
1.16968
1.16945
1.16927
1.16913
1.16903
1.16896
1.16892
1.16891
1.16891
1.16894
1.16898
1.16902
1.16907
1.16912
1.16916
1.16919
1.16922
1.16923
1.22117
1.22128
1.2215
1.22184
1.22228
1.22284
1.22351
1.2243
1.2252
1.22622
1.22735
1.22861
1.22998
1.23147
1.23309
1.23483