/*--------------------------------*- C++ -*----------------------------------*\
| =========                 |                                                 |
| \\      /  F ield         | OpenFOAM: The Open Source CFD Toolbox           |
|  \\    /   O peration     | Version:  2406                                  |
|   \\  /    A nd           | Website:  www.openfoam.com                      |
|    \\/     M anipulation  |                                                 |
\*---------------------------------------------------------------------------*/
FoamFile
{
    version     2.0;
    format      ascii;
    arch        "LSB;label=32;scalar=64";
    class       volScalarField;
    location    "7.4";
    object      Da;
}
// * * * * * * * * * * * * * * * * * * * * * * * * * * * * * * * * * * * * * //

dimensions      [0 2 -1 0 0 0 0];

internalField   nonuniform List<scalar> 
14400
(
4.70108e-05
4.6975e-05
4.69201e-05
4.68634e-05
4.68152e-05
4.67797e-05
4.67572e-05
4.67478e-05
4.67524e-05
4.67735e-05
4.68147e-05
4.68788e-05
4.69636e-05
4.70542e-05
4.71145e-05
4.70907e-05
4.69522e-05
4.67432e-05
4.65093e-05
4.6271e-05
4.60307e-05
4.57846e-05
4.55295e-05
4.52664e-05
4.50005e-05
4.47399e-05
4.44935e-05
4.42694e-05
4.40746e-05
4.39151e-05
4.3797e-05
4.37287e-05
4.37244e-05
4.38126e-05
4.40608e-05
4.4684e-05
4.68374e-05
6.39337e-05
7.79995e-05
7.8e-05
7.8e-05
7.8e-05
7.8e-05
7.8e-05
7.8e-05
7.8e-05
7.8e-05
7.8e-05
7.8e-05
7.8e-05
7.8e-05
7.8e-05
7.8e-05
7.8e-05
7.8e-05
7.8e-05
7.8e-05
7.8e-05
7.8e-05
7.79775e-05
5.64472e-05
4.64066e-05
4.47461e-05
4.42437e-05
4.4073e-05
4.40611e-05
4.41521e-05
4.43242e-05
4.45678e-05
4.48774e-05
4.52457e-05
4.56593e-05
4.60943e-05
4.65164e-05
4.68861e-05
4.71686e-05
4.73425e-05
4.74046e-05
4.73697e-05
4.72674e-05
4.71379e-05
4.70292e-05
4.69999e-05
4.71402e-05
4.7656e-05
4.93679e-05
5.82301e-05
7.7944e-05
6.40151e-05
4.95949e-05
4.72735e-05
4.65095e-05
4.61734e-05
4.60272e-05
4.59865e-05
4.60107e-05
4.60757e-05
4.61645e-05
4.62637e-05
4.63615e-05
4.64462e-05
4.65065e-05
4.65315e-05
4.65133e-05
4.64494e-05
4.63447e-05
4.62086e-05
4.60532e-05
4.58904e-05
4.57318e-05
4.55889e-05
4.54737e-05
4.54006e-05
4.53888e-05
4.547e-05
4.57078e-05
4.62659e-05
4.77644e-05
5.40956e-05
7.77707e-05
4.69323e-05
4.68708e-05
4.67825e-05
4.66959e-05
4.66251e-05
4.65741e-05
4.6543e-05
4.65311e-05
4.65391e-05
4.65696e-05
4.66271e-05
4.67166e-05
4.68393e-05
4.69836e-05
4.71075e-05
4.71224e-05
4.69423e-05
4.66767e-05
4.64012e-05
4.6139e-05
4.58891e-05
4.56436e-05
4.53967e-05
4.51468e-05
4.48969e-05
4.46534e-05
4.44238e-05
4.42153e-05
4.40346e-05
4.3888e-05
4.3782e-05
4.3726e-05
4.37358e-05
4.38431e-05
4.41235e-05
4.48191e-05
4.72656e-05
6.94037e-05
7.8e-05
7.8e-05
7.8e-05
7.8e-05
7.8e-05
7.8e-05
7.8e-05
7.8e-05
7.8e-05
7.8e-05
7.8e-05
7.8e-05
7.8e-05
7.8e-05
7.8e-05
7.8e-05
7.8e-05
7.8e-05
7.8e-05
7.8e-05
7.8e-05
7.79981e-05
6.15562e-05
4.68228e-05
4.48461e-05
4.42831e-05
4.40858e-05
4.40558e-05
4.41309e-05
4.42864e-05
4.45108e-05
4.47971e-05
4.51374e-05
4.55183e-05
4.59178e-05
4.63052e-05
4.66456e-05
4.6908e-05
4.7073e-05
4.7138e-05
4.71167e-05
4.70366e-05
4.69353e-05
4.68584e-05
4.68641e-05
4.70457e-05
4.76318e-05
4.96486e-05
6.21712e-05
7.7993e-05
6.98065e-05
5.00758e-05
4.73701e-05
4.65046e-05
4.61197e-05
4.59425e-05
4.58787e-05
4.58842e-05
4.59338e-05
4.60107e-05
4.61019e-05
4.6196e-05
4.62817e-05
4.63464e-05
4.63769e-05
4.63624e-05
4.62993e-05
4.61941e-05
4.60592e-05
4.59082e-05
4.57537e-05
4.5607e-05
4.54788e-05
4.53802e-05
4.53254e-05
4.53343e-05
4.54412e-05
4.57185e-05
4.63693e-05
4.83302e-05
6.00628e-05
7.79885e-05
4.6872e-05
4.67406e-05
4.65744e-05
4.64263e-05
4.63124e-05
4.62338e-05
4.61874e-05
4.61709e-05
4.61842e-05
4.62304e-05
4.63162e-05
4.64513e-05
4.66473e-05
4.69093e-05
4.72051e-05
4.73714e-05
4.70251e-05
4.66013e-05
4.62291e-05
4.59173e-05
4.56477e-05
4.54019e-05
4.51676e-05
4.49391e-05
4.47157e-05
4.45009e-05
4.42999e-05
4.41188e-05
4.39635e-05
4.38406e-05
4.37576e-05
4.3726e-05
4.37651e-05
4.39157e-05
4.42799e-05
4.52075e-05
4.85971e-05
7.65567e-05
7.8e-05
7.8e-05
7.8e-05
7.8e-05
7.8e-05
7.8e-05
7.8e-05
7.8e-05
7.8e-05
7.8e-05
7.8e-05
7.8e-05
7.8e-05
7.8e-05
7.8e-05
7.8e-05
7.8e-05
7.8e-05
7.8e-05
7.8e-05
7.8e-05
7.8e-05
7.03579e-05
4.75858e-05
4.50752e-05
4.43778e-05
4.41203e-05
4.40518e-05
4.40951e-05
4.42189e-05
4.4408e-05
4.46529e-05
4.49442e-05
4.52688e-05
4.56078e-05
4.59362e-05
4.62263e-05
4.64536e-05
4.66031e-05
4.66728e-05
4.66748e-05
4.66331e-05
4.65812e-05
4.65616e-05
4.66322e-05
4.68949e-05
4.76168e-05
5.01191e-05
6.90436e-05
7.79999e-05
7.67389e-05
5.16247e-05
4.77166e-05
4.6549e-05
4.60474e-05
4.58067e-05
4.56999e-05
4.56724e-05
4.5696e-05
4.57533e-05
4.58323e-05
4.59223e-05
4.60123e-05
4.60878e-05
4.61309e-05
4.6124e-05
4.60603e-05
4.59506e-05
4.58138e-05
4.56674e-05
4.5525e-05
4.53971e-05
4.5293e-05
4.52231e-05
4.52013e-05
4.52494e-05
4.54081e-05
4.5769e-05
4.66101e-05
4.93335e-05
7.04581e-05
7.8e-05
4.70637e-05
4.67298e-05
4.64012e-05
4.61494e-05
4.59721e-05
4.58558e-05
4.57894e-05
4.57666e-05
4.57859e-05
4.58512e-05
4.59729e-05
4.61703e-05
4.64779e-05
4.69584e-05
4.77205e-05
4.8806e-05
4.74814e-05
4.66224e-05
4.60622e-05
4.56689e-05
4.53679e-05
4.51175e-05
4.48952e-05
4.46893e-05
4.44954e-05
4.43134e-05
4.41464e-05
4.39986e-05
4.38758e-05
4.37846e-05
4.37342e-05
4.3739e-05
4.38259e-05
4.4055e-05
4.4609e-05
4.64713e-05
6.13574e-05
7.79985e-05
7.8e-05
7.8e-05
7.8e-05
7.8e-05
7.8e-05
7.8e-05
7.8e-05
7.8e-05
7.8e-05
7.8e-05
7.8e-05
7.8e-05
7.8e-05
7.8e-05
7.8e-05
7.8e-05
7.8e-05
7.8e-05
7.8e-05
7.8e-05
7.8e-05
7.8e-05
7.75875e-05
5.03744e-05
4.56601e-05
4.45781e-05
4.41954e-05
4.40611e-05
4.40562e-05
4.41357e-05
4.42782e-05
4.44707e-05
4.47022e-05
4.49602e-05
4.52289e-05
4.54892e-05
4.57212e-05
4.59077e-05
4.60386e-05
4.61134e-05
4.61427e-05
4.61467e-05
4.61548e-05
4.62079e-05
4.63689e-05
4.67648e-05
4.77688e-05
5.12075e-05
7.61271e-05
7.8e-05
7.79991e-05
6.48427e-05
4.90115e-05
4.67617e-05
4.60192e-05
4.56753e-05
4.55067e-05
4.54363e-05
4.54285e-05
4.5464e-05
4.55314e-05
4.56213e-05
4.57231e-05
4.5821e-05
4.5889e-05
4.58954e-05
4.58244e-05
4.56985e-05
4.55494e-05
4.54012e-05
4.52681e-05
4.51592e-05
4.50826e-05
4.50479e-05
4.507e-05
4.51759e-05
4.54208e-05
4.59484e-05
4.73168e-05
5.34769e-05
7.77968e-05
7.8e-05
4.84058e-05
4.71166e-05
4.63916e-05
4.59584e-05
4.56883e-05
4.55222e-05
4.54308e-05
4.53999e-05
4.54256e-05
4.55133e-05
4.56797e-05
4.59611e-05
4.64428e-05
4.73697e-05
4.9847e-05
6.16601e-05
4.9296e-05
4.69126e-05
4.59763e-05
4.54558e-05
4.51073e-05
4.48441e-05
4.4628e-05
4.44404e-05
4.42727e-05
4.41219e-05
4.39885e-05
4.38758e-05
4.37889e-05
4.37352e-05
4.37264e-05
4.37826e-05
4.39435e-05
4.43062e-05
4.51896e-05
4.83574e-05
7.58173e-05
7.8e-05
7.8e-05
7.8e-05
7.8e-05
7.8e-05
7.8e-05
7.8e-05
7.8e-05
7.8e-05
7.8e-05
7.8e-05
7.8e-05
7.8e-05
7.8e-05
7.8e-05
7.8e-05
7.8e-05
7.8e-05
7.8e-05
7.8e-05
7.8e-05
7.8e-05
7.8e-05
7.79999e-05
6.73463e-05
4.72379e-05
4.49756e-05
4.43419e-05
4.41023e-05
4.40304e-05
4.40543e-05
4.41429e-05
4.42785e-05
4.44483e-05
4.46402e-05
4.48412e-05
4.50373e-05
4.5215e-05
4.53635e-05
4.54771e-05
4.55571e-05
4.56129e-05
4.56622e-05
4.57325e-05
4.58664e-05
4.61428e-05
4.67633e-05
4.86665e-05
6.11956e-05
7.79937e-05
7.8e-05
7.8e-05
7.7207e-05
5.15756e-05
4.73143e-05
4.61304e-05
4.5618e-05
4.5361e-05
4.52366e-05
4.51933e-05
4.52078e-05
4.52683e-05
4.53668e-05
4.5495e-05
4.56382e-05
4.57592e-05
4.57942e-05
4.56953e-05
4.55247e-05
4.53404e-05
4.51755e-05
4.50422e-05
4.49474e-05
4.48976e-05
4.49023e-05
4.498e-05
4.51701e-05
4.55636e-05
4.64451e-05
4.93142e-05
7.22245e-05
7.8e-05
7.8e-05
5.89592e-05
4.88712e-05
4.67665e-05
4.59544e-05
4.55307e-05
4.52916e-05
4.5166e-05
4.51242e-05
4.51575e-05
4.52742e-05
4.55037e-05
4.59159e-05
4.67273e-05
4.89999e-05
6.36706e-05
7.79744e-05
5.79879e-05
4.78756e-05
4.60612e-05
4.53348e-05
4.49123e-05
4.46216e-05
4.44015e-05
4.42242e-05
4.40763e-05
4.39516e-05
4.38489e-05
4.37702e-05
4.37211e-05
4.37106e-05
4.37552e-05
4.38861e-05
4.41768e-05
4.48571e-05
4.71521e-05
6.67747e-05
7.79999e-05
7.8e-05
7.8e-05
7.8e-05
7.8e-05
7.8e-05
7.8e-05
7.8e-05
7.8e-05
7.8e-05
7.8e-05
7.8e-05
7.8e-05
7.8e-05
7.8e-05
7.8e-05
7.8e-05
7.8e-05
7.8e-05
7.8e-05
7.8e-05
7.8e-05
7.8e-05
7.8e-05
7.8e-05
7.78113e-05
5.15745e-05
4.58018e-05
4.46236e-05
4.42074e-05
4.40402e-05
4.3995e-05
4.40233e-05
4.41007e-05
4.42116e-05
4.43438e-05
4.44861e-05
4.46283e-05
4.47615e-05
4.48795e-05
4.49799e-05
4.50657e-05
4.5146e-05
4.52381e-05
4.53703e-05
4.55936e-05
4.60171e-05
4.6962e-05
5.00258e-05
7.41829e-05
7.8e-05
7.8e-05
7.8e-05
7.8e-05
7.22013e-05
4.95533e-05
4.66552e-05
4.5746e-05
4.53323e-05
4.51302e-05
4.50429e-05
4.50367e-05
4.50983e-05
4.52214e-05
4.54045e-05
4.56484e-05
4.5906e-05
4.6036e-05
4.58262e-05
4.55312e-05
4.52584e-05
4.50477e-05
4.48969e-05
4.48072e-05
4.47827e-05
4.48342e-05
4.49889e-05
4.53217e-05
4.60454e-05
4.82085e-05
6.26453e-05
7.79983e-05
7.8e-05
7.8e-05
7.79751e-05
5.92555e-05
4.83618e-05
4.63421e-05
4.55885e-05
4.52188e-05
4.50389e-05
4.49804e-05
4.50248e-05
4.51871e-05
4.55268e-05
4.6198e-05
4.78768e-05
5.60192e-05
7.79412e-05
7.8e-05
7.56247e-05
4.98383e-05
4.64719e-05
4.53827e-05
4.48281e-05
4.44819e-05
4.42413e-05
4.40634e-05
4.39271e-05
4.38225e-05
4.37466e-05
4.37011e-05
4.36926e-05
4.37345e-05
4.38527e-05
4.41039e-05
4.46549e-05
4.62951e-05
5.65959e-05
7.79863e-05
7.8e-05
7.8e-05
7.8e-05
7.8e-05
7.8e-05
7.8e-05
7.8e-05
7.8e-05
7.8e-05
7.8e-05
7.8e-05
7.8e-05
7.8e-05
7.8e-05
7.8e-05
7.8e-05
7.8e-05
7.8e-05
7.8e-05
7.8e-05
7.8e-05
7.8e-05
7.8e-05
7.8e-05
7.8e-05
7.8e-05
7.34395e-05
4.8037e-05
4.52347e-05
4.44461e-05
4.41219e-05
4.39824e-05
4.39402e-05
4.39573e-05
4.40128e-05
4.40925e-05
4.41862e-05
4.42855e-05
4.43848e-05
4.44805e-05
4.4573e-05
4.46666e-05
4.47716e-05
4.49069e-05
4.51068e-05
4.54425e-05
4.61128e-05
4.80774e-05
6.14202e-05
7.79963e-05
7.8e-05
7.8e-05
7.8e-05
7.8e-05
7.79997e-05
6.61878e-05
4.88492e-05
4.63342e-05
4.55345e-05
4.51931e-05
4.50356e-05
4.5004e-05
4.50813e-05
4.52637e-05
4.55675e-05
4.60887e-05
4.68561e-05
4.76458e-05
4.66701e-05
4.59366e-05
4.54116e-05
4.5091e-05
4.48868e-05
4.4787e-05
4.47892e-05
4.49092e-05
4.51945e-05
4.58439e-05
4.76351e-05
5.67691e-05
7.797e-05
7.8e-05
7.8e-05
7.8e-05
7.8e-05
7.79615e-05
5.71396e-05
4.80182e-05
4.60978e-05
4.54058e-05
4.51205e-05
4.50325e-05
4.50969e-05
4.53473e-05
4.59558e-05
4.74283e-05
5.28144e-05
7.77023e-05
7.8e-05
7.8e-05
7.79999e-05
6.80444e-05
4.84362e-05
4.58255e-05
4.49311e-05
4.44629e-05
4.41726e-05
4.39783e-05
4.38441e-05
4.37537e-05
4.37018e-05
4.36906e-05
4.37309e-05
4.38452e-05
4.40838e-05
4.45737e-05
4.582e-05
5.13934e-05
7.78077e-05
7.8e-05
7.8e-05
7.8e-05
7.8e-05
7.8e-05
7.8e-05
7.8e-05
7.8e-05
7.8e-05
7.8e-05
7.8e-05
7.8e-05
7.8e-05
7.8e-05
7.8e-05
7.8e-05
7.8e-05
7.8e-05
7.8e-05
7.8e-05
7.8e-05
7.8e-05
7.8e-05
7.8e-05
7.8e-05
7.8e-05
7.8e-05
7.79998e-05
6.52281e-05
4.7269e-05
4.50247e-05
4.43468e-05
4.40528e-05
4.39173e-05
4.38667e-05
4.38671e-05
4.38995e-05
4.39522e-05
4.40178e-05
4.40918e-05
4.41729e-05
4.42629e-05
4.43683e-05
4.45022e-05
4.46891e-05
4.49772e-05
4.54802e-05
4.65725e-05
5.03751e-05
7.69062e-05
7.8e-05
7.8e-05
7.8e-05
7.8e-05
7.8e-05
7.8e-05
7.79993e-05
6.47972e-05
4.87464e-05
4.62939e-05
4.5612e-05
4.52852e-05
4.52057e-05
4.53384e-05
4.56912e-05
4.63201e-05
4.81338e-05
5.20003e-05
6.16605e-05
5.08559e-05
4.78046e-05
4.61092e-05
4.54831e-05
4.51159e-05
4.49718e-05
4.50131e-05
4.52803e-05
4.58767e-05
4.77515e-05
5.62752e-05
7.79396e-05
7.8e-05
7.8e-05
7.8e-05
7.8e-05
7.8e-05
7.8e-05
7.79639e-05
5.91857e-05
4.83217e-05
4.61891e-05
4.56272e-05
4.5468e-05
4.55816e-05
4.60596e-05
4.78643e-05
5.44948e-05
7.76757e-05
7.8e-05
7.8e-05
7.8e-05
7.8e-05
7.79959e-05
6.03421e-05
4.75426e-05
4.54193e-05
4.46404e-05
4.42363e-05
4.39991e-05
4.38541e-05
4.37719e-05
4.37438e-05
4.37745e-05
4.38857e-05
4.41258e-05
4.46361e-05
4.58699e-05
5.03386e-05
7.75001e-05
7.8e-05
7.8e-05
7.8e-05
7.8e-05
7.8e-05
7.8e-05
7.8e-05
7.8e-05
7.8e-05
7.8e-05
7.8e-05
7.8e-05
7.8e-05
7.8e-05
7.8e-05
7.8e-05
7.8e-05
7.8e-05
7.8e-05
7.8e-05
7.8e-05
7.8e-05
7.8e-05
7.8e-05
7.8e-05
7.8e-05
7.8e-05
7.8e-05
7.8e-05
7.7995e-05
5.89026e-05
4.67854e-05
4.4901e-05
4.42768e-05
4.3991e-05
4.38514e-05
4.37902e-05
4.37755e-05
4.37914e-05
4.38291e-05
4.38844e-05
4.39571e-05
4.40509e-05
4.41755e-05
4.43496e-05
4.46129e-05
4.50535e-05
4.59409e-05
4.87168e-05
7.13184e-05
7.8e-05
7.8e-05
7.8e-05
7.8e-05
7.8e-05
7.8e-05
7.8e-05
7.8e-05
7.79995e-05
6.92014e-05
4.93925e-05
4.73371e-05
4.61701e-05
4.59313e-05
4.63e-05
4.75521e-05
4.95226e-05
6.65611e-05
7.76827e-05
7.79972e-05
7.73806e-05
6.38291e-05
4.90279e-05
4.71134e-05
4.59163e-05
4.56139e-05
4.57474e-05
4.66131e-05
4.85414e-05
6.16817e-05
7.79657e-05
7.8e-05
7.8e-05
7.8e-05
7.8e-05
7.8e-05
7.8e-05
7.8e-05
7.8e-05
7.79912e-05
6.76031e-05
4.94618e-05
4.77707e-05
4.72572e-05
4.76268e-05
4.8992e-05
6.35335e-05
7.79157e-05
7.8e-05
7.8e-05
7.8e-05
7.8e-05
7.8e-05
7.8e-05
7.79816e-05
5.73909e-05
4.72482e-05
4.52523e-05
4.45326e-05
4.41933e-05
4.40142e-05
4.39328e-05
4.39349e-05
4.40311e-05
4.42825e-05
4.48366e-05
4.64416e-05
5.24517e-05
7.75821e-05
7.8e-05
7.8e-05
7.8e-05
7.8e-05
7.8e-05
7.8e-05
7.8e-05
7.8e-05
7.8e-05
7.8e-05
7.8e-05
7.8e-05
7.8e-05
7.8e-05
7.8e-05
7.8e-05
7.8e-05
7.8e-05
7.8e-05
7.8e-05
7.8e-05
7.8e-05
7.8e-05
7.8e-05
7.8e-05
7.8e-05
7.8e-05
7.8e-05
7.8e-05
7.8e-05
7.8e-05
7.79782e-05
5.62182e-05
4.66299e-05
4.48596e-05
4.424e-05
4.39522e-05
4.38078e-05
4.37373e-05
4.37146e-05
4.37268e-05
4.37678e-05
4.3838e-05
4.39441e-05
4.41015e-05
4.43414e-05
4.47455e-05
4.55439e-05
4.7886e-05
6.41452e-05
7.79995e-05
7.8e-05
7.8e-05
7.8e-05
7.8e-05
7.8e-05
7.8e-05
7.8e-05
7.8e-05
7.8e-05
7.8e-05
7.56616e-05
6.07712e-05
4.98002e-05
4.87063e-05
5.05808e-05
6.29566e-05
7.613e-05
7.79998e-05
7.8e-05
7.8e-05
7.8e-05
7.79993e-05
7.47247e-05
5.9442e-05
4.90756e-05
4.81118e-05
4.85472e-05
5.47088e-05
7.19783e-05
7.79979e-05
7.8e-05
7.8e-05
7.8e-05
7.8e-05
7.8e-05
7.8e-05
7.8e-05
7.8e-05
7.8e-05
7.8e-05
7.79999e-05
7.63483e-05
6.62789e-05
5.99546e-05
6.4627e-05
7.48956e-05
7.79992e-05
7.8e-05
7.8e-05
7.8e-05
7.8e-05
7.8e-05
7.8e-05
7.8e-05
7.8e-05
7.79821e-05
6.00159e-05
4.7615e-05
4.5412e-05
4.47763e-05
4.44936e-05
4.43963e-05
4.44615e-05
4.47078e-05
4.54217e-05
4.74021e-05
5.96692e-05
7.79013e-05
7.8e-05
7.8e-05
7.8e-05
7.8e-05
7.8e-05
7.8e-05
7.8e-05
7.8e-05
7.8e-05
7.8e-05
7.8e-05
7.8e-05
7.8e-05
7.8e-05
7.8e-05
7.8e-05
7.8e-05
7.8e-05
7.8e-05
7.8e-05
7.8e-05
7.8e-05
7.8e-05
7.8e-05
7.8e-05
7.8e-05
7.8e-05
7.8e-05
7.8e-05
7.8e-05
7.8e-05
7.8e-05
7.8e-05
7.79724e-05
5.70965e-05
4.68472e-05
4.49132e-05
4.42689e-05
4.3978e-05
4.3821e-05
4.37476e-05
4.37314e-05
4.37606e-05
4.38353e-05
4.39682e-05
4.41894e-05
4.4558e-05
4.53118e-05
4.74776e-05
6.04004e-05
7.79962e-05
7.8e-05
7.8e-05
7.8e-05
7.8e-05
7.8e-05
7.8e-05
7.8e-05
7.8e-05
7.8e-05
7.8e-05
7.8e-05
7.8e-05
7.79963e-05
7.68981e-05
7.46081e-05
7.73772e-05
7.79987e-05
7.8e-05
7.8e-05
7.8e-05
7.8e-05
7.8e-05
7.8e-05
7.8e-05
7.79938e-05
7.60916e-05
7.17656e-05
7.45064e-05
7.79438e-05
7.8e-05
7.8e-05
7.8e-05
7.8e-05
7.8e-05
7.8e-05
7.8e-05
7.8e-05
7.8e-05
7.8e-05
7.8e-05
7.8e-05
7.8e-05
7.8e-05
7.79998e-05
7.79943e-05
7.79995e-05
7.8e-05
7.8e-05
7.8e-05
7.8e-05
7.8e-05
7.8e-05
7.8e-05
7.8e-05
7.8e-05
7.8e-05
7.8e-05
7.79965e-05
6.87882e-05
4.88871e-05
4.69517e-05
4.61129e-05
4.58939e-05
4.62882e-05
4.7159e-05
5.10141e-05
7.11093e-05
7.79972e-05
7.8e-05
7.8e-05
7.8e-05
7.8e-05
7.8e-05
7.8e-05
7.8e-05
7.8e-05
7.8e-05
7.8e-05
7.8e-05
7.8e-05
7.8e-05
7.8e-05
7.8e-05
7.8e-05
7.8e-05
7.8e-05
7.8e-05
7.8e-05
7.8e-05
7.8e-05
7.8e-05
7.8e-05
7.8e-05
7.8e-05
7.8e-05
7.8e-05
7.8e-05
7.8e-05
7.8e-05
7.8e-05
7.8e-05
7.8e-05
7.8e-05
7.79884e-05
6.18834e-05
4.73938e-05
4.51523e-05
4.4486e-05
4.4123e-05
4.39578e-05
4.39007e-05
4.39181e-05
4.4009e-05
4.42021e-05
4.45853e-05
4.52879e-05
4.75593e-05
6.11777e-05
7.79948e-05
7.8e-05
7.8e-05
7.8e-05
7.8e-05
7.8e-05
7.8e-05
7.8e-05
7.8e-05
7.8e-05
7.8e-05
7.8e-05
7.8e-05
7.8e-05
7.8e-05
7.8e-05
7.8e-05
7.8e-05
7.8e-05
7.8e-05
7.8e-05
7.8e-05
7.8e-05
7.8e-05
7.8e-05
7.8e-05
7.8e-05
7.8e-05
7.8e-05
7.8e-05
7.8e-05
7.8e-05
7.8e-05
7.8e-05
7.8e-05
7.8e-05
7.8e-05
7.8e-05
7.8e-05
7.8e-05
7.8e-05
7.8e-05
7.8e-05
7.8e-05
7.8e-05
7.8e-05
7.8e-05
7.8e-05
7.8e-05
7.8e-05
7.8e-05
7.8e-05
7.8e-05
7.8e-05
7.8e-05
7.8e-05
7.8e-05
7.8e-05
7.8e-05
7.8e-05
7.8e-05
7.67948e-05
6.60617e-05
5.63809e-05
5.44739e-05
5.97352e-05
7.00432e-05
7.78016e-05
7.8e-05
7.8e-05
7.8e-05
7.8e-05
7.8e-05
7.8e-05
7.8e-05
7.8e-05
7.8e-05
7.8e-05
7.8e-05
7.8e-05
7.8e-05
7.8e-05
7.8e-05
7.8e-05
7.8e-05
7.8e-05
7.8e-05
7.8e-05
7.8e-05
7.8e-05
7.8e-05
7.8e-05
7.8e-05
7.8e-05
7.8e-05
7.8e-05
7.8e-05
7.8e-05
7.8e-05
7.8e-05
7.8e-05
7.8e-05
7.8e-05
7.8e-05
7.8e-05
7.8e-05
7.7999e-05
7.04297e-05
4.86803e-05
4.63697e-05
4.49848e-05
4.45723e-05
4.44285e-05
4.44265e-05
4.45653e-05
4.49248e-05
4.60439e-05
4.81857e-05
6.69726e-05
7.7998e-05
7.8e-05
7.8e-05
7.8e-05
7.8e-05
7.8e-05
7.8e-05
7.8e-05
7.8e-05
7.8e-05
7.8e-05
7.8e-05
7.8e-05
7.8e-05
7.8e-05
7.8e-05
7.8e-05
7.8e-05
7.8e-05
7.8e-05
7.8e-05
7.8e-05
7.8e-05
7.8e-05
7.8e-05
7.8e-05
7.8e-05
7.8e-05
7.8e-05
7.8e-05
7.8e-05
7.8e-05
7.8e-05
7.8e-05
7.8e-05
7.8e-05
7.8e-05
7.8e-05
7.8e-05
7.8e-05
7.8e-05
7.8e-05
7.8e-05
7.8e-05
7.8e-05
7.8e-05
7.8e-05
7.8e-05
7.8e-05
7.8e-05
7.8e-05
7.8e-05
7.8e-05
7.8e-05
7.8e-05
7.8e-05
7.8e-05
7.8e-05
7.8e-05
7.8e-05
7.8e-05
7.8e-05
7.8e-05
7.79999e-05
7.79816e-05
7.79562e-05
7.79965e-05
7.8e-05
7.8e-05
7.8e-05
7.8e-05
7.8e-05
7.8e-05
7.8e-05
7.8e-05
7.8e-05
7.8e-05
7.8e-05
7.8e-05
7.8e-05
7.8e-05
7.8e-05
7.8e-05
7.8e-05
7.8e-05
7.8e-05
7.8e-05
7.8e-05
7.8e-05
7.8e-05
7.8e-05
7.8e-05
7.8e-05
7.8e-05
7.8e-05
7.8e-05
7.8e-05
7.8e-05
7.8e-05
7.8e-05
7.8e-05
7.8e-05
7.8e-05
7.8e-05
7.8e-05
7.8e-05
7.8e-05
7.8e-05
7.8e-05
7.69744e-05
6.29206e-05
4.83257e-05
4.6885e-05
4.63722e-05
4.62777e-05
4.6663e-05
4.76621e-05
5.63093e-05
7.47396e-05
7.79999e-05
7.8e-05
7.8e-05
7.8e-05
7.8e-05
7.8e-05
7.8e-05
7.8e-05
7.8e-05
7.8e-05
7.8e-05
7.8e-05
7.8e-05
7.8e-05
7.8e-05
7.8e-05
7.8e-05
7.8e-05
7.8e-05
7.8e-05
7.8e-05
7.8e-05
7.8e-05
7.8e-05
7.8e-05
7.8e-05
7.8e-05
7.8e-05
7.8e-05
7.8e-05
7.8e-05
7.8e-05
7.8e-05
7.8e-05
7.8e-05
7.8e-05
7.8e-05
7.8e-05
7.8e-05
7.8e-05
7.8e-05
7.8e-05
7.8e-05
7.8e-05
7.8e-05
7.8e-05
7.8e-05
7.8e-05
7.8e-05
7.8e-05
7.8e-05
7.8e-05
7.8e-05
7.8e-05
7.8e-05
7.8e-05
7.8e-05
7.8e-05
7.8e-05
7.8e-05
7.8e-05
7.8e-05
7.8e-05
7.8e-05
7.8e-05
7.8e-05
7.8e-05
7.8e-05
7.8e-05
7.8e-05
7.8e-05
7.8e-05
7.8e-05
7.8e-05
7.8e-05
7.8e-05
7.8e-05
7.8e-05
7.8e-05
7.8e-05
7.8e-05
7.8e-05
7.8e-05
7.8e-05
7.8e-05
7.8e-05
7.8e-05
7.8e-05
7.8e-05
7.8e-05
7.8e-05
7.8e-05
7.8e-05
7.8e-05
7.8e-05
7.8e-05
7.8e-05
7.8e-05
7.8e-05
7.8e-05
7.8e-05
7.8e-05
7.8e-05
7.8e-05
7.8e-05
7.8e-05
7.8e-05
7.8e-05
7.8e-05
7.8e-05
7.8e-05
7.79995e-05
7.66878e-05
6.86287e-05
6.16597e-05
5.9961e-05
6.46673e-05
7.36358e-05
7.79852e-05
7.8e-05
7.8e-05
7.8e-05
7.8e-05
7.8e-05
7.8e-05
7.8e-05
7.8e-05
7.8e-05
7.8e-05
7.8e-05
7.8e-05
7.8e-05
7.8e-05
7.8e-05
7.8e-05
7.8e-05
7.8e-05
7.8e-05
7.8e-05
7.8e-05
7.8e-05
7.8e-05
7.8e-05
7.8e-05
7.8e-05
7.8e-05
7.8e-05
7.8e-05
7.8e-05
7.8e-05
7.8e-05
7.8e-05
7.8e-05
7.8e-05
7.8e-05
7.8e-05
7.8e-05
7.8e-05
7.8e-05
7.8e-05
7.8e-05
7.8e-05
7.8e-05
7.8e-05
7.8e-05
7.8e-05
7.8e-05
7.8e-05
7.8e-05
7.8e-05
7.8e-05
7.8e-05
7.8e-05
7.8e-05
7.8e-05
7.8e-05
7.8e-05
7.8e-05
7.8e-05
7.8e-05
7.8e-05
7.8e-05
7.8e-05
7.8e-05
7.8e-05
7.8e-05
7.8e-05
7.8e-05
7.8e-05
7.8e-05
7.8e-05
7.8e-05
7.8e-05
7.8e-05
7.8e-05
7.8e-05
7.8e-05
7.8e-05
7.8e-05
7.8e-05
7.8e-05
7.8e-05
7.8e-05
7.8e-05
7.8e-05
7.8e-05
7.8e-05
7.8e-05
7.8e-05
7.8e-05
7.8e-05
7.8e-05
7.8e-05
7.8e-05
7.8e-05
7.8e-05
7.8e-05
7.8e-05
7.8e-05
7.8e-05
7.8e-05
7.8e-05
7.8e-05
7.8e-05
7.8e-05
7.8e-05
7.8e-05
7.8e-05
7.8e-05
7.8e-05
7.8e-05
7.8e-05
7.8e-05
7.8e-05
7.79987e-05
7.7997e-05
7.79997e-05
7.8e-05
7.8e-05
7.8e-05
7.8e-05
7.8e-05
7.8e-05
7.8e-05
7.8e-05
7.8e-05
7.8e-05
7.8e-05
7.8e-05
7.8e-05
7.8e-05
7.8e-05
7.8e-05
7.8e-05
7.8e-05
7.8e-05
7.8e-05
7.8e-05
7.8e-05
7.8e-05
7.8e-05
7.8e-05
7.8e-05
7.8e-05
7.8e-05
7.8e-05
7.8e-05
7.8e-05
7.8e-05
7.8e-05
7.8e-05
7.8e-05
7.8e-05
7.8e-05
7.8e-05
7.8e-05
7.8e-05
7.8e-05
7.8e-05
7.8e-05
7.8e-05
7.8e-05
7.8e-05
7.8e-05
7.8e-05
7.8e-05
7.8e-05
7.8e-05
7.8e-05
7.8e-05
7.8e-05
7.8e-05
7.8e-05
7.8e-05
7.8e-05
7.8e-05
7.8e-05
7.8e-05
7.8e-05
7.8e-05
7.8e-05
7.8e-05
7.8e-05
7.8e-05
7.8e-05
7.8e-05
7.8e-05
7.8e-05
7.8e-05
7.8e-05
7.8e-05
7.8e-05
7.8e-05
7.8e-05
7.8e-05
7.8e-05
7.8e-05
7.8e-05
7.8e-05
7.8e-05
7.8e-05
7.8e-05
7.8e-05
7.8e-05
7.8e-05
7.8e-05
7.8e-05
7.8e-05
7.8e-05
7.8e-05
7.8e-05
7.8e-05
7.8e-05
7.8e-05
7.8e-05
7.8e-05
7.8e-05
7.8e-05
7.8e-05
7.8e-05
7.8e-05
7.8e-05
7.8e-05
7.8e-05
7.8e-05
7.8e-05
7.8e-05
7.8e-05
7.8e-05
7.8e-05
7.8e-05
7.8e-05
7.8e-05
7.8e-05
7.8e-05
7.8e-05
7.8e-05
7.8e-05
7.8e-05
7.8e-05
7.8e-05
7.8e-05
7.8e-05
7.8e-05
7.8e-05
7.8e-05
7.8e-05
7.8e-05
7.8e-05
7.8e-05
7.8e-05
7.8e-05
7.8e-05
7.8e-05
7.8e-05
7.8e-05
7.8e-05
7.8e-05
7.8e-05
7.8e-05
7.8e-05
7.8e-05
7.8e-05
7.8e-05
7.8e-05
7.8e-05
7.8e-05
7.8e-05
7.8e-05
7.8e-05
7.8e-05
7.8e-05
7.8e-05
7.8e-05
7.8e-05
7.8e-05
7.8e-05
7.8e-05
7.8e-05
7.8e-05
7.8e-05
7.8e-05
7.8e-05
7.8e-05
7.8e-05
7.8e-05
7.8e-05
7.8e-05
7.8e-05
7.8e-05
7.8e-05
7.8e-05
7.8e-05
7.8e-05
7.8e-05
7.8e-05
7.8e-05
7.8e-05
7.8e-05
7.8e-05
7.8e-05
7.8e-05
7.8e-05
7.8e-05
7.8e-05
7.8e-05
7.8e-05
7.8e-05
7.8e-05
7.8e-05
7.8e-05
7.8e-05
7.8e-05
7.8e-05
7.8e-05
7.8e-05
7.8e-05
7.8e-05
7.8e-05
7.8e-05
7.8e-05
7.8e-05
7.8e-05
7.8e-05
7.8e-05
7.8e-05
7.8e-05
7.8e-05
7.8e-05
7.8e-05
7.8e-05
7.8e-05
7.8e-05
7.8e-05
7.8e-05
7.8e-05
7.8e-05
7.8e-05
7.8e-05
7.8e-05
7.8e-05
7.8e-05
7.8e-05
7.8e-05
7.8e-05
7.8e-05
7.8e-05
7.8e-05
7.8e-05
7.8e-05
7.8e-05
7.8e-05
7.8e-05
7.8e-05
7.8e-05
7.8e-05
7.8e-05
7.8e-05
7.8e-05
7.8e-05
7.8e-05
7.8e-05
7.8e-05
7.8e-05
7.8e-05
7.8e-05
7.8e-05
7.8e-05
7.8e-05
7.8e-05
7.8e-05
7.8e-05
7.8e-05
7.8e-05
7.8e-05
7.8e-05
7.8e-05
7.8e-05
7.8e-05
7.8e-05
7.8e-05
7.8e-05
7.8e-05
7.8e-05
7.8e-05
7.8e-05
7.8e-05
7.8e-05
7.8e-05
7.8e-05
7.8e-05
7.8e-05
7.8e-05
7.8e-05
7.8e-05
7.8e-05
7.8e-05
7.8e-05
7.8e-05
7.8e-05
7.8e-05
7.8e-05
7.8e-05
7.8e-05
7.8e-05
7.8e-05
7.8e-05
7.8e-05
7.8e-05
7.8e-05
7.8e-05
7.8e-05
7.8e-05
7.8e-05
7.8e-05
7.8e-05
7.8e-05
7.8e-05
7.8e-05
7.8e-05
7.8e-05
7.8e-05
7.8e-05
7.8e-05
7.8e-05
7.8e-05
7.8e-05
7.8e-05
7.8e-05
7.8e-05
7.8e-05
7.8e-05
7.8e-05
7.8e-05
7.8e-05
7.8e-05
7.8e-05
7.8e-05
7.8e-05
7.8e-05
7.8e-05
7.8e-05
7.8e-05
7.8e-05
7.8e-05
7.8e-05
7.8e-05
7.8e-05
7.8e-05
7.8e-05
7.8e-05
7.8e-05
7.8e-05
7.8e-05
7.8e-05
7.8e-05
7.8e-05
7.8e-05
7.8e-05
7.8e-05
7.8e-05
7.8e-05
7.8e-05
7.8e-05
7.8e-05
7.8e-05
7.8e-05
7.8e-05
7.8e-05
7.8e-05
7.8e-05
7.8e-05
7.8e-05
7.8e-05
7.8e-05
7.8e-05
7.8e-05
7.8e-05
7.8e-05
7.8e-05
7.8e-05
7.8e-05
7.8e-05
7.8e-05
7.8e-05
7.8e-05
7.8e-05
7.8e-05
7.8e-05
7.8e-05
7.8e-05
7.8e-05
7.8e-05
7.8e-05
7.8e-05
7.8e-05
7.8e-05
7.8e-05
7.8e-05
7.8e-05
7.8e-05
7.8e-05
7.8e-05
7.8e-05
7.8e-05
7.8e-05
7.8e-05
7.8e-05
7.8e-05
7.8e-05
7.8e-05
7.8e-05
7.8e-05
7.8e-05
7.8e-05
7.8e-05
7.8e-05
7.8e-05
7.8e-05
7.8e-05
7.8e-05
7.8e-05
7.8e-05
7.8e-05
7.8e-05
7.8e-05
7.8e-05
7.8e-05
7.8e-05
7.8e-05
7.8e-05
7.8e-05
7.8e-05
7.8e-05
7.8e-05
7.8e-05
7.8e-05
7.8e-05
7.8e-05
7.8e-05
7.8e-05
7.8e-05
7.8e-05
7.8e-05
7.8e-05
7.8e-05
7.8e-05
7.8e-05
7.8e-05
7.8e-05
7.8e-05
7.8e-05
7.8e-05
7.8e-05
7.8e-05
7.8e-05
7.8e-05
7.8e-05
7.8e-05
7.8e-05
7.8e-05
7.8e-05
7.8e-05
7.8e-05
7.8e-05
7.8e-05
7.8e-05
7.8e-05
7.8e-05
7.8e-05
7.8e-05
7.8e-05
7.8e-05
7.8e-05
7.8e-05
7.8e-05
7.8e-05
7.8e-05
7.8e-05
7.8e-05
7.8e-05
7.8e-05
7.8e-05
7.8e-05
7.8e-05
7.8e-05
7.8e-05
7.8e-05
7.8e-05
7.8e-05
7.8e-05
7.8e-05
7.8e-05
7.8e-05
7.8e-05
7.8e-05
7.8e-05
7.8e-05
7.8e-05
7.8e-05
7.8e-05
7.8e-05
7.8e-05
7.8e-05
7.8e-05
7.8e-05
7.8e-05
7.8e-05
7.8e-05
7.8e-05
7.8e-05
7.8e-05
7.8e-05
7.8e-05
7.8e-05
7.8e-05
7.8e-05
7.8e-05
7.8e-05
7.8e-05
7.8e-05
7.8e-05
7.8e-05
7.8e-05
7.8e-05
7.8e-05
7.8e-05
7.8e-05
7.8e-05
7.8e-05
7.8e-05
7.8e-05
7.8e-05
7.8e-05
7.8e-05
7.8e-05
7.8e-05
7.8e-05
7.8e-05
7.8e-05
7.8e-05
7.8e-05
7.8e-05
7.8e-05
7.8e-05
7.8e-05
7.8e-05
7.8e-05
7.8e-05
7.8e-05
7.8e-05
7.8e-05
7.8e-05
7.8e-05
7.8e-05
7.8e-05
7.8e-05
7.8e-05
7.8e-05
7.8e-05
7.8e-05
7.8e-05
7.8e-05
7.8e-05
7.8e-05
7.8e-05
7.8e-05
7.8e-05
7.8e-05
7.8e-05
7.8e-05
7.8e-05
7.8e-05
7.8e-05
7.8e-05
7.8e-05
7.8e-05
7.8e-05
7.8e-05
7.8e-05
7.8e-05
7.8e-05
7.8e-05
7.8e-05
7.8e-05
7.8e-05
7.8e-05
7.8e-05
7.8e-05
7.8e-05
7.8e-05
7.8e-05
7.8e-05
7.8e-05
7.8e-05
7.8e-05
7.8e-05
7.8e-05
7.8e-05
7.8e-05
7.8e-05
7.8e-05
7.8e-05
7.8e-05
7.8e-05
7.8e-05
7.8e-05
7.8e-05
7.8e-05
7.8e-05
7.8e-05
7.8e-05
7.8e-05
7.8e-05
7.8e-05
7.8e-05
7.8e-05
7.8e-05
7.8e-05
7.8e-05
7.8e-05
7.8e-05
7.8e-05
7.8e-05
7.8e-05
7.8e-05
7.8e-05
7.8e-05
7.8e-05
7.8e-05
7.8e-05
7.8e-05
7.8e-05
7.8e-05
7.8e-05
7.8e-05
7.8e-05
7.8e-05
7.8e-05
7.8e-05
7.8e-05
7.8e-05
7.8e-05
7.8e-05
7.8e-05
7.8e-05
7.8e-05
7.8e-05
7.8e-05
7.8e-05
7.8e-05
7.8e-05
7.8e-05
7.8e-05
7.8e-05
7.8e-05
7.8e-05
7.8e-05
7.8e-05
7.8e-05
7.8e-05
7.8e-05
7.8e-05
7.8e-05
7.8e-05
7.8e-05
7.8e-05
7.8e-05
7.8e-05
7.8e-05
7.8e-05
7.8e-05
7.8e-05
7.8e-05
7.8e-05
7.8e-05
7.8e-05
7.8e-05
7.8e-05
7.8e-05
7.8e-05
7.8e-05
7.8e-05
7.8e-05
7.8e-05
7.8e-05
7.8e-05
7.8e-05
7.8e-05
7.8e-05
7.8e-05
7.8e-05
7.8e-05
7.8e-05
7.8e-05
7.8e-05
7.8e-05
7.8e-05
7.8e-05
7.8e-05
7.8e-05
7.8e-05
7.8e-05
7.8e-05
7.8e-05
7.8e-05
7.8e-05
7.8e-05
7.8e-05
7.8e-05
7.8e-05
7.8e-05
7.8e-05
7.8e-05
7.8e-05
7.8e-05
7.8e-05
7.8e-05
7.8e-05
7.8e-05
7.8e-05
7.8e-05
7.8e-05
7.8e-05
7.8e-05
7.8e-05
7.8e-05
7.8e-05
7.8e-05
7.8e-05
7.8e-05
7.8e-05
7.8e-05
7.8e-05
7.8e-05
7.8e-05
7.8e-05
7.8e-05
7.8e-05
7.8e-05
7.8e-05
7.8e-05
7.8e-05
7.8e-05
7.8e-05
7.8e-05
7.8e-05
7.8e-05
7.8e-05
7.8e-05
7.8e-05
7.8e-05
7.8e-05
7.8e-05
7.8e-05
7.8e-05
7.8e-05
7.8e-05
7.8e-05
7.8e-05
7.8e-05
7.8e-05
7.8e-05
7.8e-05
7.8e-05
7.8e-05
7.8e-05
7.8e-05
7.8e-05
7.8e-05
7.8e-05
7.8e-05
7.8e-05
7.8e-05
7.8e-05
7.8e-05
7.8e-05
7.8e-05
7.8e-05
7.8e-05
7.8e-05
7.8e-05
7.8e-05
7.8e-05
7.8e-05
7.8e-05
7.8e-05
7.8e-05
7.8e-05
7.8e-05
7.8e-05
7.8e-05
7.8e-05
7.8e-05
7.8e-05
7.8e-05
7.8e-05
7.8e-05
7.8e-05
7.8e-05
7.8e-05
7.8e-05
7.8e-05
7.8e-05
7.8e-05
7.8e-05
7.8e-05
7.8e-05
7.8e-05
7.8e-05
7.8e-05
7.8e-05
7.8e-05
7.8e-05
7.8e-05
7.8e-05
7.8e-05
7.8e-05
7.8e-05
7.8e-05
7.8e-05
7.8e-05
7.8e-05
7.8e-05
7.8e-05
7.8e-05
7.8e-05
7.8e-05
7.8e-05
7.8e-05
7.8e-05
7.8e-05
7.8e-05
7.8e-05
7.8e-05
7.8e-05
7.8e-05
7.8e-05
7.8e-05
7.8e-05
7.8e-05
7.8e-05
7.8e-05
7.8e-05
7.8e-05
7.8e-05
7.8e-05
7.8e-05
7.8e-05
7.8e-05
7.8e-05
7.8e-05
7.8e-05
7.8e-05
7.8e-05
7.8e-05
7.8e-05
7.8e-05
7.8e-05
7.8e-05
7.8e-05
7.8e-05
7.8e-05
7.8e-05
7.8e-05
7.8e-05
7.8e-05
7.8e-05
7.8e-05
7.8e-05
7.8e-05
7.8e-05
7.8e-05
7.8e-05
7.8e-05
7.8e-05
7.8e-05
7.8e-05
7.8e-05
7.8e-05
7.8e-05
7.8e-05
7.8e-05
7.8e-05
7.8e-05
7.8e-05
7.8e-05
7.8e-05
7.8e-05
7.8e-05
7.8e-05
7.8e-05
7.8e-05
7.8e-05
7.8e-05
7.8e-05
7.8e-05
7.8e-05
7.8e-05
7.8e-05
7.8e-05
7.8e-05
7.8e-05
7.8e-05
7.8e-05
7.8e-05
7.8e-05
7.8e-05
7.8e-05
7.8e-05
7.8e-05
7.8e-05
7.8e-05
7.8e-05
7.8e-05
7.8e-05
7.8e-05
7.8e-05
7.8e-05
7.8e-05
7.8e-05
7.8e-05
7.8e-05
7.8e-05
7.8e-05
7.8e-05
7.8e-05
7.8e-05
7.8e-05
7.8e-05
7.8e-05
7.8e-05
7.8e-05
7.8e-05
7.8e-05
7.8e-05
7.8e-05
7.8e-05
7.8e-05
7.8e-05
7.8e-05
7.8e-05
7.8e-05
7.8e-05
7.8e-05
7.8e-05
7.8e-05
7.8e-05
7.8e-05
7.8e-05
7.8e-05
7.8e-05
7.8e-05
7.8e-05
7.8e-05
7.8e-05
7.8e-05
7.8e-05
7.8e-05
7.8e-05
7.8e-05
7.8e-05
7.8e-05
7.8e-05
7.8e-05
7.8e-05
7.8e-05
7.8e-05
7.8e-05
7.8e-05
7.8e-05
7.8e-05
7.8e-05
7.8e-05
7.8e-05
7.8e-05
7.8e-05
7.8e-05
7.8e-05
7.8e-05
7.8e-05
7.8e-05
7.8e-05
7.8e-05
7.8e-05
7.8e-05
7.8e-05
7.8e-05
7.8e-05
7.8e-05
7.8e-05
7.8e-05
7.8e-05
7.8e-05
7.8e-05
7.8e-05
7.8e-05
7.8e-05
7.8e-05
7.8e-05
7.8e-05
7.8e-05
7.8e-05
7.8e-05
7.8e-05
7.8e-05
7.8e-05
7.8e-05
7.8e-05
7.8e-05
7.8e-05
7.8e-05
7.8e-05
7.8e-05
7.8e-05
7.8e-05
7.8e-05
7.8e-05
7.8e-05
7.8e-05
7.8e-05
7.8e-05
7.8e-05
7.8e-05
7.8e-05
7.8e-05
7.8e-05
7.8e-05
7.8e-05
7.8e-05
7.8e-05
7.8e-05
7.8e-05
7.8e-05
7.8e-05
7.8e-05
7.8e-05
7.8e-05
7.8e-05
7.8e-05
7.8e-05
7.8e-05
7.8e-05
7.8e-05
7.8e-05
7.8e-05
7.8e-05
7.8e-05
7.8e-05
7.8e-05
7.8e-05
7.8e-05
7.8e-05
7.8e-05
7.8e-05
7.8e-05
7.8e-05
7.8e-05
7.8e-05
7.8e-05
7.8e-05
7.8e-05
7.8e-05
7.8e-05
7.8e-05
7.8e-05
7.8e-05
7.8e-05
7.8e-05
7.8e-05
7.8e-05
7.8e-05
7.8e-05
7.8e-05
7.8e-05
7.8e-05
7.8e-05
7.8e-05
7.8e-05
7.8e-05
7.8e-05
7.8e-05
7.8e-05
7.8e-05
7.8e-05
7.8e-05
7.8e-05
7.8e-05
7.8e-05
7.8e-05
7.8e-05
7.8e-05
7.8e-05
7.8e-05
7.8e-05
7.8e-05
7.8e-05
7.8e-05
7.8e-05
7.8e-05
7.8e-05
7.8e-05
7.8e-05
7.8e-05
7.8e-05
7.8e-05
7.8e-05
7.8e-05
7.8e-05
7.8e-05
7.8e-05
7.8e-05
7.8e-05
7.8e-05
7.8e-05
7.8e-05
7.8e-05
7.8e-05
7.8e-05
7.8e-05
7.8e-05
7.8e-05
7.8e-05
7.8e-05
7.8e-05
7.8e-05
7.8e-05
7.8e-05
7.8e-05
7.8e-05
7.8e-05
7.8e-05
7.8e-05
7.8e-05
7.8e-05
7.8e-05
7.8e-05
7.8e-05
7.8e-05
7.8e-05
7.8e-05
7.8e-05
7.8e-05
7.8e-05
7.8e-05
7.8e-05
7.8e-05
7.8e-05
7.8e-05
7.8e-05
7.8e-05
7.8e-05
7.8e-05
7.8e-05
7.8e-05
7.8e-05
7.8e-05
7.8e-05
7.8e-05
7.8e-05
7.8e-05
7.8e-05
7.8e-05
7.8e-05
7.8e-05
7.8e-05
7.8e-05
7.8e-05
7.8e-05
7.8e-05
7.8e-05
7.8e-05
7.8e-05
7.8e-05
7.8e-05
7.8e-05
7.8e-05
7.8e-05
7.8e-05
7.8e-05
7.8e-05
7.8e-05
7.8e-05
7.8e-05
7.8e-05
7.8e-05
7.8e-05
7.8e-05
7.8e-05
7.8e-05
7.8e-05
7.8e-05
7.8e-05
7.8e-05
7.8e-05
7.8e-05
7.8e-05
7.8e-05
7.8e-05
7.8e-05
7.8e-05
7.8e-05
7.8e-05
7.8e-05
7.8e-05
7.8e-05
7.8e-05
7.8e-05
7.8e-05
7.8e-05
7.8e-05
7.8e-05
7.8e-05
7.8e-05
7.8e-05
7.8e-05
7.8e-05
7.8e-05
7.8e-05
7.8e-05
7.8e-05
7.8e-05
7.8e-05
7.8e-05
7.8e-05
7.8e-05
7.8e-05
7.8e-05
7.8e-05
7.8e-05
7.8e-05
7.8e-05
7.8e-05
7.8e-05
7.8e-05
7.8e-05
7.8e-05
7.8e-05
7.8e-05
7.8e-05
7.8e-05
7.8e-05
7.8e-05
7.8e-05
7.8e-05
7.8e-05
7.8e-05
7.8e-05
7.8e-05
7.8e-05
7.8e-05
7.8e-05
7.8e-05
7.8e-05
7.8e-05
7.8e-05
7.8e-05
7.8e-05
7.8e-05
7.8e-05
7.8e-05
7.8e-05
7.8e-05
7.8e-05
7.8e-05
7.8e-05
7.8e-05
7.8e-05
7.8e-05
7.8e-05
7.8e-05
7.8e-05
7.8e-05
7.8e-05
7.8e-05
7.8e-05
7.8e-05
7.8e-05
7.8e-05
7.8e-05
7.8e-05
7.8e-05
7.8e-05
7.8e-05
7.8e-05
7.8e-05
7.8e-05
7.8e-05
7.8e-05
7.8e-05
7.8e-05