/*--------------------------------*- C++ -*----------------------------------*\
| =========                 |                                                 |
| \\      /  F ield         | OpenFOAM: The Open Source CFD Toolbox           |
|  \\    /   O peration     | Version:  2406                                  |
|   \\  /    A nd           | Website:  www.openfoam.com                      |
|    \\/     M anipulation  |                                                 |
\*---------------------------------------------------------------------------*/
FoamFile
{
    version     2.0;
    format      ascii;
    arch        "LSB;label=32;scalar=64";
    class       volScalarField;
    location    "5.05";
    object      C;
}
// * * * * * * * * * * * * * * * * * * * * * * * * * * * * * * * * * * * * * //

dimensions      [1 -3 0 0 0 0 0];

internalField   nonuniform List<scalar> 
14400
(
0.319279
0.316507
0.312024
0.307008
0.302429
0.299003
0.297218
0.297375
0.299618
0.303945
0.310202
0.318055
0.32693
0.3359
0.343502
0.3475
0.344591
0.337842
0.329686
0.321841
0.315468
0.311372
0.310138
0.312229
0.318033
0.327906
0.342195
0.36125
0.385434
0.415117
0.45066
0.492351
0.540249
0.593678
0.649216
0.689419
0.71586
0.738758
0.7588
0.776282
0.791433
0.804433
0.815422
0.824513
0.831792
0.837327
0.841168
0.843349
0.843894
0.84281
0.840096
0.835734
0.829698
0.821945
0.812418
0.801043
0.787725
0.772344
0.75475
0.734755
0.712117
0.686535
0.654231
0.60647
0.548086
0.494338
0.446902
0.405792
0.370689
0.341186
0.316871
0.297363
0.282324
0.271464
0.264546
0.26138
0.261824
0.265773
0.273153
0.283913
0.298001
0.315342
0.335779
0.35896
0.384009
0.408305
0.424019
0.429721
0.429149
0.420352
0.403161
0.38324
0.364329
0.347461
0.333029
0.321174
0.311881
0.305019
0.300354
0.297555
0.29621
0.29585
0.296017
0.296357
0.296744
0.297349
0.298569
0.300904
0.304862
0.310903
0.319412
0.330685
0.344932
0.362258
0.382623
0.405731
0.430628
0.453824
0.46818
0.473621
0.331776
0.32797
0.322311
0.316297
0.310966
0.30702
0.304922
0.304955
0.307253
0.311814
0.318498
0.327002
0.336811
0.347109
0.356563
0.362725
0.358034
0.349322
0.339656
0.330721
0.323566
0.31891
0.317293
0.319145
0.324838
0.334716
0.34912
0.368395
0.392899
0.423001
0.459061
0.50138
0.550055
0.604271
0.656935
0.693458
0.7191
0.741613
0.76136
0.778613
0.793585
0.806443
0.817321
0.826325
0.833537
0.839021
0.842827
0.844987
0.845522
0.844442
0.841742
0.837409
0.831414
0.823718
0.814266
0.802986
0.789788
0.774557
0.757153
0.737396
0.715062
0.68986
0.659696
0.6148
0.556738
0.502651
0.454691
0.413051
0.377465
0.347544
0.322882
0.303096
0.287849
0.276852
0.269866
0.266703
0.267218
0.27131
0.278908
0.289961
0.304425
0.322231
0.343238
0.367121
0.39296
0.416712
0.430533
0.43596
0.435778
0.429093
0.413007
0.392601
0.373156
0.355833
0.341058
0.328983
0.319605
0.312796
0.308322
0.305838
0.304897
0.304963
0.305471
0.305944
0.306186
0.306442
0.307232
0.309161
0.312804
0.318652
0.327101
0.338451
0.352905
0.370563
0.391385
0.415073
0.440582
0.462334
0.474114
0.479054
0.357465
0.351021
0.342837
0.334821
0.32802
0.323068
0.320364
0.320157
0.322563
0.32758
0.33508
0.344805
0.35631
0.368875
0.381105
0.388156
0.383623
0.371628
0.359279
0.348361
0.339744
0.334024
0.331667
0.333055
0.338534
0.34843
0.363069
0.382784
0.407925
0.438849
0.475892
0.519311
0.5691
0.623952
0.669955
0.700791
0.725457
0.747234
0.766414
0.783225
0.797849
0.810433
0.821094
0.829928
0.837008
0.842394
0.846131
0.848248
0.848766
0.847692
0.845023
0.840745
0.834832
0.827248
0.817942
0.806847
0.793882
0.778944
0.761907
0.742614
0.720876
0.696452
0.668941
0.62985
0.574181
0.519428
0.470383
0.427676
0.391126
0.360371
0.335012
0.314671
0.299009
0.287736
0.280614
0.277454
0.278114
0.282493
0.290523
0.30216
0.317364
0.336069
0.358132
0.383186
0.41004
0.431817
0.44276
0.447803
0.448167
0.443841
0.431523
0.411084
0.390783
0.372611
0.357171
0.344665
0.33512
0.328426
0.32435
0.322531
0.322465
0.32348
0.324786
0.32559
0.325475
0.324916
0.32475
0.325803
0.32878
0.334225
0.34255
0.354047
0.368902
0.387188
0.408824
0.43335
0.458911
0.476493
0.485232
0.489426
0.395236
0.385052
0.373217
0.362382
0.353527
0.347164
0.343606
0.343061
0.345631
0.351303
0.359951
0.371345
0.38503
0.4001
0.413715
0.417442
0.41545
0.403076
0.387939
0.374566
0.363999
0.356802
0.353393
0.35412
0.359297
0.369231
0.384229
0.404608
0.430699
0.462833
0.50128
0.546116
0.596683
0.648695
0.685217
0.711396
0.734703
0.755452
0.773836
0.790024
0.804154
0.816346
0.826695
0.835283
0.842174
0.847418
0.851054
0.853109
0.853601
0.852536
0.849912
0.845715
0.839922
0.832501
0.823406
0.812579
0.79995
0.78543
0.768915
0.750279
0.729375
0.706031
0.680066
0.648211
0.600655
0.544752
0.494111
0.44985
0.41188
0.379881
0.35348
0.332304
0.316017
0.304329
0.297001
0.293846
0.294723
0.299532
0.30821
0.320713
0.337004
0.357008
0.380528
0.406972
0.434073
0.451209
0.459729
0.464327
0.465155
0.462345
0.455132
0.438344
0.417139
0.397831
0.381462
0.368331
0.358546
0.352036
0.348587
0.347839
0.349237
0.351923
0.354752
0.356271
0.355396
0.353283
0.35144
0.351032
0.352939
0.357753
0.36588
0.377587
0.393019
0.412165
0.434856
0.460199
0.48215
0.493846
0.500581
0.503993
0.432854
0.426911
0.41238
0.398561
0.387359
0.379331
0.374728
0.373769
0.376565
0.383071
0.393121
0.4065
0.422544
0.439393
0.447983
0.448963
0.448329
0.441463
0.425
0.409199
0.396391
0.387395
0.38268
0.382574
0.387379
0.397383
0.412873
0.43414
0.461483
0.495196
0.535436
0.581998
0.632958
0.673091
0.700767
0.724776
0.746506
0.766033
0.783456
0.798879
0.812398
0.8241
0.834058
0.842336
0.848986
0.854049
0.857557
0.859534
0.859993
0.858941
0.856373
0.85228
0.84664
0.839427
0.830601
0.820114
0.807907
0.793912
0.778045
0.760213
0.740312
0.718232
0.693865
0.66705
0.630359
0.577607
0.52588
0.479812
0.440023
0.406388
0.378603
0.356315
0.339193
0.326947
0.319343
0.316195
0.317362
0.322745
0.332279
0.345923
0.363629
0.385283
0.41059
0.438491
0.461779
0.473335
0.480471
0.48462
0.485783
0.484105
0.4799
0.470344
0.451385
0.431364
0.414006
0.40009
0.390006
0.38375
0.381161
0.381919
0.385494
0.390792
0.396303
0.399265
0.396874
0.392026
0.387578
0.385005
0.385413
0.389364
0.397222
0.409196
0.425349
0.445403
0.468806
0.492465
0.506287
0.513933
0.519252
0.521971
0.466928
0.466016
0.458219
0.442668
0.429289
0.419572
0.413791
0.412354
0.415452
0.422956
0.434497
0.449926
0.467463
0.47826
0.48118
0.48204
0.481777
0.479966
0.469625
0.452152
0.43702
0.426
0.41979
0.41871
0.423091
0.43321
0.449331
0.471702
0.500547
0.536112
0.57819
0.625311
0.666119
0.69472
0.718478
0.740432
0.760514
0.778718
0.795076
0.809638
0.82246
0.833598
0.843101
0.851017
0.857384
0.862234
0.865592
0.867476
0.867898
0.86686
0.864361
0.860391
0.854933
0.847965
0.839456
0.829367
0.817654
0.804264
0.789139
0.772215
0.753428
0.73272
0.710046
0.685398
0.657761
0.617991
0.565963
0.517892
0.475925
0.440284
0.410789
0.387118
0.36895
0.356003
0.348049
0.344908
0.34644
0.352539
0.363135
0.378175
0.397582
0.421101
0.44796
0.47485
0.489932
0.498168
0.504201
0.507898
0.509253
0.50839
0.505566
0.501145
0.490864
0.472613
0.454748
0.439937
0.429542
0.423601
0.42205
0.424636
0.431072
0.439615
0.448856
0.451971
0.449345
0.440668
0.433007
0.427599
0.426187
0.429096
0.436633
0.448897
0.465877
0.486423
0.508772
0.522829
0.530348
0.536337
0.540522
0.54267
0.501575
0.501281
0.499965
0.492579
0.478569
0.467739
0.460686
0.458701
0.462206
0.470879
0.483448
0.499875
0.510072
0.513799
0.515327
0.516241
0.516446
0.515932
0.513072
0.502115
0.485737
0.472725
0.46499
0.462828
0.466757
0.477049
0.493937
0.517608
0.548036
0.585454
0.628077
0.666278
0.694035
0.716614
0.737993
0.757961
0.776399
0.793248
0.808492
0.822137
0.834207
0.844728
0.853732
0.861247
0.8673
0.871912
0.875101
0.876882
0.87726
0.87624
0.873819
0.869989
0.864737
0.858045
0.849891
0.840246
0.829078
0.816352
0.802031
0.78608
0.768467
0.749173
0.728203
0.705593
0.681429
0.653226
0.612852
0.564062
0.519889
0.481975
0.450502
0.425202
0.405787
0.39199
0.383607
0.380477
0.382451
0.389403
0.401245
0.417896
0.439239
0.464693
0.492165
0.509679
0.518367
0.525186
0.530267
0.533518
0.534939
0.534636
0.532811
0.529765
0.525825
0.516859
0.502671
0.487319
0.476888
0.471302
0.470835
0.475009
0.484182
0.491659
0.495592
0.496617
0.496164
0.492839
0.486022
0.477875
0.474862
0.476669
0.48386
0.496194
0.513672
0.531213
0.543377
0.550064
0.555864
0.560547
0.563828
0.565516
0.536515
0.536449
0.536399
0.53585
0.530825
0.522606
0.514499
0.512029
0.515968
0.525828
0.536755
0.544261
0.54717
0.548712
0.550089
0.55115
0.551833
0.552158
0.552237
0.549842
0.541111
0.527195
0.518417
0.515087
0.518603
0.529129
0.546873
0.572006
0.603479
0.64151
0.674067
0.698903
0.719605
0.739708
0.758918
0.777021
0.793873
0.809385
0.823505
0.836212
0.847501
0.857377
0.865852
0.87294
0.878655
0.883012
0.88602
0.887688
0.888022
0.887022
0.884686
0.881008
0.87598
0.869588
0.861816
0.852647
0.84206
0.830035
0.816555
0.801606
0.785185
0.767304
0.747999
0.727342
0.705448
0.682501
0.655065
0.616773
0.571878
0.531748
0.4982
0.471093
0.450255
0.435453
0.426554
0.423438
0.425938
0.433862
0.447082
0.465405
0.48865
0.514842
0.532619
0.541592
0.548373
0.553941
0.558163
0.560966
0.562352
0.562402
0.561277
0.559218
0.556533
0.553596
0.547723
0.539292
0.530419
0.525218
0.525687
0.529221
0.532448
0.533861
0.533159
0.533111
0.533877
0.535301
0.534553
0.532165
0.529657
0.530462
0.537294
0.548273
0.559169
0.567665
0.572928
0.577988
0.582499
0.586157
0.588726
0.590051
0.571522
0.5716
0.571822
0.57233
0.573262
0.571807
0.569663
0.569167
0.571804
0.576189
0.58004
0.581206
0.582416
0.583792
0.585165
0.586437
0.587577
0.588629
0.589716
0.591051
0.590925
0.586662
0.579326
0.574976
0.578443
0.589234
0.607556
0.63398
0.663411
0.688878
0.709098
0.727462
0.745774
0.763694
0.78095
0.797332
0.812688
0.826911
0.839932
0.851706
0.862208
0.871427
0.879358
0.886005
0.89137
0.89546
0.898278
0.89983
0.900117
0.899139
0.896894
0.893379
0.888587
0.88251
0.875139
0.866465
0.856479
0.845173
0.832546
0.818604
0.803363
0.786858
0.769149
0.750325
0.730522
0.709921
0.688766
0.663812
0.630185
0.589328
0.554177
0.525244
0.502892
0.486917
0.477388
0.474297
0.477425
0.486379
0.50097
0.52048
0.544229
0.560009
0.568221
0.574258
0.579593
0.584041
0.587478
0.589833
0.591101
0.591342
0.590679
0.589295
0.58743
0.58537
0.583448
0.581049
0.577211
0.574085
0.572888
0.572489
0.570794
0.569384
0.568731
0.568759
0.569489
0.570928
0.573189
0.575731
0.577145
0.579655
0.584405
0.590085
0.594554
0.598425
0.602508
0.60646
0.609989
0.612854
0.61487
0.61591
0.606451
0.606606
0.606961
0.607603
0.608656
0.610271
0.612191
0.613479
0.614596
0.615011
0.615427
0.61631
0.617498
0.618873
0.620343
0.621855
0.623411
0.625066
0.626948
0.629256
0.632286
0.635679
0.636885
0.638927
0.644165
0.655071
0.671613
0.69042
0.708479
0.724021
0.739847
0.75607
0.772336
0.788345
0.803855
0.818669
0.832635
0.845641
0.857606
0.868471
0.878198
0.886763
0.89415
0.900351
0.905361
0.909178
0.911804
0.913236
0.913476
0.912522
0.910373
0.907026
0.902478
0.896726
0.889766
0.881596
0.872217
0.861633
0.849854
0.8369
0.822805
0.807618
0.791412
0.77429
0.756391
0.737897
0.719034
0.700081
0.679131
0.651708
0.617735
0.587627
0.564008
0.546671
0.536356
0.533315
0.537212
0.546987
0.562367
0.580415
0.592335
0.598398
0.603115
0.607626
0.611698
0.615154
0.617873
0.619786
0.620878
0.621186
0.6208
0.619855
0.618521
0.616993
0.61546
0.614039
0.612793
0.611239
0.609071
0.606887
0.60523
0.604129
0.60362
0.603704
0.604393
0.605701
0.607659
0.610265
0.613537
0.616951
0.619913
0.622676
0.625713
0.628937
0.632218
0.635354
0.638141
0.640401
0.64199
0.64281
0.641226
0.641412
0.641811
0.642466
0.643423
0.644691
0.646136
0.647485
0.648442
0.649222
0.650054
0.651111
0.652391
0.653859
0.655477
0.657231
0.659143
0.661278
0.663752
0.666739
0.670478
0.675277
0.681601
0.688657
0.696417
0.70656
0.718442
0.730257
0.742688
0.756115
0.770197
0.784636
0.799153
0.813497
0.827456
0.840852
0.853542
0.865413
0.876378
0.886373
0.895351
0.903277
0.910128
0.915887
0.920543
0.92409
0.926521
0.927835
0.928029
0.927101
0.92505
0.921874
0.917574
0.912149
0.905602
0.897936
0.88916
0.879287
0.868336
0.856339
0.843339
0.829395
0.81459
0.799031
0.782857
0.76624
0.749392
0.732567
0.716067
0.699537
0.678951
0.65564
0.632551
0.613936
0.602784
0.599711
0.604329
0.613399
0.622272
0.629048
0.631988
0.634974
0.638213
0.641433
0.644419
0.647005
0.649075
0.650561
0.651437
0.651724
0.651481
0.650802
0.649806
0.64862
0.647362
0.646102
0.644845
0.643452
0.641875
0.640342
0.639108
0.638281
0.637918
0.638045
0.638677
0.639824
0.641482
0.64362
0.646156
0.648847
0.651464
0.654036
0.656685
0.659393
0.662073
0.664597
0.666822
0.668618
0.669879
0.670529
0.675813
0.676007
0.676405
0.677026
0.677877
0.678936
0.680119
0.681294
0.682361
0.683379
0.684457
0.685686
0.687098
0.688695
0.690475
0.69245
0.694653
0.69715
0.700042
0.703471
0.70761
0.712664
0.718826
0.726108
0.734512
0.743612
0.753386
0.764023
0.775434
0.787553
0.80019
0.813125
0.826142
0.839034
0.85162
0.863742
0.875268
0.88609
0.896121
0.905294
0.913556
0.920867
0.927198
0.932526
0.936836
0.940115
0.942357
0.943554
0.943704
0.942803
0.94085
0.937847
0.933794
0.928695
0.922556
0.915387
0.9072
0.898017
0.887865
0.876781
0.864815
0.852034
0.838523
0.824389
0.809765
0.794813
0.779727
0.76473
0.75008
0.736066
0.72302
0.709266
0.69483
0.681794
0.672286
0.667402
0.66652
0.667782
0.668597
0.668587
0.669618
0.671297
0.67333
0.675476
0.677539
0.679371
0.680862
0.681944
0.682586
0.682792
0.682599
0.682068
0.68128
0.68032
0.679264
0.678164
0.677033
0.67585
0.674634
0.673498
0.672579
0.671969
0.671725
0.671879
0.672448
0.673435
0.674825
0.676578
0.678619
0.680817
0.68306
0.685317
0.687598
0.689876
0.692086
0.694137
0.695931
0.697371
0.698379
0.698897
0.710208
0.710396
0.710778
0.711355
0.712123
0.713058
0.714108
0.715212
0.716328
0.717476
0.71871
0.72008
0.721619
0.723347
0.725279
0.72744
0.729869
0.732626
0.735798
0.73949
0.743829
0.748942
0.75493
0.761817
0.769569
0.778042
0.787186
0.797014
0.807472
0.818474
0.829883
0.841534
0.853254
0.864877
0.876248
0.887228
0.897698
0.907557
0.916722
0.925125
0.932711
0.939437
0.94527
0.950183
0.954158
0.957179
0.959236
0.960321
0.960428
0.959556
0.957702
0.954869
0.95106
0.946281
0.940541
0.933854
0.926238
0.917717
0.908325
0.898104
0.887107
0.875403
0.863078
0.850235
0.837001
0.823522
0.809972
0.796544
0.783457
0.770945
0.759248
0.748579
0.73928
0.731069
0.72384
0.71795
0.713143
0.709516
0.707457
0.706571
0.706599
0.707267
0.708335
0.709599
0.710891
0.712077
0.713058
0.713768
0.71417
0.714259
0.714053
0.713591
0.712926
0.712115
0.711211
0.710256
0.709273
0.70828
0.707312
0.706438
0.705742
0.705291
0.705133
0.705299
0.705802
0.706642
0.707804
0.70925
0.710923
0.712744
0.714641
0.716574
0.718514
0.720426
0.722256
0.723936
0.725393
0.726557
0.727368
0.727785
0.744413
0.744593
0.744954
0.745494
0.746203
0.747063
0.748045
0.749117
0.750262
0.751489
0.752825
0.754304
0.755953
0.757795
0.759855
0.762162
0.764755
0.767689
0.771031
0.774864
0.779274
0.784344
0.790134
0.796662
0.803905
0.8118
0.820302
0.829376
0.838965
0.848988
0.859334
0.869873
0.880465
0.890973
0.901266
0.911223
0.920738
0.929719
0.938085
0.945772
0.952725
0.9589
0.964261
0.96878
0.972434
0.975208
0.977088
0.978065
0.978133
0.97729
0.975534
0.972867
0.969296
0.964827
0.959473
0.95325
0.946179
0.938289
0.929615
0.920201
0.910105
0.899394
0.888151
0.876474
0.86448
0.852303
0.840093
0.828018
0.81626
0.805007
0.794446
0.784746
0.776057
0.768366
0.761669
0.755934
0.751232
0.747618
0.74514
0.743643
0.742941
0.742837
0.743144
0.743695
0.744349
0.744989
0.745526
0.745898
0.746068
0.746021
0.745763
0.745317
0.744717
0.744002
0.74321
0.742375
0.741525
0.740686
0.739895
0.739201
0.73866
0.73832
0.738219
0.738381
0.738818
0.739529
0.740498
0.741695
0.743078
0.744593
0.746188
0.747822
0.749459
0.751059
0.752577
0.753959
0.755149
0.756094
0.756752
0.757089
0.778438
0.77861
0.778952
0.779462
0.780131
0.780946
0.781891
0.78295
0.784115
0.785392
0.786798
0.788357
0.790092
0.792026
0.794184
0.796597
0.799301
0.802342
0.805775
0.80966
0.814059
0.819027
0.8246
0.830792
0.837588
0.844953
0.852845
0.861222
0.870025
0.87918
0.888593
0.898157
0.90776
0.917284
0.926619
0.935661
0.944313
0.952494
0.960128
0.967154
0.973518
0.979177
0.984094
0.98824
0.991591
0.99413
0.995842
0.996717
0.99675
0.995936
0.994275
0.991771
0.988429
0.984259
0.979274
0.973493
0.96694
0.959644
0.951643
0.942983
0.933718
0.923917
0.913657
0.903031
0.892144
0.881116
0.870079
0.859176
0.848558
0.838379
0.828783
0.819903
0.811835
0.804619
0.798271
0.7928
0.788231
0.784583
0.781842
0.779918
0.778684
0.777995
0.777708
0.777689
0.77782
0.778003
0.778159
0.778231
0.778182
0.777993
0.777661
0.777198
0.776624
0.775966
0.775252
0.774509
0.773764
0.773044
0.772381
0.771811
0.771376
0.771109
0.771041
0.771188
0.771561
0.772157
0.772963
0.773955
0.775101
0.776362
0.777697
0.779068
0.78044
0.781775
0.783034
0.784173
0.785148
0.78592
0.786456
0.78673
0.812291
0.812455
0.812783
0.813271
0.813913
0.8147
0.815624
0.816677
0.817855
0.819165
0.820619
0.822235
0.824032
0.826032
0.828259
0.83074
0.833509
0.836604
0.840067
0.843943
0.848276
0.853103
0.858448
0.864318
0.870703
0.877577
0.884904
0.892641
0.900733
0.909112
0.9177
0.926405
0.935132
0.943785
0.952266
0.960486
0.968361
0.975815
0.98278
0.989197
0.995017
1.0002
1.0047
1.00849
1.01156
1.01388
1.01543
1.01621
1.01621
1.01543
1.01386
1.01151
1.00839
1.0045
0.999872
0.994509
0.988444
0.981705
0.974331
0.966367
0.957868
0.948898
0.939529
0.929848
0.919948
0.909937
0.89993
0.890048
0.880418
0.871165
0.862406
0.854245
0.846761
0.840002
0.833997
0.828762
0.824311
0.820641
0.817727
0.815505
0.813882
0.812752
0.812004
0.811532
0.811239
0.811043
0.810876
0.810686
0.810437
0.810107
0.80969
0.809189
0.808615
0.807986
0.807322
0.806645
0.805978
0.805345
0.804772
0.804288
0.803922
0.803701
0.803646
0.80377
0.804081
0.804574
0.805241
0.806062
0.80701
0.808057
0.809169
0.810313
0.811457
0.812567
0.81361
0.81455
0.815351
0.815984
0.816421
0.816644
0.845979
0.846138
0.846454
0.846926
0.847549
0.848318
0.849228
0.850277
0.851464
0.852794
0.854279
0.855932
0.857769
0.859811
0.862079
0.864596
0.867392
0.870497
0.873945
0.877768
0.881999
0.886661
0.89177
0.897329
0.903329
0.909748
0.916554
0.923706
0.931153
0.938838
0.946689
0.95463
0.96258
0.970456
0.978175
0.985657
0.99283
0.999624
1.00598
1.01184
1.01716
1.02189
1.02601
1.02948
1.03228
1.03439
1.0358
1.03649
1.03646
1.03571
1.03423
1.03203
1.02911
1.0255
1.0212
1.01623
1.01062
1.0044
0.997608
0.990287
0.98249
0.974276
0.965714
0.956882
0.947865
0.938756
0.929655
0.920669
0.911901
0.903457
0.895432
0.887911
0.880962
0.874632
0.868953
0.863942
0.859608
0.855943
0.85292
0.850491
0.848587
0.847126
0.846024
0.845195
0.844562
0.844055
0.843616
0.843199
0.842771
0.84231
0.841804
0.841253
0.840662
0.840041
0.839406
0.838772
0.838159
0.837586
0.837074
0.836646
0.836324
0.836128
0.836072
0.836167
0.836417
0.836819
0.837365
0.83804
0.838822
0.839687
0.840608
0.841558
0.842507
0.843428
0.84429
0.845064
0.845723
0.846242
0.8466
0.846783
0.879508
0.879662
0.87997
0.88043
0.881039
0.881794
0.882695
0.883739
0.884929
0.88627
0.88777
0.889443
0.891302
0.893364
0.895648
0.898174
0.900966
0.904048
0.907447
0.911187
0.915289
0.919771
0.924641
0.9299
0.935537
0.941532
0.947857
0.954474
0.961338
0.968396
0.975587
0.982846
0.990102
0.997283
1.00432
1.01114
1.01768
1.02387
1.02967
1.03502
1.03988
1.0442
1.04797
1.05113
1.05369
1.05561
1.05688
1.05749
1.05743
1.05671
1.05531
1.05326
1.05054
1.04718
1.04319
1.03859
1.03341
1.02767
1.02141
1.01468
1.00753
1
0.99217
0.984101
0.975872
0.967565
0.959268
0.95107
0.943061
0.935328
0.927953
0.921005
0.914543
0.908612
0.90324
0.898446
0.894236
0.890601
0.88752
0.884953
0.882848
0.881143
0.87977
0.878664
0.877759
0.876999
0.876334
0.875724
0.875138
0.874556
0.873964
0.873357
0.872738
0.872111
0.871487
0.870878
0.870299
0.869765
0.869292
0.868899
0.868601
0.868413
0.868346
0.868408
0.8686
0.868921
0.869362
0.86991
0.87055
0.87126
0.872019
0.872803
0.873587
0.874347
0.875057
0.875694
0.876236
0.876661
0.876954
0.877104
0.912883
0.913034
0.913334
0.913784
0.914382
0.915126
0.916017
0.917055
0.918242
0.919585
0.92109
0.922769
0.924632
0.926696
0.928974
0.931486
0.934249
0.937283
0.940609
0.944243
0.948201
0.952493
0.957125
0.962092
0.967386
0.972986
0.978867
0.984995
0.991328
0.99782
1.00442
1.01106
1.0177
1.02426
1.03068
1.0369
1.04287
1.04852
1.05381
1.0587
1.06313
1.06708
1.07051
1.0734
1.07573
1.07747
1.07861
1.07915
1.07907
1.07838
1.07706
1.07514
1.07261
1.06949
1.06579
1.06153
1.05675
1.05145
1.04569
1.03951
1.03294
1.02604
1.01886
1.01148
1.00396
0.996365
0.988781
0.981282
0.973945
0.966843
0.960046
0.953613
0.947595
0.942031
0.936949
0.932366
0.928287
0.924706
0.921605
0.918953
0.91671
0.914826
0.913251
0.91193
0.910811
0.909847
0.908996
0.908223
0.907502
0.906811
0.906138
0.905474
0.90482
0.904178
0.903553
0.902955
0.902394
0.901882
0.901432
0.901057
0.900768
0.900578
0.900493
0.900518
0.900655
0.900902
0.90125
0.90169
0.902207
0.902785
0.903405
0.904047
0.904691
0.905315
0.905898
0.90642
0.906864
0.907212
0.907452
0.907574
0.946107
0.946255
0.946549
0.946991
0.947578
0.948312
0.949192
0.950221
0.951401
0.952737
0.954237
0.955909
0.957763
0.959811
0.962068
0.964546
0.967261
0.970228
0.973461
0.976975
0.980777
0.984876
0.989271
0.993959
0.998928
1.00416
1.00963
1.01531
1.02116
1.02714
1.0332
1.0393
1.04537
1.05137
1.05724
1.06292
1.06837
1.07353
1.07836
1.08282
1.08687
1.09047
1.09361
1.09624
1.09835
1.09993
1.10096
1.10143
1.10133
1.10066
1.09943
1.09763
1.09528
1.09238
1.08895
1.08501
1.08059
1.07571
1.0704
1.06471
1.05868
1.05234
1.04577
1.039
1.03211
1.02516
1.01821
1.01133
1.00459
0.998054
0.991774
0.985805
0.980192
0.974968
0.97016
0.965782
0.961841
0.958332
0.955241
0.952545
0.950211
0.948202
0.946477
0.944993
0.943708
0.942582
0.94158
0.940673
0.939835
0.939049
0.938301
0.937583
0.936891
0.936227
0.935593
0.934994
0.934439
0.933937
0.933496
0.933127
0.932838
0.932636
0.932528
0.932516
0.932601
0.93278
0.933047
0.933392
0.933803
0.934268
0.934769
0.935291
0.935815
0.936323
0.936799
0.937226
0.937587
0.937871
0.938067
0.938166
0.979184
0.979329
0.979617
0.980051
0.980628
0.98135
0.982219
0.983235
0.984403
0.985726
0.987212
0.988866
0.990699
0.992719
0.994939
0.997368
1.00002
1.00291
1.00603
1.00942
1.01306
1.01696
1.02113
1.02555
1.03021
1.0351
1.04019
1.04545
1.05086
1.05638
1.06195
1.06755
1.07312
1.07861
1.08398
1.08918
1.09415
1.09887
1.10328
1.10736
1.11105
1.11434
1.1172
1.1196
1.12152
1.12294
1.12387
1.12427
1.12416
1.12352
1.12236
1.12067
1.11848
1.11579
1.11262
1.10897
1.10489
1.10039
1.0955
1.09026
1.08471
1.07889
1.07285
1.06665
1.06032
1.05395
1.04757
1.04124
1.03504
1.029
1.02319
1.01764
1.0124
1.00749
1.00294
0.998762
0.994963
0.99154
0.988482
0.985773
0.983387
0.981295
0.979463
0.977858
0.976445
0.975192
0.97407
0.973052
0.972117
0.971249
0.970434
0.969665
0.968935
0.968246
0.967596
0.96699
0.966433
0.96593
0.96549
0.965117
0.964819
0.964602
0.964467
0.964418
0.964454
0.964571
0.964765
0.965027
0.965347
0.965714
0.966113
0.966531
0.966954
0.967365
0.96775
0.968095
0.968389
0.968619
0.968778
0.968859
1.01212
1.01226
1.01254
1.01297
1.01353
1.01424
1.0151
1.0161
1.01725
1.01855
1.02002
1.02165
1.02345
1.02543
1.0276
1.02997
1.03255
1.03534
1.03835
1.0416
1.04508
1.04879
1.05273
1.05689
1.06126
1.06583
1.07057
1.07545
1.08046
1.08555
1.09068
1.09583
1.10094
1.10598
1.11089
1.11565
1.1202
1.12451
1.12855
1.13227
1.13564
1.13864
1.14124
1.14343
1.14517
1.14646
1.14729
1.14764
1.14751
1.14689
1.1458
1.14423
1.14219
1.13969
1.13675
1.13338
1.12961
1.12545
1.12095
1.11612
1.11101
1.10566
1.10011
1.09441
1.0886
1.08273
1.07686
1.07104
1.06532
1.05974
1.05434
1.04918
1.04427
1.03965
1.03535
1.03136
1.02771
1.02438
1.02138
1.01868
1.01627
1.01413
1.01222
1.01053
1.00902
1.00767
1.00645
1.00535
1.00433
1.00339
1.00252
1.00171
1.00094
1.00022
0.999555
0.998937
0.998371
0.997862
0.997415
0.997033
0.996721
0.996483
0.996321
0.996235
0.996224
0.996286
0.996415
0.996604
0.996845
0.997126
0.997438
0.997768
0.998104
0.998432
0.99874
0.999018
0.999253
0.999439
0.999566
0.999631
1.04491
1.04505
1.04532
1.04574
1.0463
1.04699
1.04783
1.04881
1.04994
1.05122
1.05266
1.05425
1.05601
1.05795
1.06006
1.06236
1.06486
1.06755
1.07045
1.07355
1.07686
1.08038
1.0841
1.08802
1.09212
1.09639
1.1008
1.10534
1.10997
1.11467
1.11941
1.12414
1.12884
1.13346
1.13797
1.14232
1.14649
1.15044
1.15412
1.15752
1.1606
1.16334
1.16571
1.1677
1.16928
1.17045
1.17118
1.17148
1.17134
1.17075
1.16972
1.16826
1.16636
1.16404
1.16131
1.15819
1.1547
1.15087
1.14671
1.14226
1.13756
1.13263
1.12752
1.12227
1.11693
1.11153
1.10612
1.10074
1.09545
1.09028
1.08527
1.08045
1.07585
1.07151
1.06743
1.06363
1.06012
1.0569
1.05396
1.05129
1.04889
1.04672
1.04477
1.04302
1.04144
1.04002
1.03873
1.03755
1.03647
1.03548
1.03455
1.0337
1.0329
1.03215
1.03147
1.03083
1.03025
1.02973
1.02927
1.02888
1.02855
1.02829
1.0281
1.02798
1.02792
1.02793
1.028
1.02813
1.0283
1.02851
1.02875
1.029
1.02926
1.02952
1.02976
1.02998
1.03017
1.03032
1.03042
1.03047
1.07756
1.0777
1.07797
1.07837
1.07892
1.0796
1.08042
1.08138
1.08248
1.08373
1.08514
1.08669
1.08841
1.09029
1.09234
1.09456
1.09697
1.09956
1.10233
1.10529
1.10844
1.11177
1.11529
1.11897
1.12281
1.1268
1.13091
1.13512
1.13942
1.14376
1.14813
1.15249
1.15681
1.16106
1.16519
1.16919
1.173
1.17661
1.17999
1.18309
1.18591
1.18841
1.19057
1.19237
1.19381
1.19486
1.19551
1.19577
1.19561
1.19505
1.19408
1.19271
1.19095
1.18879
1.18626
1.18337
1.18015
1.1766
1.17277
1.16866
1.16433
1.15978
1.15508
1.15024
1.14531
1.14033
1.13533
1.13036
1.12546
1.12066
1.11599
1.1115
1.10719
1.1031
1.09924
1.09562
1.09225
1.08914
1.08627
1.08365
1.08126
1.07909
1.07712
1.07533
1.07371
1.07223
1.07089
1.06966
1.06853
1.06748
1.06652
1.06563
1.0648
1.06403
1.06332
1.06267
1.06208
1.06154
1.06107
1.06066
1.06031
1.06003
1.05981
1.05965
1.05956
1.05952
1.05954
1.05961
1.05972
1.05986
1.06004
1.06022
1.06042
1.06062
1.06081
1.06098
1.06112
1.06124
1.06132
1.06136
1.11008
1.11021
1.11047
1.11087
1.1114
1.11206
1.11286
1.1138
1.11488
1.1161
1.11746
1.11897
1.12064
1.12246
1.12444
1.12658
1.1289
1.13137
1.13403
1.13685
1.13983
1.14299
1.1463
1.14976
1.15336
1.15708
1.16091
1.16483
1.16881
1.17283
1.17687
1.18089
1.18486
1.18877
1.19256
1.19623
1.19972
1.20303
1.20612
1.20896
1.21153
1.21381
1.21578
1.21742
1.21872
1.21966
1.22025
1.22046
1.2203
1.21976
1.21885
1.21757
1.21592
1.21392
1.21157
1.2089
1.20591
1.20263
1.19909
1.1953
1.19129
1.1871
1.18276
1.17829
1.17374
1.16914
1.16452
1.15992
1.15537
1.15091
1.14656
1.14235
1.13831
1.13445
1.1308
1.12735
1.12413
1.12113
1.11835
1.11578
1.11342
1.11126
1.10928
1.10748
1.10583
1.10432
1.10293
1.10166
1.10049
1.09941
1.09842
1.09749
1.09664
1.09585
1.09512
1.09445
1.09384
1.09329
1.0928
1.09237
1.092
1.0917
1.09145
1.09126
1.09113
1.09105
1.09103
1.09105
1.0911
1.09119
1.09131
1.09144
1.09158
1.09173
1.09187
1.092
1.09211
1.0922
1.09226
1.09229
1.14246
1.14259
1.14285
1.14323
1.14375
1.1444
1.14517
1.14609
1.14713
1.14832
1.14964
1.1511
1.15271
1.15447
1.15638
1.15844
1.16065
1.16302
1.16555
1.16823
1.17106
1.17404
1.17716
1.18041
1.18378
1.18726
1.19083
1.19447
1.19816
1.20189
1.20561
1.20932
1.21299
1.21658
1.22007
1.22343
1.22664
1.22967
1.23249
1.23509
1.23744
1.23952
1.24131
1.24281
1.24398
1.24483
1.24535
1.24553
1.24536
1.24484
1.24398
1.24278
1.24125
1.23939
1.23721
1.23473
1.23196
1.22893
1.22565
1.22215
1.21845
1.21458
1.21056
1.20644
1.20223
1.19797
1.19369
1.18942
1.18519
1.18104
1.17698
1.17304
1.16924
1.16561
1.16215
1.15887
1.15578
1.15289
1.1502
1.1477
1.14538
1.14325
1.14128
1.13947
1.13781
1.13628
1.13487
1.13357
1.13237
1.13126
1.13024
1.12929
1.12841
1.1276
1.12685
1.12617
1.12554
1.12498
1.12447
1.12403
1.12364
1.12331
1.12303
1.12282
1.12265
1.12254
1.12247
1.12244
1.12245
1.12249
1.12256
1.12265
1.12274
1.12284
1.12294
1.12304
1.12312
1.12318
1.12323
1.12325
1.17472
1.17484
1.17509
1.17547
1.17597
1.1766
1.17735
1.17823
1.17925
1.18039
1.18167
1.18309
1.18464
1.18633
1.18816
1.19014
1.19226
1.19452
1.19692
1.19947
1.20215
1.20496
1.20789
1.21094
1.2141
1.21735
1.22067
1.22406
1.22749
1.23093
1.23438
1.23781
1.24118
1.24449
1.2477
1.25079
1.25373
1.25651
1.2591
1.26147
1.26362
1.26552
1.26715
1.26851
1.26957
1.27034
1.2708
1.27094
1.27076
1.27027
1.26946
1.26834
1.2669
1.26517
1.26315
1.26085
1.25828
1.25548
1.25244
1.2492
1.24578
1.24219
1.23848
1.23466
1.23076
1.22681
1.22284
1.21888
1.21495
1.21107
1.20728
1.20359
1.20002
1.19659
1.19331
1.19019
1.18724
1.18446
1.18186
1.17943
1.17717
1.17507
1.17312
1.17132
1.16965
1.16811
1.16669
1.16537
1.16416
1.16303
1.16198
1.16102
1.16012
1.15929
1.15853
1.15783
1.15719
1.15661
1.15609
1.15562
1.15521
1.15486
1.15456
1.15432
1.15412
1.15397
1.15387
1.1538
1.15377
1.15377
1.1538
1.15384
1.15389
1.15396
1.15402
1.15409
1.15414
1.15419
1.15422
1.15424
1.20685
1.20697
1.20721
1.20758
1.20806
1.20867
1.2094
1.21025
1.21123
1.21234
1.21357
1.21493
1.21643
1.21805
1.21981
1.22169
1.22372
1.22587
1.22815
1.23056
1.2331
1.23575
1.23851
1.24137
1.24433
1.24736
1.25046
1.25361
1.25679
1.25998
1.26317
1.26634
1.26945
1.27249
1.27545
1.27829
1.28099
1.28354
1.28591
1.28808
1.29005
1.29178
1.29327
1.2945
1.29546
1.29615
1.29655
1.29667
1.29649
1.29602
1.29525
1.2942
1.29286
1.29124
1.28936
1.28723
1.28485
1.28225
1.27943
1.27643
1.27326
1.26994
1.2665
1.26296
1.25935
1.25568
1.252
1.24831
1.24464
1.24103
1.23748
1.23401
1.23066
1.22742
1.22431
1.22135
1.21853
1.21586
1.21335
1.21099
1.20879
1.20673
1.20481
1.20303
1.20137
1.19983
1.1984
1.19708
1.19585
1.19471
1.19365
1.19267
1.19176
1.19092
1.19014
1.18943
1.18877
1.18818
1.18764
1.18716
1.18674
1.18636
1.18604
1.18577
1.18555
1.18537
1.18523
1.18513
1.18506
1.18503
1.18501
1.18502
1.18504
1.18507
1.18511
1.18514
1.18518
1.18521
1.18523
1.18524
1.23886
1.23898
1.23921
1.23956
1.24003
1.24062
1.24132
1.24215
1.24309
1.24415
1.24534
1.24665
1.24808
1.24964
1.25132
1.25312
1.25504
1.25709
1.25926
1.26154
1.26393
1.26643
1.26902
1.27171
1.27447
1.27731
1.28019
1.28312
1.28608
1.28904
1.29199
1.29491