/*--------------------------------*- C++ -*----------------------------------*\
| =========                 |                                                 |
| \\      /  F ield         | OpenFOAM: The Open Source CFD Toolbox           |
|  \\    /   O peration     | Version:  2406                                  |
|   \\  /    A nd           | Website:  www.openfoam.com                      |
|    \\/     M anipulation  |                                                 |
\*---------------------------------------------------------------------------*/
FoamFile
{
    version     2.0;
    format      ascii;
    arch        "LSB;label=32;scalar=64";
    class       volScalarField;
    location    "4.5";
    object      C_0;
}
// * * * * * * * * * * * * * * * * * * * * * * * * * * * * * * * * * * * * * //

dimensions      [1 -3 0 0 0 0 0];

internalField   nonuniform List<scalar> 
14400
(
0.371757
0.367304
0.360531
0.353276
0.346855
0.342154
0.339747
0.339982
0.343028
0.348901
0.357463
0.368392
0.381125
0.394705
0.407401
0.415341
0.411166
0.401088
0.389423
0.378562
0.369878
0.364248
0.362288
0.36448
0.371231
0.382913
0.399888
0.42252
0.451175
0.486208
0.52792
0.57645
0.63146
0.690677
0.73575
0.765244
0.789808
0.811386
0.830312
0.846842
0.86118
0.873486
0.883885
0.892478
0.899343
0.904541
0.908116
0.910101
0.910515
0.909365
0.906647
0.902347
0.896438
0.888881
0.879621
0.86859
0.8557
0.840841
0.823876
0.804631
0.782892
0.758385
0.730765
0.693216
0.639015
0.5786
0.523515
0.475219
0.433695
0.398608
0.36955
0.346116
0.327941
0.314706
0.306148
0.302055
0.302266
0.306666
0.31517
0.327723
0.344269
0.36473
0.388938
0.416477
0.446003
0.470349
0.483751
0.489159
0.488601
0.481124
0.463272
0.439467
0.416694
0.396413
0.379147
0.365081
0.35421
0.34638
0.341308
0.338576
0.337639
0.337844
0.338501
0.339039
0.339239
0.339363
0.340024
0.341953
0.345843
0.352284
0.361746
0.374575
0.390996
0.411101
0.434802
0.461686
0.490335
0.51295
0.524821
0.529947
0.387099
0.380745
0.372249
0.363709
0.356383
0.35108
0.348319
0.348414
0.351519
0.357643
0.366653
0.378243
0.39188
0.406656
0.420827
0.429476
0.425783
0.413817
0.400529
0.388522
0.379022
0.372806
0.370444
0.372391
0.37904
0.390752
0.407884
0.430795
0.459847
0.495388
0.537708
0.586893
0.642283
0.699826
0.740911
0.768648
0.792793
0.81404
0.832706
0.849034
0.863213
0.875392
0.885691
0.894206
0.90101
0.906163
0.909707
0.911673
0.912079
0.910932
0.90823
0.903956
0.898087
0.890582
0.881392
0.870449
0.857669
0.842948
0.826154
0.807126
0.785659
0.761498
0.734313
0.699848
0.649024
0.588215
0.532556
0.483676
0.441608
0.406039
0.376573
0.352811
0.334388
0.320986
0.312342
0.308246
0.308537
0.313099
0.321851
0.334733
0.351692
0.372641
0.397392
0.425464
0.455311
0.478269
0.489956
0.495127
0.494879
0.488948
0.473508
0.449834
0.426577
0.40579
0.388123
0.373804
0.362839
0.355092
0.350285
0.347996
0.347647
0.348509
0.349729
0.350492
0.350454
0.350006
0.350005
0.351342
0.354785
0.360957
0.370331
0.383244
0.399905
0.420387
0.444557
0.471859
0.500297
0.520335
0.530361
0.535073
0.417179
0.407036
0.395278
0.384355
0.375344
0.368905
0.365473
0.365308
0.368534
0.37515
0.385027
0.397873
0.413178
0.429985
0.445855
0.452195
0.450329
0.437824
0.422207
0.408266
0.397279
0.389956
0.386818
0.388291
0.394743
0.406521
0.423968
0.447434
0.477269
0.513805
0.557297
0.607794
0.664342
0.715053
0.749144
0.775398
0.798676
0.819273
0.837439
0.853376
0.867245
0.879178
0.889282
0.897643
0.904329
0.909394
0.912876
0.914804
0.915195
0.914055
0.911382
0.907162
0.90137
0.89397
0.884915
0.874145
0.86158
0.847127
0.830668
0.812058
0.791121
0.767634
0.741311
0.710902
0.666788
0.607091
0.550662
0.500685
0.457545
0.421017
0.390737
0.366316
0.347396
0.333659
0.324844
0.320741
0.321191
0.326079
0.335323
0.348865
0.366645
0.388562
0.414381
0.443412
0.473095
0.492178
0.501738
0.506513
0.506692
0.502323
0.491718
0.470415
0.446297
0.424544
0.406104
0.391287
0.380135
0.372551
0.368283
0.366908
0.367808
0.370133
0.372696
0.374024
0.373392
0.371584
0.37011
0.370192
0.372715
0.378339
0.387538
0.40062
0.417755
0.438974
0.464044
0.492082
0.517926
0.532723
0.540858
0.54491
0.451505
0.443411
0.428539
0.414759
0.403558
0.395582
0.391232
0.390719
0.394131
0.401461
0.412573
0.427134
0.444586
0.463543
0.476591
0.479517
0.478935
0.470849
0.453738
0.43758
0.42464
0.415782
0.411541
0.412333
0.418509
0.430395
0.448316
0.472607
0.503593
0.541548
0.586549
0.638052
0.69273
0.732377
0.760391
0.785126
0.807239
0.826938
0.844403
0.859784
0.873212
0.884793
0.894616
0.902756
0.90927
0.914206
0.917598
0.919471
0.919841
0.918712
0.916083
0.911939
0.90626
0.899013
0.890155
0.879634
0.86738
0.853312
0.837331
0.819318
0.799132
0.776607
0.751559
0.723806
0.688286
0.635625
0.578026
0.526434
0.481719
0.443767
0.412268
0.386861
0.367191
0.352948
0.343874
0.33976
0.34045
0.345826
0.355808
0.370334
0.389329
0.41266
0.440017
0.470368
0.496471
0.510086
0.518179
0.522494
0.523052
0.519964
0.513412
0.499119
0.475383
0.452606
0.433111
0.417586
0.406147
0.398795
0.395344
0.395389
0.39828
0.403129
0.408331
0.410858
0.408973
0.404504
0.400494
0.398578
0.399673
0.404468
0.413416
0.426761
0.444572
0.466803
0.492847
0.520486
0.538765
0.548764
0.555436
0.5588
0.484489
0.481716
0.470109
0.454277
0.440794
0.431037
0.425617
0.424708
0.428375
0.436598
0.449231
0.465673
0.484768
0.501412
0.507979
0.509867
0.509775
0.506918
0.494271
0.476244
0.461122
0.450411
0.44479
0.444732
0.450574
0.462619
0.481172
0.506543
0.539011
0.578771
0.625578
0.677605
0.719885
0.749277
0.774516
0.797475
0.818216
0.836838
0.853448
0.868147
0.881025
0.892165
0.901635
0.909494
0.91579
0.920562
0.923839
0.925643
0.925985
0.92487
0.922296
0.918252
0.912717
0.905665
0.89706
0.886854
0.874994
0.86141
0.846026
0.82875
0.80948
0.788105
0.764511
0.738595
0.709929
0.669822
0.61394
0.561013
0.514398
0.474599
0.441493
0.414775
0.394106
0.379183
0.369757
0.365627
0.366636
0.372664
0.383624
0.399446
0.420011
0.445064
0.47388
0.503666
0.521738
0.531545
0.538397
0.542234
0.543058
0.540987
0.536274
0.528749
0.513005
0.489791
0.469076
0.452729
0.440878
0.433791
0.431413
0.433359
0.438893
0.447389
0.456955
0.461574
0.457506
0.448656
0.440985
0.436421
0.435605
0.439312
0.447969
0.461691
0.480284
0.503679
0.530042
0.549312
0.56012
0.567944
0.573322
0.576054
0.518493
0.51784
0.513492
0.50155
0.486642
0.475064
0.468584
0.467292
0.47126
0.480448
0.494777
0.512501
0.529248
0.537573
0.540449
0.542199
0.542659
0.54185
0.537118
0.523055
0.50656
0.49394
0.486742
0.485721
0.491206
0.50347
0.522791
0.549452
0.58359
0.625196
0.672474
0.713765
0.743352
0.767984
0.790921
0.812041
0.831311
0.848751
0.864406
0.878329
0.890577
0.901206
0.910264
0.917794
0.923834
0.928413
0.931555
0.933275
0.933585
0.932488
0.929981
0.926054
0.920692
0.913871
0.905563
0.89573
0.88433
0.87131
0.856613
0.840176
0.821934
0.801822
0.779784
0.755791
0.729855
0.700421
0.658172
0.604647
0.555891
0.513871
0.478806
0.450476
0.428563
0.412783
0.402911
0.398757
0.400164
0.407
0.419162
0.436567
0.459006
0.485974
0.51571
0.536929
0.547837
0.555879
0.561629
0.564987
0.565958
0.564653
0.5613
0.556256
0.548712
0.534279
0.513347
0.496567
0.484132
0.477283
0.476157
0.480359
0.488372
0.499953
0.506114
0.508144
0.506654
0.501118
0.490321
0.483273
0.480184
0.482625
0.491006
0.50526
0.524252
0.547794
0.565198
0.575646
0.583394
0.589571
0.593853
0.596041
0.553149
0.552842
0.552329
0.548477
0.539463
0.526824
0.5198
0.518223
0.52248
0.53227
0.547834
0.56095
0.568611
0.571577
0.574043
0.57582
0.57681
0.57705
0.576703
0.571983
0.559946
0.546218
0.537403
0.535455
0.540625
0.553167
0.573323
0.601362
0.636905
0.679048
0.715753
0.743311
0.766352
0.788387
0.809144
0.828456
0.846236
0.86245
0.877094
0.890185
0.90175
0.911818
0.92042
0.927585
0.933338
0.937701
0.94069
0.942318
0.942593
0.941516
0.939085
0.935292
0.930125
0.923565
0.915591
0.906175
0.895285
0.882885
0.868939
0.853408
0.836258
0.817463
0.797013
0.77493
0.75128
0.726192
0.696799
0.655449
0.606057
0.561819
0.524594
0.494428
0.471051
0.454234
0.443815
0.439628
0.441511
0.449297
0.462824
0.482008
0.506331
0.534125
0.556037
0.567844
0.575979
0.582506
0.587252
0.590128
0.591134
0.590366
0.588016
0.584384
0.579869
0.573817
0.562772
0.548076
0.534994
0.528403
0.528417
0.5348
0.541671
0.545818
0.546404
0.546241
0.547027
0.547044
0.543599
0.53759
0.53227
0.533565
0.541637
0.556459
0.573455
0.586887
0.59536
0.602199
0.60824
0.613093
0.616478
0.618215
0.588113
0.588048
0.58801
0.588199
0.586731
0.582367
0.577463
0.575822
0.580258
0.588503
0.596259
0.601185
0.603602
0.606067
0.608327
0.610227
0.611713
0.612835
0.613749
0.614711
0.612317
0.605565
0.59597
0.593717
0.598747
0.611604
0.632385
0.661339
0.696095
0.725788
0.749188
0.769945
0.790357
0.810067
0.82881
0.846403
0.862729
0.877718
0.891335
0.903568
0.914418
0.923895
0.932013
0.938787
0.944233
0.948362
0.951187
0.952715
0.952952
0.951898
0.94955
0.945904
0.94095
0.934674
0.927061
0.918093
0.907749
0.896008
0.88285
0.86826
0.852227
0.834758
0.815876
0.795637
0.774142
0.751548
0.728086
0.700543
0.663101
0.618203
0.579069
0.547065
0.522066
0.504024
0.492958
0.488722
0.491157
0.500006
0.51487
0.535769
0.560809
0.580726
0.592016
0.599349
0.605727
0.610914
0.614746
0.617139
0.618085
0.617659
0.616016
0.613393
0.610105
0.606539
0.60281
0.596322
0.589246
0.584236
0.583114
0.584127
0.584809
0.583337
0.582594
0.582541
0.583249
0.584673
0.58686
0.586957
0.586928
0.589294
0.595827
0.604654
0.613009
0.618704
0.624231
0.62955
0.634272
0.638084
0.640753
0.642125
0.623142
0.623225
0.623461
0.623992
0.625032
0.626495
0.626388
0.626991
0.629614
0.632958
0.634703
0.63643
0.638527
0.640763
0.642969
0.645048
0.64698
0.648827
0.650742
0.652978
0.655904
0.657696
0.657574
0.658527
0.663817
0.676939
0.697037
0.72023
0.742151
0.760527
0.778613
0.796925
0.815064
0.832714
0.849626
0.865618
0.880557
0.894357
0.90696
0.918334
0.92846
0.937332
0.94495
0.951319
0.956442
0.960328
0.96298
0.964404
0.964601
0.963572
0.961315
0.957824
0.953095
0.947119
0.939886
0.931387
0.92161
0.910547
0.898194
0.884553
0.869634
0.853464
0.836094
0.817601
0.798104
0.777771
0.75683
0.735575
0.711715
0.680421
0.641544
0.608517
0.581927
0.562481
0.550703
0.546383
0.549413
0.559397
0.574848
0.596164
0.611488
0.620459
0.626311
0.631807
0.636667
0.640675
0.64368
0.645596
0.646409
0.646169
0.644995
0.643067
0.640619
0.637931
0.6353
0.633059
0.630794
0.62796
0.625474
0.622567
0.620231
0.618787
0.618092
0.618079
0.618756
0.62014
0.622326
0.625498
0.629349
0.63295
0.637125
0.640894
0.644684
0.648937
0.653311
0.657498
0.661213
0.664217
0.666323
0.667408
0.658088
0.65825
0.658619
0.659274
0.660316
0.661803
0.663728
0.665642
0.666968
0.668108
0.669552
0.671301
0.673313
0.675488
0.677739
0.680017
0.682331
0.68475
0.687417
0.690549
0.694454
0.69954
0.706069
0.712125
0.720379
0.732493
0.747128
0.761982
0.776391
0.791796
0.807813
0.824075
0.840261
0.856098
0.871364
0.885884
0.899526
0.912193
0.923815
0.934347
0.943755
0.952023
0.959137
0.965094
0.969891
0.973527
0.976003
0.977319
0.977477
0.976475
0.974311
0.970984
0.966488
0.960821
0.953978
0.945957
0.936756
0.926377
0.914827
0.902123
0.88829
0.873373
0.857435
0.840569
0.822902
0.804602
0.785888
0.767033
0.748368
0.729209
0.70502
0.677089
0.649873
0.629219
0.616934
0.612367
0.615642
0.626521
0.638689
0.647969
0.653062
0.656905
0.660961
0.6649
0.66846
0.671441
0.673701
0.675157
0.675784
0.675614
0.674728
0.673259
0.671375
0.669266
0.667118
0.665072
0.66308
0.661011
0.658656
0.656447
0.654672
0.653487
0.652908
0.652928
0.653555
0.654805
0.656706
0.659272
0.66237
0.66574
0.668942
0.672172
0.67553
0.679049
0.682578
0.685917
0.688866
0.691247
0.692915
0.693775
0.692871
0.693069
0.693489
0.694171
0.695155
0.696448
0.697989
0.699585
0.70105
0.702493
0.704095
0.70591
0.707936
0.710138
0.71248
0.714951
0.717576
0.720427
0.723625
0.727349
0.731823
0.737314
0.744072
0.752298
0.76186
0.772217
0.783354
0.795552
0.808634
0.822455
0.836767
0.851302
0.865807
0.880053
0.893847
0.907028
0.91947
0.931073
0.941762
0.951482
0.960192
0.967866
0.974483
0.98003
0.984499
0.987885
0.990184
0.991394
0.991513
0.990539
0.988472
0.98531
0.981052
0.975698
0.969249
0.961708
0.95308
0.943377
0.932615
0.92082
0.908031
0.894301
0.879704
0.864338
0.848331
0.831847
0.815089
0.798301
0.781773
0.765843
0.750844
0.73417
0.716677
0.700753
0.689314
0.683904
0.683464
0.685896
0.688666
0.689359
0.690894
0.693138
0.695729
0.698372
0.700832
0.702927
0.704526
0.705547
0.705958
0.705773
0.705046
0.703867
0.702355
0.700638
0.698836
0.697031
0.695236
0.693422
0.691584
0.689894
0.688522
0.687582
0.687125
0.687171
0.687733
0.688817
0.690421
0.692514
0.694997
0.697714
0.700489
0.703319
0.706215
0.709153
0.712034
0.714727
0.717089
0.718988
0.720317
0.721001
0.727456
0.727666
0.728096
0.728765
0.729684
0.730844
0.732197
0.733656
0.735154
0.736719
0.738424
0.740308
0.742384
0.744647
0.747093
0.74973
0.752595
0.755755
0.75931
0.763396
0.768176
0.773821
0.78048
0.788233
0.797013
0.806632
0.817032
0.828232
0.84014
0.852622
0.865496
0.87856
0.891611
0.90446
0.916942
0.928912
0.940253
0.950866
0.960677
0.969625
0.977666
0.984765
0.990897
0.996043
1.00019
1.00333
1.00545
1.00656
1.00664
1.0057
1.00373
1.00073
0.996712
0.991671
0.985612
0.978545
0.97048
0.961435
0.951435
0.940512
0.928713
0.916097
0.902741
0.888747
0.874238
0.859367
0.844319
0.829308
0.814581
0.800411
0.787088
0.774913
0.764162
0.753986
0.745085
0.738703
0.73437
0.730673
0.728452
0.727715
0.728016
0.729024
0.730444
0.732027
0.73357
0.734909
0.735927
0.736546
0.736729
0.736473
0.735813
0.734809
0.73354
0.732095
0.730555
0.728982
0.72741
0.725858
0.724364
0.723023
0.721939
0.721194
0.720837
0.720898
0.721388
0.722309
0.723647
0.725366
0.727392
0.729629
0.73198
0.734401
0.73686
0.739311
0.741679
0.743868
0.745773
0.747299
0.748364
0.748912
0.761832
0.762042
0.762465
0.763109
0.763974
0.765047
0.7663
0.76769
0.769189
0.770807
0.772573
0.774514
0.776644
0.778974
0.781513
0.784283
0.787321
0.790687
0.794463
0.79875
0.803663
0.809314
0.815793
0.82314
0.831326
0.840268
0.849909
0.860204
0.871072
0.882397
0.894036
0.90583
0.917615
0.929236
0.940548
0.951427
0.961762
0.971463
0.980455
0.988677
0.996082
1.00263
1.0083
1.01306
1.01689
1.01979
1.02174
1.02275
1.02279
1.02188
1.02001
1.01718
1.01339
1.00866
1.00298
0.996379
0.98886
0.980449
0.971177
0.961081
0.950212
0.938631
0.926418
0.913671
0.900506
0.887065
0.873511
0.860031
0.846832
0.834133
0.822161
0.811129
0.801204
0.792433
0.784873
0.778384
0.773124
0.769198
0.766539
0.765032
0.764433
0.764497
0.764996
0.765724
0.766509
0.767213
0.767728
0.767983
0.767936
0.767579
0.766926
0.766016
0.764903
0.763646
0.762306
0.760932
0.759564
0.758235
0.756991
0.755896
0.755018
0.754416
0.754133
0.754195
0.754612
0.755383
0.756494
0.757909
0.759577
0.76143
0.763403
0.765445
0.767511
0.769552
0.771504
0.773291
0.774838
0.776071
0.776929
0.777369
0.795998
0.796203
0.796614
0.797232
0.798054
0.799071
0.800264
0.801613
0.803106
0.804746
0.806548
0.808529
0.810705
0.813091
0.815703
0.818566
0.821718
0.825209
0.829104
0.833478
0.838412
0.84398
0.850238
0.85721
0.864881
0.873205
0.882132
0.891604
0.901546
0.911857
0.922421
0.933108
0.943785
0.954319
0.964589
0.974484
0.983905
0.992768
1.001
1.00855
1.01535
1.02138
1.0266
1.03099
1.03453
1.0372
1.03899
1.03989
1.0399
1.03902
1.03725
1.03458
1.03103
1.02659
1.02129
1.01513
1.00813
1.00033
0.991743
0.982424
0.972421
0.961797
0.950629
0.939011
0.927051
0.914876
0.90263
0.890475
0.878581
0.867128
0.856293
0.846236
0.837082
0.828901
0.821735
0.815576
0.810473
0.806455
0.803477
0.80144
0.800186
0.799537
0.799317
0.799363
0.799531
0.799705
0.79979
0.79972
0.799455
0.798979
0.798295
0.797426
0.796408
0.795281
0.794091
0.792877
0.791677
0.790528
0.78947
0.788551
0.787819
0.78732
0.787085
0.787136
0.787481
0.788119
0.789035
0.7902
0.791575
0.79311
0.794755
0.796463
0.798189
0.799883
0.801492
0.802956
0.804216
0.805217
0.805911
0.806267
0.829959
0.830158
0.830556
0.831151
0.831941
0.832918
0.834072
0.835394
0.836876
0.838523
0.840343
0.84235
0.844557
0.846981
0.849641
0.852561
0.855776
0.859328
0.863266
0.867646
0.872526
0.877955
0.883969
0.890582
0.897782
0.905539
0.913809
0.922535
0.931649
0.941065
0.950683
0.960397
0.970095
0.979667
0.989006
0.998015
1.00661
1.0147
1.02224
1.02915
1.0354
1.04094
1.04574
1.04978
1.05303
1.05548
1.05711
1.05793
1.05791
1.05706
1.05538
1.05287
1.04954
1.04539
1.04044
1.03471
1.02821
1.02098
1.01304
1.00445
0.995252
0.985507
0.975292
0.964693
0.95381
0.942757
0.93166
0.920655
0.909888
0.899505
0.889647
0.88044
0.871986
0.864355
0.85759
0.85171
0.846737
0.842671
0.839473
0.837065
0.835333
0.834148
0.833373
0.832878
0.832549
0.832285
0.832006
0.831653
0.831186
0.830585
0.829848
0.828986
0.82802
0.82698
0.825899
0.824808
0.823741
0.822729
0.821809
0.821017
0.82039
0.819959
0.819751
0.819782
0.820059
0.820578
0.821326
0.822282
0.823413
0.824681
0.826046
0.827465
0.828897
0.830299
0.831624
0.832825
0.833854
0.834668
0.835232
0.835521
0.863722
0.863914
0.864299
0.864875
0.86564
0.866588
0.867713
0.869012
0.870482
0.872126
0.873952
0.87597
0.878192
0.880635
0.883318
0.886262
0.889498
0.893059
0.896985
0.901315
0.906091
0.911346
0.917101
0.923365
0.930127
0.937361
0.945029
0.95308
0.961451
0.970069
0.97885
0.987703
0.996533
1.00525
1.01375
1.02196
1.0298
1.0372
1.04409
1.05043
1.05615
1.06124
1.06565
1.06935
1.07234
1.07458
1.07606
1.07679
1.07674
1.07593
1.07434
1.07198
1.06886
1.06499
1.06038
1.05505
1.04903
1.04233
1.035
1.02709
1.01863
1.00969
1.00034
0.990658
0.980739
0.970682
0.960596
0.950599
0.940813
0.931358
0.92235
0.913891
0.906068
0.898943
0.892558
0.886938
0.882095
0.87802
0.87468
0.872013
0.869935
0.868348
0.867147
0.866229
0.865501
0.86488
0.864296
0.863699
0.86305
0.862329
0.861527
0.860649
0.859707
0.858721
0.857716
0.856715
0.855748
0.85484
0.85402
0.853319
0.852762
0.852376
0.852179
0.852183
0.852393
0.852806
0.853411
0.854188
0.855114
0.856156
0.857281
0.858453
0.859636
0.860792
0.861881
0.862865
0.863706
0.86437
0.864829
0.865064
0.897292
0.897479
0.897852
0.898412
0.899155
0.900079
0.901181
0.90246
0.903914
0.905549
0.907369
0.909385
0.911607
0.91405
0.916732
0.919672
0.922895
0.926427
0.930298
0.934539
0.939177
0.944235
0.949725
0.95565
0.961999
0.968749
0.975866
0.983303
0.991006
0.998911
1.00694
1.01503
1.02309
1.03103
1.03879
1.04628
1.05344
1.0602
1.06651
1.0723
1.07755
1.08221
1.08626
1.08965
1.09238
1.09443
1.09578
1.09642
1.09635
1.09557
1.09407
1.09186
1.08894
1.08533
1.08104
1.0761
1.07051
1.06432
1.05756
1.05026
1.04248
1.03428
1.02571
1.01686
1.00781
0.998635
0.989443
0.980332
0.971405
0.962763
0.954502
0.946708
0.939452
0.93279
0.926762
0.92139
0.916684
0.912634
0.909212
0.906371
0.904046
0.902162
0.900637
0.899391
0.898347
0.897436
0.896601
0.895796
0.894987
0.894153
0.893283
0.892375
0.891437
0.890482
0.889527
0.888591
0.887695
0.886862
0.886114
0.885475
0.884965
0.884604
0.884405
0.884378
0.884524
0.884842
0.885322
0.885947
0.886697
0.887547
0.888468
0.889431
0.890402
0.891351
0.892244
0.893049
0.893735
0.894276
0.89465
0.894841
0.930674
0.930856
0.93122
0.931764
0.932489
0.933392
0.934473
0.93573
0.937166
0.938785
0.94059
0.942592
0.9448
0.947227
0.949888
0.9528
0.955981
0.959455
0.963242
0.967366
0.971844
0.976691
0.981914
0.987511
0.993471
0.999771
1.00638
1.01326
1.02036
1.02762
1.03499
1.04239
1.04975
1.05701
1.06409
1.07094
1.07748
1.08366
1.08942
1.09473
1.09954
1.10381
1.10751
1.11062
1.11311
1.11498
1.1162
1.11677
1.11667
1.11592
1.11451
1.11243
1.10971
1.10635
1.10237
1.09778
1.0926
1.08688
1.08064
1.07392
1.06676
1.05923
1.05138
1.04327
1.03499
1.02661
1.01821
1.00988
1.00171
0.993788
0.986188
0.978985
0.972241
0.966003
0.960308
0.955177
0.950616
0.946619
0.943164
0.940213
0.937717
0.935617
0.93385
0.932351
0.931058
0.929916
0.928875
0.927897
0.926949
0.926013
0.925075
0.924132
0.923185
0.922244
0.921319
0.920425
0.919579
0.918798
0.918099
0.917501
0.91702
0.916669
0.91646
0.916398
0.916485
0.916717
0.917087
0.917581
0.918182
0.918867
0.919615
0.920398
0.921191
0.921966
0.922695
0.923351
0.92391
0.92435
0.924654
0.924809
0.963874
0.964051
0.964406
0.964937
0.965645
0.966528
0.967587
0.968823
0.970237
0.971833
0.973616
0.975594
0.977775
0.980171
0.982793
0.985656
0.988776
0.992169
0.995851
0.999838
1.00414
1.00877
1.01373
1.01901
1.0246
1.03048
1.03663
1.043
1.04955
1.05623
1.063
1.06978
1.07652
1.08316
1.08964
1.0959
1.10188
1.10753
1.1128
1.11766
1.12206
1.12597
1.12935
1.1322
1.13447
1.13617
1.13727
1.13777
1.13766
1.13694
1.1356
1.13366
1.13112
1.12799
1.12429
1.12004
1.11525
1.10996
1.1042
1.098
1.09142
1.0845
1.07729
1.06986
1.06227
1.0546
1.0469
1.03927
1.03178
1.02449
1.01748
1.0108
1.00452
0.998675
0.993291
0.988392
0.983985
0.980063
0.976611
0.9736
0.970991
0.968739
0.966794
0.965104
0.963619
0.962294
0.961088
0.959966
0.958901
0.957874
0.956873
0.955891
0.954928
0.953988
0.95308
0.952212
0.951398
0.950651
0.949984
0.949411
0.948944
0.948594
0.948367
0.948269
0.948299
0.948455
0.948729
0.949109
0.94958
0.950126
0.950725
0.951357
0.951999
0.952626
0.953217
0.95375
0.954203
0.95456
0.954807
0.954932
0.996897
0.99707
0.997415
0.997934
0.998625
0.999488
1.00053
1.00174
1.00313
1.00469
1.00645
1.00839
1.01054
1.01289
1.01546
1.01826
1.0213
1.02459
1.02815
1.03199
1.03611
1.04052
1.04522
1.0502
1.05544
1.06093
1.06665
1.07255
1.0786
1.08476
1.09098
1.09721
1.10339
1.10948
1.11541
1.12113
1.1266
1.13177
1.1366
1.14105
1.14507
1.14865
1.15174
1.15434
1.15642
1.15796
1.15895
1.15938
1.15926
1.15856
1.15731
1.15549
1.15312
1.15021
1.14677
1.14283
1.1384
1.13351
1.12819
1.12248
1.11642
1.11005
1.10343
1.09661
1.08964
1.0826
1.07554
1.06853
1.06163
1.05491
1.04843
1.04223
1.03637
1.03088
1.02579
1.02112
1.01687
1.01304
1.00962
1.00658
1.00391
1.00155
0.999482
0.997651
0.996021
0.994554
0.993216
0.991977
0.990814
0.98971
0.988651
0.987631
0.986648
0.985702
0.984799
0.983945
0.98315
0.982423
0.981775
0.981214
0.980752
0.980394
0.980146
0.980011
0.979988
0.980075
0.980263
0.980544
0.980905
0.98133
0.981804
0.982306
0.982819
0.983323
0.983799
0.984228
0.984593
0.984881
0.98508
0.985181
1.02975
1.02992
1.03025
1.03076
1.03143
1.03228
1.03329
1.03447
1.03583
1.03737
1.03909
1.04099
1.04309
1.04538
1.04789
1.05062
1.05357
1.05675
1.06018
1.06386
1.0678
1.07199
1.07643
1.08112
1.08603
1.09116
1.09648
1.10196
1.10755
1.11324
1.11896
1.12469
1.13036
1.13594
1.14138
1.14662
1.15163
1.15637
1.16078
1.16485
1.16853
1.1718
1.17463
1.177
1.17889
1.18029
1.18118
1.18156
1.18142
1.18075
1.17957
1.17787
1.17566
1.17295
1.16976
1.16611
1.162
1.15748
1.15257
1.14731
1.14172
1.13586
1.12977
1.1235
1.1171
1.11062
1.10412
1.09767
1.09131
1.0851
1.07909
1.07332
1.06785
1.06269
1.05787
1.05342
1.04933
1.0456
1.04224
1.03921
1.0365
1.03409
1.03193
1.03
1.02826
1.02668
1.02524
1.02391
1.02267
1.0215
1.02039
1.01934
1.01833
1.01737
1.01647
1.01562
1.01483
1.01412
1.01348
1.01292
1.01245
1.01208
1.01181
1.01164
1.01157
1.01159
1.01171
1.0119
1.01216
1.01249
1.01285
1.01324
1.01365
1.01405
1.01443
1.01477
1.01506
1.01529
1.01545
1.01553
1.06243
1.06259
1.06292
1.06341
1.06407
1.06489
1.06588
1.06704
1.06836
1.06986
1.07154
1.0734
1.07544
1.07767
1.08011
1.08275
1.0856
1.08867
1.09196
1.09548
1.09923
1.1032
1.1074
1.11181
1.11642
1.12121
1.12615
1.13124
1.13642
1.14167
1.14695
1.15221
1.15743
1.16255
1.16754
1.17234
1.17693
1.18127
1.18532
1.18904
1.19241
1.1954
1.19798
1.20015
1.20187
1.20313
1.20393
1.20425
1.2041
1.20346
1.20235
1.20076
1.1987
1.19618
1.19322
1.18983
1.18603
1.18185
1.17732
1.17246
1.16731
1.1619
1.15629
1.15052
1.14462
1.13865
1.13267
1.12671
1.12083
1.11508
1.1095
1.10413
1.09901
1.09415
1.0896
1.08535
1.08142
1.07781
1.07452
1.07152
1.06881
1.06636
1.06415
1.06215
1.06034
1.05868
1.05716
1.05576
1.05445
1.05323
1.05208
1.05099
1.04996
1.04899
1.04808
1.04723
1.04645
1.04573
1.0451
1.04454
1.04406
1.04367
1.04338
1.04317
1.04305
1.04302
1.04307
1.04319
1.04337
1.0436
1.04387
1.04417
1.04448
1.04479
1.04509
1.04536
1.04559
1.04577
1.0459
1.04596
1.09495
1.0951
1.09542
1.0959
1.09654
1.09734
1.0983
1.09943
1.10072
1.10218
1.10381
1.10562
1.1076
1.10976
1.11212
1.11467
1.11741
1.12036
1.12351
1.12687
1.13043
1.13419
1.13815
1.1423
1.14661
1.15109
1.1557
1.16042
1.16522
1.17007
1.17494
1.17979
1.18459
1.1893
1.19387
1.19828
1.20249
1.20647
1.21017
1.21358
1.21666
1.2194
1.22176
1.22373
1.22529
1.22644
1.22715
1.22743
1.22726
1.22666
1.2256
1.22411
1.22219
1.21985
1.2171
1.21396
1.21044
1.20657
1.20238
1.19789
1.19314
1.18816
1.18298
1.17765
1.17222
1.16671
1.16118
1.15568
1.15024
1.1449
1.13971
1.13469
1.12989
1.12532
1.12101
1.11696
1.1132
1.10971
1.10649
1.10355
1.10085
1.0984
1.09616
1.09412
1.09225
1.09054
1.08897
1.08751
1.08615
1.08489
1.0837
1.08258
1.08154
1.08055
1.07963
1.07878
1.07799
1.07728
1.07663
1.07607
1.07558
1.07518
1.07485
1.07461
1.07445
1.07437
1.07436
1.07441
1.07452
1.07467
1.07487
1.07509
1.07532
1.07556
1.07578
1.07599
1.07617
1.07631
1.07641
1.07646
1.1273
1.12746
1.12777
1.12823
1.12885
1.12963
1.13057
1.13166
1.13291
1.13433
1.13591
1.13766
1.13957
1.14167
1.14394
1.14639
1.14902
1.15184
1.15485
1.15805
1.16143
1.16499
1.16872
1.17261
1.17666
1.18084
1.18513
1.18951
1.19396
1.19845
1.20295
1.20742
1.21184
1.21617
1.22038
1.22443
1.22829
1.23193
1.23533
1.23845
1.24127
1.24377
1.24592
1.24772
1.24914
1.25017
1.25081
1.25104
1.25087
1.25029
1.2493
1.2479
1.24611
1.24393
1.24137
1.23846
1.2352
1.23162
1.22774
1.22359
1.2192
1.2146
1.20982
1.2049
1.19988
1.19479
1.18968
1.18458
1.17953
1.17457
1.16973
1.16505
1.16054
1.15624
1.15215
1.1483
1.14469
1.14133
1.1382
1.13532
1.13266
1.13022
1.12797
1.12591
1.12401
1.12227
1.12065
1.11915
1.11776
1.11646
1.11525
1.11411
1.11304
1.11205
1.11112
1.11026
1.10947
1.10875
1.1081
1.10752
1.10702
1.10659
1.10625
1.10597
1.10577
1.10564
1.10558
1.10557
1.10562
1.10571
1.10584
1.10599
1.10615
1.10632
1.10649
1.10665
1.10678
1.10689
1.10697
1.107
1.15951
1.15966
1.15996
1.16041
1.16101
1.16176
1.16267
1.16373
1.16494
1.16631
1.16784
1.16953
1.17138
1.17339
1.17558
1.17793
1.18045
1.18314
1.18601
1.18905
1.19225
1.19561
1.19912
1.20278
1.20657
1.21047
1.21447
1.21854
1.22267
1.22683
1.23098
1.23511
1.23918
1.24317
1.24703
1.25076
1.2543
1.25764
1.26076
1.26361
1.2662
1.26848
1.27045
1.27208
1.27337
1.27431
1.27487
1.27507
1.27489
1.27433
1.27339
1.27209
1.27041
1.26838
1.26601
1.2633
1.26028
1.25696
1.25337
1.24953
1.24547
1.24122
1.2368
1.23225
1.2276
1.2229
1.21816
1.21343
1.20874
1.20412
1.19961
1.19522
1.19099
1.18693
1.18306
1.1794
1.17594
1.1727
1.16968
1.16686
1.16425
1.16183
1.1596
1.15754
1.15563
1.15386
1.15222
1.1507
1.14928
1.14796
1.14672
1.14556
1.14448
1.14348
1.14254
1.14167
1.14087
1.14014
1.13948
1.1389
1.13838
1.13794
1.13756
1.13726
1.13703
1.13686
1.13674
1.13669
1.13668
1.13671
1.13678
1.13687
1.13698
1.1371
1.13722
1.13733
1.13743
1.1375
1.13756
1.13759
1.19156
1.1917
1.19199
1.19243
1.19301
1.19374
1.19462
1.19564
1.19681
1.19813
1.19961
1.20123
1.20301
1.20495
1.20704
1.2093
1.21171
1.21427
1.217
1.21988
1.2229
1.22608
1.22938
1.23282
1.23636
1.24001
1.24373
1.24752
1.25135
1.2552
1.25904
1.26286
1.26661
1.27028
1.27384
1.27726
1.28052
1.28358
1.28644
1.28906
1.29142
1.29351
1.2953
1.29679
1.29796
1.29881
1.29931
1.29947
1.29928
1.29875
1.29786
1.29664
1.29508
1.29319
1.29098
1.28846
1.28566
1.28258
1.27926
1.2757
1.27194
1.268
1.26391
1.2597
1.25539
1.25103
1.24663
1.24224
1.23787
1.23357
1.22935
1.22524
1.22126
1.21743
1.21377
1.21028
1.20698
1.20386
1.20094
1.1982
1.19565
1.19327
1.19106
1.18901
1.1871
1.18532
1.18367
1.18213
1.1807
1.17936
1.17811
1.17694
1.17585
1.17483
1.17389
1.17301
1.17221
1.17147
1.1708
1.1702
1.16967
1.16921
1.16881
1.16848
1.16821
1.16801
1.16785
1.16775
1.1677
1.16768
1.1677
1.16774
1.1678
1.16787
1.16795
1.16802
1.16809
1.16814
1.16818
1.1682
1.22347
1.22361
1.22389
1.22431
1.22487
1.22557
1.22642
1.2274
1.22853
1.2298
1.23122
1.23278
1.23449
1.23635
1.23835
1.2405
1.2428
1.24525
1.24783
1.25056
1.25342
1.25641
1.25952
1.26274
1.26606
1.26946
1.27293
1.27646
1.28001
1.28358
1.28714
1.29066
1.29412
1.29751
1.30078
1.30393
1.30692
1.30974
1.31236
1.31476
1.31692
1.31883
1.32047
1.32182
1.32288
1.32364
1.32409
1.32421
1.32402
1.32351
1.32268
1.32153
1.32007
1.3183
1.31625
1.31391
1.31131
1.30845
1.30537
1.30207
1.29858
1.29493
1.29114
1.28723
1.28324
1.27919
1.27511
1.27102
1.26695
1.26293
1.25898
1.25513
1.25139
1.24777
1.2443
1.24098
1.23783
1.23484
1.23202
1.22936
1.22687
1.22454
1.22236
1.22033
1.21843
1.21666
1.21501
1.21347
1.21203
1.21068
1.20942
1.20824
1.20714
1.20612
1.20517
1.20429
1.20347
1.20273
1.20205
1.20144
1.20089
1.20041
1.19999
1.19964
1.19934
1.1991
1.19891
1.19877
1.19868
1.19862
1.19859
1.19859
1.19861
1.19864
1.19868
1.19872
1.19876
1.19879
1.19882
1.19883
1.25523
1.25537
1.25564
1.25604
1.25658
1.25726
1.25807
1.25902
1.26011
1.26133
1.26269
1.26419
1.26583
1.2676
1.26952
1.27157
1.27375
1.27607
1.27853
1.28111
1.28381
1.28662
1.28954
1.29256
1.29567
1.29885
1.30208
1.30536
1.30866
1.31197
1.31526
1.31852
1.32172
1.32484
1.32786
1.33075
1.3335
1.33609
1.33849
1.34069
1.34267
1.34442
1.34591
1.34715
1.34811
1.34879
1.34918
1.34928
1.34909
1.34859
1.34781
1.34673
1.34536
1.34371
1.3418
1.33962
1.3372
1.33455
1.33169
1.32863
1.32539
1.32201
1.31849
1.31486
1.31115
1.30738
1.30358
1.29978
1.29598
1.29222
1.28853
1.28491
1.28138
1.27797
1.27468
1.27152
1.26851
1.26564
1.26292
1.26035
1.25793
1.25566
1.25352
1.25152
1.24964
1.24788
1.24624
1.2447
1.24326
1.24191
1.24065
1.23947
1.23836
1.23733
1.23638
1.23549
1.23467
1.23392
1.23323
1.23261
1.23205
1.23155
1.23111
1.23074
1.23041
1.23014
1.22993
1.22975
1.22962
1.22952
1.22946
1.22942
1.2294
1.2294
1.22941
1.22942
1.22944
1.22946
1.22947
1.22947
1.28687
1.287
1.28726
1.28764
1.28816
1.28882
1.2896
1.29051
1.29155
1.29272
1.29402
1.29546
1.29702
1.29872
1.30054
1.30249
1.30457
1.30677
1.30909
1.31153
1.31408
1.31673
1.31947
1.3223
1.32521
1.32817
1.33119
1.33424
1.33731
1.34037
1.34342
1.34644
1.34939
1.35227
1.35505
1.35772
1.36025
1.36263
1.36483
1.36685
1.36866
1.37026
1.37162
1.37274
1.37361
1.37422
1.37457
1.37464
1.37444
1.37397
1.37323
1.37221
1.37093
1.3694
1.36761
1.36558
1.36333
1.36087
1.3582
1.35536
1.35236