/*--------------------------------*- C++ -*----------------------------------*\
| =========                 |                                                 |
| \\      /  F ield         | OpenFOAM: The Open Source CFD Toolbox           |
|  \\    /   O peration     | Version:  2406                                  |
|   \\  /    A nd           | Website:  www.openfoam.com                      |
|    \\/     M anipulation  |                                                 |
\*---------------------------------------------------------------------------*/
FoamFile
{
    version     2.0;
    format      ascii;
    arch        "LSB;label=32;scalar=64";
    class       volScalarField;
    location    "9.25";
    object      C_0_0;
}
// * * * * * * * * * * * * * * * * * * * * * * * * * * * * * * * * * * * * * //

dimensions      [1 -3 0 0 0 0 0];

internalField   nonuniform List<scalar> 
14400
(
0.214898
0.214118
0.212738
0.211036
0.209307
0.207809
0.206736
0.206208
0.206269
0.206888
0.207952
0.20927
0.210562
0.211481
0.211645
0.210734
0.20863
0.205545
0.201873
0.198048
0.194466
0.191463
0.189316
0.188268
0.188543
0.19037
0.193996
0.19969
0.207743
0.218458
0.232145
0.249121
0.269709
0.294235
0.323016
0.356299
0.394101
0.43545
0.473566
0.500534
0.519774
0.536212
0.550098
0.56162
0.570919
0.578105
0.583259
0.586437
0.587678
0.587001
0.584407
0.579883
0.573395
0.564891
0.554299
0.541519
0.526424
0.508843
0.488537
0.459476
0.41935
0.378029
0.340475
0.307483
0.279012
0.254803
0.234536
0.217871
0.204465
0.193967
0.186023
0.180292
0.176475
0.174335
0.173695
0.174439
0.176495
0.179828
0.184433
0.190325
0.197528
0.206052
0.215863
0.226831
0.238646
0.250636
0.261169
0.267012
0.266079
0.260432
0.252755
0.244718
0.237028
0.230061
0.224019
0.218989
0.21498
0.211935
0.209754
0.208302
0.207422
0.206958
0.206774
0.206779
0.206954
0.207359
0.208121
0.209416
0.211442
0.214399
0.218472
0.223821
0.230564
0.238767
0.248415
0.259391
0.271408
0.283898
0.295646
0.30306
0.220037
0.219063
0.217378
0.215344
0.213315
0.211584
0.210361
0.209773
0.209867
0.210611
0.211893
0.213511
0.215168
0.216469
0.21694
0.216115
0.213765
0.210238
0.206075
0.201796
0.197834
0.194535
0.192179
0.191002
0.191225
0.193071
0.196781
0.202618
0.210865
0.22182
0.235788
0.253084
0.274031
0.298956
0.328169
0.361911
0.400188
0.441956
0.478502
0.503665
0.522572
0.538763
0.552463
0.563841
0.573033
0.580138
0.585234
0.588375
0.589596
0.588917
0.586339
0.581847
0.57541
0.56698
0.556486
0.543836
0.528908
0.511548
0.491553
0.464251
0.42556
0.38368
0.345565
0.312071
0.283141
0.258512
0.237857
0.220837
0.207107
0.196323
0.188135
0.182211
0.178254
0.176026
0.17535
0.176106
0.178222
0.181667
0.186439
0.192559
0.200057
0.20895
0.219213
0.230727
0.243201
0.255964
0.267015
0.272686
0.272391
0.266574
0.258398
0.249882
0.241773
0.234458
0.228141
0.222912
0.218776
0.215674
0.213497
0.2121
0.211306
0.210935
0.210821
0.210853
0.211003
0.211341
0.21202
0.213243
0.215232
0.218206
0.222362
0.227864
0.234835
0.243341
0.253376
0.264825
0.27741
0.290523
0.302634
0.309407
0.230829
0.229399
0.227028
0.224277
0.22162
0.219407
0.217875
0.217163
0.21732
0.218317
0.220037
0.22227
0.22469
0.226824
0.228018
0.227455
0.224488
0.219954
0.214734
0.209508
0.204769
0.200874
0.198095
0.196658
0.196772
0.198649
0.202518
0.208628
0.217251
0.228672
0.243191
0.26112
0.28278
0.308493
0.338557
0.373166
0.412172
0.454025
0.487355
0.509793
0.528085
0.543807
0.557148
0.568251
0.577232
0.58418
0.589164
0.592231
0.593415
0.592732
0.590183
0.585755
0.57942
0.571132
0.560829
0.548429
0.533826
0.516885
0.49744
0.472976
0.437184
0.394747
0.355736
0.321311
0.291488
0.266026
0.244606
0.226886
0.212522
0.201173
0.192504
0.186193
0.181953
0.179546
0.178792
0.179571
0.181811
0.185483
0.190594
0.197175
0.205266
0.214895
0.226048
0.238618
0.252316
0.266416
0.278094
0.283419
0.283963
0.278638
0.269752
0.260362
0.25145
0.24346
0.236613
0.231001
0.226626
0.223426
0.221278
0.220012
0.219417
0.219257
0.219306
0.219399
0.219487
0.219669
0.220153
0.221206
0.223099
0.226085
0.230384
0.236173
0.243578
0.25267
0.263442
0.27579
0.289433
0.303683
0.31588
0.321051
0.248283
0.245945
0.242345
0.238396
0.234729
0.23176
0.22975
0.228843
0.229092
0.230465
0.232848
0.236025
0.239652
0.243188
0.245767
0.245942
0.241614
0.235246
0.228278
0.221567
0.215638
0.210839
0.207419
0.205584
0.205521
0.207427
0.21151
0.218003
0.227161
0.239256
0.25458
0.27344
0.296153
0.323036
0.354361
0.390241
0.430164
0.470434
0.498731
0.518734
0.536166
0.551234
0.56407
0.574783
0.583464
0.590187
0.595009
0.597972
0.599101
0.598413
0.595906
0.591571
0.585381
0.577299
0.56727
0.555226
0.541081
0.524726
0.506032
0.484365
0.453118
0.411157
0.371112
0.335362
0.304227
0.277539
0.254991
0.236242
0.22095
0.208779
0.199405
0.192523
0.187857
0.185176
0.184302
0.185114
0.187542
0.191565
0.197194
0.204473
0.213454
0.224176
0.236632
0.250709
0.266065
0.281699
0.293406
0.298376
0.299642
0.296338
0.286992
0.27642
0.266375
0.257427
0.249827
0.243678
0.238984
0.235677
0.23362
0.232611
0.232382
0.232614
0.232972
0.233179
0.233142
0.233019
0.233133
0.233855
0.23554
0.238491
0.242959
0.249134
0.257147
0.267065
0.278876
0.292449
0.307419
0.322697
0.3334
0.337004
0.273853
0.269707
0.264075
0.258326
0.253221
0.249204
0.24654
0.245366
0.24573
0.247601
0.250865
0.25531
0.260598
0.26618
0.271074
0.272997
0.265916
0.256619
0.247143
0.238404
0.230884
0.224882
0.220605
0.218225
0.217905
0.219817
0.224148
0.231111
0.240942
0.253901
0.270268
0.290342
0.314434
0.34284
0.375789
0.413278
0.454252
0.488745
0.511544
0.530183
0.54661
0.560894
0.573114
0.583345
0.591654
0.598096
0.602715
0.605544
0.606606
0.60591
0.603459
0.599241
0.593236
0.585412
0.575726
0.564125
0.550544
0.534907
0.517139
0.497179
0.471468
0.433418
0.391969
0.354461
0.321612
0.293321
0.269301
0.249216
0.232726
0.219499
0.209222
0.201603
0.196382
0.193341
0.192308
0.193168
0.195855
0.200351
0.206679
0.214889
0.225043
0.237188
0.251319
0.26731
0.284697
0.301702
0.312004
0.316785
0.318657
0.317602
0.309941
0.298269
0.286903
0.276783
0.268252
0.261446
0.256385
0.253003
0.251153
0.250596
0.250995
0.251913
0.252828
0.253243
0.252958
0.252271
0.251721
0.251858
0.253147
0.255959
0.260577
0.267203
0.275965
0.286914
0.30001
0.315053
0.331426
0.346513
0.35372
0.35637
0.308818
0.301349
0.292714
0.284547
0.277585
0.272241
0.268754
0.267245
0.267749
0.270229
0.27457
0.280558
0.28785
0.295852
0.303073
0.303729
0.29675
0.284067
0.271566
0.260381
0.250935
0.243462
0.238123
0.235053
0.234386
0.236269
0.240867
0.248373
0.259003
0.273003
0.29064
0.3122
0.337973
0.368208
0.40299
0.44177
0.480601
0.507222
0.526531
0.543844
0.559198
0.572618
0.584148
0.593831
0.601711
0.607827
0.61221
0.614885
0.615867
0.615164
0.612778
0.608698
0.602909
0.595387
0.586098
0.575005
0.562062
0.54722
0.530435
0.511666
0.490318
0.45948
0.418012
0.378771
0.343931
0.313709
0.287899
0.266189
0.248248
0.233752
0.222396
0.213901
0.208023
0.204557
0.203343
0.204274
0.207291
0.212384
0.219581
0.228937
0.240517
0.254371
0.270486
0.288693
0.308271
0.324988
0.333238
0.33808
0.340512
0.340662
0.337013
0.325897
0.313356
0.301954
0.292358
0.284806
0.279354
0.275963
0.274489
0.274662
0.276073
0.278144
0.280065
0.280874
0.280089
0.278377
0.276697
0.275872
0.276496
0.27901
0.283725
0.290841
0.300464
0.312612
0.327167
0.343756
0.361024
0.372008
0.376278
0.378385
0.345278
0.339438
0.328044
0.317218
0.308132
0.301248
0.296805
0.294907
0.295574
0.298761
0.304341
0.312041
0.3214
0.331296
0.336128
0.334466
0.330012
0.316794
0.301537
0.287762
0.276168
0.26701
0.260429
0.256532
0.255429
0.257246
0.262127
0.270246
0.281799
0.297015
0.316141
0.339442
0.367169
0.399493
0.436238
0.475637
0.50563
0.525783
0.54348
0.559466
0.573718
0.586234
0.597027
0.606119
0.613533
0.619291
0.623414
0.625918
0.626812
0.626103
0.623789
0.619864
0.614316
0.607127
0.598275
0.587734
0.575477
0.561478
0.545715
0.52818
0.508888
0.485214
0.449369
0.408576
0.371537
0.339105
0.311211
0.2876
0.267965
0.251997
0.239401
0.229911
0.223293
0.219356
0.217955
0.218992
0.222416
0.228222
0.236443
0.247135
0.260365
0.276171
0.294492
0.314975
0.336073
0.349857
0.356924
0.361787
0.364647
0.365635
0.364933
0.35886
0.345956
0.333309
0.322563
0.314203
0.308347
0.305027
0.30414
0.305391
0.308315
0.312231
0.315959
0.317577
0.315743
0.312228
0.308737
0.306464
0.306083
0.308099
0.312835
0.320468
0.33104
0.344494
0.360511
0.378104
0.3917
0.397614
0.400848
0.402506
0.378655
0.376962
0.368738
0.356142
0.344993
0.336475
0.331008
0.328696
0.329546
0.333509
0.340436
0.349818
0.360586
0.368111
0.368483
0.366496
0.363315
0.35407
0.337073
0.320802
0.306943
0.295945
0.287972
0.283126
0.281508
0.283228
0.288416
0.297223
0.309828
0.326434
0.347262
0.372525
0.402389
0.436828
0.474739
0.50699
0.528379
0.545969
0.562139
0.576821
0.589974
0.601572
0.611609
0.620085
0.627009
0.63239
0.636238
0.63856
0.639362
0.638646
0.636412
0.632654
0.627364
0.62053
0.612141
0.60218
0.590636
0.577498
0.562766
0.546452
0.528591
0.509213
0.482605
0.443518
0.404712
0.369944
0.339716
0.313939
0.29237
0.274728
0.260733
0.25013
0.242695
0.238252
0.236667
0.237849
0.241757
0.248389
0.257778
0.269985
0.285066
0.30303
0.323721
0.346385
0.366204
0.376118
0.382675
0.387496
0.390656
0.392282
0.39255
0.391307
0.384099
0.370945
0.359117
0.349979
0.343702
0.34052
0.340446
0.34314
0.348062
0.354625
0.361166
0.364325
0.360495
0.354295
0.348194
0.344003
0.342255
0.343566
0.34825
0.356425
0.367975
0.382681
0.399429
0.413809
0.420916
0.42449
0.426995
0.428285
0.411801
0.411507
0.408958
0.400322
0.388029
0.377987
0.371555
0.36885
0.369891
0.374609
0.382892
0.393268
0.401427
0.403163
0.401744
0.399668
0.396767
0.391977
0.377984
0.359713
0.34361
0.330695
0.321222
0.315323
0.313119
0.314723
0.32025
0.329834
0.343626
0.361795
0.384516
0.411879
0.443803
0.479452
0.512515
0.534666
0.551663
0.567575
0.582285
0.595708
0.607783
0.618472
0.62775
0.635604
0.642029
0.647023
0.650587
0.652721
0.653428
0.652708
0.650558
0.646975
0.641954
0.63549
0.627577
0.61821
0.607387
0.595113
0.581399
0.566271
0.549771
0.531959
0.512344
0.48332
0.443809
0.406701
0.373929
0.345736
0.321995
0.302473
0.286915
0.275075
0.266744
0.261755
0.259985
0.261355
0.265824
0.273393
0.284093
0.297976
0.31508
0.33534
0.358301
0.381909
0.396329
0.404026
0.410164
0.414864
0.4182
0.420287
0.421291
0.421434
0.420101
0.413579
0.401704
0.392237
0.385506
0.382477
0.383435
0.387828
0.394674
0.403693
0.408596
0.410082
0.408567
0.403309
0.394595
0.38851
0.385091
0.385544
0.390114
0.398859
0.411212
0.426457
0.439307
0.446348
0.449701
0.452432
0.454359
0.455353
0.44524
0.445146
0.445038
0.442752
0.435918
0.425257
0.41834
0.415353
0.416544
0.421645
0.430724
0.436947
0.438647
0.437261
0.435662
0.433666
0.431153
0.428089
0.421054
0.404144
0.386402
0.371683
0.360667
0.353628
0.350782
0.352263
0.358175
0.368632
0.383752
0.403627
0.428386
0.457787
0.490882
0.522889
0.54476
0.560773
0.576028
0.590384
0.603719
0.615941
0.626979
0.636782
0.645315
0.652553
0.65848
0.663086
0.666364
0.668311
0.668923
0.668199
0.666137
0.662734
0.657989
0.6519
0.644467
0.635695
0.62559
0.614166
0.601446
0.587463
0.572265
0.555911
0.538471
0.518283
0.487912
0.449591
0.414312
0.38353
0.357399
0.335798
0.318507
0.305299
0.295979
0.290397
0.28844
0.290035
0.295145
0.303761
0.315901
0.331596
0.350847
0.373454
0.398255
0.417274
0.42648
0.4334
0.43909
0.443598
0.446991
0.449375
0.450894
0.451745
0.452179
0.451685
0.447323
0.440103
0.433055
0.430185
0.432247
0.438108
0.443824
0.44729
0.448179
0.448162
0.448921
0.44821
0.444904
0.439026
0.433975
0.433702
0.438043
0.44715
0.45911
0.468361
0.473844
0.476587
0.479104
0.48118
0.482653
0.483417
0.478774
0.478798
0.478913
0.479258
0.478444
0.474756
0.469901
0.466935
0.468159
0.471779
0.474537
0.474746
0.473086
0.471566
0.469977
0.468179
0.466091
0.463697
0.461022
0.452719
0.435283
0.419265
0.406785
0.39853
0.395006
0.396378
0.402727
0.414152
0.430726
0.452322
0.479095
0.509575
0.538339
0.558643
0.573361
0.587628
0.601294
0.614213
0.626267
0.637357
0.647409
0.656363
0.664175
0.670813
0.676252
0.680476
0.683473
0.685234
0.685754
0.685029
0.683056
0.679835
0.675366
0.669652
0.662698
0.654513
0.645112
0.634516
0.622755
0.60987
0.595913
0.580949
0.565057
0.548331
0.527948
0.49752
0.461035
0.427786
0.399135
0.37529
0.356109
0.341395
0.330983
0.324747
0.322592
0.324451
0.330283
0.340057
0.353747
0.371316
0.392638
0.416936
0.439275
0.450713
0.457835
0.464003
0.469199
0.473445
0.476792
0.479326
0.481167
0.482473
0.483442
0.48431
0.485185
0.483739
0.481553
0.480393
0.481162
0.482855
0.483867
0.483035
0.48265
0.482834
0.48364
0.485079
0.486656
0.486225
0.485498
0.486077
0.489577
0.494941
0.500082
0.503049
0.505003
0.507048
0.50895
0.510531
0.511658
0.512244
0.512284
0.51236
0.512555
0.512953
0.51367
0.514596
0.513755
0.512727
0.512589
0.512556
0.510808
0.508951
0.507381
0.50594
0.504503
0.502981
0.501333
0.499563
0.497726
0.495769
0.488063
0.473148
0.459833
0.450329
0.446182
0.447516
0.454338
0.466763
0.484886
0.507654
0.535379
0.558886
0.57625
0.589383
0.60239
0.615085
0.627305
0.638909
0.649777
0.659813
0.668937
0.677086
0.68421
0.690271
0.695239
0.699094
0.701817
0.703399
0.70383
0.703106
0.701224
0.698184
0.693989
0.688644
0.682159
0.674547
0.665829
0.656031
0.64519
0.63335
0.620568
0.606915
0.592476
0.57735
0.561657
0.541968
0.513072
0.478694
0.447652
0.421518
0.400339
0.38399
0.372371
0.365414
0.363043
0.365198
0.371835
0.382871
0.398183
0.417545
0.440483
0.464155
0.477162
0.483989
0.490144
0.495578
0.500259
0.504191
0.507407
0.50997
0.511974
0.513537
0.514805
0.515935
0.517085
0.518407
0.519552
0.519816
0.519402
0.518265
0.517247
0.516679
0.516549
0.516883
0.517714
0.519065
0.520966
0.523555
0.526146
0.52811
0.530319
0.532122
0.533168
0.534521
0.536067
0.53765
0.539116
0.540334
0.541204
0.541656
0.545716
0.545803
0.545996
0.546331
0.546834
0.547473
0.54812
0.548266
0.54738
0.545865
0.544323
0.54287
0.541546
0.540311
0.539112
0.537911
0.536697
0.535497
0.53438
0.533463
0.532761
0.52766
0.518733
0.508511
0.504273
0.505791
0.513023
0.526087
0.545512
0.566558
0.58407
0.597369
0.608697
0.620226
0.631729
0.643018
0.653933
0.664339
0.67412
0.683181
0.69144
0.698833
0.705308
0.710821
0.715341
0.718842
0.721304
0.722714
0.723062
0.722341
0.72055
0.717689
0.713762
0.708776
0.702746
0.695688
0.687626
0.67859
0.668622
0.65777
0.646094
0.633669
0.620582
0.606936
0.592854
0.578478
0.560598
0.534976
0.502935
0.474882
0.451767
0.433697
0.420752
0.413006
0.410391
0.412857
0.420372
0.432749
0.449643
0.470236
0.492887
0.505965
0.512193
0.517912
0.523173
0.527906
0.532069
0.535652
0.538673
0.541174
0.543221
0.544898
0.546305
0.54754
0.548685
0.549762
0.550633
0.55107
0.550939
0.550506
0.550085
0.549883
0.549984
0.550436
0.551269
0.552501
0.554132
0.556137
0.558321
0.560446
0.562066
0.563361
0.564551
0.565798
0.567095
0.56837
0.56953
0.570487
0.571167
0.571521
0.579063
0.579138
0.579295
0.57954
0.579861
0.580206
0.580451
0.580369
0.579786
0.578831
0.577747
0.576658
0.575622
0.574646
0.573724
0.572853
0.572047
0.571348
0.570833
0.570625
0.570902
0.571916
0.570925
0.568673
0.56733
0.569565
0.576837
0.588106
0.600586
0.612249
0.621538
0.631002
0.640934
0.651095
0.661283
0.671324
0.681071
0.690394
0.699185
0.707349
0.714809
0.7215
0.727366
0.732365
0.736462
0.739628
0.741843
0.743091
0.743362
0.742647
0.740946
0.738259
0.734592
0.729954
0.724361
0.717832
0.710395
0.702083
0.692938
0.683013
0.67237
0.661085
0.649246
0.636958
0.624344
0.611549
0.598744
0.583781
0.562728
0.534936
0.510649
0.490936
0.476583
0.46804
0.465147
0.467861
0.476261
0.48989
0.507672
0.526172
0.537472
0.542665
0.547569
0.552294
0.556731
0.560802
0.564458
0.567676
0.57046
0.572832
0.574837
0.576531
0.577977
0.579236
0.580351
0.581323
0.582091
0.582574
0.582749
0.582736
0.582702
0.582785
0.583069
0.583606
0.584426
0.585537
0.586925
0.588539
0.590262
0.591941
0.593411
0.594695
0.595876
0.597024
0.598145
0.599205
0.600147
0.600915
0.601458
0.601739
0.612334
0.612392
0.612507
0.612672
0.612865
0.613039
0.61311
0.612972
0.612562
0.611928
0.611177
0.610395
0.609636
0.608927
0.608286
0.60773
0.60729
0.607014
0.606981
0.6073
0.608121
0.609641
0.612104
0.615355
0.618
0.621856
0.627693
0.634651
0.641154
0.64804
0.655799
0.664166
0.672942
0.681938
0.690983
0.699926
0.708631
0.716982
0.724875
0.732222
0.738948
0.74499
0.750292
0.754811
0.758512
0.761366
0.763349
0.764446
0.764646
0.76394
0.762327
0.759809
0.756392
0.752087
0.746911
0.740886
0.734039
0.726408
0.718035
0.708974
0.699289
0.689054
0.678359
0.667305
0.656015
0.644629
0.633313
0.622267
0.610787
0.594921
0.575466
0.555115
0.539707
0.530651
0.527448
0.53007
0.538875
0.552613
0.56417
0.571972
0.575503
0.579251
0.583123
0.586964
0.590656
0.594115
0.597285
0.600136
0.602657
0.604858
0.606764
0.60841
0.609835
0.611077
0.612159
0.613086
0.613836
0.614386
0.614747
0.614988
0.615203
0.615485
0.615901
0.616495
0.617291
0.618295
0.619491
0.620833
0.622247
0.623643
0.624943
0.626132
0.627235
0.628276
0.629257
0.630156
0.63094
0.631569
0.632011
0.632238
0.645546
0.645588
0.645669
0.645776
0.64589
0.645973
0.645977
0.645849
0.645562
0.645141
0.644638
0.644109
0.643599
0.643141
0.642762
0.642492
0.642367
0.642439
0.642777
0.643474
0.644641
0.646406
0.648888
0.652123
0.656098
0.660529
0.665207
0.670317
0.676089
0.682468
0.689453
0.696921
0.704729
0.712731
0.720786
0.728764
0.736546
0.744026
0.75111
0.757716
0.763773
0.769218
0.774001
0.778077
0.78141
0.783973
0.785742
0.7867
0.786835
0.78614
0.784614
0.782258
0.77908
0.775092
0.770311
0.76476
0.758468
0.751474
0.74382
0.73556
0.726757
0.717485
0.707829
0.69789
0.687782
0.677638
0.667613
0.657884
0.64866
0.640166
0.629934
0.618365
0.607283
0.599007
0.595508
0.59688
0.601077
0.60583
0.60893
0.610583
0.612934
0.61571
0.618711
0.621783
0.624813
0.627716
0.630432
0.632924
0.635174
0.63718
0.638952
0.64051
0.641877
0.643077
0.644124
0.645026
0.64578
0.646387
0.646866
0.647263
0.647638
0.648052
0.648554
0.64918
0.649949
0.650863
0.651909
0.653055
0.654251
0.655443
0.656584
0.657656
0.658656
0.65959
0.66045
0.661224
0.661886
0.662412
0.662777
0.662965
0.678717
0.678747
0.678803
0.678874
0.678944
0.678988
0.678977
0.678884
0.678698
0.678435
0.678124
0.677804
0.67751
0.677276
0.677131
0.677109
0.677248
0.677596
0.678215
0.679176
0.680562
0.682455
0.68492
0.68798
0.691605
0.695686
0.700148
0.705034
0.710418
0.716291
0.722623
0.729335
0.736323
0.743471
0.750667
0.757798
0.764763
0.771467
0.777824
0.78376
0.789208
0.79411
0.798416
0.802084
0.80508
0.807374
0.808945
0.809775
0.809853
0.809172
0.80773
0.80553
0.802579
0.798889
0.79448
0.789374
0.783601
0.777199
0.77021
0.762688
0.754694
0.746299
0.737584
0.728643
0.719585
0.710529
0.701615
0.692996
0.684846
0.677353
0.670712
0.665064
0.659254
0.653959
0.650533
0.649143
0.648448
0.647427
0.647463
0.648378
0.649941
0.651946
0.654225
0.656644
0.659097
0.661503
0.663802
0.665954
0.667935
0.669735
0.671354
0.6728
0.674087
0.675228
0.676234
0.677113
0.67787
0.678515
0.679068
0.679561
0.680034
0.68053
0.681085
0.681723
0.682461
0.683299
0.684229
0.685226
0.686259
0.687293
0.688296
0.68925
0.690145
0.690975
0.691731
0.692402
0.692968
0.693414
0.693722
0.693879
0.711857
0.71188
0.711921
0.711974
0.712025
0.712058
0.712058
0.71201
0.711913
0.711775
0.711619
0.711472
0.711363
0.711321
0.711377
0.711564
0.711918
0.712484
0.71331
0.714455
0.715976
0.717931
0.720358
0.723272
0.726655
0.730464
0.734662
0.739255
0.744256
0.749654
0.755414
0.761474
0.767755
0.774165
0.780611
0.786999
0.793241
0.799253
0.80496
0.810292
0.815189
0.819597
0.823468
0.826764
0.82945
0.831499
0.832889
0.833603
0.833631
0.832965
0.831605
0.829552
0.826815
0.823407
0.819346
0.814655
0.809364
0.80351
0.797134
0.790289
0.783032
0.775432
0.767564
0.759515
0.751384
0.743279
0.735321
0.72764
0.720376
0.713668
0.707648
0.702402
0.697933
0.694244
0.691091
0.688436
0.686529
0.685418
0.685116
0.685526
0.686505
0.687907
0.6896
0.691472
0.693429
0.695397
0.697319
0.699155
0.700878
0.70247
0.703928
0.70525
0.706443
0.707515
0.708472
0.709322
0.710073
0.710736
0.71133
0.711878
0.712408
0.71295
0.71353
0.714167
0.714871
0.715644
0.71648
0.717361
0.718267
0.719173
0.720058
0.720903
0.721698
0.722434
0.723099
0.723683
0.724172
0.724554
0.724816
0.72495
0.744975
0.744994
0.745029
0.745074
0.745122
0.745162
0.745186
0.745188
0.745168
0.745135
0.745106
0.745102
0.745147
0.745268
0.745493
0.745852
0.746378
0.74711
0.748087
0.749356
0.750958
0.752934
0.755309
0.758094
0.761281
0.764851
0.768783
0.773067
0.777698
0.782655
0.787904
0.793393
0.799058
0.804824
0.810613
0.816346
0.821948
0.827345
0.832469
0.83726
0.84166
0.84562
0.849097
0.852054
0.854457
0.856282
0.857508
0.858118
0.858102
0.857454
0.856171
0.854258
0.851723
0.848578
0.844841
0.840535
0.83569
0.830341
0.824529
0.818302
0.811715
0.804832
0.797723
0.790469
0.783157
0.775883
0.76875
0.761868
0.755348
0.749297
0.743809
0.738945
0.734725
0.731137
0.72811
0.725637
0.72379
0.722599
0.722058
0.722104
0.722645
0.723577
0.724797
0.726214
0.727749
0.729336
0.730923
0.73247
0.733949
0.735342
0.736636
0.73783
0.738922
0.739915
0.740816
0.741629
0.742363
0.743028
0.743638
0.744211
0.74477
0.745333
0.745919
0.746543
0.747212
0.747928
0.748685
0.749472
0.750275
0.751075
0.751857
0.752607
0.753312
0.753962
0.754548
0.755059
0.755484
0.755814
0.75604
0.756154
0.778074
0.778092
0.778126
0.778173
0.778227
0.778283
0.778336
0.778386
0.778435
0.778491
0.778567
0.778682
0.778856
0.779112
0.779475
0.779972
0.780633
0.781489
0.782574
0.783923
0.785568
0.787537
0.789849
0.792513
0.795526
0.798876
0.80255
0.806534
0.810813
0.815364
0.820154
0.825137
0.830259
0.835459
0.84067
0.845825
0.85086
0.855709
0.860313
0.864617
0.86857
0.872127
0.875247
0.877896
0.880043
0.881666
0.882743
0.883259
0.883206
0.882576
0.881368
0.879587
0.87724
0.87434
0.870904
0.866955
0.862521
0.857636
0.852338
0.846674
0.840694
0.834457
0.828029
0.821482
0.814892
0.808344
0.801928
0.795733
0.789851
0.784365
0.779346
0.774844
0.770884
0.767468
0.764577
0.762212
0.760394
0.759132
0.758411
0.758188
0.758395
0.758958
0.759797
0.760839
0.762017
0.763276
0.764567
0.765853
0.767108
0.76831
0.769447
0.77051
0.771498
0.772409
0.773247
0.774016
0.774722
0.775373
0.775982
0.776561
0.777126
0.777692
0.778271
0.778874
0.779507
0.78017
0.780859
0.781568
0.782284
0.782996
0.78369
0.784355
0.78498
0.785555
0.786071
0.78652
0.786892
0.787179
0.787374
0.787474
0.811154
0.811173
0.811211
0.811263
0.811329
0.811405
0.811491
0.811586
0.811695
0.811826
0.81199
0.812203
0.812483
0.812849
0.813323
0.813929
0.814692
0.815639
0.816797
0.818194
0.819853
0.821797
0.824038
0.826584
0.829433
0.832577
0.836006
0.839705
0.843656
0.847835
0.85221
0.856742
0.861383
0.866082
0.870782
0.875426
0.879956
0.884318
0.888458
0.892326
0.895877
0.89907
0.901868
0.904239
0.906155
0.907594
0.908537
0.908971
0.908885
0.908275
0.907139
0.905482
0.903311
0.900638
0.897481
0.89386
0.889804
0.885343
0.880514
0.87536
0.869929
0.864275
0.858455
0.852535
0.846584
0.840675
0.834884
0.829287
0.823957
0.818964
0.814365
0.810202
0.806501
0.803273
0.800518
0.798239
0.796442
0.795123
0.794268
0.79384
0.79379
0.794062
0.794594
0.795327
0.796206
0.797182
0.798215
0.799269
0.800319
0.801344
0.80233
0.803267
0.80415
0.804977
0.805748
0.806466
0.807135
0.807762
0.808355
0.808925
0.809482
0.810037
0.810599
0.811176
0.811771
0.812385
0.813015
0.813656
0.814299
0.814934
0.815552
0.816143
0.816698
0.817207
0.817663
0.818057
0.818384
0.818635
0.818805
0.818892
0.844216
0.844237
0.844279
0.844341
0.844421
0.844519
0.844635
0.844772
0.844933
0.845128
0.845365
0.845658
0.846023
0.846477
0.847038
0.847728
0.848567
0.849578
0.850782
0.852202
0.853855
0.855759
0.857922
0.860351
0.863044
0.865995
0.869193
0.872625
0.876271
0.88011
0.88411
0.888237
0.89245
0.896704
0.90095
0.90514
0.909222
0.913149
0.916873
0.920351
0.923542
0.926408
0.928916
0.931036
0.932744
0.934018
0.934842
0.935201
0.935089
0.934499
0.933432
0.931891
0.929883
0.92742
0.92452
0.921202
0.917491
0.913417
0.909015
0.904325
0.899389
0.894256
0.888981
0.883621
0.878235
0.872889
0.867646
0.862572
0.857728
0.853171
0.848948
0.845097
0.841644
0.838604
0.835983
0.833784
0.83201
0.830653
0.829696
0.829113
0.828864
0.828906
0.82919
0.829669
0.830297
0.831033
0.83184
0.832689
0.833555
0.834417
0.835262
0.836078
0.836859
0.837601
0.838302
0.838965
0.83959
0.840184
0.840752
0.841302
0.84184
0.842375
0.842913
0.843459
0.844016
0.844584
0.84516
0.845741
0.84632
0.84689
0.847442
0.847968
0.848461
0.848912
0.849315
0.849664
0.849951
0.850171
0.850321
0.850396
0.877256
0.877281
0.877329
0.8774
0.877495
0.877614
0.877759
0.877933
0.878139
0.878386
0.878683
0.879042
0.879475
0.879998
0.880626
0.881378
0.882271
0.883323
0.884552
0.885975
0.887608
0.88946
0.891541
0.893854
0.896397
0.899164
0.902146
0.905329
0.908695
0.912222
0.915883
0.919647
0.923477
0.927334
0.931176
0.93496
0.938643
0.942182
0.945536
0.948664
0.951531
0.954104
0.956351
0.958246
0.959767
0.960893
0.96161
0.961904
0.96177
0.961201
0.960199
0.958766
0.956909
0.954641
0.951977
0.948935
0.94554
0.94182
0.937806
0.933534
0.929044
0.924381
0.919593
0.91473
0.909847
0.904998
0.90024
0.895627
0.891212
0.887042
0.883159
0.879595
0.876376
0.873515
0.871024
0.868906
0.867161
0.865781
0.864752
0.864051
0.863648
0.863508
0.863592
0.863862
0.86428
0.864811
0.865425
0.866093
0.866794
0.867508
0.868222
0.868924
0.869606
0.870264
0.870896
0.8715
0.872078
0.872632
0.873168
0.873689
0.874202
0.87471
0.875219
0.875732
0.87625
0.876774
0.877302
0.877829
0.878351
0.878863
0.879357
0.879826
0.880265
0.880666
0.881023
0.881331
0.881584
0.881778
0.88191
0.881977
0.910273
0.9103
0.910354
0.910436
0.910545
0.910684
0.910855
0.91106
0.911304
0.911595
0.91194
0.912351
0.912837
0.913412
0.914091
0.914887
0.915815
0.91689
0.918128
0.91954
0.921139
0.922934
0.924929
0.927127
0.929525
0.932119
0.934898
0.93785
0.940958
0.944201
0.947554
0.95099
0.954476
0.957978
0.961459
0.964882
0.968209
0.971401
0.974422
0.977238
0.979816
0.982125
0.984138
0.985832
0.987184
0.988178
0.988799
0.989037
0.988884
0.988338
0.987396
0.986064
0.984348
0.982258
0.979811
0.977022
0.973916
0.970516
0.966853
0.96296
0.958873
0.954632
0.950279
0.945861
0.941424
0.937017
0.932688
0.928484
0.92445
0.920627
0.917051
0.91375
0.910747
0.908058
0.905693
0.903656
0.901947
0.900559
0.89948
0.898691
0.898169
0.897885
0.897808
0.897906
0.898149
0.898508
0.898954
0.899465
0.900019
0.9006
0.901194
0.901789
0.902378
0.902955
0.903516
0.904061
0.904588
0.9051
0.905598
0.906086
0.906567
0.907044
0.907521
0.907999
0.908479
0.908961
0.909443
0.909922
0.910394
0.910854
0.911296
0.911716
0.912106
0.912463
0.91278
0.913053
0.913277
0.913448
0.913565
0.913623
0.943262
0.943292
0.943352
0.943443
0.943566
0.943723
0.943915
0.944147
0.944423
0.944749
0.945133
0.945583
0.94611
0.946725
0.947438
0.948263
0.949212
0.950296
0.951529
0.952919
0.954476
0.956206
0.958113
0.960198
0.962458
0.964888
0.967478
0.970215
0.973085
0.976069
0.979143
0.982282
0.985459
0.988643
0.991801
0.9949
0.997908
1.00079
1.00351
1.00605
1.00837
1.01044
1.01225
1.01376
1.01496
1.01584
1.01637
1.01656
1.01639
1.01587
1.01498
1.01375
1.01216
1.01023
1.00798
1.00543
1.00258
0.999476
0.996131
0.99258
0.988856
0.984993
0.981032
0.97701
0.972972
0.968958
0.96501
0.961171
0.957477
0.953966
0.950667
0.947606
0.944804
0.942277
0.940033
0.938078
0.936411
0.935028
0.933917
0.933065
0.932452
0.932054
0.931848
0.931806
0.931904
0.932116
0.932419
0.932793
0.933218
0.933679
0.934163
0.93466
0.935161
0.935661
0.936154
0.936639
0.937115
0.937581
0.938038
0.938489
0.938935
0.939379
0.939821
0.940263
0.940706
0.941147
0.941587
0.942021
0.942448
0.942862
0.943258
0.943634
0.943982
0.9443
0.944582
0.944824
0.945022
0.945174
0.945276
0.945328
0.976221
0.976254
0.97632
0.976419
0.976554
0.976726
0.976937
0.97719
0.977491
0.977845
0.978259
0.97874
0.979296
0.979938
0.980674
0.981515
0.982472
0.983555
0.984771
0.986131
0.98764
0.989302
0.991121
0.993095
0.995222
0.997497
0.999909
1.00245
1.0051
1.00785
1.01067
1.01354
1.01644
1.01933
1.0222
1.02501
1.02773
1.03034
1.0328
1.03508
1.03717
1.03903
1.04064
1.04199
1.04306
1.04383
1.04429
1.04444
1.04426
1.04376
1.04293
1.04178
1.04031
1.03853
1.03647
1.03412
1.03152
1.02867
1.02562
1.02237
1.01898
1.01545
1.01184
1.00818
1.00449
1.00083
0.997225
0.993712
0.990323
0.987092
0.984044
0.981203
0.978588
0.976212
0.974085
0.972211
0.970592
0.969223
0.968097
0.9672
0.966518
0.966033
0.965723
0.965567
0.965545
0.965634
0.965815
0.966069
0.966381
0.966735
0.967121
0.967527
0.967947
0.968372
0.9688
0.969227
0.96965
0.97007
0.970486
0.970898
0.971307
0.971715
0.972122
0.972528
0.972933
0.973336
0.973736
0.974129
0.974514
0.974886
0.975242
0.975578
0.975889
0.976172
0.976423
0.976638
0.976814
0.976948
0.977039
0.977085
1.00915
1.00918
1.00925
1.00936
1.0095
1.00969
1.00991
1.01019
1.01051
1.01088
1.01132
1.01182
1.0124
1.01306
1.0138
1.01465
1.01561
1.01668
1.01787
1.01919
1.02065
1.02224
1.02397
1.02584
1.02784
1.02997
1.03221
1.03457
1.03702
1.03955
1.04214
1.04477
1.04741
1.05005
1.05266
1.05521
1.05767
1.06003
1.06225
1.06431
1.06619
1.06786
1.06931
1.07051
1.07146
1.07214
1.07253
1.07264
1.07245
1.07197
1.07119
1.07012
1.06876
1.06713
1.06523
1.06307
1.06068
1.05808
1.05529
1.05232
1.04922
1.046
1.04271
1.03936
1.036
1.03265
1.02935
1.02613
1.02301
1.02003
1.01721
1.01458
1.01213
1.0099
1.00788
1.00609
1.00452
1.00318
1.00205
1.00112
1.00039
0.999836
0.999444
0.999196
0.999073
0.999059
0.999136
0.999288
0.9995
0.99976
1.00006
1.00038
1.00073
1.00108
1.00145
1.00182
1.00219
1.00256
1.00294
1.00331
1.00368
1.00405
1.00442
1.00479
1.00516
1.00553
1.00589
1.00625
1.00659
1.00693
1.00725
1.00755
1.00782
1.00808
1.0083
1.00849
1.00865
1.00877
1.00885
1.00889
1.04204
1.04208
1.04215
1.04226
1.04242
1.04261
1.04285
1.04313
1.04347
1.04386
1.04431
1.04483
1.04542
1.04608
1.04684
1.04768
1.04863
1.04968
1.05084
1.05212
1.05352
1.05504
1.05669
1.05845
1.06033
1.06232
1.06441
1.0666
1.06886
1.07119
1.07357
1.07598
1.0784
1.0808
1.08318
1.08549
1.08773
1.08986
1.09187
1.09372
1.09541
1.09692
1.09821
1.09929
1.10013
1.10072
1.10106
1.10114
1.10094
1.10048
1.09975
1.09875
1.0975
1.09599
1.09424
1.09226
1.09007
1.08768