/*--------------------------------*- C++ -*----------------------------------*\
| =========                 |                                                 |
| \\      /  F ield         | OpenFOAM: The Open Source CFD Toolbox           |
|  \\    /   O peration     | Version:  2406                                  |
|   \\  /    A nd           | Website:  www.openfoam.com                      |
|    \\/     M anipulation  |                                                 |
\*---------------------------------------------------------------------------*/
FoamFile
{
    version     2.0;
    format      ascii;
    arch        "LSB;label=32;scalar=64";
    class       volScalarField;
    location    "9.25";
    object      Da;
}
// * * * * * * * * * * * * * * * * * * * * * * * * * * * * * * * * * * * * * //

dimensions      [0 2 -1 0 0 0 0];

internalField   nonuniform List<scalar> 
14400
(
5.11372e-05
5.11367e-05
5.11443e-05
5.11656e-05
5.11983e-05
5.12341e-05
5.12639e-05
5.12805e-05
5.12823e-05
5.12733e-05
5.12631e-05
5.12643e-05
5.1288e-05
5.13362e-05
5.13941e-05
5.14291e-05
5.14159e-05
5.13753e-05
5.13249e-05
5.12587e-05
5.11521e-05
5.09732e-05
5.06908e-05
5.02821e-05
4.97391e-05
4.90757e-05
4.83305e-05
4.75616e-05
4.68305e-05
4.61838e-05
4.56453e-05
4.52214e-05
4.4911e-05
4.47158e-05
4.46513e-05
4.47691e-05
4.52415e-05
4.69022e-05
5.68974e-05
7.79751e-05
7.8e-05
7.8e-05
7.8e-05
7.8e-05
7.8e-05
7.8e-05
7.8e-05
7.8e-05
7.8e-05
7.8e-05
7.8e-05
7.8e-05
7.8e-05
7.8e-05
7.8e-05
7.8e-05
7.8e-05
7.8e-05
7.78616e-05
5.35881e-05
4.67521e-05
4.54207e-05
4.50617e-05
4.50444e-05
4.52308e-05
4.55871e-05
4.6115e-05
4.68293e-05
4.77379e-05
4.8815e-05
4.99803e-05
5.1116e-05
5.21146e-05
5.29088e-05
5.34678e-05
5.3784e-05
5.3864e-05
5.37239e-05
5.3389e-05
5.28968e-05
5.23015e-05
5.16775e-05
5.112e-05
5.07516e-05
5.07717e-05
5.17407e-05
5.67228e-05
7.75393e-05
6.04249e-05
5.14689e-05
4.96793e-05
4.91471e-05
4.90328e-05
4.91231e-05
4.93282e-05
4.9596e-05
4.98897e-05
5.01809e-05
5.04485e-05
5.06767e-05
5.08542e-05
5.09717e-05
5.10212e-05
5.09962e-05
5.08933e-05
5.07137e-05
5.04626e-05
5.01475e-05
4.9779e-05
4.93721e-05
4.89475e-05
4.85315e-05
4.81543e-05
4.78491e-05
4.7654e-05
4.76229e-05
4.78619e-05
4.86757e-05
5.1598e-05
7.38674e-05
5.07324e-05
5.07008e-05
5.06642e-05
5.06422e-05
5.06392e-05
5.06495e-05
5.06643e-05
5.06768e-05
5.06851e-05
5.06934e-05
5.07117e-05
5.07537e-05
5.08319e-05
5.09476e-05
5.10748e-05
5.11468e-05
5.1097e-05
5.09952e-05
5.08909e-05
5.0786e-05
5.06554e-05
5.04655e-05
5.01847e-05
4.97912e-05
4.92789e-05
4.86626e-05
4.79785e-05
4.72779e-05
4.66135e-05
4.60248e-05
4.5533e-05
4.51453e-05
4.48633e-05
4.46923e-05
4.46516e-05
4.48003e-05
4.53368e-05
4.73181e-05
6.19158e-05
7.79979e-05
7.8e-05
7.8e-05
7.8e-05
7.8e-05
7.8e-05
7.8e-05
7.8e-05
7.8e-05
7.8e-05
7.8e-05
7.8e-05
7.8e-05
7.8e-05
7.8e-05
7.8e-05
7.8e-05
7.8e-05
7.8e-05
7.7983e-05
5.79105e-05
4.71627e-05
4.55013e-05
4.50776e-05
4.50288e-05
4.51883e-05
4.55136e-05
4.60013e-05
4.66617e-05
4.75012e-05
4.84995e-05
4.95908e-05
5.06712e-05
5.1636e-05
5.24119e-05
5.29618e-05
5.32742e-05
5.33536e-05
5.3216e-05
5.28884e-05
5.2411e-05
5.18417e-05
5.12565e-05
5.07507e-05
5.04475e-05
5.05652e-05
5.18418e-05
5.9328e-05
7.79048e-05
6.52986e-05
5.17601e-05
4.95802e-05
4.89411e-05
4.87574e-05
4.87875e-05
4.89368e-05
4.91537e-05
4.94039e-05
4.96618e-05
4.99082e-05
5.01275e-05
5.03065e-05
5.04318e-05
5.049e-05
5.04692e-05
5.03644e-05
5.01803e-05
4.99281e-05
4.96212e-05
4.92734e-05
4.89004e-05
4.85211e-05
4.81582e-05
4.78379e-05
4.75905e-05
4.74538e-05
4.74881e-05
4.7825e-05
4.88804e-05
5.27849e-05
7.68176e-05
5.00778e-05
4.99738e-05
4.9844e-05
4.97383e-05
4.96702e-05
4.9635e-05
4.96231e-05
4.96273e-05
4.96457e-05
4.96826e-05
4.97492e-05
4.98627e-05
5.00422e-05
5.02964e-05
5.05878e-05
5.07651e-05
5.05973e-05
5.03429e-05
5.01214e-05
4.9938e-05
4.97606e-05
4.95511e-05
4.92772e-05
4.89181e-05
4.84691e-05
4.7943e-05
4.73691e-05
4.67871e-05
4.62359e-05
4.57454e-05
4.53336e-05
4.50096e-05
4.47795e-05
4.46547e-05
4.4663e-05
4.48802e-05
4.55585e-05
4.80826e-05
7.05065e-05
7.8e-05
7.8e-05
7.8e-05
7.8e-05
7.8e-05
7.8e-05
7.8e-05
7.8e-05
7.8e-05
7.8e-05
7.8e-05
7.8e-05
7.8e-05
7.8e-05
7.8e-05
7.8e-05
7.8e-05
7.8e-05
7.8e-05
7.79998e-05
6.62161e-05
4.78533e-05
4.56624e-05
4.51191e-05
4.50073e-05
4.51139e-05
4.53813e-05
4.57962e-05
4.6361e-05
4.7078e-05
4.79329e-05
4.88798e-05
4.98397e-05
5.0721e-05
5.14469e-05
5.19698e-05
5.22703e-05
5.23489e-05
5.22214e-05
5.19175e-05
5.14827e-05
5.09787e-05
5.04825e-05
5.00858e-05
4.99106e-05
5.0203e-05
5.20072e-05
6.48212e-05
7.79958e-05
7.27594e-05
5.23441e-05
4.94937e-05
4.86254e-05
4.83058e-05
4.82281e-05
4.82816e-05
4.84119e-05
4.85869e-05
4.87849e-05
4.89901e-05
4.91885e-05
4.93655e-05
4.95022e-05
4.95755e-05
4.95634e-05
4.94575e-05
4.92692e-05
4.90213e-05
4.87357e-05
4.843e-05
4.81188e-05
4.78172e-05
4.75424e-05
4.73151e-05
4.71622e-05
4.71234e-05
4.72732e-05
4.7807e-05
4.95843e-05
6.01175e-05
7.79794e-05
4.94448e-05
4.91979e-05
4.89205e-05
4.87027e-05
4.8556e-05
4.84683e-05
4.84258e-05
4.84197e-05
4.84476e-05
4.85143e-05
4.86332e-05
4.8828e-05
4.91352e-05
4.96002e-05
5.02273e-05
5.07346e-05
5.01745e-05
4.96057e-05
4.91975e-05
4.89049e-05
4.8668e-05
4.84377e-05
4.81788e-05
4.78703e-05
4.75054e-05
4.70919e-05
4.66493e-05
4.62036e-05
4.57813e-05
4.54039e-05
4.50869e-05
4.48414e-05
4.46793e-05
4.46201e-05
4.47077e-05
4.50616e-05
4.61384e-05
5.08866e-05
7.75671e-05
7.8e-05
7.8e-05
7.8e-05
7.8e-05
7.8e-05
7.8e-05
7.8e-05
7.8e-05
7.8e-05
7.8e-05
7.8e-05
7.8e-05
7.8e-05
7.8e-05
7.8e-05
7.8e-05
7.8e-05
7.8e-05
7.8e-05
7.8e-05
7.52711e-05
4.90287e-05
4.60085e-05
4.52247e-05
4.50013e-05
4.50271e-05
4.52147e-05
4.55357e-05
4.59821e-05
4.65496e-05
4.72258e-05
4.79801e-05
4.87592e-05
4.94949e-05
5.01197e-05
5.05825e-05
5.08556e-05
5.09341e-05
5.08328e-05
5.05836e-05
5.02346e-05
4.98473e-05
4.94942e-05
4.9261e-05
4.92738e-05
4.98244e-05
5.22732e-05
7.17958e-05
7.8e-05
7.78253e-05
5.63924e-05
4.98286e-05
4.83652e-05
4.78245e-05
4.76065e-05
4.75481e-05
4.75819e-05
4.76737e-05
4.78038e-05
4.79595e-05
4.81297e-05
4.83001e-05
4.84485e-05
4.85415e-05
4.85421e-05
4.84368e-05
4.82462e-05
4.80081e-05
4.77528e-05
4.74989e-05
4.72586e-05
4.70424e-05
4.68627e-05
4.67365e-05
4.66898e-05
4.67681e-05
4.70706e-05
4.78897e-05
5.06507e-05
7.1587e-05
7.8e-05
4.92413e-05
4.86502e-05
4.81365e-05
4.77812e-05
4.75519e-05
4.74135e-05
4.73423e-05
4.73257e-05
4.73608e-05
4.74529e-05
4.76186e-05
4.78922e-05
4.83425e-05
4.91192e-05
5.05614e-05
5.30774e-05
5.02499e-05
4.90021e-05
4.83257e-05
4.7907e-05
4.76098e-05
4.73615e-05
4.71205e-05
4.6863e-05
4.65797e-05
4.62719e-05
4.59498e-05
4.56288e-05
4.53255e-05
4.50557e-05
4.48331e-05
4.46711e-05
4.45871e-05
4.46123e-05
4.48185e-05
4.54328e-05
4.76873e-05
6.72817e-05
7.79999e-05
7.8e-05
7.8e-05
7.8e-05
7.8e-05
7.8e-05
7.8e-05
7.8e-05
7.8e-05
7.8e-05
7.8e-05
7.8e-05
7.8e-05
7.8e-05
7.8e-05
7.8e-05
7.8e-05
7.8e-05
7.8e-05
7.8e-05
7.8e-05
7.79942e-05
5.95877e-05
4.71605e-05
4.54827e-05
4.50428e-05
4.49524e-05
4.50422e-05
4.52591e-05
4.5582e-05
4.59987e-05
4.64955e-05
4.70496e-05
4.76256e-05
4.81779e-05
4.86579e-05
4.90239e-05
4.92496e-05
4.93277e-05
4.92704e-05
4.91072e-05
4.88816e-05
4.86475e-05
4.84691e-05
4.84313e-05
4.86912e-05
4.97253e-05
5.41523e-05
7.73706e-05
7.8e-05
7.8e-05
7.10595e-05
5.10896e-05
4.83394e-05
4.74511e-05
4.70631e-05
4.68911e-05
4.68363e-05
4.68556e-05
4.6928e-05
4.7042e-05
4.71891e-05
4.73577e-05
4.75249e-05
4.76484e-05
4.76672e-05
4.75573e-05
4.73543e-05
4.71179e-05
4.68856e-05
4.66747e-05
4.6494e-05
4.63508e-05
4.62546e-05
4.62216e-05
4.62816e-05
4.64956e-05
4.70244e-05
4.85375e-05
5.63611e-05
7.79188e-05
7.8e-05
5.09747e-05
4.87103e-05
4.76855e-05
4.71251e-05
4.67954e-05
4.66026e-05
4.65024e-05
4.64751e-05
4.65159e-05
4.66317e-05
4.68451e-05
4.7208e-05
4.7849e-05
4.92021e-05
5.3809e-05
7.38481e-05
5.19281e-05
4.87754e-05
4.7666e-05
4.7096e-05
4.67358e-05
4.64678e-05
4.6238e-05
4.60193e-05
4.57986e-05
4.55726e-05
4.53448e-05
4.51231e-05
4.49179e-05
4.47411e-05
4.46056e-05
4.45277e-05
4.45321e-05
4.46678e-05
4.50615e-05
4.62118e-05
5.16804e-05
7.77519e-05
7.8e-05
7.8e-05
7.8e-05
7.8e-05
7.8e-05
7.8e-05
7.8e-05
7.8e-05
7.8e-05
7.8e-05
7.8e-05
7.8e-05
7.8e-05
7.8e-05
7.8e-05
7.8e-05
7.8e-05
7.8e-05
7.8e-05
7.8e-05
7.8e-05
7.8e-05
7.46963e-05
4.8914e-05
4.59517e-05
4.51707e-05
4.49182e-05
4.48924e-05
4.50011e-05
4.52063e-05
4.54876e-05
4.5828e-05
4.62084e-05
4.66038e-05
4.69846e-05
4.73195e-05
4.75816e-05
4.77531e-05
4.78294e-05
4.78204e-05
4.77492e-05
4.76499e-05
4.75668e-05
4.75585e-05
4.77201e-05
4.82814e-05
5.03311e-05
6.53886e-05
7.79987e-05
7.8e-05
7.8e-05
7.79614e-05
5.82329e-05
4.90531e-05
4.73313e-05
4.6698e-05
4.64022e-05
4.62655e-05
4.62251e-05
4.62545e-05
4.63423e-05
4.64822e-05
4.66676e-05
4.68796e-05
4.70683e-05
4.71199e-05
4.69823e-05
4.6729e-05
4.64639e-05
4.62315e-05
4.60427e-05
4.5902e-05
4.58138e-05
4.57871e-05
4.58407e-05
4.60175e-05
4.64146e-05
4.73325e-05
5.03635e-05
7.39975e-05
7.8e-05
7.8e-05
7.13757e-05
5.07757e-05
4.78255e-05
4.6827e-05
4.63321e-05
4.60629e-05
4.59254e-05
4.5885e-05
4.59326e-05
4.60784e-05
4.63589e-05
4.68656e-05
4.7879e-05
5.08584e-05
7.26035e-05
7.79966e-05
6.30436e-05
4.94512e-05
4.73234e-05
4.6534e-05
4.60931e-05
4.57944e-05
4.55638e-05
4.53672e-05
4.51878e-05
4.50185e-05
4.48585e-05
4.47112e-05
4.45834e-05
4.44851e-05
4.44305e-05
4.44406e-05
4.45538e-05
4.48583e-05
4.56321e-05
4.84007e-05
7.2925e-05
7.8e-05
7.8e-05
7.8e-05
7.8e-05
7.8e-05
7.8e-05
7.8e-05
7.8e-05
7.8e-05
7.8e-05
7.8e-05
7.8e-05
7.8e-05
7.8e-05
7.8e-05
7.8e-05
7.8e-05
7.8e-05
7.8e-05
7.8e-05
7.8e-05
7.8e-05
7.8e-05
7.79992e-05
6.33633e-05
4.74975e-05
4.55185e-05
4.49702e-05
4.47953e-05
4.479e-05
4.48861e-05
4.50518e-05
4.52662e-05
4.55112e-05
4.57682e-05
4.60173e-05
4.62397e-05
4.64196e-05
4.65477e-05
4.6623e-05
4.66538e-05
4.66578e-05
4.66618e-05
4.67046e-05
4.68476e-05
4.72138e-05
4.81517e-05
5.13536e-05
7.55774e-05
7.8e-05
7.8e-05
7.8e-05
7.8e-05
7.64683e-05
5.12994e-05
4.7687e-05
4.66127e-05
4.6142e-05
4.59109e-05
4.58126e-05
4.5809e-05
4.58875e-05
4.60443e-05
4.62843e-05
4.66086e-05
4.69859e-05
4.71332e-05
4.68781e-05
4.64552e-05
4.60912e-05
4.58191e-05
4.56245e-05
4.55029e-05
4.5456e-05
4.54935e-05
4.56431e-05
4.59875e-05
4.6759e-05
4.9132e-05
6.57175e-05
7.79996e-05
7.8e-05
7.8e-05
7.79998e-05
6.77312e-05
4.97152e-05
4.7091e-05
4.62125e-05
4.58028e-05
4.56047e-05
4.55446e-05
4.56031e-05
4.5799e-05
4.62064e-05
4.70497e-05
4.9428e-05
6.44625e-05
7.79988e-05
7.8e-05
7.60205e-05
5.0862e-05
4.73812e-05
4.62524e-05
4.5683e-05
4.53305e-05
4.50825e-05
4.48916e-05
4.47352e-05
4.46027e-05
4.44903e-05
4.43989e-05
4.43336e-05
4.4305e-05
4.43315e-05
4.44462e-05
4.47218e-05
4.53782e-05
4.75462e-05
6.41325e-05
7.79996e-05
7.8e-05
7.8e-05
7.8e-05
7.8e-05
7.8e-05
7.8e-05
7.8e-05
7.8e-05
7.8e-05
7.8e-05
7.8e-05
7.8e-05
7.8e-05
7.8e-05
7.8e-05
7.8e-05
7.8e-05
7.8e-05
7.8e-05
7.8e-05
7.8e-05
7.8e-05
7.8e-05
7.8e-05
7.77233e-05
5.15556e-05
4.62964e-05
4.51755e-05
4.47884e-05
4.46524e-05
4.46421e-05
4.47074e-05
4.48214e-05
4.49649e-05
4.51221e-05
4.52789e-05
4.54236e-05
4.55478e-05
4.56474e-05
4.57239e-05
4.57849e-05
4.58456e-05
4.59304e-05
4.60795e-05
4.63712e-05
4.70141e-05
4.90217e-05
6.31312e-05
7.79975e-05
7.8e-05
7.8e-05
7.8e-05
7.8e-05
7.8e-05
7.29352e-05
5.00775e-05
4.71086e-05
4.62224e-05
4.58278e-05
4.56483e-05
4.56111e-05
4.57018e-05
4.59183e-05
4.6302e-05
4.6956e-05
4.82553e-05
4.90513e-05
4.79476e-05
4.67471e-05
4.60731e-05
4.56837e-05
4.54383e-05
4.53119e-05
4.53002e-05
4.54167e-05
4.57094e-05
4.64015e-05
4.84001e-05
5.9516e-05
7.79893e-05
7.8e-05
7.8e-05
7.8e-05
7.8e-05
7.79986e-05
6.38216e-05
4.90601e-05
4.66642e-05
4.58995e-05
4.55755e-05
4.54792e-05
4.55592e-05
4.58574e-05
4.65878e-05
4.86635e-05
5.93841e-05
7.7986e-05
7.8e-05
7.8e-05
7.79998e-05
6.69234e-05
4.88743e-05
4.63887e-05
4.55214e-05
4.50645e-05
4.47745e-05
4.45718e-05
4.44231e-05
4.43129e-05
4.42347e-05
4.41879e-05
4.4178e-05
4.42193e-05
4.43423e-05
4.46106e-05
4.52031e-05
4.69484e-05
5.73771e-05
7.79867e-05
7.8e-05
7.8e-05
7.8e-05
7.8e-05
7.8e-05
7.8e-05
7.8e-05
7.8e-05
7.8e-05
7.8e-05
7.8e-05
7.8e-05
7.8e-05
7.8e-05
7.8e-05
7.8e-05
7.8e-05
7.8e-05
7.8e-05
7.8e-05
7.8e-05
7.8e-05
7.8e-05
7.8e-05
7.8e-05
7.8e-05
7.4357e-05
4.86512e-05
4.57562e-05
4.49496e-05
4.46251e-05
4.44933e-05
4.44626e-05
4.44916e-05
4.45564e-05
4.46408e-05
4.47333e-05
4.48259e-05
4.49141e-05
4.49968e-05
4.50771e-05
4.51633e-05
4.52707e-05
4.54267e-05
4.56827e-05
4.61542e-05
4.71956e-05
5.07313e-05
7.64523e-05
7.8e-05
7.8e-05
7.8e-05
7.8e-05
7.8e-05
7.8e-05
7.8e-05
7.12678e-05
4.98019e-05
4.70627e-05
4.62115e-05
4.58435e-05
4.57445e-05
4.58995e-05
4.62987e-05
4.71565e-05
4.93446e-05
5.93688e-05
6.94213e-05
5.64568e-05
4.88527e-05
4.67161e-05
4.59837e-05
4.55646e-05
4.53894e-05
4.54207e-05
4.56945e-05
4.63082e-05
4.83326e-05
5.84412e-05
7.7975e-05
7.8e-05
7.8e-05
7.8e-05
7.8e-05
7.8e-05
7.8e-05
7.79981e-05
6.46628e-05
4.9118e-05
4.67514e-05
4.60456e-05
4.58612e-05
4.59954e-05
4.65725e-05
4.87609e-05
6.02035e-05
7.79803e-05
7.8e-05
7.8e-05
7.8e-05
7.8e-05
7.79553e-05
5.60197e-05
4.73626e-05
4.56869e-05
4.50158e-05
4.46396e-05
4.44006e-05
4.42435e-05
4.41442e-05
4.40924e-05
4.4087e-05
4.41363e-05
4.42639e-05
4.45362e-05
4.51203e-05
4.67014e-05
5.43286e-05
7.7934e-05
7.8e-05
7.8e-05
7.8e-05
7.8e-05
7.8e-05
7.8e-05
7.8e-05
7.8e-05
7.8e-05
7.8e-05
7.8e-05
7.8e-05
7.8e-05
7.8e-05
7.8e-05
7.8e-05
7.8e-05
7.8e-05
7.8e-05
7.8e-05
7.8e-05
7.8e-05
7.8e-05
7.8e-05
7.8e-05
7.8e-05
7.8e-05
7.8e-05
6.82256e-05
4.79821e-05
4.55145e-05
4.47837e-05
4.44704e-05
4.43279e-05
4.42745e-05
4.42718e-05
4.42989e-05
4.43438e-05
4.44e-05
4.44648e-05
4.45389e-05
4.46269e-05
4.47385e-05
4.48929e-05
4.51277e-05
4.55284e-05
4.63478e-05
4.88628e-05
6.83538e-05
7.79999e-05
7.8e-05
7.8e-05
7.8e-05
7.8e-05
7.8e-05
7.8e-05
7.8e-05
7.8e-05
7.41315e-05
5.14272e-05
4.8209e-05
4.69206e-05
4.65618e-05
4.70767e-05
4.84074e-05
5.20419e-05
7.21905e-05
7.7989e-05
7.8e-05
7.79566e-05
6.8631e-05
4.99146e-05
4.76995e-05
4.6352e-05
4.59771e-05
4.61033e-05
4.70236e-05
4.8977e-05
6.32957e-05
7.79841e-05
7.8e-05
7.8e-05
7.8e-05
7.8e-05
7.8e-05
7.8e-05
7.8e-05
7.8e-05
7.79994e-05
7.1395e-05
5.10764e-05
4.8312e-05
4.77424e-05
4.81441e-05
4.99034e-05
6.80721e-05
7.79931e-05
7.8e-05
7.8e-05
7.8e-05
7.8e-05
7.8e-05
7.8e-05
7.74333e-05
5.09477e-05
4.65245e-05
4.53026e-05
4.47258e-05
4.44e-05
4.421e-05
4.41103e-05
4.40825e-05
4.4127e-05
4.42612e-05
4.45305e-05
4.51464e-05
4.68882e-05
5.47555e-05
7.79063e-05
7.8e-05
7.8e-05
7.8e-05
7.8e-05
7.8e-05
7.8e-05
7.8e-05
7.8e-05
7.8e-05
7.8e-05
7.8e-05
7.8e-05
7.8e-05
7.8e-05
7.8e-05
7.8e-05
7.8e-05
7.8e-05
7.8e-05
7.8e-05
7.8e-05
7.8e-05
7.8e-05
7.8e-05
7.8e-05
7.8e-05
7.8e-05
7.8e-05
7.8e-05
7.79993e-05
6.34013e-05
4.75727e-05
4.53458e-05
4.46446e-05
4.43311e-05
4.41786e-05
4.41066e-05
4.4081e-05
4.40858e-05
4.41138e-05
4.4163e-05
4.42353e-05
4.43369e-05
4.4481e-05
4.46951e-05
4.50402e-05
4.5693e-05
4.74498e-05
5.75893e-05
7.79807e-05
7.8e-05
7.8e-05
7.8e-05
7.8e-05
7.8e-05
7.8e-05
7.8e-05
7.8e-05
7.8e-05
7.8e-05
7.74668e-05
6.54856e-05
5.26352e-05
4.99922e-05
5.40062e-05
6.72854e-05
7.76334e-05
7.8e-05
7.8e-05
7.8e-05
7.8e-05
7.8e-05
7.62896e-05
6.2128e-05
4.98644e-05
4.85011e-05
4.89479e-05
5.58402e-05
7.26832e-05
7.79989e-05
7.8e-05
7.8e-05
7.8e-05
7.8e-05
7.8e-05
7.8e-05
7.8e-05
7.8e-05
7.8e-05
7.8e-05
7.8e-05
7.74468e-05
6.87883e-05
6.24132e-05
6.72081e-05
7.65449e-05
7.79999e-05
7.8e-05
7.8e-05
7.8e-05
7.8e-05
7.8e-05
7.8e-05
7.8e-05
7.8e-05
7.68677e-05
5.03573e-05
4.65548e-05
4.52434e-05
4.46657e-05
4.43856e-05
4.42691e-05
4.42707e-05
4.44024e-05
4.47299e-05
4.53371e-05
4.74552e-05
5.91489e-05
7.79547e-05
7.8e-05
7.8e-05
7.8e-05
7.8e-05
7.8e-05
7.8e-05
7.8e-05
7.8e-05
7.8e-05
7.8e-05
7.8e-05
7.8e-05
7.8e-05
7.8e-05
7.8e-05
7.8e-05
7.8e-05
7.8e-05
7.8e-05
7.8e-05
7.8e-05
7.8e-05
7.8e-05
7.8e-05
7.8e-05
7.8e-05
7.8e-05
7.8e-05
7.8e-05
7.8e-05
7.8e-05
7.79978e-05
6.14994e-05
4.74257e-05
4.52494e-05
4.45517e-05
4.42407e-05
4.40761e-05
4.39893e-05
4.39518e-05
4.39538e-05
4.39922e-05
4.40698e-05
4.41961e-05
4.43912e-05
4.4703e-05
4.52474e-05
4.64755e-05
5.13097e-05
7.75972e-05
7.8e-05
7.8e-05
7.8e-05
7.8e-05
7.8e-05
7.8e-05
7.8e-05
7.8e-05
7.8e-05
7.8e-05
7.8e-05
7.8e-05
7.79996e-05
7.77522e-05
7.66673e-05
7.78781e-05
7.79999e-05
7.8e-05
7.8e-05
7.8e-05
7.8e-05
7.8e-05
7.8e-05
7.8e-05
7.79979e-05
7.67961e-05
7.27165e-05
7.50468e-05
7.79604e-05
7.8e-05
7.8e-05
7.8e-05
7.8e-05
7.8e-05
7.8e-05
7.8e-05
7.8e-05
7.8e-05
7.8e-05
7.8e-05
7.8e-05
7.8e-05
7.8e-05
7.8e-05
7.7998e-05
7.79999e-05
7.8e-05
7.8e-05
7.8e-05
7.8e-05
7.8e-05
7.8e-05
7.8e-05
7.8e-05
7.8e-05
7.8e-05
7.8e-05
7.73224e-05
5.42879e-05
4.74138e-05
4.55898e-05
4.50069e-05
4.4835e-05
4.48921e-05
4.52656e-05
4.65401e-05
4.84962e-05
6.80763e-05
7.79953e-05
7.8e-05
7.8e-05
7.8e-05
7.8e-05
7.8e-05
7.8e-05
7.8e-05
7.8e-05
7.8e-05
7.8e-05
7.8e-05
7.8e-05
7.8e-05
7.8e-05
7.8e-05
7.8e-05
7.8e-05
7.8e-05
7.8e-05
7.8e-05
7.8e-05
7.8e-05
7.8e-05
7.8e-05
7.8e-05
7.8e-05
7.8e-05
7.8e-05
7.8e-05
7.8e-05
7.8e-05
7.8e-05
7.8e-05
7.79977e-05
6.29222e-05
4.7581e-05
4.52715e-05
4.45861e-05
4.42429e-05
4.40579e-05
4.39595e-05
4.39301e-05
4.39605e-05
4.40543e-05
4.42306e-05
4.4526e-05
4.50608e-05
4.61554e-05
4.97257e-05
7.66882e-05
7.8e-05
7.8e-05
7.8e-05
7.8e-05
7.8e-05
7.8e-05
7.8e-05
7.8e-05
7.8e-05
7.8e-05
7.8e-05
7.8e-05
7.8e-05
7.8e-05
7.8e-05
7.8e-05
7.8e-05
7.8e-05
7.8e-05
7.8e-05
7.8e-05
7.8e-05
7.8e-05
7.8e-05
7.8e-05
7.8e-05
7.8e-05
7.8e-05
7.8e-05
7.8e-05
7.8e-05
7.8e-05
7.8e-05
7.8e-05
7.8e-05
7.8e-05
7.8e-05
7.8e-05
7.8e-05
7.8e-05
7.8e-05
7.8e-05
7.8e-05
7.8e-05
7.8e-05
7.8e-05
7.8e-05
7.8e-05
7.8e-05
7.8e-05
7.8e-05
7.8e-05
7.8e-05
7.8e-05
7.8e-05
7.8e-05
7.8e-05
7.8e-05
7.8e-05
7.79422e-05
6.68851e-05
4.96304e-05
4.74468e-05
4.7065e-05
4.73109e-05
4.87328e-05
6.18379e-05
7.61264e-05
7.8e-05
7.8e-05
7.8e-05
7.8e-05
7.8e-05
7.8e-05
7.8e-05
7.8e-05
7.8e-05
7.8e-05
7.8e-05
7.8e-05
7.8e-05
7.8e-05
7.8e-05
7.8e-05
7.8e-05
7.8e-05
7.8e-05
7.8e-05
7.8e-05
7.8e-05
7.8e-05
7.8e-05
7.8e-05
7.8e-05
7.8e-05
7.8e-05
7.8e-05
7.8e-05
7.8e-05
7.8e-05
7.8e-05
7.8e-05
7.8e-05
7.8e-05
7.79993e-05
6.79628e-05
4.81164e-05
4.58025e-05
4.48388e-05
4.44138e-05
4.41817e-05
4.40997e-05
4.41234e-05
4.4257e-05
4.45596e-05
4.51253e-05
4.65533e-05
5.05305e-05
7.66476e-05
7.8e-05
7.8e-05
7.8e-05
7.8e-05
7.8e-05
7.8e-05
7.8e-05
7.8e-05
7.8e-05
7.8e-05
7.8e-05
7.8e-05
7.8e-05
7.8e-05
7.8e-05
7.8e-05
7.8e-05
7.8e-05
7.8e-05
7.8e-05
7.8e-05
7.8e-05
7.8e-05
7.8e-05
7.8e-05
7.8e-05
7.8e-05
7.8e-05
7.8e-05
7.8e-05
7.8e-05
7.8e-05
7.8e-05
7.8e-05
7.8e-05
7.8e-05
7.8e-05
7.8e-05
7.8e-05
7.8e-05
7.8e-05
7.8e-05
7.8e-05
7.8e-05
7.8e-05
7.8e-05
7.8e-05
7.8e-05
7.8e-05
7.8e-05
7.8e-05
7.8e-05
7.8e-05
7.8e-05
7.8e-05
7.8e-05
7.8e-05
7.8e-05
7.8e-05
7.8e-05
7.8e-05
7.79999e-05
7.73353e-05
7.08124e-05
6.72826e-05
7.06584e-05
7.68511e-05
7.79988e-05
7.8e-05
7.8e-05
7.8e-05
7.8e-05
7.8e-05
7.8e-05
7.8e-05
7.8e-05
7.8e-05
7.8e-05
7.8e-05
7.8e-05
7.8e-05
7.8e-05
7.8e-05
7.8e-05
7.8e-05
7.8e-05
7.8e-05
7.8e-05
7.8e-05
7.8e-05
7.8e-05
7.8e-05
7.8e-05
7.8e-05
7.8e-05
7.8e-05
7.8e-05
7.8e-05
7.8e-05
7.8e-05
7.8e-05
7.8e-05
7.8e-05
7.8e-05
7.8e-05
7.8e-05
7.8e-05
7.46631e-05
5.29717e-05
4.71842e-05
4.56611e-05
4.48881e-05
4.46816e-05
4.46975e-05
4.49397e-05
4.57583e-05
4.75783e-05
5.71158e-05
7.75632e-05
7.8e-05
7.8e-05
7.8e-05
7.8e-05
7.8e-05
7.8e-05
7.8e-05
7.8e-05
7.8e-05
7.8e-05
7.8e-05
7.8e-05
7.8e-05
7.8e-05
7.8e-05
7.8e-05
7.8e-05
7.8e-05
7.8e-05
7.8e-05
7.8e-05
7.8e-05
7.8e-05
7.8e-05
7.8e-05
7.8e-05
7.8e-05
7.8e-05
7.8e-05
7.8e-05
7.8e-05
7.8e-05
7.8e-05
7.8e-05
7.8e-05
7.8e-05
7.8e-05
7.8e-05
7.8e-05
7.8e-05
7.8e-05
7.8e-05
7.8e-05
7.8e-05
7.8e-05
7.8e-05
7.8e-05
7.8e-05
7.8e-05
7.8e-05
7.8e-05
7.8e-05
7.8e-05
7.8e-05
7.8e-05
7.8e-05
7.8e-05
7.8e-05
7.8e-05
7.8e-05
7.8e-05
7.8e-05
7.8e-05
7.8e-05
7.8e-05
7.79999e-05
7.8e-05
7.8e-05
7.8e-05
7.8e-05
7.8e-05
7.8e-05
7.8e-05
7.8e-05
7.8e-05
7.8e-05
7.8e-05
7.8e-05
7.8e-05
7.8e-05
7.8e-05
7.8e-05
7.8e-05
7.8e-05
7.8e-05
7.8e-05
7.8e-05
7.8e-05
7.8e-05
7.8e-05
7.8e-05
7.8e-05
7.8e-05
7.8e-05
7.8e-05
7.8e-05
7.8e-05
7.8e-05
7.8e-05
7.8e-05
7.8e-05
7.8e-05
7.8e-05
7.8e-05
7.8e-05
7.8e-05
7.8e-05
7.8e-05
7.8e-05
7.79237e-05
6.90807e-05
5.29893e-05
4.7585e-05
4.69819e-05
4.69739e-05
4.75821e-05
5.265e-05
7.01906e-05
7.79875e-05
7.8e-05
7.8e-05
7.8e-05
7.8e-05
7.8e-05
7.8e-05
7.8e-05
7.8e-05
7.8e-05
7.8e-05
7.8e-05
7.8e-05
7.8e-05
7.8e-05
7.8e-05
7.8e-05
7.8e-05
7.8e-05
7.8e-05
7.8e-05
7.8e-05
7.8e-05
7.8e-05
7.8e-05
7.8e-05
7.8e-05
7.8e-05
7.8e-05
7.8e-05
7.8e-05
7.8e-05
7.8e-05
7.8e-05
7.8e-05
7.8e-05
7.8e-05
7.8e-05
7.8e-05
7.8e-05
7.8e-05
7.8e-05
7.8e-05
7.8e-05
7.8e-05
7.8e-05
7.8e-05
7.8e-05
7.8e-05
7.8e-05
7.8e-05
7.8e-05
7.8e-05
7.8e-05
7.8e-05
7.8e-05
7.8e-05
7.8e-05
7.8e-05
7.8e-05
7.8e-05
7.8e-05
7.8e-05
7.8e-05
7.8e-05
7.8e-05
7.8e-05
7.8e-05
7.8e-05
7.8e-05
7.8e-05
7.8e-05
7.8e-05
7.8e-05
7.8e-05
7.8e-05
7.8e-05
7.8e-05
7.8e-05
7.8e-05
7.8e-05
7.8e-05
7.8e-05
7.8e-05
7.8e-05
7.8e-05
7.8e-05
7.8e-05
7.8e-05
7.8e-05
7.8e-05
7.8e-05
7.8e-05
7.8e-05
7.8e-05
7.8e-05
7.8e-05
7.8e-05
7.8e-05
7.8e-05
7.8e-05
7.8e-05
7.8e-05
7.8e-05
7.8e-05
7.8e-05
7.8e-05
7.8e-05
7.8e-05
7.8e-05
7.8e-05
7.8e-05
7.8e-05
7.79262e-05
7.41618e-05
6.89073e-05
6.8408e-05
7.34896e-05
7.79047e-05
7.8e-05
7.8e-05
7.8e-05
7.8e-05
7.8e-05
7.8e-05
7.8e-05
7.8e-05
7.8e-05
7.8e-05
7.8e-05
7.8e-05
7.8e-05
7.8e-05
7.8e-05
7.8e-05
7.8e-05
7.8e-05
7.8e-05
7.8e-05
7.8e-05
7.8e-05
7.8e-05
7.8e-05
7.8e-05
7.8e-05
7.8e-05
7.8e-05
7.8e-05
7.8e-05
7.8e-05
7.8e-05
7.8e-05
7.8e-05
7.8e-05
7.8e-05
7.8e-05
7.8e-05
7.8e-05
7.8e-05
7.8e-05
7.8e-05
7.8e-05
7.8e-05
7.8e-05
7.8e-05
7.8e-05
7.8e-05
7.8e-05
7.8e-05
7.8e-05
7.8e-05
7.8e-05
7.8e-05
7.8e-05
7.8e-05
7.8e-05
7.8e-05
7.8e-05
7.8e-05
7.8e-05
7.8e-05
7.8e-05
7.8e-05
7.8e-05
7.8e-05
7.8e-05
7.8e-05
7.8e-05
7.8e-05
7.8e-05
7.8e-05
7.8e-05
7.8e-05
7.8e-05
7.8e-05
7.8e-05
7.8e-05
7.8e-05
7.8e-05
7.8e-05
7.8e-05
7.8e-05
7.8e-05
7.8e-05
7.8e-05
7.8e-05
7.8e-05
7.8e-05
7.8e-05
7.8e-05
7.8e-05
7.8e-05
7.8e-05
7.8e-05
7.8e-05
7.8e-05
7.8e-05
7.8e-05
7.8e-05
7.8e-05
7.8e-05
7.8e-05
7.8e-05
7.8e-05
7.8e-05
7.8e-05
7.8e-05
7.8e-05
7.8e-05
7.8e-05
7.8e-05
7.8e-05
7.8e-05
7.8e-05
7.8e-05
7.8e-05
7.8e-05
7.8e-05
7.8e-05
7.8e-05
7.8e-05
7.8e-05
7.8e-05
7.8e-05
7.8e-05
7.8e-05
7.8e-05
7.8e-05
7.8e-05
7.8e-05
7.8e-05
7.8e-05
7.8e-05
7.8e-05
7.8e-05
7.8e-05
7.8e-05
7.8e-05
7.8e-05
7.8e-05
7.8e-05
7.8e-05
7.8e-05
7.8e-05
7.8e-05
7.8e-05
7.8e-05
7.8e-05
7.8e-05
7.8e-05
7.8e-05
7.8e-05
7.8e-05
7.8e-05
7.8e-05
7.8e-05
7.8e-05
7.8e-05
7.8e-05
7.8e-05
7.8e-05
7.8e-05
7.8e-05
7.8e-05
7.8e-05
7.8e-05
7.8e-05
7.8e-05
7.8e-05
7.8e-05
7.8e-05
7.8e-05
7.8e-05
7.8e-05
7.8e-05
7.8e-05
7.8e-05
7.8e-05
7.8e-05
7.8e-05
7.8e-05
7.8e-05
7.8e-05
7.8e-05
7.8e-05
7.8e-05
7.8e-05
7.8e-05
7.8e-05
7.8e-05
7.8e-05
7.8e-05
7.8e-05
7.8e-05
7.8e-05
7.8e-05
7.8e-05
7.8e-05
7.8e-05
7.8e-05
7.8e-05
7.8e-05
7.8e-05
7.8e-05
7.8e-05
7.8e-05
7.8e-05
7.8e-05
7.8e-05
7.8e-05
7.8e-05
7.8e-05
7.8e-05
7.8e-05
7.8e-05
7.8e-05
7.8e-05
7.8e-05
7.8e-05
7.8e-05
7.8e-05
7.8e-05
7.8e-05
7.8e-05
7.8e-05
7.8e-05
7.8e-05
7.8e-05
7.8e-05
7.8e-05
7.8e-05
7.8e-05
7.8e-05
7.8e-05
7.8e-05
7.8e-05
7.8e-05
7.8e-05
7.8e-05
7.8e-05
7.8e-05
7.8e-05
7.8e-05
7.8e-05
7.8e-05
7.8e-05
7.8e-05
7.8e-05
7.8e-05
7.8e-05
7.8e-05
7.8e-05
7.8e-05
7.8e-05
7.8e-05
7.8e-05
7.8e-05
7.8e-05
7.8e-05
7.8e-05
7.8e-05
7.8e-05
7.8e-05
7.8e-05
7.8e-05
7.8e-05
7.8e-05
7.8e-05
7.8e-05
7.8e-05
7.8e-05
7.8e-05
7.8e-05
7.8e-05
7.8e-05
7.8e-05
7.8e-05
7.8e-05
7.8e-05
7.8e-05
7.8e-05
7.8e-05
7.8e-05
7.8e-05
7.8e-05
7.8e-05
7.8e-05
7.8e-05
7.8e-05
7.8e-05
7.8e-05
7.8e-05
7.8e-05
7.8e-05
7.8e-05
7.8e-05
7.8e-05
7.8e-05
7.8e-05
7.8e-05
7.8e-05
7.8e-05
7.8e-05
7.8e-05
7.8e-05
7.8e-05
7.8e-05
7.8e-05
7.8e-05
7.8e-05
7.8e-05
7.8e-05
7.8e-05
7.8e-05
7.8e-05
7.8e-05
7.8e-05
7.8e-05
7.8e-05
7.8e-05
7.8e-05
7.8e-05
7.8e-05
7.8e-05
7.8e-05
7.8e-05
7.8e-05
7.8e-05
7.8e-05
7.8e-05
7.8e-05
7.8e-05
7.8e-05
7.8e-05
7.8e-05
7.8e-05
7.8e-05
7.8e-05
7.8e-05
7.8e-05
7.8e-05
7.8e-05
7.8e-05
7.8e-05
7.8e-05
7.8e-05
7.8e-05
7.8e-05
7.8e-05
7.8e-05
7.8e-05
7.8e-05
7.8e-05
7.8e-05
7.8e-05
7.8e-05
7.8e-05
7.8e-05
7.8e-05
7.8e-05
7.8e-05
7.8e-05
7.8e-05
7.8e-05
7.8e-05
7.8e-05
7.8e-05
7.8e-05
7.8e-05
7.8e-05
7.8e-05
7.8e-05
7.8e-05
7.8e-05
7.8e-05
7.8e-05
7.8e-05
7.8e-05
7.8e-05
7.8e-05
7.8e-05
7.8e-05
7.8e-05
7.8e-05
7.8e-05
7.8e-05
7.8e-05
7.8e-05
7.8e-05
7.8e-05
7.8e-05
7.8e-05
7.8e-05
7.8e-05
7.8e-05
7.8e-05
7.8e-05
7.8e-05
7.8e-05
7.8e-05
7.8e-05
7.8e-05
7.8e-05
7.8e-05
7.8e-05
7.8e-05
7.8e-05
7.8e-05
7.8e-05
7.8e-05
7.8e-05
7.8e-05
7.8e-05
7.8e-05
7.8e-05
7.8e-05
7.8e-05
7.8e-05
7.8e-05
7.8e-05
7.8e-05
7.8e-05
7.8e-05
7.8e-05
7.8e-05
7.8e-05
7.8e-05
7.8e-05
7.8e-05
7.8e-05
7.8e-05
7.8e-05
7.8e-05
7.8e-05
7.8e-05
7.8e-05
7.8e-05
7.8e-05
7.8e-05
7.8e-05
7.8e-05
7.8e-05
7.8e-05
7.8e-05
7.8e-05
7.8e-05
7.8e-05
7.8e-05
7.8e-05
7.8e-05
7.8e-05
7.8e-05
7.8e-05
7.8e-05
7.8e-05
7.8e-05
7.8e-05
7.8e-05
7.8e-05
7.8e-05
7.8e-05
7.8e-05
7.8e-05
7.8e-05
7.8e-05
7.8e-05
7.8e-05
7.8e-05
7.8e-05
7.8e-05
7.8e-05
7.8e-05
7.8e-05
7.8e-05
7.8e-05
7.8e-05
7.8e-05
7.8e-05
7.8e-05
7.8e-05
7.8e-05
7.8e-05
7.8e-05
7.8e-05
7.8e-05
7.8e-05
7.8e-05
7.8e-05
7.8e-05
7.8e-05
7.8e-05
7.8e-05
7.8e-05
7.8e-05
7.8e-05
7.8e-05
7.8e-05
7.8e-05
7.8e-05
7.8e-05
7.8e-05
7.8e-05
7.8e-05
7.8e-05
7.8e-05
7.8e-05
7.8e-05
7.8e-05
7.8e-05
7.8e-05
7.8e-05
7.8e-05
7.8e-05
7.8e-05
7.8e-05
7.8e-05
7.8e-05
7.8e-05
7.8e-05
7.8e-05
7.8e-05
7.8e-05
7.8e-05
7.8e-05
7.8e-05
7.8e-05
7.8e-05
7.8e-05
7.8e-05
7.8e-05
7.8e-05
7.8e-05
7.8e-05
7.8e-05
7.8e-05
7.8e-05
7.8e-05
7.8e-05
7.8e-05
7.8e-05
7.8e-05
7.8e-05
7.8e-05
7.8e-05
7.8e-05
7.8e-05
7.8e-05
7.8e-05
7.8e-05
7.8e-05
7.8e-05
7.8e-05
7.8e-05
7.8e-05
7.8e-05
7.8e-05
7.8e-05
7.8e-05
7.8e-05
7.8e-05
7.8e-05
7.8e-05
7.8e-05
7.8e-05
7.8e-05
7.8e-05
7.8e-05
7.8e-05
7.8e-05
7.8e-05
7.8e-05
7.8e-05
7.8e-05
7.8e-05
7.8e-05
7.8e-05
7.8e-05
7.8e-05
7.8e-05
7.8e-05
7.8e-05
7.8e-05
7.8e-05
7.8e-05
7.8e-05
7.8e-05
7.8e-05
7.8e-05
7.8e-05
7.8e-05
7.8e-05
7.8e-05
7.8e-05
7.8e-05
7.8e-05
7.8e-05
7.8e-05
7.8e-05
7.8e-05
7.8e-05
7.8e-05
7.8e-05
7.8e-05
7.8e-05
7.8e-05
7.8e-05
7.8e-05
7.8e-05
7.8e-05
7.8e-05
7.8e-05
7.8e-05
7.8e-05
7.8e-05
7.8e-05
7.8e-05
7.8e-05
7.8e-05
7.8e-05
7.8e-05
7.8e-05
7.8e-05
7.8e-05
7.8e-05
7.8e-05
7.8e-05
7.8e-05
7.8e-05
7.8e-05
7.8e-05
7.8e-05
7.8e-05
7.8e-05
7.8e-05
7.8e-05
7.8e-05
7.8e-05
7.8e-05
7.8e-05
7.8e-05
7.8e-05
7.8e-05
7.8e-05
7.8e-05
7.8e-05
7.8e-05
7.8e-05
7.8e-05
7.8e-05
7.8e-05
7.8e-05
7.8e-05
7.8e-05
7.8e-05
7.8e-05
7.8e-05
7.8e-05
7.8e-05
7.8e-05
7.8e-05
7.8e-05
7.8e-05
7.8e-05
7.8e-05
7.8e-05
7.8e-05
7.8e-05
7.8e-05
7.8e-05
7.8e-05
7.8e-05
7.8e-05
7.8e-05
7.8e-05
7.8e-05
7.8e-05
7.8e-05
7.8e-05
7.8e-05
7.8e-05
7.8e-05
7.8e-05
7.8e-05
7.8e-05
7.8e-05
7.8e-05
7.8e-05
7.8e-05
7.8e-05
7.8e-05
7.8e-05
7.8e-05
7.8e-05
7.8e-05
7.8e-05
7.8e-05
7.8e-05
7.8e-05
7.8e-05
7.8e-05
7.8e-05
7.8e-05
7.8e-05
7.8e-05
7.8e-05
7.8e-05
7.8e-05
7.8e-05
7.8e-05
7.8e-05
7.8e-05
7.8e-05
7.8e-05
7.8e-05
7.8e-05
7.8e-05
7.8e-05
7.8e-05
7.8e-05
7.8e-05
7.8e-05
7.8e-05
7.8e-05
7.8e-05
7.8e-05
7.8e-05
7.8e-05
7.8e-05
7.8e-05
7.8e-05
7.8e-05
7.8e-05
7.8e-05
7.8e-05
7.8e-05
7.8e-05
7.8e-05
7.8e-05
7.8e-05
7.8e-05
7.8e-05
7.8e-05
7.8e-05
7.8e-05
7.8e-05
7.8e-05
7.8e-05
7.8e-05
7.8e-05
7.8e-05
7.8e-05
7.8e-05
7.8e-05
7.8e-05
7.8e-05
7.8e-05
7.8e-05
7.8e-05
7.8e-05
7.8e-05
7.8e-05
7.8e-05
7.8e-05
7.8e-05
7.8e-05
7.8e-05
7.8e-05
7.8e-05
7.8e-05
7.8e-05
7.8e-05
7.8e-05
7.8e-05
7.8e-05
7.8e-05
7.8e-05
7.8e-05
7.8e-05
7.8e-05
7.8e-05
7.8e-05
7.8e-05
7.8e-05
7.8e-05
7.8e-05
7.8e-05
7.8e-05
7.8e-05
7.8e-05
7.8e-05
7.8e-05
7.8e-05
7.8e-05
7.8e-05
7.8e-05
7.8e-05
7.8e-05
7.8e-05
7.8e-05
7.8e-05
7.8e-05
7.8e-05
7.8e-05
7.8e-05
7.8e-05
7.8e-05
7.8e-05
7.8e-05
7.8e-05
7.8e-05
7.8e-05
7.8e-05
7.8e-05
7.8e-05
7.8e-05
7.8e-05
7.8e-05
7.8e-05
7.8e-05
7.8e-05
7.8e-05
7.8e-05
7.8e-05
7.8e-05
7.8e-05
7.8e-05
7.8e-05
7.8e-05
7.8e-05
7.8e-05
7.8e-05
7.8e-05
7.8e-05
7.8e-05
7.8e-05
7.8e-05
7.8e-05
7.8e-05
7.8e-05
7.8e-05
7.8e-05
7.8e-05
7.8e-05
7.8e-05
7.8e-05
7.8e-05
7.8e-05
7.8e-05
7.8e-05
7.8e-05
7.8e-05
7.8e-05
7.8e-05
7.8e-05
7.8e-05
7.8e-05
7.8e-05
7.8e-05
7.8e-05
7.8e-05
7.8e-05
7.8e-05
7.8e-05
7.8e-05
7.8e-05
7.8e-05
7.8e-05
7.8e-05
7.8e-05
7.8e-05
7.8e-05
7.8e-05
7.8e-05
7.8e-05
7.8e-05
7.8e-05
7.8e-05
7.8e-05
7.8e-05
7.8e-05
7.8e-05
7.8e-05
7.8e-05
7.8e-05
7.8e-05
7.8e-05
7.8e-05
7.8e-05
7.8e-05
7.8e-05
7.8e-05
7.8e-05
7.8e-05
7.8e-05
7.8e-05
7.8e-05
7.8e-05
7.8e-05
7.8e-05
7.8e-05
7.8e-05
7.8e-05
7.8e-05
7.8e-05
7.8e-05
7.8e-05
7.8e-05
7.8e-05
7.8e-05
7.8e-05
7.8e-05
7.8e-05
7.8e-05
7.8e-05
7.8e-05
7.8e-05
7.8e-05
7.8e-05
7.8e-05
7.8e-05
7.8e-05
7.8e-05
7.8e-05
7.8e-05
7.8e-05
7.8e-05
7.8e-05
7.8e-05
7.8e-05
7.8e-05
7.8e-05
7.8e-05
7.8e-05
7.8e-05
7.8e-05
7.8e-05
7.8e-05
7.8e-05
7.8e-05
7.8e-05
7.8e-05
7.8e-05
7.8e-05
7.8e-05
7.8e-05
7.8e-05
7.8e-05
7.8e-05
7.8e-05
7.8e-05
7.8e-05
7.8e-05
7.8e-05
7.8e-05
7.8e-05
7.8e-05
7.8e-05
7.8e-05
7.8e-05
7.8e-05
7.8e-05
7.8e-05
7.8e-05
7.8e-05
7.8e-05
7.8e-05
7.8e-05
7.8e-05
7.8e-05
7.8e-05
7.8e-05
7.8e-05
7.8e-05
7.8e-05
7.8e-05
7.8e-05
7.8e-05
7.8e-05
7.8e-05
7.8e-05
7.8e-05
7.8e-05
7.8e-05
7.8e-05
7.8e-05
7.8e-05
7.8e-05
7.8e-05
7.8e-05
7.8e-05
7.8e-05
7.8e-05
7.8e-05
7.8e-05
7.8e-05
7.8e-05
7.8e-05
7.8e-05
7.8e-05
7.8e-05
7.8e-05
7.8e-05
7.8e-05
7.8e-05
7.8e-05
7.8e-05
7.8e-05
7.8e-05
7.8e-05
7.8e-05
7.8e-05
7.8e-05
7.8e-05
7.8e-05
7.8e-05
7.8e-05
7.8e-05
7.8e-05
7.8e-05
7.8e-05
7.8e-05
7.8e-05
7.8e-05
7.8e-05
7.8e-05
7.8e-05
7.8e-05
7.8e-05
7.8e-05
7.8e-05
7.8e-05
7.8e-05
7.8e-05
7.8e-05
7.8e-05
7.8e-05
7.8e-05
7.8e-05
7.8e-05
7.8e-05
7.8e-05
7.8e-05
7.8e-05
7.8e-05
7.8e-05
7.8e-05
7.8e-05
7.8e-05
7.8e-05
7.8e-05
7.8e-05
7.8e-05
7.8e-05
7.8e-05
7.8e-05
7.8e-05
7.8e-05
7.8e-05
7.8e-05
7.8e-05
7.8e-05
7.8e-05
7.8e-05
7.8e-05
7.8e-05
7.8e-05
7.8e-05
7.8e-05
7.8e-05
7.8e-05
7.8e-05
7.8e-05
7.8e-05
7.8e-05
7.8e-05
7.8e-05
7.8e-05
7.8e-05
7.8e-05
7.8e-05
7.8e-05
7.8e-05
7.8e-05
7.8e-05
7.8e-05
7.8e-05
7.8e-05
7.8e-05
7.8e-05
7.8e-05
7.8e-05
7.8e-05