/*--------------------------------*- C++ -*----------------------------------*\
| =========                 |                                                 |
| \\      /  F ield         | OpenFOAM: The Open Source CFD Toolbox           |
|  \\    /   O peration     | Version:  2406                                  |
|   \\  /    A nd           | Website:  www.openfoam.com                      |
|    \\/     M anipulation  |                                                 |
\*---------------------------------------------------------------------------*/
FoamFile
{
    version     2.0;
    format      ascii;
    arch        "LSB;label=32;scalar=64";
    class       volScalarField;
    location    "4.8";
    object      C_0;
}
// * * * * * * * * * * * * * * * * * * * * * * * * * * * * * * * * * * * * * //

dimensions      [1 -3 0 0 0 0 0];

internalField   nonuniform List<scalar> 
14400
(
0.340593
0.337187
0.331817
0.325926
0.320628
0.316706
0.314683
0.314877
0.317446
0.322398
0.329596
0.338721
0.349207
0.360102
0.36979
0.375482
0.371874
0.363766
0.354187
0.345115
0.337811
0.333116
0.331627
0.333808
0.340051
0.350721
0.366173
0.386776
0.41291
0.444967
0.48332
0.528247
0.5797
0.636247
0.687103
0.722179
0.747667
0.770015
0.789589
0.80667
0.821476
0.83418
0.844917
0.853796
0.860898
0.86629
0.870019
0.87212
0.872612
0.871504
0.868794
0.864466
0.858493
0.850833
0.841433
0.83022
0.817103
0.801967
0.784669
0.765029
0.742822
0.717762
0.688821
0.645023
0.585423
0.529008
0.47855
0.434513
0.396754
0.364928
0.338639
0.317497
0.301151
0.289298
0.281689
0.278126
0.278458
0.282577
0.29041
0.301904
0.317011
0.335654
0.357674
0.382687
0.409604
0.434068
0.448899
0.454478
0.453922
0.445713
0.42814
0.406542
0.386015
0.367726
0.352105
0.33931
0.329334
0.322042
0.317181
0.314384
0.313183
0.313036
0.313393
0.313814
0.314129
0.314555
0.315574
0.317775
0.32174
0.327986
0.33693
0.348888
0.364071
0.382574
0.404342
0.429055
0.455606
0.478643
0.491887
0.497188
0.354327
0.349536
0.342741
0.335717
0.329598
0.325121
0.322768
0.32283
0.325449
0.330634
0.338256
0.348027
0.359447
0.371678
0.383229
0.390654
0.385975
0.375831
0.364658
0.354448
0.346337
0.341073
0.339198
0.341142
0.34728
0.357962
0.373539
0.39437
0.420833
0.453314
0.492177
0.537669
0.589678
0.64657
0.693917
0.72578
0.750804
0.77279
0.792083
0.808944
0.823578
0.836146
0.846776
0.855571
0.862609
0.867953
0.871648
0.873728
0.874211
0.873107
0.870412
0.866111
0.860178
0.852574
0.843246
0.832124
0.819122
0.804129
0.787011
0.767597
0.745675
0.720975
0.693077
0.652649
0.595257
0.538253
0.487035
0.442338
0.404025
0.37174
0.345074
0.323635
0.307068
0.295068
0.287385
0.283821
0.284227
0.288495
0.296554
0.308354
0.323848
0.342966
0.365546
0.391208
0.418812
0.442371
0.455267
0.460609
0.460415
0.454101
0.438085
0.416278
0.395286
0.37654
0.360553
0.347518
0.337448
0.330219
0.325579
0.323149
0.322427
0.322796
0.32358
0.324179
0.324303
0.324294
0.324792
0.326512
0.330109
0.33613
0.345006
0.357048
0.372457
0.391308
0.41351
0.438677
0.465509
0.486727
0.497648
0.502488
0.382382
0.374135
0.364384
0.355159
0.347478
0.341947
0.338963
0.338774
0.341497
0.347133
0.355564
0.366541
0.379635
0.394071
0.408098
0.414863
0.411621
0.399028
0.385189
0.372952
0.363355
0.357021
0.354407
0.355894
0.361828
0.372542
0.388371
0.409661
0.436778
0.470096
0.509956
0.556517
0.609252
0.664719
0.705038
0.732879
0.756978
0.778259
0.797008
0.813445
0.827745
0.84005
0.850472
0.859103
0.866014
0.871264
0.874893
0.876931
0.877398
0.8763
0.873635
0.869388
0.863535
0.85604
0.846852
0.835909
0.82313
0.808417
0.791648
0.772672
0.751306
0.727323
0.70045
0.665865
0.614686
0.556534
0.503952
0.458026
0.418647
0.38546
0.358053
0.336023
0.319013
0.306718
0.298887
0.295322
0.295875
0.300441
0.30895
0.321356
0.337618
0.357661
0.381294
0.408006
0.436142
0.457015
0.467321
0.472275
0.472584
0.468328
0.456699
0.435603
0.413841
0.394211
0.377498
0.363986
0.353731
0.346632
0.342448
0.340788
0.341092
0.34261
0.344393
0.345457
0.345086
0.34406
0.343403
0.344093
0.346918
0.352478
0.361212
0.373422
0.389282
0.408817
0.431843
0.457681
0.48378
0.500184
0.508505
0.512627
0.418763
0.409282
0.395971
0.3839
0.374143
0.367173
0.363318
0.362785
0.36567
0.371956
0.381519
0.394119
0.40934
0.42613
0.440047
0.443327
0.442178
0.431424
0.41505
0.400375
0.388834
0.381038
0.377388
0.378226
0.383875
0.394651
0.410867
0.432847
0.46093
0.495467
0.53677
0.584908
0.63877
0.685998
0.717748
0.743193
0.765969
0.78626
0.804244
0.820082
0.833908
0.845836
0.855958
0.864353
0.871082
0.876195
0.879728
0.881707
0.88215
0.881062
0.87844
0.874272
0.868535
0.861197
0.852214
0.841529
0.829073
0.814762
0.798491
0.780137
0.759553
0.73656
0.710939
0.681693
0.639905
0.583007
0.529201
0.48167
0.440786
0.406292
0.377789
0.354881
0.337209
0.324471
0.316416
0.312848
0.313621
0.318631
0.327811
0.341116
0.358508
0.379903
0.405049
0.433089
0.460252
0.475864
0.484106
0.488587
0.489306
0.486378
0.479643
0.463947
0.441566
0.420759
0.40301
0.388795
0.378265
0.371369
0.367892
0.367454
0.369446
0.372963
0.376627
0.378797
0.37726
0.374333
0.371671
0.370672
0.372273
0.377118
0.385633
0.398092
0.414617
0.435135
0.459289
0.485758
0.506067
0.516777
0.523495
0.526889
0.454224
0.449764
0.435924
0.421362
0.409422
0.40079
0.395898
0.394958
0.398075
0.405188
0.416129
0.430569
0.447925
0.465628
0.473266
0.474505
0.474052
0.46912
0.453332
0.436486
0.422797
0.413274
0.408353
0.40838
0.413677
0.424558
0.441309
0.464208
0.493546
0.529588
0.572508
0.621678
0.671984
0.706896
0.732674
0.756174
0.777447
0.796566
0.813628
0.828732
0.84197
0.853427
0.863173
0.871269
0.877767
0.882705
0.886115
0.88802
0.888432
0.887356
0.88479
0.880723
0.875135
0.867999
0.859276
0.84892
0.836872
0.823065
0.807417
0.789833
0.770209
0.748425
0.724361
0.697917
0.665688
0.618017
0.562967
0.513466
0.4707
0.434536
0.404609
0.380538
0.361984
0.348651
0.340296
0.336722
0.337787
0.343387
0.353452
0.367929
0.386769
0.409867
0.436837
0.466001
0.487066
0.497612
0.504641
0.50866
0.509675
0.507814
0.503349
0.494753
0.477327
0.455976
0.437089
0.421997
0.411116
0.404491
0.401965
0.403214
0.407617
0.414191
0.420818
0.42549
0.421351
0.41544
0.409727
0.406314
0.406228
0.410114
0.418337
0.431111
0.448468
0.470032
0.494621
0.516262
0.528677
0.536445
0.541811
0.544543
0.488343
0.487756
0.481465
0.466681
0.453091
0.442748
0.436734
0.435342
0.43878
0.44687
0.459315
0.475423
0.493928
0.503683
0.506152
0.507368
0.507442
0.50639
0.498651
0.481039
0.465286
0.453933
0.447571
0.446646
0.451531
0.462578
0.480032
0.504076
0.534915
0.572605
0.61709
0.665781
0.701253
0.726533
0.749846
0.771383
0.791078
0.808929
0.824969
0.839246
0.851814
0.862728
0.872036
0.879785
0.88601
0.890743
0.894009
0.895825
0.896201
0.895141
0.892642
0.888696
0.883285
0.876387
0.867972
0.858001
0.846431
0.83321
0.818278
0.801571
0.783023
0.76257
0.740165
0.715793
0.689506
0.654779
0.604177
0.553401
0.508664
0.470578
0.438931
0.413424
0.393765
0.379686
0.37095
0.367366
0.368792
0.375124
0.386279
0.402165
0.422675
0.447593
0.475921
0.500979
0.514081
0.522265
0.528187
0.531738
0.532921
0.531853
0.528777
0.524071
0.515047
0.49874
0.479446
0.463467
0.452221
0.445931
0.444515
0.447793
0.455058
0.465238
0.473184
0.475695
0.473717
0.466351
0.457039
0.450744
0.448642
0.45141
0.459271
0.472361
0.490587
0.51247
0.532383
0.544815
0.55242
0.558516
0.562758
0.564931
0.523035
0.522753
0.522164
0.516159
0.504222
0.492643
0.485632
0.483724
0.487618
0.496708
0.51027
0.526018
0.535225
0.538164
0.540086
0.541373
0.541947
0.541822
0.540807
0.532616
0.515989
0.503129
0.495276
0.493292
0.497695
0.508993
0.527347
0.552709
0.585173
0.624032
0.66836
0.701556
0.725472
0.747746
0.768794
0.788432
0.806553
0.823105
0.838073
0.851469
0.863313
0.873633
0.882461
0.889823
0.895745
0.900249
0.903354
0.90507
0.905406
0.904364
0.901942
0.898132
0.892922
0.886293
0.878222
0.868683
0.857642
0.845064
0.830913
0.815149
0.797742
0.778669
0.757933
0.735572
0.711688
0.686289
0.651073
0.601345
0.554944
0.514856
0.48125
0.45404
0.433057
0.418081
0.408884
0.40528
0.407129
0.41433
0.426769
0.444239
0.466441
0.492733
0.519416
0.534295
0.542509
0.549179
0.554105
0.557184
0.558416
0.557899
0.555834
0.552524
0.548361
0.540791
0.528339
0.512348
0.501112
0.495258
0.494852
0.499902
0.508839
0.514654
0.517342
0.517425
0.517965
0.515873
0.510761
0.502688
0.498848
0.500593
0.50799
0.520998
0.539342
0.554631
0.565067
0.571755
0.577671
0.58244
0.585776
0.58749
0.558007
0.557946
0.557901
0.557991
0.554399
0.548147
0.541272
0.538772
0.543287
0.552671
0.562043
0.568675
0.570932
0.572889
0.574655
0.576093
0.577149
0.577858
0.578338
0.578201
0.572164
0.560197
0.551362
0.548352
0.55215
0.563825
0.583326
0.609867
0.643397
0.679694
0.708412
0.729758
0.750295
0.770184
0.789151
0.806999
0.823597
0.838862
0.852751
0.865243
0.876334
0.886033
0.89435
0.9013
0.906898
0.911156
0.914086
0.915695
0.915988
0.914967
0.912629
0.908969
0.903977
0.89764
0.889942
0.880865
0.870389
0.858493
0.845159
0.830372
0.814126
0.796432
0.777325
0.756875
0.735201
0.712478
0.688562
0.655179
0.609229
0.567676
0.532029
0.502885
0.480383
0.464379
0.454646
0.451005
0.453318
0.461494
0.475395
0.49449
0.51788
0.543409
0.558371
0.565936
0.572472
0.577836
0.581868
0.584478
0.585661
0.585494
0.584136
0.581828
0.578886
0.575703
0.571032
0.563525
0.555583
0.55053
0.55033
0.552491
0.554608
0.554521
0.553751
0.553739
0.554444
0.555935
0.55671
0.555416
0.554293
0.555755
0.562377
0.572341
0.582012
0.588956
0.594293
0.599462
0.604068
0.607798
0.610416
0.611764
0.593042
0.593122
0.593348
0.593859
0.594888
0.594807
0.59354
0.593568
0.596212
0.60019
0.603165
0.604408
0.606033
0.607802
0.609553
0.611193
0.6127
0.614123
0.615594
0.617334
0.619325
0.617455
0.613842
0.610713
0.613851
0.626058
0.646768
0.672739
0.698543
0.721007
0.739202
0.757542
0.775764
0.793545
0.810627
0.826817
0.841973
0.855997
0.868825
0.880416
0.890749
0.899813
0.907606
0.91413
0.91939
0.923391
0.926138
0.927635
0.927885
0.926887
0.924639
0.921138
0.916377
0.910348
0.903041
0.894447
0.884556
0.873361
0.860858
0.847052
0.831958
0.815609
0.79806
0.779402
0.759764
0.739322
0.718304
0.696674
0.667131
0.62827
0.591353
0.560238
0.536147
0.519072
0.508746
0.505038
0.507783
0.516904
0.532342
0.552394
0.573443
0.586452
0.592783
0.598526
0.603605
0.607827
0.611052
0.613199
0.614257
0.614279
0.613387
0.611765
0.609651
0.607331
0.605121
0.603217
0.600001
0.596967
0.595257
0.593708
0.591406
0.589994
0.589318
0.589336
0.590039
0.591463
0.593681
0.596875
0.599382
0.602316
0.606854
0.611802
0.61548
0.619491
0.623685
0.627732
0.631341
0.634267
0.636325
0.637386
0.627996
0.628153
0.62851
0.62915
0.630185
0.631691
0.633707
0.635459
0.63653
0.637173
0.638121
0.639415
0.640989
0.642734
0.644563
0.646427
0.648332
0.650341
0.652582
0.65526
0.658674
0.663251
0.666838
0.670543
0.677524
0.689402
0.70512
0.722061
0.737918
0.753213
0.76918
0.785442
0.801676
0.817603
0.832995
0.847668
0.861481
0.874329
0.886136
0.896849
0.906433
0.914865
0.922131
0.928224
0.93314
0.936879
0.93944
0.940824
0.941029
0.940056
0.937903
0.934567
0.930045
0.924332
0.917427
0.909325
0.900027
0.889536
0.877861
0.865021
0.851046
0.835983
0.819905
0.802909
0.78513
0.766741
0.74796
0.729052
0.71024
0.686299
0.657177
0.625318
0.600234
0.582326
0.571378
0.567564
0.570525
0.579923
0.596095
0.609655
0.618769
0.623146
0.627553
0.63178
0.635595
0.638816
0.641313
0.64301
0.643887
0.643978
0.643369
0.642194
0.640623
0.638849
0.637059
0.635374
0.633775
0.632008
0.629743
0.627594
0.625869
0.624731
0.624191
0.624249
0.624911
0.626197
0.628133
0.630736
0.633887
0.637295
0.640349
0.643335
0.646504
0.649844
0.653222
0.65644
0.659295
0.661607
0.663231
0.664068
0.662793
0.662983
0.663388
0.664048
0.665008
0.666275
0.667774
0.669225
0.670435
0.671518
0.672725
0.674142
0.675774
0.677583
0.679536
0.681621
0.683862
0.686326
0.689131
0.692451
0.69652
0.701629
0.708092
0.716235
0.725428
0.735566
0.746439
0.758115
0.770955
0.784629
0.798861
0.81337
0.827894
0.842198
0.856082
0.869378
0.881953
0.893701
0.90454
0.91441
0.923268
0.931082
0.937829
0.943494
0.948069
0.951546
0.95392
0.95519
0.955352
0.954406
0.952349
0.949182
0.944902
0.939511
0.933009
0.9254
0.916691
0.906895
0.896029
0.884124
0.87122
0.857374
0.842667
0.827199
0.811106
0.794553
0.777742
0.760915
0.744355
0.728395
0.711091
0.691019
0.670194
0.652575
0.641045
0.637086
0.639609
0.645346
0.651157
0.654906
0.65691
0.659562
0.662501
0.665446
0.668178
0.670528
0.672374
0.673642
0.674304
0.674377
0.673917
0.673018
0.671797
0.670383
0.668892
0.667396
0.665898
0.664322
0.662631
0.661041
0.659746
0.658869
0.658465
0.658557
0.65916
0.66028
0.661916
0.664035
0.666534
0.669235
0.671917
0.674604
0.677357
0.680158
0.68292
0.685512
0.687793
0.689633
0.690923
0.691588
0.697399
0.697599
0.698009
0.698648
0.699525
0.700625
0.701887
0.703193
0.704465
0.70574
0.707117
0.708656
0.71038
0.712288
0.714377
0.716658
0.719167
0.721969
0.725166
0.728894
0.733325
0.738648
0.745037
0.752588
0.761138
0.770491
0.780599
0.791479
0.803158
0.815486
0.828266
0.841285
0.854332
0.867213
0.879756
0.891811
0.903253
0.913981
0.923913
0.932985
0.941148
0.948365
0.954608
0.959856
0.964095
0.967314
0.969505
0.970662
0.970783
0.969865
0.967907
0.964908
0.960872
0.955799
0.949698
0.942574
0.934443
0.925322
0.915238
0.904226
0.892335
0.879628
0.866187
0.852116
0.837543
0.822622
0.80754
0.792511
0.777784
0.76364
0.750395
0.738334
0.725545
0.713413
0.703915
0.698329
0.696189
0.695474
0.693954
0.693619
0.694317
0.695692
0.697443
0.699326
0.701143
0.702743
0.704012
0.70488
0.70531
0.705307
0.704905
0.704164
0.703166
0.701994
0.700728
0.699422
0.698097
0.696752
0.695416
0.694195
0.693205
0.692536
0.692242
0.692356
0.692891
0.693849
0.695216
0.696952
0.698981
0.701193
0.703481
0.705808
0.708163
0.710512
0.712786
0.714894
0.716733
0.718209
0.719241
0.719772
0.731806
0.732004
0.732403
0.733008
0.733818
0.734814
0.735958
0.737195
0.738491
0.739861
0.741346
0.742985
0.744802
0.746811
0.749026
0.751469
0.75418
0.757218
0.760668
0.764635
0.769238
0.7746
0.780821
0.787938
0.795892
0.804594
0.813988
0.824042
0.834713
0.845892
0.857433
0.86917
0.880935
0.892567
0.903918
0.914856
0.925267
0.935057
0.944145
0.952468
0.959974
0.966622
0.972382
0.977228
0.981142
0.98411
0.986122
0.987172
0.987253
0.986364
0.984504
0.981674
0.977876
0.973118
0.967407
0.960757
0.953184
0.944712
0.935373
0.925207
0.914266
0.902616
0.890338
0.877535
0.864326
0.850853
0.837284
0.823806
0.81063
0.797984
0.786106
0.775217
0.765479
0.757044
0.749725
0.74347
0.738384
0.734726
0.732444
0.731297
0.731048
0.731445
0.732253
0.73327
0.734327
0.735289
0.736054
0.736553
0.73675
0.736637
0.73623
0.735569
0.734706
0.7337
0.732605
0.731467
0.730315
0.729175
0.728086
0.727117
0.726342
0.725826
0.725613
0.725733
0.726198
0.727008
0.728146
0.729577
0.731244
0.733076
0.735005
0.736982
0.738975
0.74094
0.74282
0.744544
0.746037
0.747229
0.74806
0.748487
0.766016
0.766207
0.76659
0.767164
0.767924
0.768855
0.769935
0.771137
0.772445
0.773866
0.775421
0.777136
0.779032
0.781128
0.783446
0.786011
0.788864
0.792056
0.795654
0.799738
0.804391
0.809695
0.815707
0.822451
0.829899
0.838004
0.846716
0.855989
0.865759
0.875936
0.886402
0.897026
0.907671
0.918202
0.928492
0.938427
0.947904
0.956834
0.965143
0.972768
0.979657
0.985769
0.991069
0.995531
0.999134
1.00186
1.0037
1.00465
1.00469
1.00383
1.00207
0.999406
0.995842
0.991389
0.986056
0.979861
0.972824
0.96497
0.956336
0.946963
0.936906
0.92623
0.915016
0.903359
0.891371
0.879182
0.866937
0.854799
0.842946
0.831561
0.820828
0.810911
0.801939
0.793993
0.787053
0.781117
0.776233
0.772474
0.769799
0.768076
0.767133
0.766786
0.766855
0.767175
0.767606
0.768031
0.76836
0.768529
0.768501
0.768259
0.76781
0.767175
0.76639
0.765493
0.764526
0.763524
0.76252
0.761545
0.760637
0.759845
0.759221
0.758812
0.758652
0.758765
0.759161
0.759839
0.760784
0.761965
0.763342
0.764864
0.766478
0.768142
0.769815
0.771454
0.773009
0.774424
0.775642
0.776611
0.777283
0.777628
0.800035
0.800219
0.800586
0.801135
0.801859
0.802748
0.80379
0.804972
0.806285
0.807736
0.809337
0.811106
0.813062
0.815225
0.817617
0.820267
0.823209
0.826487
0.830155
0.834271
0.838895
0.84408
0.849863
0.856258
0.863249
0.870806
0.878885
0.887437
0.896399
0.90569
0.915214
0.924862
0.934521
0.944077
0.953423
0.962456
0.971086
0.979233
0.986825
0.993804
1.00012
1.00573
1.01059
1.01469
1.018
1.0205
1.02218
1.02303
1.02304
1.02221
1.02054
1.01804
1.0147
1.01054
1.00557
0.999808
0.993279
0.98601
0.978036
0.969403
0.960164
0.950383
0.940137
0.929515
0.918619
0.907565
0.896482
0.885509
0.874794
0.864486
0.854732
0.84566
0.837373
0.829936
0.823377
0.81771
0.812959
0.809136
0.806204
0.804073
0.802622
0.801712
0.801204
0.80097
0.80089
0.800869
0.800826
0.800703
0.800464
0.800089
0.799575
0.798933
0.798185
0.797357
0.796481
0.795584
0.794697
0.793849
0.793073
0.792406
0.791886
0.791547
0.791417
0.791513
0.791843
0.792404
0.793184
0.794158
0.795296
0.796558
0.797903
0.799293
0.800689
0.802051
0.803337
0.804501
0.805498
0.806287
0.806834
0.807114
0.83387
0.834047
0.834401
0.834929
0.835627
0.836489
0.837507
0.838674
0.839989
0.841456
0.843084
0.844889
0.846885
0.849092
0.851532
0.85423
0.857217
0.860529
0.864208
0.868297
0.872838
0.877867
0.883408
0.889467
0.896035
0.903085
0.910581
0.918475
0.926709
0.935212
0.943902
0.952688
0.961474
0.970164
0.978665
0.986888
0.994752
1.00218
1.00912
1.0155
1.02129
1.02642
1.03089
1.03464
1.03768
1.03996
1.04149
1.04224
1.04222
1.04143
1.03985
1.0375
1.03438
1.0305
1.02587
1.02052
1.01447
1.00775
1.0004
0.992449
0.983963
0.975001
0.965634
0.955944
0.946024
0.935977
0.925916
0.91596
0.906233
0.896859
0.887954
0.879625
0.871954
0.865003
0.858807
0.853388
0.848756
0.844908
0.841808
0.839392
0.837568
0.836234
0.835282
0.834609
0.834118
0.833727
0.83337
0.832994
0.832564
0.832057
0.831467
0.830797
0.830059
0.829271
0.828455
0.827635
0.826835
0.82608
0.825399
0.824819
0.824369
0.824075
0.823957
0.824028
0.824293
0.82475
0.825388
0.826189
0.827125
0.828168
0.829284
0.830438
0.831597
0.832726
0.833787
0.834744
0.835561
0.836206
0.836652
0.83688
0.867527
0.867699
0.868042
0.868554
0.869232
0.870073
0.871073
0.872229
0.873541
0.875014
0.876656
0.878479
0.880497
0.882727
0.885189
0.887904
0.890899
0.894204
0.897851
0.90187
0.906293
0.911143
0.916434
0.922169
0.928338
0.934919
0.941878
0.949172
0.95675
0.964547
0.972494
0.980513
0.988522
0.99644
1.00418
1.01168
1.01885
1.02563
1.03197
1.0378
1.04309
1.0478
1.05189
1.05532
1.0581
1.06018
1.06156
1.06223
1.06219
1.06142
1.05993
1.05773
1.05481
1.0512
1.0469
1.04194
1.03634
1.03013
1.02335
1.01603
1.00824
1.00002
0.991453
0.982603
0.973556
0.964404
0.955245
0.946182
0.93732
0.928761
0.920602
0.91293
0.905817
0.899315
0.893462
0.888277
0.883769
0.87993
0.87673
0.874117
0.872025
0.870375
0.869082
0.868064
0.867244
0.866553
0.865934
0.86534
0.864739
0.864109
0.863439
0.862728
0.861982
0.861212
0.860434
0.859666
0.858927
0.858239
0.857623
0.857102
0.856697
0.856427
0.856307
0.856348
0.856551
0.856916
0.857431
0.858082
0.858849
0.859705
0.860625
0.861578
0.862536
0.863467
0.864341
0.865127
0.865797
0.866324
0.866689
0.866874
0.901012
0.901179
0.901513
0.902012
0.902675
0.903499
0.904483
0.905628
0.906933
0.908404
0.910048
0.911875
0.913897
0.91613
0.918591
0.921297
0.924272
0.927538
0.93112
0.935041
0.939321
0.943976
0.949015
0.954437
0.96023
0.966374
0.97284
0.979587
0.98657
0.993733
1.00101
1.00835
1.01566
1.02289
1.02995
1.03679
1.04334
1.04953
1.05532
1.06065
1.06549
1.06979
1.07353
1.07667
1.0792
1.0811
1.08235
1.08294
1.08287
1.08213
1.08073
1.07866
1.07595
1.07258
1.06859
1.064
1.05882
1.05308
1.04683
1.0401
1.03294
1.0254
1.01755
1.00946
1.00119
0.992838
0.984479
0.976205
0.968103
0.960262
0.952763
0.945677
0.939067
0.932979
0.927447
0.92249
0.918115
0.914314
0.911063
0.908322
0.906041
0.904158
0.902607
0.901322
0.900241
0.899307
0.898471
0.897693
0.896944
0.896201
0.895453
0.894695
0.893929
0.893161
0.892403
0.891667
0.890969
0.890325
0.889752
0.889268
0.888889
0.888628
0.888498
0.888504
0.888649
0.88893
0.889338
0.889861
0.890482
0.89118
0.891932
0.892714
0.893501
0.894265
0.894982
0.895627
0.896175
0.896606
0.896903
0.897054
0.93433
0.934493
0.934819
0.935307
0.935956
0.936765
0.937734
0.938865
0.940158
0.94162
0.943255
0.945074
0.947087
0.949306
0.951746
0.954423
0.957354
0.960557
0.96405
0.967851
0.971973
0.976426
0.981214
0.986332
0.991771
0.997509
1.00352
1.00977
1.01621
1.0228
1.02948
1.0362
1.04289
1.0495
1.05595
1.0622
1.06817
1.07383
1.07912
1.084
1.08842
1.09235
1.09577
1.09864
1.10094
1.10267
1.10379
1.10431
1.10422
1.10351
1.10219
1.10026
1.09772
1.0946
1.0909
1.08664
1.08185
1.07655
1.07079
1.06459
1.05801
1.05109
1.0439
1.03648
1.02892
1.02128
1.01363
1.00605
0.998627
0.991422
0.984509
0.977949
0.971795
0.966087
0.960856
0.95612
0.951886
0.948147
0.944884
0.942069
0.939659
0.937608
0.935865
0.934376
0.933091
0.931962
0.93095
0.930018
0.929141
0.928298
0.927477
0.92667
0.925877
0.925101
0.924349
0.923631
0.922957
0.92234
0.921793
0.92133
0.920962
0.9207
0.920551
0.920521
0.920611
0.920816
0.92113
0.921542
0.922038
0.9226
0.92321
0.923846
0.924487
0.925111
0.925697
0.926222
0.926669
0.927021
0.927263
0.927386
0.967485
0.967645
0.967963
0.96844
0.969076
0.96987
0.970824
0.971938
0.973216
0.974661
0.97628
0.97808
0.98007
0.982261
0.984665
0.987294
0.990163
0.993285
0.996673
1.00034
1.00429
1.00854
1.01308
1.01791
1.02301
1.02837
1.03396
1.03975
1.0457
1.05177
1.05792
1.06408
1.07021
1.07626
1.08216
1.08787
1.09333
1.0985
1.10334
1.10779
1.11183
1.11543
1.11855
1.12117
1.12327
1.12483
1.12584
1.1263
1.12618
1.12551
1.12426
1.12245
1.12009
1.11719
1.11375
1.10981
1.10538
1.10049
1.09518
1.08947
1.08342
1.07706
1.07046
1.06366
1.05672
1.04972
1.04271
1.03575
1.02893
1.02229
1.0159
1.00982
1.00408
0.998718
0.993771
0.98925
0.985162
0.981503
0.97826
0.975408
0.972918
0.970752
0.968869
0.967226
0.965784
0.964502
0.963347
0.962289
0.961304
0.960374
0.959485
0.958631
0.957808
0.957017
0.956262
0.955549
0.954887
0.954284
0.953751
0.953296
0.952929
0.952658
0.952487
0.95242
0.952456
0.952593
0.952824
0.953139
0.953527
0.953973
0.954461
0.954973
0.955491
0.955996
0.95647
0.956897
0.95726
0.957545
0.957741
0.957841
1.00048
1.00064
1.00095
1.00142
1.00204
1.00282
1.00375
1.00485
1.00611
1.00753
1.00912
1.0109
1.01285
1.015
1.01736
1.01993
1.02272
1.02575
1.02902
1.03254
1.03632
1.04036
1.04466
1.04921
1.054
1.059
1.0642
1.06957
1.07508
1.08068
1.08633
1.09199
1.09762
1.10315
1.10856
1.11378
1.11878
1.12351
1.12793
1.132
1.1357
1.13898
1.14183
1.14422
1.14613
1.14754
1.14845
1.14884
1.14872
1.14807
1.14689
1.1452
1.143
1.1403
1.13712
1.13347
1.12937
1.12486
1.11996
1.1147
1.10913
1.10328
1.09721
1.09097
1.0846
1.07817
1.07172
1.06533
1.05904
1.05291
1.04699
1.04134
1.03597
1.03094
1.02626
1.02195
1.01801
1.01444
1.01124
1.00839
1.00585
1.00361
1.00163
0.999877
0.998315
0.996916
0.995648
0.994487
0.993413
0.992408
0.99146
0.990561
0.989707
0.988897
0.988133
0.987418
0.986758
0.986159
0.985629
0.985174
0.984801
0.984514
0.984318
0.984214
0.984201
0.984276
0.984433
0.984664
0.984959
0.985304
0.985688
0.986093
0.986506
0.986911
0.987292
0.987635
0.987928
0.988157
0.988316
0.988396
1.03332
1.03347
1.03378
1.03423
1.03484
1.03561
1.03652
1.0376
1.03883
1.04023
1.04179
1.04353
1.04544
1.04754
1.04984
1.05233
1.05504
1.05796
1.06111
1.06449
1.06809
1.07193
1.07599
1.08027
1.08476
1.08944
1.09428
1.09926
1.10435
1.10952
1.11473
1.11994
1.12511
1.13019
1.13514
1.13993
1.1445
1.14883
1.15287
1.1566
1.15997
1.16297
1.16557
1.16774
1.16948
1.17076
1.17157
1.17191
1.17177
1.17115
1.17005
1.16847
1.16642
1.16391
1.16095
1.15757
1.15378
1.14961
1.14509
1.14024
1.13511
1.12973
1.12415
1.1184
1.11254
1.10662
1.10069
1.0948
1.08899
1.08332
1.07783
1.07256
1.06754
1.06281
1.05838
1.05427
1.05048
1.04702
1.04388
1.04104
1.0385
1.03621
1.03417
1.03233
1.03069
1.0292
1.02784
1.0266
1.02545
1.02438
1.02338
1.02245
1.02156
1.02073
1.01995
1.01923
1.01857
1.01797
1.01743
1.01697
1.01659
1.01628
1.01606
1.01592
1.01586
1.01588
1.01597
1.01613
1.01634
1.0166
1.01689
1.01721
1.01753
1.01785
1.01815
1.01843
1.01866
1.01884
1.01897
1.01903
1.06601
1.06616
1.06645
1.0669
1.06749
1.06824
1.06914
1.07019
1.07139
1.07276
1.07428
1.07598
1.07784
1.07989
1.08211
1.08453
1.08714
1.08996
1.09297
1.0962
1.09963
1.10327
1.1071
1.11113
1.11534
1.1197
1.12421
1.12884
1.13356
1.13833
1.14314
1.14793
1.15268
1.15735
1.16189
1.16628
1.17047
1.17443
1.17813
1.18154
1.18462
1.18736
1.18973
1.19171
1.19329
1.19444
1.19517
1.19546
1.19531
1.19471
1.19367
1.1922
1.19029
1.18795
1.18521
1.18208
1.17858
1.17472
1.17055
1.16607
1.16134
1.15638
1.15124
1.14595
1.14055
1.13509
1.12962
1.12418
1.1188
1.11355
1.10844
1.10353
1.09883
1.09437
1.09018
1.08626
1.08263
1.07928
1.07621
1.07341
1.07087
1.06857
1.06649
1.06461
1.0629
1.06134
1.05992
1.05862
1.05741
1.05629
1.05525
1.05427
1.05336
1.05251
1.05172
1.05099
1.05031
1.04971
1.04916
1.04869
1.04829
1.04797
1.04772
1.04754
1.04744
1.04741
1.04744
1.04753
1.04767
1.04786
1.04807
1.04831
1.04856
1.04881
1.04904
1.04925
1.04944
1.04958
1.04968
1.04973
1.09855
1.09869
1.09898
1.09942
1.1
1.10072
1.1016
1.10262
1.10379
1.10512
1.10661
1.10826
1.11007
1.11205
1.1142
1.11653
1.11905
1.12175
1.12463
1.1277
1.13096
1.1344
1.13802
1.14181
1.14575
1.14983
1.15403
1.15833
1.1627
1.16712
1.17155
1.17597
1.18034
1.18463
1.1888
1.19282
1.19667
1.2003
1.20368
1.2068
1.20962
1.21212
1.21428
1.21608
1.21751
1.21856
1.21921
1.21945
1.21929
1.21872
1.21774
1.21636
1.21458
1.21241
1.20987
1.20696
1.20372
1.20015
1.19629
1.19217
1.1878
1.18322
1.17848
1.17359
1.16861
1.16358
1.15852
1.15348
1.14851
1.14362
1.13887
1.13428
1.12987
1.12567
1.1217
1.11797
1.11449
1.11126
1.10827
1.10553
1.10301
1.10071
1.09862
1.0967
1.09495
1.09335
1.09189
1.09053
1.08928
1.08812
1.08705
1.08604
1.0851
1.08423
1.08343
1.08268
1.082
1.08138
1.08082
1.08034
1.07992
1.07957
1.0793
1.07909
1.07895
1.07887
1.07885
1.07888
1.07897
1.07908
1.07923
1.07941
1.07959
1.07977
1.07995
1.08012
1.08026
1.08037
1.08044
1.08048
1.13094
1.13108
1.13137
1.13179
1.13235
1.13306
1.13391
1.1349
1.13604
1.13733
1.13877
1.14037
1.14212
1.14404
1.14611
1.14835
1.15077
1.15335
1.1561
1.15902
1.16211
1.16537
1.16878
1.17233
1.17602
1.17983
1.18375
1.18774
1.19179
1.19588
1.19998
1.20405
1.20808
1.21202
1.21586
1.21955
1.22308
1.2264
1.2295
1.23236
1.23493
1.23722
1.23919
1.24083
1.24213
1.24307
1.24365
1.24385
1.24368
1.24313
1.24221
1.24092
1.23926
1.23724
1.23488
1.23219
1.22918
1.22588
1.22231
1.2185
1.21446
1.21023
1.20585
1.20134
1.19674
1.19208
1.1874
1.18273
1.17811
1.17357
1.16914
1.16484
1.1607
1.15675
1.15299
1.14944
1.1461
1.14299
1.14009
1.13741
1.13493
1.13265
1.13056
1.12863
1.12686
1.12524
1.12373
1.12235
1.12107
1.11987
1.11877
1.11774
1.11678
1.11589
1.11507
1.11431
1.11362
1.11298
1.11242
1.11192
1.11148
1.11111
1.11081
1.11057
1.11039
1.11027
1.11021
1.11019
1.11022
1.11028
1.11037
1.11049
1.11062
1.11075
1.11088
1.111
1.1111
1.11119
1.11124
1.11127
1.1632
1.16333
1.16361
1.16402
1.16456
1.16525
1.16607
1.16704
1.16814
1.16939
1.17079
1.17233
1.17402
1.17586
1.17786
1.18001
1.18231
1.18478
1.1874
1.19018
1.1931
1.19617
1.19938
1.20272
1.20618
1.20974
1.21338
1.21709
1.22086
1.22464
1.22843
1.23219
1.2359
1.23953
1.24306
1.24645
1.24968
1.25273
1.25558
1.25819
1.26054
1.26263
1.26443
1.26592
1.2671
1.26794
1.26846
1.26862
1.26845
1.26792
1.26705
1.26584
1.26429
1.26241
1.26022
1.25772
1.25494
1.25188
1.24858
1.24505
1.24131
1.23741
1.23335
1.22918
1.22492
1.22061
1.21627
1.21193
1.20764
1.20341
1.19927
1.19524
1.19136
1.18763
1.18407
1.18069
1.1775
1.1745
1.1717
1.16909
1.16666
1.16441
1.16233
1.16041
1.15863
1.15699
1.15547
1.15406
1.15275
1.15154
1.15041
1.14936
1.14839
1.14749
1.14665
1.14588
1.14517
1.14453
1.14395
1.14343
1.14298
1.14259
1.14226
1.14199
1.14178
1.14162
1.14152
1.14146
1.14144
1.14145
1.14149
1.14156
1.14164
1.14172
1.14181
1.1419
1.14197
1.14203
1.14207
1.14209
1.19532
1.19545
1.19571
1.19611
1.19664
1.1973
1.1981
1.19903
1.2001
1.2013
1.20265
1.20413
1.20576
1.20753
1.20944
1.2115
1.21371
1.21605
1.21855
1.22118
1.22394
1.22684
1.22986
1.23299
1.23623
1.23955
1.24295
1.2464
1.24989
1.2534
1.2569
1.26038
1.2638
1.26714
1.27039
1.27351
1.27648
1.27927
1.28188
1.28427
1.28643
1.28833
1.28997
1.29133
1.29239
1.29316
1.29361
1.29374
1.29356
1.29306
1.29224
1.2911
1.28965
1.28791
1.28587
1.28355
1.28096
1.27813
1.27507
1.2718
1.26834
1.26472
1.26097
1.2571
1.25316
1.24915
1.24513
1.2411
1.2371
1.23315
1.22928
1.22551
1.22185
1.21833
1.21496
1.21175
1.2087
1.20582
1.20311
1.20058
1.19821
1.196
1.19395
1.19204
1.19026
1.18862
1.18709
1.18567
1.18435
1.18312
1.18198
1.18092
1.17993
1.17901
1.17816
1.17738
1.17666
1.176
1.17541
1.17488
1.17441
1.174
1.17365
1.17335
1.17311
1.17292
1.17278
1.17268
1.17262
1.17259
1.17259
1.17261
1.17265
1.1727
1.17275
1.17281
1.17285
1.17289
1.17292
1.17294
1.2273
1.22743
1.22769
1.22807
1.22858
1.22922
1.22999
1.23089
1.23192
1.23308
1.23437
1.2358
1.23736
1.23906
1.24089
1.24285
1.24495
1.24719
1.24955
1.25204
1.25465
1.25738
1.26022
1.26316
1.26619
1.26929
1.27246
1.27567
1.27891
1.28216
1.2854
1.28861
1.29177
1.29486
1.29784
1.30071
1.30344
1.30601
1.3084
1.31059
1.31256
1.3143
1.31579
1.31703
1.31799
1.31868
1.31907
1.31918
1.319
1.31851
1.31774
1.31667
1.31532
1.31369
1.31179
1.30963
1.30723
1.30461
1.30177
1.29873
1.29553
1.29218
1.2887
1.28511
1.28145
1.27773
1.27399
1.27024
1.26651
1.26282
1.2592
1.25566
1.25222
1.24889
1.2457
1.24264
1.23973
1.23697
1.23436
1.2319
1.22959
1.22743
1.22541
1.22353
1.22177
1.22013
1.2186
1.21718
1.21585
1.21462
1.21347
1.21239
1.21139
1.21047
1.20961
1.20882
1.20809
1.20742
1.20682
1.20627
1.20578
1.20535
1.20498
1.20466
1.20439
1.20417
1.204
1.20386
1.20377
1.2037
1.20367
1.20365
1.20365
1.20367
1.20369
1.20372
1.20375
1.20377
1.20378
1.20379
1.25916
1.25928
1.25953
1.2599
1.26039
1.26101
1.26175
1.26261
1.2636
1.26472
1.26596
1.26733
1.26883
1.27045
1.2722
1.27407
1.27607
1.27819
1.28043
1.28278
1.28525
1.28782
1.29049
1.29324
1.29608
1.29897
1.30192
1.30491
1.30792
1.31094
1.31394
1.31691
1.31982
1.32266
1.32542
1.32806
1.33056
1.33292
1.33511
1.33712
1.33892
1.34051
1.34188