/*--------------------------------*- C++ -*----------------------------------*\
| =========                 |                                                 |
| \\      /  F ield         | OpenFOAM: The Open Source CFD Toolbox           |
|  \\    /   O peration     | Version:  2406                                  |
|   \\  /    A nd           | Website:  www.openfoam.com                      |
|    \\/     M anipulation  |                                                 |
\*---------------------------------------------------------------------------*/
FoamFile
{
    version     2.0;
    format      ascii;
    arch        "LSB;label=32;scalar=64";
    class       volScalarField;
    location    "4.8";
    object      C_0_0;
}
// * * * * * * * * * * * * * * * * * * * * * * * * * * * * * * * * * * * * * //

dimensions      [1 -3 0 0 0 0 0];

internalField   nonuniform List<scalar> 
14400
(
0.34105
0.337631
0.332242
0.326333
0.321018
0.317086
0.315057
0.315251
0.317827
0.322793
0.330011
0.339162
0.349682
0.360619
0.370351
0.376081
0.37246
0.364322
0.354713
0.345614
0.33829
0.333582
0.332087
0.334269
0.340522
0.351207
0.366683
0.387317
0.413491
0.445595
0.484002
0.528989
0.580509
0.637118
0.687874
0.722847
0.74832
0.770656
0.79022
0.807292
0.82209
0.834788
0.84552
0.854394
0.861493
0.866882
0.870608
0.872706
0.873197
0.872089
0.869379
0.865051
0.859079
0.851421
0.842023
0.830814
0.8177
0.802569
0.785276
0.765643
0.743444
0.718394
0.689502
0.64579
0.586211
0.529748
0.479227
0.435129
0.397314
0.36544
0.339108
0.317931
0.301557
0.289683
0.282059
0.278487
0.278817
0.28294
0.290783
0.302293
0.31742
0.336091
0.358144
0.383195
0.41015
0.434613
0.449423
0.454999
0.454443
0.446247
0.428668
0.407036
0.386474
0.368156
0.35251
0.339695
0.329705
0.322404
0.31754
0.314744
0.313547
0.313405
0.313766
0.314189
0.314503
0.314925
0.315939
0.318135
0.322101
0.328349
0.337302
0.349274
0.364476
0.383004
0.404801
0.429547
0.456132
0.479164
0.492386
0.497684
0.354809
0.349998
0.343179
0.336134
0.329997
0.325509
0.323149
0.323212
0.325838
0.331036
0.338678
0.348476
0.35993
0.3722
0.383794
0.391241
0.386574
0.376399
0.365195
0.354957
0.346825
0.341548
0.339668
0.341613
0.347759
0.358458
0.374059
0.394922
0.421425
0.453953
0.49287
0.538421
0.590488
0.647419
0.694666
0.726444
0.751455
0.773429
0.792712
0.809565
0.824191
0.836753
0.847379
0.856169
0.863203
0.868543
0.872236
0.874314
0.874796
0.873691
0.870996
0.866696
0.860764
0.853162
0.843835
0.832717
0.819718
0.80473
0.787617
0.768209
0.746296
0.721606
0.693729
0.653398
0.596084
0.539012
0.487725
0.442965
0.404596
0.372261
0.345553
0.324078
0.307482
0.29546
0.287763
0.28419
0.284594
0.288866
0.296935
0.308751
0.324267
0.343412
0.366024
0.391723
0.419361
0.442912
0.455788
0.461127
0.460933
0.454626
0.438616
0.41678
0.395755
0.376979
0.360965
0.34791
0.337827
0.33059
0.325947
0.323519
0.322803
0.323179
0.32397
0.324571
0.324693
0.324678
0.325168
0.326883
0.330478
0.336502
0.345386
0.357442
0.372871
0.391746
0.413978
0.439176
0.466034
0.487238
0.498143
0.502981
0.382913
0.374629
0.364846
0.355596
0.347895
0.34235
0.33936
0.339171
0.341901
0.34755
0.356002
0.367005
0.380133
0.394607
0.408668
0.415425
0.41221
0.399613
0.385743
0.373479
0.363861
0.357514
0.354894
0.356382
0.362326
0.373057
0.38891
0.410233
0.43739
0.470758
0.510674
0.557294
0.610078
0.665531
0.705749
0.73354
0.757625
0.778895
0.797634
0.814063
0.828357
0.840655
0.851072
0.859699
0.866607
0.871853
0.87548
0.877517
0.877982
0.876884
0.874218
0.869972
0.86412
0.856626
0.84744
0.8365
0.823725
0.809016
0.792251
0.773282
0.751923
0.727948
0.701084
0.66658
0.615507
0.557306
0.504662
0.458674
0.419239
0.386001
0.35855
0.336483
0.319444
0.307127
0.299281
0.295707
0.296258
0.300828
0.309348
0.321771
0.338056
0.358126
0.381792
0.408537
0.436697
0.457544
0.467837
0.472789
0.473097
0.46884
0.457227
0.436123
0.414328
0.394667
0.377927
0.364395
0.354125
0.347019
0.342833
0.341177
0.341491
0.343021
0.344816
0.345884
0.345508
0.344471
0.343802
0.344483
0.347304
0.352866
0.361607
0.373832
0.389712
0.409273
0.432329
0.458195
0.4843
0.50068
0.508996
0.513116
0.419261
0.4098
0.396461
0.384363
0.374585
0.3676
0.363738
0.363205
0.366097
0.372396
0.38198
0.394606
0.40986
0.426687
0.440599
0.443872
0.442735
0.432024
0.415629
0.400928
0.389367
0.381557
0.377902
0.378742
0.3844
0.395193
0.411435
0.433448
0.461574
0.496162
0.537524
0.585729
0.639645
0.686744
0.718411
0.743844
0.76661
0.78689
0.804867
0.820697
0.834517
0.846439
0.856556
0.864947
0.871673
0.876782
0.880313
0.882291
0.882732
0.881643
0.879021
0.874853
0.869117
0.861781
0.8528
0.842118
0.829665
0.815358
0.799091
0.780743
0.760165
0.73718
0.711567
0.682367
0.640684
0.583796
0.529943
0.482352
0.44141
0.406863
0.378315
0.355368
0.337665
0.324904
0.316832
0.313256
0.314027
0.319043
0.328234
0.341558
0.358973
0.380397
0.405576
0.433649
0.4608
0.476379
0.484618
0.489096
0.489813
0.486883
0.480154
0.464481
0.442078
0.421241
0.403464
0.389227
0.378683
0.371779
0.368302
0.367871
0.369877
0.373415
0.3771
0.37928
0.377733
0.374785
0.372103
0.37109
0.372684
0.377528
0.386051
0.398525
0.415072
0.435618
0.459801
0.486292
0.506568
0.517261
0.523979
0.527371
0.454672
0.450242
0.436434
0.421856
0.409894
0.401247
0.396347
0.395407
0.398531
0.405658
0.41662
0.431083
0.448464
0.466174
0.473793
0.47504
0.474591
0.469695
0.453938
0.43707
0.423363
0.413829
0.408903
0.408931
0.414239
0.425137
0.441915
0.464849
0.49423
0.53032
0.573295
0.622526
0.672747
0.707558
0.733324
0.756815
0.778079
0.79719
0.814245
0.829342
0.842575
0.854026
0.863768
0.87186
0.878354
0.88329
0.886698
0.888601
0.889012
0.887935
0.88537
0.881303
0.875716
0.86858
0.859859
0.849506
0.837461
0.823658
0.808013
0.790435
0.770815
0.749038
0.724981
0.698544
0.666394
0.618857
0.563761
0.514194
0.471366
0.435148
0.405172
0.38106
0.362473
0.349116
0.340744
0.337162
0.338225
0.343831
0.35391
0.368407
0.387272
0.4104
0.437399
0.466576
0.487591
0.498121
0.505148
0.509165
0.510177
0.508312
0.503843
0.495265
0.477871
0.45649
0.437573
0.422459
0.411562
0.40493
0.402406
0.403666
0.408087
0.414691
0.421355
0.426043
0.421886
0.415941
0.410196
0.406766
0.40667
0.410554
0.418784
0.431574
0.448954
0.470548
0.495165
0.516763
0.52915
0.53692
0.542286
0.545019
0.488792
0.488205
0.481945
0.467203
0.453599
0.443238
0.437218
0.435828
0.439272
0.447376
0.459844
0.475964
0.494473
0.504207
0.506673
0.507897
0.507978
0.506932
0.499245
0.481648
0.46589
0.454531
0.448165
0.447243
0.452139
0.463205
0.480685
0.504765
0.535648
0.573377
0.617884
0.666561
0.701936
0.72718
0.750485
0.772014
0.791702
0.809547
0.82558
0.839851
0.852414
0.863323
0.872628
0.880372
0.886594
0.891325
0.894589
0.896403
0.896778
0.895717
0.893219
0.889272
0.883862
0.876966
0.868552
0.858584
0.847016
0.833798
0.818869
0.802167
0.783623
0.763176
0.740775
0.716408
0.690126
0.655495
0.605008
0.554175
0.50938
0.471238
0.439541
0.413991
0.394297
0.380191
0.371438
0.367845
0.36927
0.37561
0.38678
0.402688
0.423225
0.448172
0.476526
0.501522
0.514586
0.522769
0.528689
0.532237
0.533417
0.532345
0.529265
0.524553
0.515555
0.499284
0.479961
0.463966
0.452701
0.446401
0.444989
0.448284
0.45556
0.465772
0.473683
0.476186
0.474217
0.466887
0.457542
0.451235
0.449117
0.45188
0.45975
0.472859
0.491103
0.513015
0.53288
0.545278
0.552886
0.558984
0.563227
0.5654
0.523484
0.523202
0.522619
0.516646
0.504762
0.493163
0.486154
0.484251
0.488152
0.497251
0.510842
0.526557
0.535745
0.538673
0.540603
0.541898
0.542478
0.542361
0.541373
0.533234
0.516629
0.50378
0.495921
0.493942
0.498358
0.509675
0.528054
0.55345
0.585964
0.624847
0.669136
0.702252
0.726112
0.74838
0.769421
0.789054
0.807169
0.823714
0.838678
0.852068
0.863907
0.874224
0.883047
0.890406
0.896326
0.900828
0.90393
0.905645
0.90598
0.904937
0.902515
0.898706
0.893496
0.886868
0.878799
0.869261
0.858223
0.845648
0.831499
0.815739
0.798336
0.779267
0.758535
0.736178
0.712296
0.686918
0.6518
0.602133
0.555708
0.515573
0.481915
0.454659
0.433639
0.418634
0.409418
0.405805
0.407655
0.414864
0.42732
0.444815
0.467042
0.493348
0.51997
0.534798
0.543011
0.549679
0.554602
0.557679
0.558908
0.558387
0.556317
0.553001
0.548833
0.541291
0.528868
0.512886
0.501622
0.495759
0.495356
0.500434
0.509346
0.515129
0.517785
0.517857
0.518408
0.516349
0.511269
0.50322
0.499353
0.501093
0.508499
0.521531
0.53987
0.555121
0.565522
0.572212
0.578131
0.582902
0.586239
0.587953
0.558457
0.558396
0.558351
0.558446
0.554889
0.548674
0.54183
0.539339
0.543857
0.553226
0.562567
0.569178
0.571428
0.573393
0.575167
0.576612
0.577676
0.578393
0.578881
0.57878
0.572792
0.560907
0.552055
0.54906
0.552874
0.564569
0.584088
0.610653
0.644242
0.680433
0.709082
0.730386
0.75092
0.770805
0.789767
0.807611
0.824204
0.839464
0.853348
0.865836
0.876923
0.886618
0.894932
0.901879
0.907474
0.91173
0.914658
0.916266
0.916559
0.915537
0.913199
0.909539
0.904547
0.898211
0.890515
0.881439
0.870965
0.859072
0.84574
0.830956
0.814713
0.797023
0.777919
0.757472
0.735801
0.713081
0.689204
0.655905
0.610036
0.568458
0.532755
0.503565
0.481021
0.464988
0.455235
0.451584
0.453898
0.462084
0.476002
0.495124
0.518524
0.543978
0.558882
0.566438
0.572971
0.578333
0.582362
0.584969
0.586148
0.585977
0.584614
0.582301
0.579354
0.576165
0.571515
0.564025
0.556103
0.551052
0.550838
0.552973
0.555068
0.554953
0.554184
0.554171
0.554876
0.556366
0.55717
0.555898
0.5548
0.556276
0.562895
0.572836
0.582485
0.589403
0.594743
0.599914
0.604522
0.608254
0.610873
0.612221
0.593492
0.593572
0.593798
0.59431
0.595339
0.595287
0.594038
0.594075
0.596719
0.600688
0.603643
0.604893
0.606526
0.608303
0.610061
0.611709
0.613222
0.614653
0.616132
0.617879
0.619901
0.618084
0.614539
0.611471
0.614623
0.626855
0.64757
0.673512
0.69924
0.721631
0.739815
0.758154
0.776375
0.794153
0.811232
0.827418
0.842571
0.856591
0.869415
0.881003
0.891332
0.900393
0.908183
0.914704
0.919962
0.923961
0.926707
0.928203
0.928451
0.927453
0.925205
0.921704
0.916943
0.910914
0.903609
0.895016
0.885127
0.873934
0.861434
0.84763
0.832538
0.816191
0.798646
0.77999
0.760354
0.739914
0.718898
0.6973
0.667834
0.629107
0.592134
0.560986
0.536847
0.519742
0.509396
0.505677
0.508421
0.517554
0.533002
0.553079
0.574026
0.586975
0.593289
0.599027
0.604102
0.608321
0.611542
0.613686
0.61474
0.614758
0.613862
0.612235
0.610116
0.607791
0.605575
0.603671
0.600472
0.597442
0.595721
0.594145
0.591838
0.590426
0.58975
0.589768
0.59047
0.591894
0.594111
0.597309
0.599843
0.602786
0.607319
0.612247
0.615919
0.619934
0.62413
0.62818
0.63179
0.634718
0.636777
0.637838
0.628446
0.628603
0.628961
0.629602
0.630636
0.632141
0.634156
0.635913
0.636987
0.637637
0.638595
0.639898
0.641479
0.643231
0.645067
0.646938
0.64885
0.650865
0.653113
0.655799
0.65922
0.663806
0.667446
0.671186
0.678188
0.690078
0.705783
0.722695
0.738508
0.753808
0.769777
0.786041
0.802274
0.8182
0.83359
0.84826
0.86207
0.874914
0.886718
0.897429
0.90701
0.915439
0.922702
0.928793
0.933708
0.937445
0.940004
0.941387
0.941591
0.940618
0.938464
0.935128
0.930606
0.924895
0.91799
0.90989
0.900593
0.890103
0.87843
0.865592
0.851619
0.836559
0.820482
0.803488
0.785711
0.767323
0.748543
0.729634
0.710832
0.686977
0.657959
0.62613
0.600989
0.583058
0.572096
0.568266
0.571216
0.580629
0.596772
0.610246
0.619294
0.623655
0.628056
0.632279
0.636089
0.639307
0.6418
0.643494
0.644367
0.644454
0.643841
0.642661
0.641085
0.639306
0.637511
0.635821
0.634215
0.632443
0.630177
0.628028
0.626302
0.625163
0.624622
0.62468
0.625341
0.626627
0.628562
0.631166
0.634314
0.637722
0.640778
0.64377
0.646941
0.650283
0.653664
0.656884
0.65974
0.662053
0.663678
0.664515
0.663244
0.663434
0.663839
0.6645
0.66546
0.666727
0.668227
0.66968
0.670895
0.671984
0.673198
0.674623
0.676261
0.678077
0.680036
0.682127
0.684375
0.686845
0.689657
0.692983
0.697058
0.702172
0.708636
0.716783
0.725991
0.736131
0.747002
0.758686
0.771533
0.785211
0.799446
0.813957
0.828481
0.842784
0.856666
0.869961
0.882533
0.894278
0.905115
0.914983
0.923839
0.93165
0.938395
0.944058
0.948631
0.952106
0.954479
0.955748
0.955909
0.954963
0.952906
0.949738
0.945459
0.940068
0.933567
0.925959
0.917251
0.907456
0.896592
0.884689
0.871786
0.857942
0.843236
0.82777
0.811678
0.795126
0.778315
0.761488
0.744926
0.728964
0.711721
0.691709
0.670949
0.653352
0.641823
0.637842
0.640315
0.645981
0.651738
0.655427
0.657424
0.660069
0.663002
0.665943
0.66867
0.671016
0.672858
0.674122
0.67478
0.674849
0.674385
0.673482
0.672257
0.670838
0.669342
0.667842
0.666339
0.664759
0.663066
0.661475
0.660179
0.659301
0.658896
0.658987
0.659589
0.660709
0.662345
0.664463
0.666962
0.669663
0.672347
0.675037
0.677792
0.680595
0.683358
0.685952
0.688234
0.690075
0.691366
0.692031
0.69785
0.69805
0.698461
0.6991
0.699977
0.701079
0.702343
0.703651
0.704927
0.706207
0.707589
0.709135
0.710865
0.712778
0.714874
0.717161
0.719676
0.722484
0.725686
0.72942
0.733855
0.739183
0.745575
0.75313
0.761683
0.771042
0.781155
0.792041
0.803725
0.816057
0.82884
0.84186
0.854907
0.867789
0.880331
0.892384
0.903825
0.914551
0.924481
0.933551
0.941712
0.948927
0.955168
0.960415
0.964652
0.967869
0.970059
0.971216
0.971336
0.970417
0.968459
0.96546
0.961424
0.956352
0.950251
0.943128
0.934997
0.925877
0.915794
0.904784
0.892894
0.880189
0.866749
0.852679
0.838106
0.823186
0.808104
0.793074
0.778346
0.764201
0.750955
0.738903
0.726161
0.714055
0.704562
0.698963
0.696792
0.696026
0.694477
0.694136
0.694827
0.696196
0.697941
0.699819
0.701632
0.703228
0.704493
0.705357
0.705783
0.705776
0.70537
0.704626
0.703623
0.702447
0.701177
0.699867
0.698537
0.69719
0.695851
0.694628
0.693637
0.692966
0.692672
0.692785
0.693319
0.694277
0.695643
0.69738
0.699408
0.701621
0.703909
0.706238
0.708595
0.710945
0.713221
0.71533
0.717171
0.718647
0.71968
0.720211
0.732258
0.732455
0.732855
0.733461
0.734271
0.735269
0.736414
0.737654
0.738954
0.740328
0.741818
0.743462
0.745284
0.747299
0.749519
0.751967
0.754683
0.757727
0.761183
0.765154
0.769762
0.775129
0.781353
0.788474
0.796432
0.805138
0.814536
0.824595
0.83527
0.846453
0.857996
0.869734
0.8815
0.893133
0.904483
0.91542
0.925831
0.935619
0.944706
0.953027
0.960531
0.967178
0.972936
0.97778
0.981693
0.98466
0.986672
0.98772
0.987801
0.986911
0.985051
0.98222
0.978423
0.973665
0.967955
0.961305
0.953733
0.945262
0.935924
0.925759
0.914818
0.903169
0.890892
0.878089
0.864881
0.851409
0.837839
0.824361
0.811183
0.798536
0.786656
0.775766
0.766022
0.757582
0.750259
0.744
0.73891
0.73525
0.732962
0.731808
0.731553
0.731945
0.732748
0.73376
0.734813
0.73577
0.736531
0.737027
0.73722
0.737103
0.736692
0.736027
0.735161
0.73415
0.733052
0.73191
0.730755
0.729612
0.728521
0.72755
0.726774
0.726256
0.726042
0.726161
0.726626
0.727435
0.728573
0.730003
0.73167
0.733503
0.735432
0.737411
0.739405
0.741371
0.743252
0.744976
0.746471
0.747664
0.748495
0.748922
0.766467
0.766658
0.767042
0.767617
0.768377
0.76931
0.770392
0.771596
0.772907
0.774332
0.775892
0.777611
0.779512
0.781613
0.783935
0.786506
0.789363
0.79256
0.796163
0.800252
0.804909
0.810217
0.816233
0.82298
0.830432
0.838541
0.847257
0.856534
0.866308
0.876487
0.886956
0.897581
0.908227
0.918759
0.929049
0.938983
0.948459
0.957388
0.965696
0.97332
0.980208
0.986318
0.991616
0.996077
0.999679
1.00241
1.00425
1.00519
1.00524
1.00438
1.00261
0.999947
0.996384
0.99193
0.986598
0.980404
0.973367
0.965514
0.95688
0.947508
0.937451
0.926776
0.915563
0.903906
0.891918
0.879728
0.867483
0.855345
0.843491
0.832104
0.821369
0.81145
0.802474
0.794524
0.78758
0.78164
0.776753
0.77299
0.77031
0.768581
0.767633
0.767281
0.767346
0.767661
0.768088
0.768509
0.768834
0.769
0.768967
0.768722
0.768269
0.767631
0.766842
0.765942
0.764971
0.763966
0.762959
0.761982
0.761071
0.760277
0.759652
0.759241
0.75908
0.759192
0.759588
0.760265
0.761209
0.76239
0.763767
0.765289
0.766904
0.768569
0.770242
0.771882
0.773437
0.774853
0.776073
0.777041
0.777714
0.778059
0.800486
0.80067
0.801037
0.801587
0.802312
0.803203
0.804247
0.80543
0.806747
0.808201
0.809806
0.811579
0.813539
0.815707
0.818104
0.820757
0.823704
0.826987
0.830659
0.834779
0.839407
0.844596
0.850383
0.856781
0.863776
0.871336
0.879419
0.887974
0.896939
0.906233
0.915759
0.925409
0.935069
0.944625
0.953971
0.963004
0.971634
0.979779
0.987371
0.994348
1.00066
1.00627
1.01114
1.01523
1.01854
1.02104
1.02272
1.02356
1.02358
1.02275
1.02108
1.01857
1.01523
1.01107
1.00611
1.00034
0.993816
0.986547
0.978574
0.969942
0.960703
0.950922
0.940676
0.930054
0.919158
0.908104
0.89702
0.886046
0.87533
0.865021
0.855265
0.84619
0.8379
0.83046
0.823897
0.818226
0.813472
0.809645
0.806709
0.804574
0.803117
0.802203
0.801691
0.801452
0.801369
0.801343
0.801296
0.80117
0.800928
0.800549
0.800031
0.799386
0.798634
0.797804
0.796924
0.796024
0.795134
0.794284
0.793505
0.792836
0.792315
0.791975
0.791844
0.791939
0.792268
0.792828
0.793607
0.794582
0.795719
0.796981
0.798327
0.799717
0.801114
0.802477
0.803763
0.804927
0.805925
0.806715
0.807262
0.807542
0.834319
0.834497
0.834852
0.835381
0.83608
0.836943
0.837962
0.839132
0.84045
0.84192
0.843551
0.845359
0.84736
0.849571
0.852015
0.854716
0.857707
0.861024
0.864707
0.8688
0.873345
0.878377
0.883921
0.889984
0.896555
0.903609
0.911107
0.919004
0.927241
0.935747
0.944439
0.953226
0.962013
0.970704
0.979205
0.987428
0.995292
1.00272
1.00966
1.01604
1.02182
1.02696
1.03142
1.03518
1.03821
1.04049
1.04202
1.04277
1.04275
1.04196
1.04038
1.03803
1.03491
1.03103
1.0264
1.02105
1.01501
1.00828
1.00093
0.992981
0.984495
0.975533
0.966166
0.956476
0.946556
0.936509
0.926447
0.91649
0.906761
0.897385
0.888479
0.880147
0.872474
0.86552
0.85932
0.853897
0.849262
0.84541
0.842307
0.839886
0.838059
0.836721
0.835765
0.835087
0.834592
0.834198
0.833837
0.833458
0.833024
0.832514
0.83192
0.831247
0.830505
0.829715
0.828896
0.828073
0.827271
0.826514
0.82583
0.825248
0.824797
0.824501
0.824382
0.824452
0.824716
0.825173
0.82581
0.82661
0.827547
0.82859
0.829705
0.83086
0.832019
0.833148
0.83421
0.835167
0.835985
0.836631
0.837077
0.837305
0.867976
0.868148
0.868491
0.869004
0.869684
0.870526
0.871528
0.872686
0.874
0.875476
0.877121
0.878947
0.880969
0.883202
0.885667
0.888386
0.891386
0.894694
0.898344
0.902368
0.906794
0.911647
0.916941
0.92268
0.928852
0.935436
0.942398
0.949695
0.957274
0.965074
0.973023
0.981043
0.989053
0.996972
1.00472
1.01221
1.01938
1.02617
1.0325
1.03834
1.04363
1.04833
1.05241
1.05585
1.05862
1.06071
1.06209
1.06276
1.06271
1.06194
1.06046
1.05825
1.05534
1.05172
1.04743
1.04247
1.03687
1.03066
1.02387
1.01656
1.00876
1.00055
0.991978
0.983127
0.97408
0.964928
0.955768
0.946704
0.937841
0.92928
0.921119
0.913445
0.906329
0.899825
0.893968
0.88878
0.884269
0.880427
0.877223
0.874606
0.872511
0.870856
0.86956
0.868538
0.867714
0.86702
0.866397
0.8658
0.865196
0.864563
0.86389
0.863176
0.862426
0.861653
0.860873
0.860102
0.859361
0.85867
0.858052
0.857529
0.857122
0.856851
0.85673
0.85677
0.856973
0.857336
0.857851
0.858502
0.859268
0.860125
0.861044
0.861998
0.862955
0.863887
0.864761
0.865548
0.866218
0.866745
0.86711
0.867296
0.90146
0.901627
0.901962
0.902461
0.903125
0.903951
0.904937
0.906083
0.90739
0.908863
0.91051
0.91234
0.914366
0.916602
0.919066
0.921776
0.924754
0.928024
0.931609
0.935533
0.939816
0.944475
0.949517
0.954941
0.960737
0.966885
0.973352
0.980102
0.987087
0.994252
1.00154
1.00887
1.01619
1.02341
1.03048
1.03732
1.04386
1.05006
1.05584
1.06118
1.06601
1.07032
1.07405
1.0772
1.07972
1.08162
1.08287
1.08346
1.08339
1.08265
1.08125
1.07918
1.07647
1.0731
1.06911
1.06452
1.05934
1.0536
1.04735
1.04062
1.03346
1.02592
1.01807
1.00998
1.00171
0.993355
0.984995
0.976719
0.968617
0.960774
0.953272
0.946185
0.939572
0.933482
0.927946
0.922987
0.918608
0.914804
0.91155
0.908806
0.906521
0.904634
0.90308
0.901791
0.900707
0.89977
0.89893
0.89815
0.897397
0.896651
0.8959
0.895139
0.89437
0.8936
0.892839
0.892101
0.8914
0.890754
0.890179
0.889694
0.889313
0.889051
0.888919
0.888924
0.889068
0.889348
0.889756
0.890279
0.890899
0.891597
0.892349
0.893131
0.893918
0.894683
0.8954
0.896044
0.896592
0.897024
0.897321
0.897473
0.934777
0.93494
0.935266
0.935754
0.936404
0.937215
0.938186
0.939318
0.940614
0.942077
0.943715
0.945537
0.947552
0.949775
0.952218
0.954897
0.957831
0.961038
0.964534
0.968338
0.972463
0.976919
0.98171
0.986831
0.992272
0.998012
1.00403
1.01028
1.01672
1.02331
1.03
1.03672
1.04341
1.05001
1.05647
1.06271
1.06869
1.07435
1.07964
1.08451
1.08894
1.09287
1.09628
1.09915
1.10146
1.10318
1.10431
1.10483
1.10473
1.10403
1.1027
1.10077
1.09824
1.09511
1.09141
1.08715
1.08236
1.07706
1.0713
1.0651
1.05852
1.05161
1.04441
1.03699
1.02943
1.02179
1.01414
1.00656
0.999133
0.991927
0.985012
0.97845
0.972293
0.966583
0.96135
0.956611
0.952374
0.948631
0.945366
0.942547
0.940134
0.93808
0.936333
0.934841
0.933553
0.932421
0.931405
0.930471
0.929591
0.928745
0.927921
0.927111
0.926315
0.925537
0.924783
0.924062
0.923386
0.922767
0.922218
0.921753
0.921384
0.92112
0.920971
0.920939
0.921028
0.921232
0.921546
0.921957
0.922453
0.923015
0.923624
0.92426
0.924902
0.925526
0.926111
0.926637
0.927084
0.927436
0.927678
0.927801
0.96793
0.968089
0.968408
0.968886
0.969523
0.970318
0.971273
0.972389
0.973669
0.975116
0.976737
0.97854
0.980532
0.982726
0.985133
0.987765
0.990636
0.993761
0.997152
1.00082
1.00478
1.00903
1.01357
1.0184
1.02351
1.02887
1.03446
1.04025
1.04621
1.05228
1.05842
1.06459
1.07072
1.07677
1.08267
1.08838
1.09384
1.09901
1.10385
1.1083
1.11235
1.11594
1.11906
1.12168
1.12378
1.12534
1.12635
1.1268
1.12669
1.12601
1.12477
1.12296
1.1206
1.11769
1.11426
1.11032
1.10589
1.101
1.09568
1.08998
1.08392
1.07757
1.07096
1.06416
1.05723
1.05022
1.04321
1.03625
1.02943
1.02279
1.0164
1.01031
1.00457
0.999208
0.994258
0.989734
0.985643
0.981982
0.978736
0.975881
0.973388
0.971219
0.969332
0.967687
0.966241
0.964957
0.963799
0.962738
0.96175
0.960817
0.959926
0.959069
0.958243
0.95745
0.956693
0.955978
0.955313
0.954709
0.954173
0.953717
0.953349
0.953076
0.952904
0.952835
0.952871
0.953007
0.953237
0.953552
0.95394
0.954385
0.954873
0.955385
0.955902
0.956408
0.956882
0.957309
0.957672
0.957957
0.958153
0.958253
1.00092
1.00108
1.00139
1.00186
1.00248
1.00326
1.0042
1.0053
1.00656
1.00798
1.00958
1.01135
1.01331
1.01546
1.01782
1.02039
1.02319
1.02622
1.02949
1.03302
1.0368
1.04085
1.04515
1.0497
1.05448
1.05949
1.0647
1.07007
1.07557
1.08117
1.08683
1.09249
1.09812
1.10366
1.10906
1.11429
1.11929
1.12402
1.12844
1.13251
1.1362
1.13949
1.14233
1.14472
1.14663
1.14804
1.14895
1.14935
1.14922
1.14857
1.1474
1.14571
1.14351
1.14081
1.13762
1.13397
1.12987
1.12536
1.12046
1.1152
1.10963
1.10378
1.09771
1.09147
1.0851
1.07866
1.07222
1.06582
1.05953
1.0534
1.04748
1.04182
1.03646
1.03142
1.02674
1.02242
1.01848
1.01492
1.01171
1.00885
1.00632
1.00407
1.00209
1.00033
0.998769
0.997366
0.996096
0.994932
0.993855
0.992847
0.991897
0.990995
0.990139
0.989327
0.98856
0.987843
0.987181
0.986581
0.986049
0.985593
0.985218
0.98493
0.984733
0.984628
0.984614
0.984688
0.984844
0.985075
0.985369
0.985714
0.986097
0.986503
0.986916
0.98732
0.987701
0.988044
0.988337
0.988566
0.988725
0.988805
1.03376
1.03391
1.03422
1.03468
1.03529
1.03605
1.03697
1.03804
1.03928
1.04068
1.04224
1.04398
1.0459
1.048
1.0503
1.0528
1.0555
1.05843
1.06158
1.06496
1.06857
1.0724
1.07647
1.08075
1.08524
1.08992
1.09477
1.09975
1.10485
1.11002
1.11523
1.12043
1.1256
1.13068
1.13564
1.14042
1.145
1.14933
1.15337
1.15709
1.16047
1.16347
1.16607
1.16824
1.16998
1.17126
1.17207
1.17241
1.17227
1.17165
1.17054
1.16896
1.16691
1.1644
1.16145
1.15807
1.15428
1.15011
1.14558
1.14074
1.1356
1.13022
1.12464
1.11889
1.11303
1.10711
1.10118
1.09528
1.08948
1.0838
1.07831
1.07304
1.06802
1.06328
1.05885
1.05474
1.05095
1.04749
1.04435
1.04151
1.03896
1.03667
1.03462
1.03279
1.03113
1.02964
1.02828
1.02704
1.02589
1.02482
1.02382
1.02288
1.02199
1.02116
1.02038
1.01965
1.01899
1.01839
1.01785
1.01739
1.017
1.01669
1.01647
1.01633
1.01627
1.01629
1.01638
1.01653
1.01675
1.01701
1.0173
1.01761
1.01794
1.01826
1.01856
1.01883
1.01906
1.01925
1.01937
1.01944
1.06645
1.0666
1.06689
1.06734
1.06793
1.06868
1.06958
1.07063
1.07184
1.0732
1.07473
1.07643
1.07829
1.08034
1.08257
1.08499
1.0876
1.09042
1.09344
1.09667
1.1001
1.10374
1.10758
1.11161
1.11581
1.12018
1.12469
1.12932
1.13404
1.13882
1.14362
1.14842
1.15317
1.15784
1.16238
1.16677
1.17096
1.17492
1.17862
1.18203
1.18511
1.18785
1.19022
1.1922
1.19378
1.19494
1.19566
1.19595
1.1958
1.1952
1.19416
1.19268
1.19077
1.18844
1.1857
1.18257
1.17907
1.17521
1.17103
1.16656
1.16183
1.15687
1.15172
1.14643
1.14103
1.13557
1.1301
1.12466
1.11928
1.11403
1.10892
1.104
1.0993
1.09484
1.09065
1.08673
1.08309
1.07974
1.07667
1.07387
1.07133
1.06902
1.06694
1.06505
1.06334
1.06178
1.06036
1.05905
1.05785
1.05672
1.05568
1.0547
1.05379
1.05294
1.05214
1.05141
1.05073
1.05012
1.04958
1.0491
1.0487
1.04838
1.04812
1.04795
1.04784
1.04781
1.04784
1.04794
1.04808
1.04826
1.04848
1.04872
1.04896
1.04921
1.04944
1.04966
1.04984
1.04998
1.05008
1.05014
1.09898
1.09913
1.09942
1.09985
1.10043
1.10116
1.10204
1.10306
1.10424
1.10557
1.10705
1.1087
1.11052
1.1125
1.11465
1.11699
1.1195
1.1222
1.12509
1.12817
1.13143
1.13487
1.13849
1.14228
1.14622
1.1503
1.1545
1.1588
1.16318
1.1676
1.17203
1.17645
1.18082
1.18511
1.18928
1.19331
1.19715
1.20078
1.20417
1.20728
1.2101
1.21261
1.21477
1.21657
1.218
1.21904
1.21969
1.21994
1.21977
1.2192
1.21822
1.21684
1.21506
1.21289
1.21035
1.20745
1.2042
1.20064
1.19678
1.19265
1.18828
1.1837
1.17896
1.17407
1.16909
1.16405
1.159
1.15396
1.14898
1.14409
1.13934
1.13475
1.13034
1.12614
1.12217
1.11844
1.11495
1.11172
1.10873
1.10598
1.10346
1.10116
1.09906
1.09715
1.09539
1.09379
1.09232
1.09097
1.08971
1.08855
1.08747
1.08647
1.08553
1.08465
1.08384
1.0831
1.08241
1.08179
1.08124
1.08075
1.08033
1.07998
1.0797
1.07949
1.07935
1.07927
1.07925
1.07929
1.07937
1.07949
1.07964
1.07981
1.07999
1.08017
1.08035
1.08052
1.08066
1.08077
1.08084
1.08088
1.13138
1.13152
1.1318
1.13222
1.13279
1.13349
1.13434
1.13534
1.13648
1.13777
1.13922
1.14081
1.14257
1.14448
1.14656
1.1488
1.15122
1.1538
1.15656
1.15948
1.16257
1.16583
1.16924
1.1728
1.17649
1.1803
1.18422
1.18821
1.19227
1.19636
1.20045
1.20453
1.20856
1.2125
1.21634
1.22003
1.22355
1.22688
1.22998
1.23284
1.23541
1.2377
1.23967
1.24131
1.24261
1.24355
1.24412
1.24433
1.24416
1.24361
1.24269
1.24139
1.23973
1.23772
1.23535
1.23266
1.22966
1.22636
1.22279
1.21897
1.21494
1.21071
1.20632
1.20181
1.19721
1.19255
1.18787
1.1832
1.17858
1.17403
1.1696
1.1653
1.16117
1.15721
1.15345
1.14989
1.14656
1.14344
1.14054
1.13786
1.13538
1.1331
1.131
1.12907
1.1273
1.12567
1.12417
1.12278
1.12149
1.1203
1.11919
1.11816
1.1172
1.11631
1.11548
1.11472
1.11403
1.11339
1.11283
1.11233
1.11189
1.11152
1.11121
1.11097
1.11079
1.11067
1.11061
1.11059
1.11062
1.11068
1.11077
1.11089
1.11101
1.11115
1.11128
1.1114
1.1115
1.11158
1.11164
1.11167
1.16363
1.16376
1.16404
1.16445
1.165
1.16568
1.16651
1.16747
1.16858
1.16983
1.17122
1.17277
1.17446
1.1763
1.1783
1.18045
1.18276
1.18523
1.18785
1.19063
1.19356
1.19663
1.19984
1.20318
1.20664
1.2102
1.21384
1.21756
1.22132
1.22511
1.2289
1.23266
1.23637
1.24
1.24353
1.24692
1.25016
1.25321
1.25605
1.25866
1.26102
1.2631
1.2649
1.26639
1.26757
1.26842
1.26893
1.2691
1.26892
1.2684
1.26753
1.26631
1.26476
1.26289
1.26069
1.25819
1.25541
1.25235
1.24905
1.24551
1.24178
1.23787
1.23382
1.22965
1.22539
1.22107
1.21673
1.2124
1.2081
1.20387
1.19973
1.1957
1.19181
1.18808
1.18452
1.18114
1.17795
1.17495
1.17214
1.16953
1.1671
1.16485
1.16277
1.16084
1.15906
1.15742
1.1559
1.15449
1.15318
1.15196
1.15083
1.14978
1.14881
1.1479
1.14706
1.14629
1.14558
1.14493
1.14435
1.14384
1.14338
1.14299
1.14266
1.14239
1.14218
1.14202
1.14191
1.14185
1.14183
1.14185
1.14189
1.14195
1.14203
1.14212
1.14221
1.14229
1.14237
1.14243
1.14247
1.14249
1.19574
1.19588
1.19614
1.19654
1.19707
1.19773
1.19853
1.19946
1.20053
1.20174
1.20308
1.20457
1.2062
1.20797
1.20988
1.21194
1.21415
1.2165
1.21899
1.22162
1.22439
1.22729
1.23031
1.23345
1.23668
1.24001
1.24341
1.24686
1.25035
1.25386
1.25736
1.26084
1.26426
1.26761
1.27085
1.27397
1.27694
1.27974
1.28235
1.28474
1.28689
1.2888
1.29044
1.2918
1.29286
1.29362
1.29407
1.29421
1.29403
1.29353
1.2927
1.29157
1.29012
1.28837
1.28633
1.28401
1.28143
1.27859
1.27553
1.27226
1.2688
1.26518
1.26143
1.25756
1.25362
1.24961
1.24558
1.24156
1.23755
1.23361
1.22973
1.22596
1.2223
1.21878
1.21541
1.21219
1.20914
1.20626
1.20355
1.20101
1.19864
1.19643
1.19438
1.19247
1.19069
1.18904
1.18751
1.18609
1.18477
1.18354
1.18239
1.18133
1.18034
1.17942
1.17857
1.17779
1.17707
1.17641
1.17581
1.17528
1.17481
1.1744
1.17405
1.17375
1.17351
1.17332
1.17317
1.17307
1.17301
1.17298
1.17298
1.173
1.17304
1.17309
1.17314
1.1732
1.17325
1.17328
1.17331
1.17333
1.22773
1.22785
1.22811
1.22849
1.229
1.22965
1.23042
1.23131
1.23235
1.23351
1.2348
1.23623
1.23779
1.23949
1.24132
1.24329
1.24539
1.24763
1.24999
1.25248
1.2551
1.25783
1.26067
1.26361
1.26664
1.26975
1.27291
1.27613
1.27937
1.28262
1.28586
1.28907
1.29223
1.29531
1.2983
1.30117
1.3039
1.30647
1.30886
1.31105
1.31302
1.31476
1.31625
1.31749
1.31845
1.31914
1.31954
1.31964
1.31946
1.31897
1.3182
1.31713
1.31578
1.31415
1.31225
1.31009
1.30769
1.30506
1.30222
1.29919
1.29599
1.29263
1.28915
1.28557
1.2819
1.27818
1.27444
1.27069
1.26696
1.26327
1.25964
1.2561
1.25266
1.24934
1.24614
1.24308
1.24017
1.2374
1.23479
1.23233
1.23003
1.22786
1.22584
1.22395
1.22219
1.22055
1.21902
1.2176
1.21627
1.21503
1.21388
1.2128
1.2118
1.21087
1.21001
1.20922
1.20849
1.20782
1.20721
1.20667
1.20618
1.20575
1.20538
1.20505
1.20479
1.20456
1.20439
1.20425
1.20416
1.20409
1.20405
1.20404
1.20404
1.20406
1.20408
1.20411
1.20413
1.20416
1.20417
1.20418
1.25958
1.2597
1.25995
1.26032
1.26081
1.26143
1.26217
1.26304
1.26403
1.26515
1.26639
1.26776
1.26925
1.27088
1.27263
1.2745
1.2765
1.27862
1.28086
1.28322
1.28569
1.28826
1.29093
1.29369
1.29652
1.29942
1.30237
1.30536
1.30837
1.31139
1.31439
1.31736
1.32027
1.32312
1.32587
1.32851
1.33102
1.33338
1.33557
1.33757
1.33938
1.34097
1.34233
1.34345
1.34433
1.34494
1.34529
1.34537
1.34518
1.34472