/*--------------------------------*- C++ -*----------------------------------*\
| =========                 |                                                 |
| \\      /  F ield         | OpenFOAM: The Open Source CFD Toolbox           |
|  \\    /   O peration     | Version:  2406                                  |
|   \\  /    A nd           | Website:  www.openfoam.com                      |
|    \\/     M anipulation  |                                                 |
\*---------------------------------------------------------------------------*/
FoamFile
{
    version     2.0;
    format      ascii;
    arch        "LSB;label=32;scalar=64";
    class       volScalarField;
    location    "1.35";
    object      C_0;
}
// * * * * * * * * * * * * * * * * * * * * * * * * * * * * * * * * * * * * * //

dimensions      [1 -3 0 0 0 0 0];

internalField   nonuniform List<scalar> 
14400
(
2.78868
2.78587
2.77997
2.77033
2.75559
2.72601
2.69253
2.68061
2.69718
2.73493
2.76774
2.78546
2.79842
2.80796
2.81475
2.81918
2.82139
2.82138
2.81898
2.81379
2.80505
2.79129
2.7628
2.73157
2.72291
2.74343
2.78554
2.82221
2.84343
2.86039
2.87444
2.88631
2.89649
2.90528
2.91292
2.91955
2.92529
2.93024
2.93447
2.93803
2.94096
2.9433
2.94508
2.94631
2.94702
2.94721
2.9469
2.94609
2.94479
2.94298
2.94066
2.93784
2.93449
2.93061
2.92617
2.92115
2.91552
2.90925
2.9023
2.89462
2.88614
2.87678
2.86646
2.85506
2.84241
2.82832
2.81253
2.79466
2.77418
2.75031
2.7217
2.67482
2.61495
2.56929
2.54551
2.54016
2.55299
2.58752
2.63675
2.67542
2.69664
2.71243
2.72431
2.73314
2.73946
2.74361
2.74581
2.74616
2.74472
2.74145
2.73621
2.72878
2.71875
2.70542
2.68753
2.65512
2.61691
2.59867
2.60802
2.63808
2.66411
2.6759
2.68213
2.68393
2.68165
2.67495
2.66274
2.63625
2.60559
2.59556
2.61312
2.65074
2.68271
2.70029
2.71334
2.72314
2.73042
2.7356
2.73893
2.74056
2.79149
2.78896
2.78371
2.77539
2.76339
2.74651
2.72154
2.70786
2.72628
2.75496
2.77499
2.79017
2.80185
2.8107
2.81713
2.82139
2.82361
2.82377
2.82177
2.81734
2.81003
2.79921
2.78365
2.76063
2.75016
2.77274
2.80525
2.82882
2.84762
2.86331
2.8766
2.88801
2.89787
2.90644
2.91392
2.92043
2.92608
2.93097
2.93514
2.93865
2.94155
2.94386
2.94562
2.94684
2.94753
2.94772
2.9474
2.94659
2.94528
2.94348
2.94118
2.93836
2.93503
2.93116
2.92675
2.92175
2.91616
2.90994
2.90304
2.89541
2.88701
2.87775
2.86755
2.85629
2.84385
2.83003
2.81461
2.79726
2.77758
2.75494
2.72844
2.69559
2.64928
2.60274
2.58266
2.57745
2.58653
2.62164
2.6586
2.68344
2.702
2.71634
2.72736
2.73565
2.74162
2.74556
2.74764
2.74796
2.74656
2.7434
2.7384
2.73138
2.72204
2.70996
2.69446
2.67429
2.64522
2.62544
2.63628
2.65827
2.67231
2.68145
2.68655
2.68803
2.68605
2.68046
2.67085
2.65634
2.6338
2.62227
2.64134
2.66988
2.68965
2.70479
2.71658
2.72567
2.73252
2.73744
2.74062
2.74219
2.79683
2.79475
2.79053
2.78414
2.77562
2.76554
2.75578
2.74823
2.75999
2.77323
2.78659
2.79837
2.80812
2.81585
2.82166
2.82565
2.82787
2.82833
2.82699
2.82375
2.81854
2.81141
2.80298
2.79521
2.79055
2.80602
2.82271
2.83952
2.85493
2.86862
2.88066
2.89124
2.90053
2.9087
2.91588
2.92217
2.92765
2.9324
2.93646
2.93989
2.94272
2.94498
2.9467
2.94788
2.94855
2.94872
2.9484
2.94758
2.94628
2.94448
2.94219
2.9394
2.9361
2.93227
2.9279
2.92296
2.91744
2.91129
2.90449
2.89699
2.88873
2.87966
2.86969
2.85872
2.84666
2.83334
2.8186
2.80221
2.78392
2.76342
2.74041
2.71485
2.68733
2.6554
2.63936
2.6345
2.63959
2.66108
2.67975
2.69692
2.71157
2.72358
2.73313
2.74047
2.74583
2.74938
2.75124
2.75148
2.75014
2.7472
2.74262
2.73629
2.72809
2.71789
2.70567
2.6918
2.6779
2.66497
2.67011
2.67747
2.68511
2.69103
2.69457
2.69559
2.69405
2.68999
2.68356
2.6754
2.66748
2.6617
2.67398
2.68738
2.7008
2.71264
2.72251
2.73043
2.73656
2.74102
2.74394
2.74538
2.80426
2.80267
2.79954
2.795
2.7894
2.78357
2.77919
2.77875
2.78284
2.79064
2.79975
2.80859
2.81641
2.82292
2.82801
2.83167
2.8339
2.8347
2.8341
2.83213
2.82895
2.82493
2.82093
2.81873
2.82097
2.82815
2.83916
2.85161
2.86397
2.87558
2.88619
2.89575
2.90432
2.91196
2.91873
2.92471
2.92995
2.93451
2.93842
2.94173
2.94446
2.94665
2.9483
2.94944
2.95008
2.95022
2.94988
2.94906
2.94776
2.94598
2.94371
2.94095
2.93769
2.93391
2.92961
2.92475
2.91933
2.9133
2.90664
2.89932
2.89127
2.88246
2.87281
2.86226
2.85071
2.83807
2.82423
2.80907
2.79248
2.7744
2.75494
2.73458
2.71461
2.69733
2.68459
2.67974
2.68264
2.69025
2.70119
2.71289
2.7238
2.73327
2.7411
2.74727
2.75184
2.75488
2.75645
2.75658
2.75532
2.75265
2.74857
2.74307
2.73614
2.72786
2.7185
2.70874
2.70004
2.69465
2.69341
2.69588
2.69963
2.70299
2.70513
2.70569
2.70458
2.7019
2.69798
2.69368
2.69063
2.69126
2.69607
2.70425
2.71354
2.72248
2.73038
2.73699
2.74225
2.74615
2.74873
2.75001
2.81327
2.81214
2.80995
2.80692
2.80342
2.80015
2.79812
2.79843
2.80146
2.80674
2.81319
2.81983
2.82602
2.83141
2.8358
2.83912
2.84134
2.84247
2.84257
2.84174
2.84021
2.83841
2.83706
2.83723
2.84007
2.8459
2.85417
2.86378
2.87377
2.88353
2.89275
2.90127
2.90904
2.91607
2.92238
2.92799
2.93294
2.93726
2.94099
2.94414
2.94676
2.94884
2.95042
2.9515
2.95209
2.9522
2.95185
2.95102
2.94973
2.94796
2.94572
2.943
2.9398
2.93609
2.93187
2.92712
2.92182
2.91594
2.90947
2.90236
2.89458
2.88609
2.87684
2.86679
2.85586
2.84401
2.83119
2.81735
2.80251
2.78677
2.77038
2.75391
2.73834
2.72507
2.71543
2.71077
2.7111
2.7152
2.72187
2.72967
2.73747
2.7446
2.75073
2.75567
2.75938
2.76185
2.76308
2.76309
2.7619
2.75951
2.75596
2.75127
2.74553
2.73891
2.73174
2.72462
2.71846
2.71429
2.71258
2.71301
2.71454
2.71617
2.71727
2.71747
2.71669
2.71502
2.71281
2.7107
2.70968
2.7108
2.71439
2.72001
2.72663
2.73334
2.73954
2.74492
2.74929
2.7526
2.75481
2.75592
2.82342
2.82265
2.82121
2.81929
2.81722
2.81549
2.8147
2.81541
2.81781
2.82167
2.82643
2.83151
2.83643
2.84088
2.84466
2.84768
2.84988
2.85128
2.85196
2.85203
2.85174
2.85145
2.85168
2.85307
2.85618
2.86119
2.86785
2.87557
2.88378
2.89202
2.9
2.90753
2.91451
2.92091
2.92671
2.93192
2.93655
2.94061
2.94412
2.9471
2.94957
2.95154
2.95303
2.95404
2.95458
2.95466
2.95428
2.95345
2.95216
2.95041
2.94821
2.94554
2.9424
2.93877
2.93466
2.93003
2.92488
2.91918
2.91292
2.90607
2.8986
2.89048
2.88168
2.87218
2.86193
2.85092
2.83915
2.82663
2.81346
2.79978
2.7859
2.77233
2.75979
2.74915
2.74128
2.73681
2.73576
2.73757
2.74143
2.74643
2.7518
2.75695
2.76153
2.76531
2.76817
2.77005
2.77093
2.7708
2.76966
2.76754
2.76447
2.76052
2.7558
2.75051
2.74494
2.73954
2.73488
2.73148
2.72959
2.72905
2.72934
2.72989
2.73028
2.73024
2.72968
2.72869
2.72753
2.72664
2.72657
2.72786
2.73067
2.73477
2.73963
2.7447
2.74953
2.75383
2.7574
2.76015
2.762
2.76294
2.83432
2.83384
2.83295
2.83181
2.83068
2.82988
2.82979
2.83069
2.8327
2.83569
2.83936
2.84334
2.84731
2.85102
2.85429
2.85704
2.85921
2.86082
2.86194
2.86269
2.86327
2.86397
2.86514
2.86717
2.87037
2.87485
2.88045
2.88688
2.89377
2.90079
2.9077
2.91432
2.92056
2.92635
2.93165
2.93644
2.94072
2.9445
2.94778
2.95057
2.95289
2.95473
2.95611
2.95704
2.95753
2.95757
2.95716
2.95632
2.95505
2.95333
2.95116
2.94855
2.94548
2.94195
2.93795
2.93347
2.92848
2.92299
2.91697
2.9104
2.90327
2.89555
2.88723
2.87831
2.86876
2.8586
2.84785
2.83658
2.82489
2.81298
2.80112
2.78972
2.77931
2.77047
2.76372
2.75942
2.75758
2.75789
2.75984
2.76284
2.76634
2.76987
2.77312
2.77586
2.77793
2.77926
2.7798
2.77952
2.77841
2.77652
2.77386
2.77053
2.76664
2.76237
2.75796
2.75373
2.75003
2.74716
2.74526
2.74425
2.74387
2.74378
2.74373
2.74352
2.7431
2.74253
2.74198
2.74174
2.74212
2.7434
2.74566
2.74877
2.75243
2.7563
2.76006
2.76346
2.76634
2.76858
2.77011
2.77088
2.84572
2.84543
2.84493
2.84432
2.8438
2.84357
2.84387
2.84487
2.84661
2.84904
2.85198
2.85519
2.85845
2.86159
2.86446
2.86697
2.8691
2.87086
2.87229
2.87352
2.87469
2.87601
2.87774
2.88011
2.8833
2.88737
2.89224
2.89773
2.90361
2.90966
2.91567
2.92151
2.92707
2.93227
2.93708
2.94146
2.9454
2.94889
2.95193
2.95452
2.95667
2.95838
2.95965
2.9605
2.96092
2.96091
2.96049
2.95964
2.95837
2.95668
2.95456
2.95201
2.94903
2.94561
2.94173
2.9374
2.9326
2.92732
2.92156
2.91529
2.90851
2.90122
2.8934
2.88505
2.8762
2.86686
2.85708
2.84694
2.83656
2.82612
2.81587
2.80613
2.79727
2.78969
2.78372
2.77957
2.77724
2.77656
2.7772
2.77875
2.78083
2.78308
2.78523
2.78706
2.78844
2.78927
2.78948
2.78905
2.78796
2.78624
2.78393
2.78111
2.77787
2.77437
2.7708
2.76738
2.76434
2.76187
2.76004
2.75883
2.75809
2.75765
2.75732
2.75701
2.75667
2.75634
2.75613
2.75621
2.75677
2.75795
2.75979
2.76221
2.76502
2.768
2.77093
2.77362
2.77592
2.77773
2.77897
2.7796
2.85739
2.85725
2.85701
2.85676
2.85662
2.85674
2.85726
2.85828
2.85984
2.86189
2.86431
2.86698
2.86972
2.87242
2.87497
2.87729
2.87937
2.88121
2.88285
2.88439
2.88594
2.88766
2.8897
2.89222
2.89534
2.89908
2.9034
2.90819
2.9133
2.91856
2.92382
2.92898
2.93393
2.9386
2.94294
2.94692
2.95052
2.95372
2.95652
2.95891
2.96089
2.96246
2.96362
2.96438
2.96473
2.96468
2.96423
2.96338
2.96212
2.96046
2.95839
2.95591
2.95302
2.9497
2.94597
2.9418
2.93719
2.93214
2.92664
2.92069
2.91428
2.9074
2.90008
2.89231
2.88413
2.87556
2.86667
2.85754
2.84829
2.83908
2.83012
2.82165
2.81396
2.8073
2.8019
2.79788
2.79527
2.79392
2.79364
2.79414
2.79515
2.79639
2.79764
2.79873
2.79951
2.79989
2.7998
2.79922
2.79814
2.79656
2.79452
2.79209
2.78936
2.78645
2.78349
2.78066
2.77809
2.77592
2.77421
2.77293
2.77202
2.77138
2.77091
2.77053
2.77023
2.77002
2.76998
2.77021
2.77081
2.77185
2.77335
2.77526
2.77744
2.77976
2.78205
2.78417
2.786
2.78744
2.78844
2.78895
2.86921
2.86916
2.86909
2.86907
2.86918
2.86951
2.87015
2.87117
2.87257
2.87435
2.87641
2.87868
2.88104
2.88341
2.88569
2.88786
2.88987
2.89175
2.89352
2.89525
2.89703
2.89897
2.90117
2.90374
2.90675
2.91021
2.9141
2.91834
2.92282
2.92744
2.93209
2.93665
2.94106
2.94525
2.94916
2.95277
2.95604
2.95896
2.96152
2.96371
2.96552
2.96695
2.96799
2.96866
2.96895
2.96885
2.96838
2.96752
2.96627
2.96464
2.96263
2.96022
2.95742
2.95423
2.95063
2.94663
2.94223
2.93741
2.93219
2.92655
2.9205
2.91405
2.9072
2.89999
2.89243
2.88458
2.87649
2.86825
2.85997
2.85179
2.84387
2.83641
2.8296
2.82364
2.81868
2.8148
2.81201
2.81022
2.80929
2.80903
2.80923
2.80969
2.81023
2.81069
2.81097
2.81097
2.81063
2.80991
2.80881
2.80733
2.8055
2.80338
2.80103
2.79856
2.79606
2.79365
2.79145
2.78952
2.78793
2.78666
2.78569
2.78495
2.78439
2.78398
2.78369
2.78353
2.78356
2.78383
2.78439
2.78528
2.78651
2.78802
2.78973
2.79154
2.79334
2.795
2.79645
2.7976
2.7984
2.79881
2.88108
2.88109
2.88113
2.88126
2.88151
2.88196
2.88266
2.88365
2.88494
2.88651
2.88831
2.89029
2.89236
2.89446
2.89655
2.89857
2.90052
2.90239
2.90423
2.90606
2.90797
2.91002
2.91228
2.91483
2.9177
2.92091
2.92444
2.92823
2.93222
2.93631
2.94042
2.94448
2.94842
2.95217
2.95569
2.95895
2.96191
2.96457
2.96689
2.96888
2.97052
2.97181
2.97275
2.97333
2.97355
2.97341
2.9729
2.97204
2.97081
2.96922
2.96725
2.96492
2.96222
2.95915
2.9557
2.95187
2.94767
2.94309
2.93814
2.93281
2.92712
2.92108
2.9147
2.90801
2.90104
2.89384
2.88647
2.87901
2.87155
2.86423
2.85716
2.8505
2.8444
2.83899
2.83439
2.83064
2.82774
2.82566
2.82427
2.82346
2.82305
2.82291
2.82288
2.82285
2.82271
2.82238
2.82182
2.82098
2.81985
2.81844
2.81677
2.81488
2.81283
2.81069
2.80853
2.80645
2.80452
2.8028
2.80132
2.8001
2.79911
2.79834
2.79774
2.7973
2.79701
2.79687
2.79691
2.79716
2.79765
2.79839
2.79938
2.80057
2.80192
2.80334
2.80475
2.80606
2.8072
2.80811
2.80875
2.80907
2.89293
2.89298
2.8931
2.89331
2.89365
2.89417
2.89489
2.89584
2.89703
2.89844
2.90004
2.90179
2.90364
2.90554
2.90746
2.90936
2.91123
2.91308
2.91493
2.91681
2.91876
2.92084
2.9231
2.92558
2.92831
2.9313
2.93452
2.93794
2.9415
2.94515
2.94882
2.95244
2.95595
2.95931
2.96248
2.96542
2.96809
2.97049
2.9726
2.9744
2.97588
2.97703
2.97786
2.97835
2.9785
2.97832
2.97779
2.97692
2.97571
2.97415
2.97225
2.97
2.96739
2.96444
2.96114
2.95749
2.95349
2.94915
2.94446
2.93944
2.9341
2.92844
2.9225
2.9163
2.90987
2.90326
2.89653
2.88975
2.88301
2.8764
2.87004
2.86404
2.85851
2.85355
2.84923
2.84561
2.84267
2.84039
2.83869
2.83747
2.83661
2.836
2.83554
2.8351
2.83463
2.83404
2.83329
2.83234
2.83118
2.82982
2.82826
2.82655
2.82472
2.82283
2.82093
2.8191
2.81738
2.81582
2.81446
2.81329
2.81232
2.81154
2.81093
2.81047
2.81017
2.81002
2.81004
2.81024
2.81064
2.81124
2.81203
2.81298
2.81404
2.81515
2.81625
2.81728
2.81818
2.8189
2.8194
2.81966
2.90473
2.90481
2.90496
2.90523
2.90562
2.90616
2.90688
2.90779
2.90889
2.91018
2.91162
2.9132
2.91487
2.91661
2.91838
2.92017
2.92196
2.92377
2.9256
2.92747
2.92942
2.93149
2.9337
2.93609
2.93867
2.94144
2.94439
2.94749
2.9507
2.95397
2.95725
2.96049
2.96364
2.96665
2.9695
2.97214
2.97455
2.97672
2.97861
2.98023
2.98155
2.98258
2.9833
2.9837
2.9838
2.98357
2.98302
2.98215
2.98096
2.97944
2.97759
2.97542
2.97292
2.97009
2.96693
2.96346
2.95966
2.95554
2.95112
2.94639
2.94138
2.9361
2.93057
2.92482
2.91888
2.91281
2.90665
2.90046
2.89433
2.88833
2.88256
2.8771
2.87204
2.86745
2.86339
2.85989
2.85695
2.85455
2.85262
2.85111
2.84992
2.84896
2.84815
2.84741
2.84666
2.84585
2.84495
2.8439
2.84272
2.84138
2.83991
2.83833
2.83667
2.83497
2.83327
2.83163
2.83008
2.82866
2.82739
2.82629
2.82535
2.82458
2.82396
2.82349
2.82317
2.823
2.82299
2.82313
2.82344
2.82391
2.82453
2.82527
2.8261
2.82696
2.82783
2.82863
2.82934
2.8299
2.8303
2.8305
2.91646
2.91654
2.91673
2.91701
2.91743
2.91798
2.91868
2.91954
2.92057
2.92175
2.92307
2.92451
2.92604
2.92764
2.92929
2.93097
2.93269
2.93443
2.93622
2.93806
2.93997
2.94199
2.94413
2.94641
2.94883
2.95141
2.95412
2.95694
2.95984
2.96279
2.96573
2.96864
2.97146
2.97416
2.97672
2.97909
2.98126
2.98321
2.98491
2.98635
2.98753
2.98843
2.98905
2.98938
2.98941
2.98914
2.98857
2.9877
2.98653
2.98505
2.98326
2.98116
2.97876
2.97606
2.97305
2.96974
2.96614
2.96224
2.95807
2.95363
2.94893
2.944
2.93885
2.93352
2.92803
2.92244
2.91678
2.91112
2.90552
2.90004
2.89476
2.88976
2.88509
2.88082
2.87698
2.87361
2.87069
2.86822
2.86615
2.86443
2.86299
2.86177
2.8607
2.85971
2.85875
2.85777
2.85674
2.85562
2.8544
2.85308
2.85167
2.85019
2.84866
2.8471
2.84556
2.84407
2.84265
2.84134
2.84016
2.83911
2.83821
2.83746
2.83684
2.83637
2.83603
2.83583
2.83577
2.83585
2.83608
2.83643
2.8369
2.83747
2.83811
2.83879
2.83946
2.84008
2.84063
2.84107
2.84138
2.84154
2.92809
2.92819
2.92838
2.92868
2.9291
2.92964
2.93032
2.93114
2.93209
2.93319
2.9344
2.93572
2.93713
2.93862
2.94016
2.94175
2.94338
2.94505
2.94678
2.94856
2.95042
2.95236
2.95441
2.95657
2.95885
2.96124
2.96373
2.96631
2.96894
2.9716
2.97425
2.97686
2.9794
2.98183
2.98412
2.98625
2.9882
2.98994
2.99146
2.99275
2.99379
2.99457
2.99509
2.99534
2.99532
2.99501
2.99443
2.99356
2.9924
2.99096
2.98923
2.98721
2.98491
2.98233
2.97946
2.97632
2.9729
2.96923
2.96529
2.96112
2.95672
2.95211
2.94732
2.94237
2.93729
2.93212
2.92692
2.92171
2.91657
2.91155
2.9067
2.90208
2.89775
2.89375
2.89012
2.88686
2.88399
2.88148
2.87932
2.87746
2.87585
2.87444
2.87317
2.87199
2.87087
2.86975
2.86861
2.86742
2.86618
2.86487
2.86351
2.8621
2.86066
2.85922
2.8578
2.85642
2.85511
2.8539
2.85279
2.8518
2.85093
2.85019
2.84958
2.8491
2.84875
2.84852
2.84841
2.84843
2.84858
2.84883
2.84918
2.84961
2.8501
2.85061
2.85113
2.85161
2.85204
2.85238
2.85262
2.85274
2.93964
2.93973
2.93993
2.94023
2.94064
2.94116
2.94181
2.94259
2.94348
2.9445
2.94562
2.94684
2.94815
2.94953
2.95098
2.95248
2.95403
2.95563
2.95728
2.95899
2.96078
2.96264
2.96458
2.96662
2.96875
2.97097
2.97326
2.97561
2.97801
2.98041
2.98281
2.98516
2.98744
2.98962
2.99168
2.99359
2.99533
2.99689
2.99824
2.99938
3.00029
3.00097
3.0014
3.00158
3.0015
3.00116
3.00056
2.9997
2.99856
2.99716
2.99549
2.99355
2.99134
2.98888
2.98615
2.98316
2.97993
2.97646
2.97276
2.96884
2.96472
2.96041
2.95594
2.95134
2.94663
2.94186
2.93705
2.93225
2.92751
2.92288
2.9184
2.91412
2.91008
2.90632
2.90287
2.89973
2.89692
2.89441
2.89219
2.89024
2.8885
2.88695
2.88554
2.88422
2.88297
2.88174
2.88052
2.87928
2.87802
2.87672
2.87539
2.87404
2.87268
2.87132
2.86999
2.8687
2.86748
2.86634
2.86529
2.86435
2.86352
2.8628
2.86219
2.86171
2.86133
2.86108
2.86093
2.8609
2.86096
2.86113
2.86137
2.86169
2.86205
2.86244
2.86283
2.8632
2.86352
2.86378
2.86397
2.86406
2.95108
2.95118
2.95137
2.95166
2.95206
2.95257
2.95318
2.95391
2.95475
2.9557
2.95674
2.95788
2.9591
2.96039
2.96174
2.96316
2.96462
2.96615
2.96772
2.96936
2.97105
2.97282
2.97466
2.97657
2.97856
2.98061
2.98273
2.98488
2.98706
2.98924
2.99141
2.99353
2.99558
2.99754
2.99938
3.0011
3.00265
3.00404
3.00524
3.00624
3.00704
3.00761
3.00796
3.00807
3.00795
3.00758
3.00696
3.0061
3.00499
3.00363
3.00201
3.00015
2.99804
2.99568
2.99309
2.99026
2.9872
2.98392
2.98044
2.97676
2.97289
2.96887
2.9647
2.96042
2.95605
2.95162
2.94716
2.94273
2.93834
2.93405
2.92989
2.92591
2.92213
2.91859
2.9153
2.91228
2.90953
2.90704
2.90481
2.90279
2.90098
2.89933
2.89781
2.89639
2.89504
2.89373
2.89245
2.89117
2.88989
2.88859
2.88729
2.88598
2.88468
2.88339
2.88214
2.88092
2.87977
2.87869
2.8777
2.87679
2.87599
2.87529
2.87469
2.8742
2.87381
2.87352
2.87334
2.87325
2.87325
2.87334
2.8735
2.87372
2.87398
2.87426
2.87455
2.87482
2.87507
2.87527
2.8754
2.87548
2.96243
2.96252
2.96271
2.96299
2.96337
2.96386
2.96444
2.96513
2.96592
2.9668
2.96777
2.96883
2.96997
2.97118
2.97245
2.97378
2.97517
2.97661
2.9781
2.97965
2.98126
2.98293
2.98466
2.98646
2.9883
2.99021
2.99215
2.99412
2.99611
2.99809
3.00005
3.00196
3.00381
3.00557
3.00722
3.00876
3.01014
3.01138
3.01244
3.01331
3.014
3.01448
3.01475
3.0148
3.01463
3.01424
3.01361
3.01276
3.01167
3.01034
3.00879
3.007
3.00498
3.00273
3.00026
2.99758
2.99469
2.9916
2.98831
2.98485
2.98123
2.97747
2.97358
2.96959
2.96552
2.9614
2.95727
2.95315
2.94908
2.94509
2.94122
2.93749
2.93394
2.9306
2.92746
2.92456
2.92188
2.91943
2.91719
2.91515
2.91328
2.91157
2.90998
2.90848
2.90707
2.9057
2.90437
2.90306
2.90177
2.90048
2.8992
2.89792
2.89667
2.89543
2.89423
2.89308
2.89199
2.89096
2.89001
2.88914
2.88836
2.88767
2.88708
2.88658
2.88617
2.88586
2.88565
2.88551
2.88546
2.88548
2.88557
2.8857
2.88588
2.88607
2.88628
2.88648
2.88666
2.88681
2.88691
2.88696
2.97368
2.97377
2.97395
2.97422
2.97459
2.97504
2.9756
2.97624
2.97698
2.97781
2.97872
2.97971
2.98077
2.9819
2.98309
2.98435
2.98565
2.98701
2.98843
2.98989
2.99141
2.99298
2.9946
2.99628
2.998
2.99975
3.00154
3.00335
3.00516
3.00696
3.00873
3.01046
3.01212
3.01371
3.01519
3.01656
3.01779
3.01888
3.01981
3.02058
3.02116
3.02156
3.02176
3.02175
3.02155
3.02113
3.02049
3.01964
3.01858
3.01729
3.01579
3.01407
3.01214
3.01
3.00765
3.00511
3.00237
2.99946
2.99636
2.99311
2.98972
2.98619
2.98255
2.97883
2.97503
2.9712
2.96735
2.96352
2.95973
2.95601
2.95239
2.9489
2.94556
2.94239
2.9394
2.9366
2.93401
2.9316
2.92938
2.92733
2.92544
2.92368
2.92205
2.9205
2.91904
2.91763
2.91627
2.91494
2.91364
2.91236
2.91109
2.90985
2.90863
2.90744
2.90629
2.90518
2.90413
2.90315
2.90223
2.90139
2.90063
2.89996
2.89937
2.89887
2.89845
2.89812
2.89787
2.89769
2.89759
2.89756
2.89758
2.89765
2.89775
2.89788
2.89802
2.89816
2.89828
2.89839
2.89846
2.8985
2.98484
2.98493
2.9851
2.98536
2.9857
2.98614
2.98666
2.98726
2.98796
2.98873
2.98958
2.99051
2.9915
2.99256
2.99368
2.99486
2.99609
2.99737
2.9987
3.00008
3.0015
3.00298
3.00449
3.00605
3.00765
3.00927
3.01091
3.01257
3.01422
3.01585
3.01746
3.01902
3.02052
3.02194
3.02327
3.02449
3.02558
3.02654
3.02736
3.02802
3.02851
3.02883
3.02896
3.02891
3.02867
3.02823
3.02759
3.02675
3.0257
3.02446
3.02301
3.02136
3.01951
3.01747
3.01524
3.01283
3.01024
3.00749
3.00457
3.00152
2.99833
2.99502
2.99162
2.98813
2.98459
2.98101
2.97742
2.97385
2.97031
2.96683
2.96344
2.96015
2.957
2.95399
2.95114
2.94845
2.94594
2.94358
2.94139
2.93936
2.93746
2.93568
2.93402
2.93244
2.93095
2.92952
2.92814
2.9268
2.92549
2.92421
2.92296
2.92174
2.92056
2.9194
2.91829
2.91722
2.91621
2.91526
2.91438
2.91356
2.91282
2.91216
2.91157
2.91106
2.91064
2.91028
2.91001
2.9098
2.90966
2.90957
2.90954
2.90956
2.9096
2.90967
2.90976
2.90984
2.90993
2.91
2.91005
2.91007
2.99592
2.996
2.99616
2.99641
2.99673
2.99714
2.99763
2.9982
2.99885
2.99957
3.00037
3.00123
3.00216
3.00316
3.00421
3.00531
3.00647
3.00767
3.00892
3.01021
3.01155
3.01293
3.01434
3.01579
3.01726
3.01876
3.02027
3.02179
3.02329
3.02478
3.02624
3.02764
3.02899
3.03027
3.03145
3.03254
3.03351
3.03435
3.03506
3.03563
3.03603
3.03628
3.03636
3.03626
3.03599
3.03553
3.03488
3.03405
3.03303
3.03182
3.03043
3.02884
3.02708
3.02513
3.02301
3.02073
3.01828
3.01567
3.01293
3.01005
3.00705
3.00395
3.00076
2.9975
2.99418
2.99084
2.98748
2.98413
2.98082
2.97756
2.97437
2.97128
2.9683
2.96544
2.96272
2.96013
2.9577
2.95541
2.95326
2.95124
2.94935
2.94757
2.94589
2.94431
2.9428
2.94135
2.93996
2.93861
2.93731
2.93604
2.93481
2.93361
2.93245
2.93133
2.93025
2.92921
2.92823
2.92731
2.92645
2.92566
2.92493
2.92428
2.9237
2.92318
2.92275
2.92238
2.92208
2.92184
2.92166
2.92154
2.92146
2.92143
2.92143
2.92145
2.92149
2.92154
2.92158
2.92163
2.92166
2.92167
3.00691
3.00698
3.00714
3.00737
3.00768
3.00806
3.00852
3.00906
3.00966
3.01034
3.01109
3.0119
3.01277
3.0137
3.01468
3.01571
3.0168
3.01792
3.01909
3.02031
3.02156
3.02284
3.02416
3.0255
3.02686
3.02824
3.02963
3.03101
3.03239
3.03374
3.03505
3.03633
3.03754
3.03868
3.03974
3.0407
3.04156
3.0423
3.04291
3.04339
3.04372
3.0439
3.04393
3.04379
3.04348
3.04301
3.04236
3.04154
3.04055
3.03937
3.03803
3.03651
3.03482
3.03297
3.03095
3.02878
3.02646
3.024
3.02141
3.0187
3.01588
3.01297
3.00997
3.00691
3.00381
3.00067
2.99753
2.99439
2.99128
2.98822
2.98522
2.9823
2.97947
2.97675
2.97415
2.97167
2.96931
2.96709
2.96498
2.963
2.96113
2.95936
2.95768
2.95609
2.95458
2.95313
2.95173
2.95039
2.94909
2.94783
2.94662
2.94544
2.9443
2.9432
2.94215
2.94115
2.9402
2.9393
2.93846
2.93768
2.93697
2.93633
2.93575
2.93523
2.93478
2.9344
2.93408
2.93382
2.93361
2.93346
2.93334
2.93327
2.93323
2.93321
2.93321
2.93323
2.93325
2.93326
2.93328
2.93329
3.01782
3.01789
3.01804
3.01826
3.01855
3.01891
3.01934
3.01984
3.02041
3.02104
3.02174
3.0225
3.02331
3.02418
3.0251
3.02607
3.02708
3.02813
3.02923
3.03036
3.03153
3.03272
3.03394
3.03518
3.03644
3.03771
3.03898
3.04025
3.0415
3.04273
3.04392
3.04507
3.04615
3.04718
3.04812
3.04897
3.04972
3.05037
3.05089
3.05129
3.05155
3.05168
3.05165
3.05148
3.05115
3.05067
3.05002
3.04921
3.04824
3.0471
3.0458
3.04435
3.04273
3.04096
3.03904
3.03698
3.03479
3.03246
3.03001
3.02746
3.0248
3.02206
3.01925
3.01638
3.01346
3.01052
3.00756
3.00462
3.00169
2.99881
2.99598
2.99321
2.99053
2.98794
2.98546
2.98307
2.9808
2.97864
2.97659
2.97464
2.9728
2.97105
2.96939
2.9678
2.96629
2.96484
2.96345
2.96212
2.96083
2.95959
2.95838
2.95723
2.95611
2.95504
2.95401
2.95303
2.9521
2.95123
2.95041
2.94965
2.94895
2.94831
2.94773
2.94721
2.94676
2.94636
2.94602
2.94574
2.94551
2.94532
2.94518
2.94508
2.945
2.94495
2.94492
2.94491
2.9449
2.9449
2.94491
2.94491
3.02866
3.02873
3.02887
3.02907
3.02934
3.02968
3.03008
3.03055
3.03109
3.03168
3.03233
3.03304
3.0338
3.03461
3.03547
3.03637
3.03732
3.0383
3.03933
3.04038
3.04146
3.04257
3.0437
3.04485
3.04601
3.04718
3.04834
3.0495
3.05064
3.05175
3.05283
3.05386
3.05484
3.05575
3.05659
3.05734
3.058
3.05855
3.059
3.05932
3.05953
3.0596
3.05953
3.05933
3.05898
3.05848
3.05783
3.05704
3.05609
3.05499
3.05374
3.05234
3.05079
3.0491
3.04728
3.04532
3.04324
3.04104
3.03873
3.03631
3.03381
3.03123
3.02858
3.02588
3.02314
3.02037
3.01759
3.01482
3.01206
3.00934
3.00667
3.00405
3.0015
2.99904
2.99666
2.99437
2.99218
2.99008
2.98809
2.98619
2.98437
2.98265
2.98101
2.97944
2.97794
2.9765
2.97512
2.9738
2.97252
2.97129
2.97011
2.96897
2.96787
2.96682
2.96582
2.96486
2.96395
2.9631
2.96229
2.96155
2.96086
2.96022
2.95965
2.95913
2.95867
2.95826
2.95791
2.95761
2.95736
2.95715
2.95698
2.95685
2.95675
2.95667
2.95662
2.95658
2.95656
2.95654
2.95653
2.95653
3.03943
3.0395
3.03962
3.03982
3.04007
3.04039
3.04077
3.0412
3.0417
3.04225
3.04286
3.04352
3.04423
3.04499
3.04579
3.04664
3.04752
3.04844
3.04939
3.05037
3.05137
3.0524
3.05345
3.05451
3.05558
3.05665
3.05771
3.05877
3.0598
3.06081
3.06178
3.06271
3.06358
3.0644
3.06514
3.0658
3.06637
3.06685
3.06722
3.06748
3.06763
3.06765
3.06755
3.06732
3.06695
3.06644
3.0658
3.06502
3.06409
3.06302
3.06182
3.06047
3.05899
3.05738
3.05565
3.05379
3.05181
3.04972
3.04754
3.04526
3.0429
3.04046
3.03797
3.03542
3.03284
3.03023
3.02762
3.025
3.0224
3.01983
3.0173
3.01482
3.01239
3.01004
3.00776
3.00557
3.00346
3.00143
2.99949
2.99764
2.99586
2.99417
2.99255
2.99101
2.98952
2.9881
2.98674
2.98543
2.98417
2.98296
2.98179
2.98067
2.97959
2.97856
2.97757
2.97664
2.97575
2.97491
2.97412
2.97339
2.97271
2.97208
2.97151
2.97099
2.97053
2.97011
2.96975
2.96943
2.96916
2.96894
2.96875
2.96859
2.96847
2.96837
2.9683
2.96824
2.9682
2.96817
2.96816
2.96815
3.05014
3.0502
3.05032
3.0505
3.05073
3.05103
3.05138
3.05179
3.05226
3.05277
3.05334
3.05396
3.05462
3.05533
3.05607
3.05686
3.05768
3.05854
3.05942
3.06033
3.06126
3.06221
3.06318
3.06415
3.06514
3.06612
3.06709
3.06805
3.06899
3.0699
3.07078
3.07161
3.07239
3.07311
3.07377
3.07435
3.07484
3.07525
3.07555
3.07576
3.07585
3.07584
3.0757
3.07544
3.07506
3.07455
3.07391
3.07313
3.07223
3.0712
3.07003
3.06874
3.06733
3.06579
3.06413
3.06236
3.06049
3.05851
3.05644
3.05429
3.05205
3.04976
3.0474
3.045
3.04257
3.04011
3.03764
3.03517
3.03271
3.03028
3.02788
3.02552
3.02321
3.02097
3.01879
3.01668
3.01465
3.01269
3.01081
3.009
3.00727
3.00561
3.00403
3.0025
3.00105
2.99964
2.9983
2.99701
2.99576
2.99457
2.99342
2.99232
2.99126
2.99025
2.98929
2.98837
2.98749
2.98667
2.9859
2.98518
2.9845
2.98388
2.98331
2.9828
2.98233
2.98191
2.98154
2.98121
2.98093
2.98068
2.98048
2.9803
2.98016
2.98004
2.97995
2.97988
2.97983
2.97979
2.97977
2.97976
3.06078
3.06084
3.06095
3.06112
3.06134
3.06162
3.06195
3.06233
3.06276
3.06324
3.06377
3.06435
3.06496
3.06562
3.06632
3.06705
3.06781
3.0686
3.06942
3.07027
3.07113
3.07201
3.0729
3.0738
3.0747
3.07559
3.07648
3.07735
3.0782
3.07903
3.07982
3.08056
3.08126
3.0819
3.08247
3.08298
3.0834
3.08374
3.08399
3.08414
3.08419
3.08414
3.08397
3.08369
3.08329
3.08278
3.08214
3.08138
3.0805
3.0795
3.07838
3.07714
3.07578
3.07431
3.07273
3.07105
3.06927
3.06739
3.06543
3.06339
3.06128
3.05911
3.05688
3.05461
3.05231
3.04999
3.04766
3.04532
3.043
3.04069
3.03841
3.03617
3.03397
3.03183
3.02974
3.02772
3.02576
3.02387
3.02205
3.02029
3.01861
3.01699
3.01543
3.01394
3.01251
3.01113
3.00981
3.00854
3.00731
3.00614
3.00501
3.00393
3.00289
3.00189
3.00095
3.00005
2.99919
2.99838
2.99762
2.99691
2.99625
2.99563
2.99507
2.99455
2.99408
2.99366
2.99328
2.99294
2.99265
2.99239
2.99217
2.99198
2.99182
2.99169
2.99159
2.9915
2.99144
2.9914
2.99137
2.99135
3.07137
3.07142
3.07153
3.07168
3.07189
3.07215
3.07246
3.07281
3.07322
3.07366
3.07416
3.07469
3.07527
3.07588
3.07652
3.0772
3.07791
3.07865
3.0794
3.08018
3.08098
3.08179
3.08261
3.08343
3.08426
3.08508
3.08588
3.08668
3.08745
3.08819
3.0889
3.08956
3.09018
3.09075
3.09125
3.09168
3.09204
3.09232
3.09252
3.09263
3.09264
3.09255
3.09235
3.09205
3.09165
3.09113
3.0905
3.08975
3.08889
3.08792
3.08684
3.08565
3.08435
3.08294
3.08143
3.07983
3.07814
3.07635
3.07449
3.07256
3.07056
3.06851
3.0664
3.06426
3.06208
3.05988
3.05768
3.05546
3.05326
3.05107
3.04891
3.04677
3.04468
3.04263
3.04063
3.03869
3.0368
3.03498
3.03322
3.03151
3.02987
3.0283
3.02678
3.02532
3.02391
3.02256
3.02126
3.02001
3.01881
3.01766
3.01655
3.01549
3.01447
3.01349
3.01256
3.01168
3.01084
3.01005
3.0093
3.0086
3.00794
3.00733
3.00677
3.00626
3.00578
3.00536
3.00497
3.00463
3.00433
3.00406
3.00383
3.00363
3.00346
3.00332
3.0032
3.00311
3.00303
3.00298
3.00295
3.00293
3.0819
3.08195
3.08205
3.08219
3.08239
3.08263
3.08292
3.08325
3.08362
3.08404
3.0845
3.08499
3.08553
3.0861
3.0867
3.08732
3.08798
3.08866
3.08936
3.09008
3.09082
3.09156
3.09231
3.09307
3.09382
3.09457
3.0953
3.09602
3.09672
3.09738
3.09802
3.09861
3.09916
3.09965
3.10009
3.10046
3.10077
3.10099
3.10114
3.1012
3.10118
3.10106
3.10084
3.10053
3.10011
3.09959
3.09896
3.09823
3.0974
3.09645
3.09541
3.09426
3.09301
3.09167
3.09023
3.0887
3.08709
3.0854
3.08363
3.0818
3.0799
3.07795
3.07596
3.07393
3.07187
3.06979
3.0677
3.0656
3.06351
3.06143
3.05937
3.05734
3.05534
3.05338
3.05147
3.0496
3.04779
3.04603
3.04432
3.04267
3.04108
3.03954
3.03806
3.03664
3.03526
3.03394
3.03267
3.03144
3.03026
3.02913
3.02804
3.027
3.026
3.02504
3.02413
3.02326
3.02244
3.02166
3.02092
3.02023
3.01959
3.01899
3.01843
3.01792
3.01744
3.01702
3.01663
3.01628
3.01597
3.01569
3.01545
3.01524
3.01506
3.01491
3.01479
3.01469
3.01461
3.01455
3.01451
3.01449
3.09239
3.09243
3.09252
3.09266
3.09284
3.09306
3.09333
3.09364
3.09399
3.09437
3.0948
3.09526
3.09576
3.09628
3.09684
3.09742
3.09803
3.09866
3.0993
3.09997
3.10064
3.10133
3.10202
3.10271
3.10339
3.10407
3.10474
3.10539
3.10601
3.10661
3.10718
3.10771
3.10819
3.10862
3.109
3.10931
3.10956
3.10974
3.10984
3.10987
3.10981
3.10966
3.10943
3.1091
3.10867
3.10815
3.10753
3.10682
3.106
3.10509
3.10408
3.10298
3.10178
3.10049
3.09912
3.09766
3.09612
3.09451
3.09283
3.09109
3.08929
3.08745
3.08556
3.08363
3.08168
3.0797
3.07772
3.07573
3.07374
3.07177
3.0698
3.06787
3.06596
3.06409
3.06225
3.06046
3.05871
3.05702
3.05537
3.05377
3.05223
3.05073
3.04929
3.0479
3.04656
3.04527
3.04402
3.04282
3.04167
3.04056
3.03949
3.03847
3.03749
3.03655
3.03566
3.0348
3.034
3.03323
3.03251
3.03183
3.03119
3.03059
3.03004
3.02953
3.02906
3.02863
3.02824
3.02789
3.02757
3.02729
3.02704
3.02683
3.02664
3.02648
3.02635
3.02624
3.02616
3.0261
3.02605
3.02603
3.10282
3.10287
3.10295
3.10308
3.10324
3.10345
3.1037
3.10399
3.10431
3.10467
3.10506
3.10549
3.10595
3.10644
3.10695
3.10749
3.10805
3.10863
3.10923
3.10984
3.11046
3.11108
3.11171
3.11234
3.11297
3.11359
3.11419
3.11478
3.11534
3.11587
3.11638
3.11684
3.11726
3.11764
3.11796
3.11823
3.11843
3.11856
3.11863
3.11862
3.11853
3.11836
3.1181
3.11776
3.11733
3.11681
3.1162
3.1155
3.11471
3.11382
3.11285
3.11178
3.11063
3.1094
3.10809
3.10669
3.10523
3.1037
3.1021
3.10044
3.09873
3.09698
3.09519
3.09336
3.0915
3.08963
3.08775
3.08586
3.08397
3.08208
3.08022
3.07837
3.07654
3.07475
3.07299
3.07127
3.06959
3.06796
3.06637
3.06482
3.06332
3.06187
3.06047
3.05912
3.05781
3.05654
3.05533