/*--------------------------------*- C++ -*----------------------------------*\
| =========                 |                                                 |
| \\      /  F ield         | OpenFOAM: The Open Source CFD Toolbox           |
|  \\    /   O peration     | Version:  2406                                  |
|   \\  /    A nd           | Website:  www.openfoam.com                      |
|    \\/     M anipulation  |                                                 |
\*---------------------------------------------------------------------------*/
FoamFile
{
    version     2.0;
    format      ascii;
    arch        "LSB;label=32;scalar=64";
    class       volScalarField;
    location    "8.4";
    object      C_0;
}
// * * * * * * * * * * * * * * * * * * * * * * * * * * * * * * * * * * * * * //

dimensions      [1 -3 0 0 0 0 0];

internalField   nonuniform List<scalar> 
14400
(
0.221024
0.220128
0.21855
0.216621
0.214685
0.213038
0.211905
0.211425
0.21165
0.212546
0.21399
0.215759
0.217535
0.218911
0.219433
0.218706
0.21658
0.213318
0.209399
0.205342
0.201616
0.19862
0.196684
0.196096
0.197118
0.20001
0.205032
0.212453
0.222554
0.235624
0.25197
0.271912
0.295782
0.323911
0.356591
0.393993
0.435924
0.480687
0.515005
0.537656
0.556324
0.572291
0.585784
0.596976
0.606
0.61296
0.61793
0.620964
0.622099
0.621351
0.618722
0.614196
0.607739
0.599302
0.588812
0.576172
0.561256
0.543903
0.5239
0.498883
0.462102
0.416735
0.374762
0.337581
0.305225
0.277444
0.253903
0.23425
0.218138
0.205233
0.195211
0.187763
0.1826
0.179468
0.178163
0.178536
0.180491
0.183979
0.188982
0.195508
0.203573
0.21317
0.224247
0.236642
0.250004
0.263558
0.275286
0.281548
0.280545
0.274047
0.265123
0.255828
0.246959
0.238928
0.231954
0.226137
0.221487
0.217946
0.215403
0.213708
0.212685
0.212153
0.211956
0.21199
0.21223
0.212743
0.213674
0.215222
0.217608
0.221054
0.22576
0.231895
0.239582
0.248885
0.259786
0.272156
0.28568
0.299694
0.312699
0.320529
0.227015
0.225892
0.223961
0.221653
0.21938
0.217475
0.216177
0.215632
0.215895
0.216934
0.218624
0.220739
0.222942
0.224777
0.225682
0.225083
0.222671
0.218897
0.214419
0.209853
0.205708
0.20239
0.200228
0.1995
0.200464
0.203367
0.208464
0.216018
0.226303
0.239607
0.256238
0.276515
0.300774
0.329347
0.362525
0.400442
0.442697
0.486696
0.519019
0.540646
0.559024
0.574766
0.588085
0.599143
0.608066
0.614949
0.619865
0.622864
0.623982
0.623233
0.620619
0.616126
0.609721
0.601355
0.590961
0.578447
0.563695
0.546552
0.526821
0.503085
0.467929
0.42274
0.380455
0.342814
0.309987
0.281764
0.257821
0.237805
0.221368
0.208174
0.197902
0.190247
0.184924
0.181684
0.180326
0.180701
0.182716
0.18632
0.191501
0.198269
0.206643
0.216624
0.228165
0.241116
0.255145
0.269482
0.281648
0.287613
0.287318
0.280795
0.271395
0.261616
0.252322
0.243937
0.236689
0.230676
0.225906
0.222319
0.219797
0.218176
0.21726
0.21684
0.216729
0.216795
0.217005
0.217437
0.218266
0.219721
0.222049
0.22549
0.230258
0.236527
0.244425
0.254021
0.265302
0.278149
0.292258
0.306936
0.320123
0.326916
0.239509
0.237845
0.23512
0.231999
0.229023
0.226587
0.224952
0.224274
0.224612
0.225934
0.228118
0.230934
0.234025
0.236858
0.238671
0.238448
0.235302
0.230359
0.224684
0.219066
0.21407
0.210104
0.207485
0.206474
0.207311
0.210229
0.215466
0.223274
0.233919
0.247686
0.264877
0.285816
0.310841
0.340285
0.374438
0.413418
0.456576
0.497707
0.52607
0.546565
0.56436
0.579664
0.592647
0.603446
0.612171
0.618905
0.623715
0.626647
0.62773
0.626979
0.624396
0.619967
0.613662
0.605437
0.595231
0.582961
0.568524
0.551788
0.532589
0.510569
0.478885
0.434934
0.391981
0.353375
0.319597
0.290496
0.265756
0.245022
0.227943
0.214182
0.203421
0.195359
0.189723
0.186272
0.184809
0.18519
0.187324
0.191164
0.1967
0.203951
0.212941
0.22368
0.236126
0.250141
0.26539
0.281015
0.293558
0.29902
0.299595
0.294032
0.283978
0.273312
0.263196
0.254127
0.246346
0.239955
0.234962
0.231302
0.228843
0.227396
0.226724
0.22656
0.226645
0.226785
0.226921
0.227164
0.227753
0.228988
0.231171
0.234579
0.239449
0.245969
0.254272
0.264431
0.276439
0.290178
0.305329
0.321054
0.333747
0.338714
0.259502
0.256745
0.252597
0.248124
0.244033
0.240772
0.238622
0.237739
0.238183
0.239925
0.242847
0.246727
0.251204
0.2557
0.259244
0.260036
0.255227
0.248171
0.240541
0.233291
0.227002
0.222062
0.218753
0.217309
0.217941
0.220861
0.226289
0.23446
0.245628
0.260071
0.278089
0.300003
0.32615
0.356849
0.392334
0.432551
0.476163
0.511836
0.535697
0.555176
0.572187
0.586883
0.599392
0.609824
0.618265
0.624787
0.629445
0.632277
0.633311
0.632559
0.63002
0.625683
0.619523
0.611501
0.601563
0.589642
0.575651
0.559489
0.541036
0.520172
0.493301
0.453639
0.409461
0.369384
0.334208
0.303816
0.2779
0.256108
0.238086
0.223496
0.212023
0.203374
0.197285
0.193528
0.191917
0.192313
0.194628
0.198823
0.204893
0.212862
0.222762
0.23461
0.248372
0.263901
0.280787
0.297804
0.309801
0.314792
0.316074
0.312972
0.302929
0.291104
0.279835
0.26979
0.261248
0.254324
0.249031
0.245301
0.242986
0.241864
0.241638
0.241944
0.242397
0.242673
0.242662
0.242538
0.242676
0.243498
0.245395
0.248699
0.253678
0.260534
0.269405
0.280364
0.293398
0.308354
0.324787
0.341264
0.351411
0.354892
0.288373
0.283453
0.276984
0.270514
0.264859
0.260476
0.257629
0.256467
0.257046
0.259337
0.263226
0.268508
0.274846
0.281686
0.287983
0.29046
0.282895
0.272642
0.262284
0.252846
0.244854
0.238629
0.234405
0.232373
0.232716
0.235616
0.241272
0.249901
0.261744
0.277068
0.296165
0.319354
0.346959
0.379264
0.416369
0.457674
0.498909
0.527375
0.547975
0.566256
0.58233
0.596288
0.608216
0.618191
0.626278
0.632533
0.636999
0.639707
0.640679
0.639924
0.637442
0.633224
0.627247
0.619479
0.609879
0.598391
0.58495
0.56948
0.551896
0.5321
0.509295
0.476328
0.432399
0.390896
0.354024
0.321979
0.294533
0.271357
0.252105
0.236441
0.224053
0.214656
0.207996
0.203858
0.202067
0.202493
0.205059
0.209728
0.216503
0.225413
0.236496
0.249775
0.265218
0.282658
0.301536
0.319402
0.329336
0.334085
0.335955
0.335018
0.327776
0.315084
0.302504
0.291271
0.281785
0.274203
0.268563
0.264801
0.262761
0.262188
0.26271
0.263825
0.264938
0.265461
0.265163
0.264366
0.263715
0.26383
0.265228
0.268306
0.273363
0.28061
0.290184
0.302144
0.316444
0.332842
0.35055
0.36546
0.371815
0.37446
0.326533
0.31824
0.308545
0.299487
0.291871
0.286097
0.282388
0.280879
0.281622
0.28458
0.289631
0.296579
0.305059
0.314387
0.322516
0.323165
0.316959
0.303488
0.289987
0.277982
0.267963
0.260189
0.254843
0.252078
0.252044
0.254898
0.260815
0.269994
0.282657
0.299059
0.319478
0.344218
0.373583
0.407801
0.446756
0.488748
0.521522
0.543557
0.562537
0.579541
0.59459
0.607724
0.618993
0.628445
0.636124
0.642069
0.646311
0.648873
0.649773
0.649016
0.646602
0.642522
0.63676
0.629291
0.620082
0.609093
0.596278
0.581587
0.564966
0.546373
0.525787
0.499921
0.461098
0.418191
0.379354
0.345326
0.316015
0.291144
0.270385
0.253413
0.23992
0.229629
0.222297
0.217718
0.21573
0.216215
0.219103
0.224364
0.232007
0.242064
0.254578
0.269571
0.286988
0.306573
0.32734
0.343798
0.351532
0.356252
0.358606
0.358724
0.355699
0.345035
0.331394
0.318903
0.308358
0.300022
0.29401
0.290287
0.288702
0.288979
0.290681
0.29313
0.29543
0.296406
0.295562
0.29354
0.291581
0.290573
0.291182
0.293865
0.298939
0.306608
0.31699
0.330105
0.34582
0.363558
0.381207
0.390644
0.394623
0.396674
0.36383
0.358874
0.346789
0.335059
0.325289
0.317956
0.313251
0.311337
0.312276
0.316009
0.322366
0.331136
0.34175
0.352659
0.356709
0.355073
0.3517
0.339609
0.323509
0.308887
0.29666
0.287135
0.280491
0.276861
0.276372
0.279158
0.285372
0.295192
0.308824
0.326497
0.348465
0.374991
0.406326
0.442537
0.482728
0.518692
0.542597
0.561664
0.579076
0.594782
0.608763
0.621026
0.631587
0.640471
0.647703
0.653307
0.657302
0.659704
0.660523
0.659764
0.657426
0.653503
0.647981
0.640843
0.632065
0.621622
0.609483
0.595621
0.58001
0.562637
0.54351
0.522503
0.492966
0.451008
0.410469
0.374249
0.342771
0.315905
0.293372
0.274862
0.26008
0.248758
0.240659
0.23559
0.233398
0.233975
0.23726
0.243231
0.251898
0.263297
0.277468
0.294415
0.314027
0.335771
0.35721
0.369525
0.376149
0.380784
0.383494
0.384409
0.38375
0.378823
0.36626
0.352891
0.341317
0.332161
0.325775
0.322179
0.321252
0.322734
0.326179
0.330686
0.335131
0.336935
0.33508
0.33085
0.326875
0.324218
0.3237
0.325791
0.330806
0.338911
0.350172
0.364529
0.381681
0.400041
0.411488
0.416222
0.419337
0.42094
0.397246
0.396569
0.390106
0.376897
0.36516
0.356284
0.350485
0.348118
0.349294
0.353906
0.361597
0.372162
0.384067
0.390172
0.389839
0.388169
0.385625
0.378895
0.36261
0.345777
0.331308
0.319888
0.311798
0.307189
0.30618
0.308886
0.315441
0.326003
0.340757
0.359896
0.383616
0.412087
0.445391
0.483003
0.520387
0.545579
0.564139
0.581426
0.597321
0.611746
0.624655
0.636028
0.645858
0.65415
0.660912
0.666153
0.669886
0.672116
0.672851
0.672091
0.669837
0.666082
0.660818
0.654034
0.645715
0.635846
0.624413
0.611404
0.596815
0.580654
0.562946
0.543737
0.521887
0.489369
0.447733
0.409167
0.375265
0.346132
0.321564
0.30129
0.285035
0.27254
0.263581
0.257972
0.25557
0.256277
0.260037
0.266834
0.27668
0.289607
0.305634
0.324724
0.346646
0.370269
0.38808
0.396574
0.40273
0.40724
0.410178
0.411668
0.4119
0.411095
0.405395
0.393004
0.380854
0.370853
0.364136
0.360757
0.360669
0.363648
0.369407
0.376485
0.384294
0.387058
0.383981
0.376324
0.369811
0.365
0.363061
0.364372
0.369263
0.377792
0.389901
0.405302
0.422941
0.434491
0.439703
0.443148
0.445564
0.446809
0.430868
0.430693
0.429737
0.423403
0.411038
0.401139
0.394173
0.391318
0.392778
0.398384
0.407027
0.418439
0.424504
0.424945
0.423783
0.422138
0.419897
0.416883
0.406917
0.388899
0.372296
0.358885
0.349235
0.343557
0.341981
0.34461
0.35156
0.362973
0.379006
0.3998
0.425437
0.455848
0.490683
0.52734
0.552583
0.570253
0.586941
0.602578
0.617037
0.630226
0.642084
0.652573
0.661668
0.669359
0.67564
0.68051
0.683971
0.686025
0.686673
0.685914
0.683748
0.68017
0.675176
0.668759
0.660913
0.651634
0.640918
0.628767
0.615193
0.600219
0.583882
0.56624
0.54737
0.524395
0.490095
0.450194
0.413903
0.382332
0.355505
0.333247
0.315329
0.301516
0.291596
0.285393
0.282773
0.283645
0.287959
0.295701
0.30688
0.32151
0.339555
0.360834
0.384632
0.406866
0.418344
0.425319
0.430958
0.435268
0.438308
0.440186
0.441063
0.441152
0.440636
0.435751
0.426302
0.415824
0.409054
0.405975
0.406808
0.411155
0.419226
0.426291
0.429948
0.431098
0.430198
0.42668
0.419417
0.412522
0.409188
0.409578
0.414329
0.423184
0.435682
0.450681
0.460531
0.465255
0.468471
0.471103
0.472962
0.473923
0.464664
0.464647
0.464682
0.464262
0.45967
0.451687
0.443725
0.44053
0.442206
0.448773
0.456338
0.46053
0.460594
0.459451
0.458208
0.456704
0.454843
0.452579
0.448913
0.437477
0.419783
0.404475
0.393244
0.386454
0.384297
0.386871
0.39428
0.40664
0.424094
0.446689
0.474272
0.505994
0.539802
0.563635
0.580087
0.595805
0.610796
0.624909
0.638021
0.650036
0.660883
0.670511
0.678883
0.685977
0.691778
0.696275
0.699464
0.70134
0.701901
0.701145
0.69907
0.695674
0.690956
0.684913
0.677546
0.668859
0.658856
0.647553
0.634971
0.621145
0.606123
0.589972
0.57278
0.55466
0.531219
0.496561
0.458901
0.42499
0.395759
0.371315
0.351554
0.336273
0.325284
0.318428
0.315575
0.316642
0.321585
0.33039
0.343048
0.359547
0.379728
0.403048
0.427392
0.441871
0.449206
0.455397
0.460515
0.464567
0.4676
0.469705
0.471014
0.471707
0.472012
0.472187
0.469568
0.464714
0.45923
0.456525
0.458181
0.46218
0.465607
0.467439
0.467065
0.467053
0.467908
0.468872
0.467366
0.464322
0.460811
0.460251
0.464911
0.47354
0.482592
0.489466
0.492743
0.495388
0.497822
0.499831
0.501258
0.501998
0.498477
0.498547
0.49874
0.499167
0.499862
0.498062
0.495324
0.49355
0.494299
0.496315
0.497735
0.496541
0.495217
0.494055
0.492896
0.491627
0.49019
0.488575
0.486833
0.483114
0.472629
0.456587
0.444087
0.436269
0.433589
0.436154
0.444082
0.457425
0.476338
0.50065
0.5294
0.557824
0.578822
0.593618
0.608056
0.622083
0.635527
0.648241
0.660103
0.671015
0.680902
0.689704
0.697377
0.70389
0.709219
0.713349
0.716268
0.717969
0.718446
0.717694
0.715713
0.712502
0.70806
0.702391
0.695501
0.687397
0.678096
0.667618
0.655994
0.643267
0.629493
0.614745
0.599115
0.582717
0.565679
0.54282
0.509629
0.474404
0.442844
0.416072
0.394323
0.377429
0.365266
0.357693
0.354586
0.355869
0.361506
0.371476
0.38572
0.404199
0.426466
0.450792
0.467055
0.474842
0.481109
0.486548
0.491139
0.494885
0.497821
0.500018
0.501581
0.502652
0.503406
0.504052
0.504838
0.504943
0.503614
0.502665
0.502925
0.503499
0.502734
0.501794
0.501459
0.501656
0.502463
0.503839
0.505925
0.507372
0.507838
0.509169
0.512347
0.516533
0.51997
0.521721
0.523706
0.52573
0.527597
0.529142
0.530242
0.530813
0.532221
0.532325
0.532564
0.533
0.533716
0.534812
0.535759
0.535674
0.535293
0.533975
0.532227
0.530835
0.529677
0.528659
0.527692
0.526719
0.525714
0.524699
0.523743
0.522981
0.520609
0.513305
0.501233
0.492974
0.490022
0.492655
0.501156
0.515274
0.535112
0.559752
0.581089
0.597883
0.610711
0.623626
0.636436
0.648945
0.660988
0.672424
0.683134
0.693021
0.702005
0.710025
0.71703
0.722985
0.72786
0.731634
0.734292
0.735822
0.736218
0.735474
0.733587
0.730559
0.726392
0.721091
0.714668
0.707135
0.698512
0.688829
0.678121
0.666436
0.653837
0.6404
0.626219
0.611407
0.596094
0.580423
0.559388
0.529733
0.49696
0.467934
0.444218
0.425593
0.412168
0.403823
0.400434
0.401933
0.408298
0.419502
0.435275
0.455573
0.478628
0.49466
0.502658
0.50852
0.513839
0.518547
0.522607
0.526012
0.528781
0.530965
0.532641
0.533914
0.534906
0.535751
0.536567
0.537386
0.53818
0.538392
0.537743
0.536727
0.535926
0.535422
0.53532
0.535649
0.536448
0.537723
0.539501
0.541746
0.544444
0.546957
0.548811
0.550134
0.551494
0.553011
0.554629
0.556232
0.557693
0.558898
0.559754
0.560199
0.565862
0.565966
0.566189
0.566554
0.567074
0.567716
0.56828
0.568484
0.567962
0.567011
0.565911
0.564894
0.563999
0.563209
0.562496
0.561841
0.56125
0.560762
0.560458
0.560472
0.561003
0.561221
0.558386
0.554586
0.552272
0.555088
0.564164
0.578007
0.593749
0.608375
0.620272
0.631085
0.642326
0.65374
0.665117
0.676274
0.687057
0.697333
0.706988
0.715928
0.724073
0.731359
0.737735
0.74316
0.747602
0.751035
0.753443
0.754811
0.75513
0.754395
0.752603
0.749755
0.745856
0.740915
0.734944
0.727961
0.71999
0.711064
0.701223
0.690521
0.67902
0.666799
0.653954
0.640595
0.626854
0.61288
0.598845
0.580936
0.556595
0.52662
0.50162
0.481203
0.466525
0.457402
0.453697
0.455365
0.462395
0.474845
0.491493
0.512203
0.525908
0.53297
0.537962
0.542741
0.547179
0.551193
0.554732
0.557775
0.560327
0.562419
0.564105
0.565455
0.566553
0.567478
0.568294
0.569009
0.569568
0.569783
0.569589
0.569181
0.568822
0.568648
0.568748
0.569175
0.569956
0.571103
0.572608
0.574421
0.576439
0.578391
0.580063
0.581485
0.582838
0.584202
0.585567
0.586874
0.588045
0.589002
0.589679
0.590029
0.599399
0.599489
0.599674
0.599953
0.600311
0.600697
0.600994
0.601053
0.600757
0.600196
0.599512
0.598832
0.598215
0.597683
0.597241
0.5969
0.596683
0.596641
0.596855
0.597446
0.598579
0.600475
0.603387
0.605302
0.607464
0.61193
0.619211
0.628222
0.637244
0.645346
0.654277
0.663827
0.673768
0.683892
0.694016
0.703977
0.713633
0.722863
0.731559
0.73963
0.747
0.753604
0.759391
0.764318
0.768351
0.771463
0.773634
0.774848
0.775097
0.774373
0.772674
0.770002
0.766364
0.761768
0.756232
0.749774
0.742423
0.734213
0.725188
0.715402
0.704921
0.693824
0.682202
0.670167
0.657846
0.645385
0.63296
0.62078
0.606994
0.588547
0.56579
0.543918
0.528463
0.518697
0.514637
0.516322
0.523554
0.536911
0.551291
0.56104
0.565868
0.569607
0.573478
0.577301
0.580944
0.584315
0.587353
0.590028
0.592332
0.59428
0.595904
0.59725
0.598371
0.599316
0.600121
0.600791
0.601297
0.601584
0.601647
0.601585
0.601534
0.601598
0.601852
0.602344
0.6031
0.604126
0.605406
0.606892
0.608498
0.61009
0.611563
0.612905
0.61417
0.615391
0.616564
0.617654
0.618612
0.619386
0.619929
0.62021
0.632845
0.632919
0.633063
0.633271
0.63352
0.633768
0.633945
0.633976
0.633818
0.633504
0.633109
0.632705
0.632347
0.632066
0.631887
0.631833
0.631941
0.632264
0.632876
0.633877
0.635394
0.637572
0.640553
0.644408
0.649133
0.654265
0.659698
0.665594
0.672257
0.679639
0.68766
0.696178
0.705028
0.714045
0.723077
0.731983
0.740637
0.748926
0.756754
0.764033
0.770692
0.776667
0.781908
0.78637
0.790021
0.792831
0.79478
0.795852
0.796036
0.795325
0.793718
0.791216
0.787828
0.783564
0.77844
0.772481
0.765714
0.758177
0.749914
0.74098
0.73144
0.721371
0.710865
0.700026
0.688976
0.677855
0.666826
0.65608
0.645842
0.635995
0.623488
0.60961
0.596141
0.586237
0.581789
0.583155
0.588439
0.594417
0.599281
0.60117
0.603414
0.606111
0.609043
0.612042
0.614982
0.617768
0.620337
0.622651
0.624693
0.626465
0.627981
0.629271
0.630365
0.631295
0.632083
0.632735
0.633247
0.633607
0.633831
0.633979
0.63413
0.634357
0.634717
0.635249
0.635974
0.636896
0.637998
0.639244
0.640572
0.641908
0.643192
0.644402
0.645545
0.646628
0.647643
0.648565
0.649362
0.649999
0.650444
0.650672
0.666218
0.666277
0.66639
0.666548
0.666731
0.666909
0.667041
0.667089
0.667035
0.666896
0.666713
0.666534
0.666401
0.666348
0.666406
0.666605
0.666985
0.667597
0.668507
0.669793
0.671548
0.673866
0.676827
0.680463
0.684737
0.689495
0.694672
0.70032
0.706529
0.713291
0.720547
0.728197
0.736119
0.744184
0.752264
0.760241
0.768004
0.775453
0.782497
0.789058
0.795067
0.800465
0.805201
0.809235
0.812531
0.815061
0.816804
0.817744
0.817869
0.817174
0.815655
0.813317
0.810167
0.806217
0.801486
0.795995
0.789777
0.782867
0.775311
0.767163
0.758487
0.749357
0.73986
0.730095
0.720176
0.710232
0.700409
0.690872
0.681807
0.673412
0.665953
0.65895
0.65121
0.644541
0.640333
0.638894
0.639057
0.638667
0.638386
0.639102
0.640506
0.642379
0.644541
0.646844
0.649172
0.651438
0.653577
0.655547
0.657326
0.658904
0.660286
0.661487
0.662524
0.663416
0.664179
0.664821
0.665348
0.665764
0.666092
0.666371
0.666651
0.666984
0.66741
0.667961
0.668652
0.669485
0.670447
0.671512
0.672638
0.673779
0.674896
0.675966
0.676981
0.677934
0.678814
0.679602
0.680274
0.680805
0.681173
0.681362
0.699532
0.69958
0.699672
0.699799
0.699948
0.700096
0.700221
0.700303
0.700336
0.700331
0.700313
0.700317
0.700376
0.70052
0.700782
0.701195
0.701797
0.702634
0.703761
0.70524
0.707138
0.709517
0.712425
0.71588
0.719859
0.724302
0.729175
0.734485
0.740248
0.74645
0.753041
0.759945
0.767067
0.774306
0.781556
0.788714
0.795686
0.802383
0.808722
0.814634
0.820053
0.824923
0.829198
0.832837
0.835806
0.838078
0.839631
0.84045
0.840523
0.839845
0.838413
0.836231
0.833307
0.829653
0.825289
0.820238
0.81453
0.808203
0.8013
0.793874
0.785987
0.77771
0.769123
0.760319
0.751403
0.742488
0.733705
0.725193
0.717102
0.709585
0.702786
0.696765
0.691679
0.68739
0.683709
0.680582
0.678182
0.676766
0.676175
0.676348
0.677129
0.678359
0.679897
0.68162
0.683425
0.685234
0.686985
0.688635
0.690158
0.691538
0.692773
0.693866
0.694827
0.695666
0.696396
0.697023
0.697558
0.698011
0.698402
0.69876
0.69912
0.699516
0.69998
0.700533
0.701187
0.701944
0.702794
0.703718
0.704688
0.705674
0.706646
0.707586
0.708479
0.709314
0.710077
0.710754
0.711325
0.711774
0.712083
0.712241
0.732797
0.732839
0.732919
0.733031
0.733164
0.733306
0.733443
0.733567
0.733675
0.733778
0.733893
0.734046
0.734264
0.734575
0.735008
0.735596
0.736374
0.737382
0.738664
0.740269
0.742246
0.744638
0.747476
0.750772
0.754515
0.758679
0.763243
0.768196
0.773529
0.779218
0.785221
0.791473
0.7979
0.804417
0.810937
0.817374
0.823644
0.829669
0.835377
0.840702
0.845587
0.849978
0.853831
0.857109
0.859778
0.861813
0.863193
0.863902
0.863929
0.863269
0.861921
0.859886
0.857175
0.8538
0.849779
0.845137
0.839903
0.834114
0.827811
0.821047
0.813878
0.806372
0.798603
0.790657
0.782626
0.774613
0.76673
0.759093
0.751824
0.745039
0.738842
0.733302
0.728475
0.724325
0.720789
0.717852
0.715578
0.714042
0.713199
0.712985
0.713301
0.714033
0.715069
0.716312
0.717675
0.719087
0.720493
0.721851
0.723132
0.724318
0.725401
0.726377
0.727251
0.728027
0.728714
0.729319
0.72985
0.73032
0.730745
0.731147
0.731551
0.731981
0.73246
0.733003
0.733619
0.73431
0.735067
0.735878
0.736724
0.737581
0.73843
0.739253
0.740035
0.740764
0.741427
0.742011
0.7425
0.742882
0.743144
0.743278
0.766021
0.766059
0.766134
0.766241
0.766372
0.766521
0.76668
0.766846
0.76702
0.767212
0.767435
0.76771
0.768059
0.768506
0.76908
0.769808
0.770721
0.771854
0.773243
0.774927
0.77694
0.779313
0.782069
0.785217
0.788751
0.792658
0.796921
0.801526
0.806453
0.811674
0.81715
0.822827
0.828642
0.834525
0.840403
0.846201
0.851847
0.857273
0.862414
0.867212
0.871613
0.87557
0.87904
0.881989
0.884385
0.886204
0.887426
0.888036
0.888023
0.887383
0.886113
0.884219
0.881707
0.878592
0.874891
0.870628
0.865832
0.860537
0.854785
0.848623
0.842107
0.835296
0.828261
0.821079
0.813831
0.806609
0.799508
0.792626
0.786062
0.779907
0.774241
0.769125
0.764593
0.760647
0.757269
0.754459
0.752238
0.750624
0.749592
0.749094
0.749058
0.7494
0.750036
0.750884
0.751875
0.752947
0.75405
0.755144
0.756202
0.757203
0.758134
0.758991
0.759772
0.760478
0.761114
0.761687
0.762203
0.762673
0.763111
0.763533
0.763956
0.764399
0.764876
0.7654
0.765977
0.766608
0.767287
0.768005
0.768747
0.769497
0.77024
0.77096
0.771644
0.77228
0.772857
0.773362
0.773783
0.77411
0.774334
0.774448
0.799206
0.799244
0.799318
0.799425
0.799562
0.799725
0.79991
0.800116
0.800348
0.800614
0.800925
0.801299
0.801754
0.802312
0.802997
0.803833
0.804848
0.80607
0.807529
0.809254
0.811272
0.813606
0.816271
0.819275
0.822614
0.82628
0.830259
0.834533
0.839082
0.843876
0.848879
0.854044
0.859317
0.864639
0.869947
0.875179
0.88027
0.885161
0.889795
0.894119
0.898084
0.901648
0.904771
0.907421
0.909569
0.911192
0.912271
0.912791
0.912744
0.912125
0.910931
0.909168
0.906843
0.90397
0.900565
0.896653
0.892259
0.887418
0.882169
0.876555
0.870628
0.864445
0.858067
0.851565
0.845011
0.838484
0.832067
0.825842
0.819889
0.814284
0.809092
0.804362
0.800126
0.796399
0.793181
0.790476
0.78829
0.786623
0.785453
0.784742
0.784437
0.784474
0.784788
0.785315
0.785995
0.786776
0.787615
0.788475
0.789328
0.790156
0.790943
0.791681
0.792367
0.792999
0.793579
0.794111
0.794602
0.79506
0.795494
0.795917
0.796341
0.796781
0.797246
0.797745
0.798282
0.798858
0.799469
0.800106
0.800761
0.801421
0.802072
0.802703
0.803301
0.803857
0.804358
0.804796
0.80516
0.805442
0.805634
0.805732
0.832353
0.832392
0.832468
0.832581
0.832727
0.832907
0.833117
0.833361
0.833643
0.83397
0.834354
0.834807
0.835347
0.835992
0.836763
0.83768
0.838768
0.84005
0.841549
0.843288
0.845289
0.847567
0.850135
0.852997
0.856151
0.85959
0.8633
0.867266
0.871465
0.875869
0.880446
0.885152
0.889943
0.894767
0.899569
0.904296
0.908893
0.913306
0.917485
0.921383
0.924957
0.928166
0.930976
0.933355
0.935279
0.936724
0.937674
0.938115
0.938039
0.93744
0.936319
0.934679
0.932528
0.929878
0.926748
0.923158
0.919134
0.914708
0.909916
0.9048
0.899407
0.893787
0.887999
0.882102
0.876163
0.870251
0.864434
0.858784
0.853368
0.848249
0.84348
0.839104
0.835152
0.831642
0.828581
0.825975
0.823825
0.822124
0.820854
0.819984
0.819472
0.819271
0.819328
0.819592
0.820013
0.820548
0.821158
0.821811
0.822481
0.823149
0.8238
0.824424
0.825015
0.825571
0.826091
0.826578
0.827035
0.827469
0.827887
0.828298
0.828712
0.829137
0.829582
0.830051
0.830548
0.831073
0.831623
0.832192
0.832771
0.833352
0.833925
0.834478
0.835002
0.835487
0.835924
0.836304
0.836619
0.836863
0.837029
0.837113
0.865462
0.865502
0.865583
0.865702
0.86586
0.866056
0.866292
0.866569
0.866893
0.867271
0.867712
0.868228
0.868835
0.869547
0.870381
0.871358
0.872495
0.873812
0.875328
0.877061
0.879028
0.881239
0.883705
0.886427
0.889404
0.892628
0.896087
0.899765
0.903642
0.907691
0.911881
0.916177
0.920536
0.924915
0.929267
0.933545
0.9377
0.941685
0.945457
0.948973
0.952194
0.955083
0.95761
0.959745
0.961466
0.962752
0.963586
0.963956
0.963855
0.963278
0.962225
0.9607
0.95871
0.956268
0.95339
0.950096
0.94641
0.942363
0.937988
0.933323
0.928411
0.923299
0.918038
0.912682
0.90729
0.90192
0.896635
0.891493
0.886551
0.881863
0.877475
0.873423
0.869737
0.866434
0.863526
0.861018
0.85891
0.857194
0.855855
0.854867
0.854198
0.85381
0.853662
0.853711
0.853917
0.854244
0.854657
0.855129
0.855636
0.856159
0.856684
0.8572
0.857699
0.858179
0.858636
0.859073
0.859491
0.859894
0.860288
0.860678
0.861071
0.861474
0.861892
0.862329
0.862786
0.863263
0.863758
0.864266
0.86478
0.865293
0.865796
0.866282
0.866741
0.867165
0.867546
0.867877
0.868151
0.868362
0.868505
0.868578
0.89853
0.898573
0.898657
0.898785
0.898954
0.899167
0.899424
0.89973
0.900089
0.900507
0.900994
0.90156
0.902216
0.902978
0.903859
0.904874
0.906041
0.907374
0.90889
0.910601
0.912521
0.914658
0.917018
0.919603
0.922409
0.92543
0.928655
0.932067
0.935647
0.939372
0.943212
0.947137
0.951109
0.95509
0.95904
0.962915
0.966675
0.970278
0.973685
0.976858
0.979761
0.982363
0.984635
0.986551
0.988089
0.98923
0.989961
0.990269
0.990147
0.989592
0.988604
0.987186
0.985345
0.983095
0.980448
0.977425
0.974049
0.970347
0.96635
0.962093
0.957616
0.952959
0.948171
0.943299
0.938393
0.933507
0.928692
0.924
0.919481
0.915178
0.911133
0.907378
0.903938
0.900832
0.898071
0.895661
0.893602
0.891888
0.890504
0.889431
0.888643
0.88811
0.887798
0.887673
0.887702
0.887853
0.888099
0.888413
0.888776
0.889168
0.889577
0.889991
0.890403
0.890808
0.891203
0.891587
0.891962
0.892329
0.892691
0.893054
0.893421
0.893797
0.894185
0.894587
0.895004
0.895436
0.89588
0.896333
0.89679
0.897243
0.897686
0.898113
0.898515
0.898886
0.899218
0.899507
0.899745
0.899928
0.900053
0.900115
0.931556
0.931601
0.93169
0.931825
0.932005
0.932232
0.932509
0.932838
0.933225
0.933676
0.934198
0.9348
0.935494
0.93629
0.937201
0.93824
0.93942
0.940754
0.942255
0.943932
0.945796
0.947853
0.950106
0.952556
0.9552
0.958029
0.961034
0.9642
0.967508
0.970936
0.97446
0.978049
0.981673
0.985297
0.988886
0.992401
0.995808
0.999068
1.00215
1.00501
1.00763
1.00997
1.01202
1.01373
1.01511
1.01612
1.01676
1.01701
1.01687
1.01634
1.01541
1.01409
1.01239
1.01032
1.00788
1.00511
1.00201
0.998625
0.994971
0.991084
0.986998
0.982753
0.978388
0.973948
0.969477
0.965021
0.960626
0.956335
0.952193
0.948237
0.944502
0.941017
0.937805
0.934884
0.932265
0.929954
0.927951
0.92625
0.924842
0.92371
0.922834
0.922188
0.921746
0.92148
0.921363
0.921368
0.921471
0.92165
0.921885
0.922161
0.922465
0.922785
0.923115
0.923447
0.92378
0.924111
0.92444
0.924767
0.925095
0.925426
0.925763
0.926107
0.926462
0.926829
0.927207
0.927596
0.927994
0.928398
0.928802
0.929203
0.929593
0.929968
0.93032
0.930645
0.930935
0.931187
0.931394
0.931553
0.931661
0.931716
0.964537
0.964584
0.964678
0.964819
0.965008
0.965248
0.96554
0.965889
0.966298
0.966773
0.967321
0.96795
0.968668
0.969487
0.970415
0.971465
0.972646
0.973969
0.975443
0.977078
0.978879
0.980852
0.982998
0.985317
0.987804
0.990453
0.993253
0.99619
0.999248
1.00241
1.00564
1.00893
1.01224
1.01554
1.0188
1.022
1.02509
1.02804
1.03082
1.03341
1.03577
1.03789
1.03972
1.04126
1.04249
1.04338
1.04394
1.04415
1.04399
1.04348
1.04261
1.04139
1.03981
1.0379
1.03566
1.03311
1.03027
1.02717
1.02383
1.02027
1.01654
1.01266
1.00868
1.00463
1.00055
0.996475
0.992454
0.988523
0.984718
0.981074
0.97762
0.974382
0.971382
0.968635
0.966151
0.963938
0.961996
0.960321
0.958905
0.957734
0.956793
0.956062
0.955518
0.955139
0.954902
0.954785
0.954767
0.954829
0.954954
0.955126
0.955335
0.95557
0.955822
0.956087
0.956359
0.956638
0.95692
0.957206
0.957496
0.957792
0.958096
0.958407
0.958728
0.959059
0.959399
0.959748
0.960103
0.960461
0.96082
0.961173
0.961516
0.961845
0.962154
0.962437
0.962691
0.96291
0.963091
0.96323
0.963324
0.963371
0.997472
0.99752
0.997618
0.997764
0.997962
0.998211
0.998516
0.998879
0.999304
0.999797
1.00036
1.00101
1.00174
1.00257
1.00351
1.00456
1.00573
1.00703
1.00847
1.01006
1.01179
1.01368
1.01572
1.01791
1.02025
1.02273
1.02533
1.02806
1.03089
1.0338
1.03677
1.03978
1.04281
1.04582
1.04879
1.0517
1.0545
1.05718
1.0597
1.06204
1.06417
1.06607
1.06772
1.0691
1.0702
1.07099
1.07147
1.07164
1.07147
1.07098
1.07017
1.06903
1.06757
1.0658
1.06374
1.0614
1.0588
1.05595
1.05289
1.04964
1.04623
1.04268
1.03904
1.03534
1.0316
1.02788
1.02419
1.02058
1.01708
1.01372
1.01052
1.00751
1.00471
1.00212
0.999768
0.997652
0.995774
0.994133
0.992721
0.991529
0.990543
0.989748
0.989125
0.988656
0.988322
0.988104
0.987984
0.987946
0.987974
0.988056
0.98818
0.988336
0.988518
0.988718
0.988933
0.98916
0.989395
0.98964
0.989892
0.990152
0.99042
0.990698
0.990984
0.991279
0.991583
0.991893
0.992208
0.992525
0.992841
0.993152
0.993454
0.993742
0.994012
0.99426
0.994482
0.994673
0.99483
0.994951
0.995033
0.995074
1.03036
1.03041
1.03051
1.03066
1.03086
1.03112
1.03143
1.03181
1.03224
1.03275
1.03332
1.03398
1.03472
1.03556
1.03649
1.03753
1.03868
1.03996
1.04135
1.04288
1.04455
1.04635
1.04828
1.05035
1.05255
1.05487
1.0573
1.05983
1.06244
1.06513
1.06786
1.07062
1.07339
1.07614
1.07885
1.08149
1.08404
1.08647
1.08875
1.09087
1.09279
1.09451
1.09599
1.09723
1.09821
1.09891
1.09933
1.09945
1.09928
1.09881
1.09804
1.09698
1.09563
1.094
1.0921
1.08995
1.08756
1.08495
1.08215
1.07917
1.07605
1.0728
1.06947
1.06608
1.06266
1.05924
1.05586
1.05254
1.04931
1.0462
1.04324
1.04043
1.03781
1.03538
1.03315
1.03113
1.02932
1.02771
1.02632
1.02512
1.0241
1.02326
1.02258
1.02204
1.02163
1.02132
1.02112
1.021
1.02094
1.02094
1.02099
1.02108
1.02119
1.02133
1.0215
1.02167
1.02186
1.02207
1.02228
1.0225
1.02274
1.02298
1.02323
1.02349
1.02376
1.02403
1.02431
1.02459
1.02487
1.02514
1.02541
1.02566
1.02589
1.02611
1.0263
1.02647
1.02661
1.02671
1.02678
1.02682
1.06319
1.06324
1.06335
1.0635
1.06371
1.06397
1.06429
1.06467
1.06512
1.06563
1.06621
1.06687
1.06761
1.06844
1.06936
1.07039
1.07151
1.07275
1.07411
1.07558
1.07717
1.07889
1.08072
1.08267
1.08473
1.0869
1.08916
1.09151
1.09393
1.09641
1.09892
1.10146
1.104
1.10651
1.10898
1.11139
1.1137
1.11591
1.11798
1.11989
1.12163
1.12318
1.12451
1.12562
1.12649
1.12711
1.12747
1.12756
1.12739
1.12694
1.12622
1.12523
1.12398
1.12247
1.12072
1.11874
1.11654
1.11415
1.11158
1.10885
1.10598
1.10301
1.09995
1.09684
1.09371
1.09057
1.08746
1.0844