/*--------------------------------*- C++ -*----------------------------------*\
| =========                 |                                                 |
| \\      /  F ield         | OpenFOAM: The Open Source CFD Toolbox           |
|  \\    /   O peration     | Version:  2406                                  |
|   \\  /    A nd           | Website:  www.openfoam.com                      |
|    \\/     M anipulation  |                                                 |
\*---------------------------------------------------------------------------*/
FoamFile
{
    version     2.0;
    format      ascii;
    arch        "LSB;label=32;scalar=64";
    class       volScalarField;
    location    "8.4";
    object      C_0_0;
}
// * * * * * * * * * * * * * * * * * * * * * * * * * * * * * * * * * * * * * //

dimensions      [1 -3 0 0 0 0 0];

internalField   nonuniform List<scalar> 
14400
(
0.22107
0.220173
0.218594
0.216664
0.214726
0.213078
0.211945
0.211464
0.21169
0.212589
0.214035
0.215808
0.217587
0.218966
0.21949
0.218765
0.216639
0.213376
0.209455
0.205396
0.20167
0.198674
0.19674
0.196155
0.197183
0.200082
0.205114
0.212546
0.22266
0.235746
0.252109
0.27207
0.295961
0.324113
0.356818
0.394245
0.436197
0.480969
0.515262
0.537891
0.556555
0.572519
0.586009
0.597199
0.606222
0.613179
0.618148
0.621182
0.622316
0.621569
0.618939
0.614413
0.607957
0.599521
0.589031
0.576392
0.561479
0.544127
0.524126
0.499133
0.462373
0.416986
0.374988
0.337781
0.305401
0.277598
0.254036
0.234364
0.218235
0.205314
0.195279
0.187819
0.182647
0.179508
0.178198
0.178568
0.180523
0.184011
0.189017
0.195548
0.203618
0.213223
0.224307
0.236712
0.250084
0.263648
0.275384
0.281648
0.280645
0.274142
0.26521
0.255906
0.247029
0.238991
0.232012
0.226189
0.221535
0.21799
0.215445
0.213749
0.212724
0.212192
0.211995
0.212029
0.212269
0.212783
0.213716
0.215265
0.217654
0.221102
0.225813
0.231953
0.239646
0.248955
0.259865
0.272245
0.285778
0.299802
0.312815
0.320647
0.227066
0.225942
0.22401
0.221701
0.219426
0.217519
0.21622
0.215675
0.21594
0.216982
0.218674
0.220792
0.222999
0.224838
0.225747
0.225148
0.222735
0.21896
0.214481
0.209913
0.205767
0.202449
0.200288
0.199564
0.200533
0.203444
0.20855
0.216115
0.226413
0.239733
0.256381
0.276677
0.300957
0.329554
0.362757
0.400701
0.442979
0.486975
0.519269
0.54088
0.559254
0.574993
0.58831
0.599366
0.608287
0.615168
0.620083
0.623082
0.624199
0.62345
0.620836
0.616343
0.609938
0.601574
0.59118
0.578667
0.563917
0.546776
0.527047
0.50333
0.468197
0.422995
0.380686
0.343019
0.310167
0.281922
0.257958
0.237923
0.221468
0.208259
0.197974
0.190307
0.184974
0.181727
0.180364
0.180737
0.182751
0.186356
0.191539
0.198312
0.206692
0.21668
0.228229
0.24119
0.255228
0.269576
0.281748
0.287716
0.287421
0.280893
0.271486
0.261699
0.252396
0.244005
0.236751
0.230732
0.225958
0.222368
0.219844
0.218221
0.217304
0.216884
0.216773
0.216839
0.217049
0.217482
0.218312
0.219768
0.222098
0.225542
0.230314
0.236588
0.244493
0.254095
0.265385
0.27824
0.29236
0.307048
0.320241
0.327033
0.239571
0.237905
0.235178
0.232055
0.229078
0.226639
0.225004
0.224326
0.224665
0.22599
0.228177
0.230997
0.234092
0.23693
0.238748
0.238527
0.235379
0.230433
0.224756
0.219136
0.214137
0.210171
0.207553
0.206546
0.207388
0.210313
0.215559
0.223379
0.234038
0.247819
0.265028
0.285987
0.311033
0.340501
0.37468
0.413689
0.456875
0.497977
0.526307
0.546797
0.564589
0.57989
0.592871
0.603668
0.612391
0.619124
0.623933
0.626864
0.627946
0.627196
0.624613
0.620184
0.613879
0.605655
0.595449
0.58318
0.568745
0.552011
0.532814
0.510803
0.479147
0.435203
0.392223
0.353589
0.319786
0.290661
0.2659
0.245147
0.228051
0.214274
0.2035
0.195427
0.189781
0.186322
0.184854
0.185233
0.187366
0.191206
0.196746
0.204001
0.212997
0.223742
0.236198
0.250222
0.26548
0.281116
0.293663
0.299126
0.299702
0.294137
0.284076
0.273402
0.263278
0.254202
0.246415
0.240018
0.235022
0.231358
0.228897
0.227448
0.226776
0.226612
0.226698
0.226838
0.226974
0.227218
0.227808
0.229043
0.231228
0.234639
0.239513
0.246037
0.254346
0.264511
0.276528
0.290276
0.305437
0.321171
0.333866
0.338832
0.259581
0.256821
0.252669
0.248193
0.244098
0.240836
0.238685
0.237802
0.238247
0.239992
0.242917
0.246802
0.251285
0.255788
0.259339
0.260136
0.255323
0.248262
0.240627
0.233374
0.227083
0.222141
0.218833
0.217392
0.218029
0.220957
0.226394
0.234576
0.245758
0.260216
0.278252
0.300187
0.326355
0.357078
0.392589
0.432832
0.476455
0.512088
0.535929
0.555406
0.572414
0.587108
0.599615
0.610044
0.618484
0.625005
0.629662
0.632494
0.633527
0.632774
0.630236
0.625899
0.61974
0.611718
0.601781
0.58986
0.575871
0.559711
0.54126
0.520397
0.493551
0.453917
0.409714
0.36961
0.334408
0.303992
0.278055
0.256243
0.238204
0.223598
0.212112
0.203451
0.197354
0.19359
0.191973
0.192366
0.194681
0.198876
0.204949
0.212922
0.222828
0.234683
0.248454
0.263993
0.280889
0.297914
0.309912
0.314903
0.316185
0.313085
0.303038
0.291205
0.279927
0.269875
0.261327
0.254398
0.249101
0.245368
0.243051
0.241928
0.241702
0.242009
0.242463
0.24274
0.242728
0.242605
0.242743
0.243565
0.245463
0.24877
0.253752
0.260612
0.269488
0.280455
0.293497
0.308461
0.324904
0.341388
0.351531
0.355011
0.288473
0.283548
0.277072
0.270599
0.26494
0.260554
0.257706
0.256544
0.257125
0.259418
0.263311
0.268599
0.274943
0.281793
0.288099
0.290578
0.283012
0.272752
0.262388
0.252946
0.24495
0.238724
0.2345
0.232471
0.232818
0.235726
0.241391
0.250032
0.261889
0.277229
0.296345
0.319554
0.347181
0.379511
0.416641
0.45797
0.49918
0.52761
0.548205
0.566483
0.582555
0.596511
0.608437
0.61841
0.626496
0.63275
0.637215
0.639923
0.640894
0.640139
0.637657
0.633439
0.627462
0.619695
0.610096
0.598609
0.585169
0.569701
0.552117
0.532323
0.509531
0.476599
0.432663
0.391137
0.35424
0.32217
0.294703
0.271507
0.252237
0.236557
0.224155
0.214747
0.208078
0.203933
0.202136
0.20256
0.205124
0.209794
0.216572
0.225486
0.236575
0.249862
0.265313
0.282763
0.30165
0.319521
0.329452
0.334201
0.336071
0.335134
0.327896
0.315199
0.302611
0.29137
0.281878
0.27429
0.268646
0.264881
0.26284
0.262267
0.26279
0.263906
0.265021
0.265545
0.265247
0.264448
0.263797
0.263911
0.26531
0.26839
0.27345
0.280701
0.290279
0.302246
0.316555
0.332961
0.350679
0.365585
0.371934
0.37458
0.326648
0.318354
0.308651
0.299588
0.291968
0.286192
0.282481
0.280972
0.281717
0.284677
0.289733
0.296686
0.305175
0.314511
0.322645
0.323293
0.317093
0.303619
0.290112
0.278101
0.268078
0.260302
0.254956
0.252193
0.252164
0.255025
0.260952
0.270142
0.28282
0.299239
0.319677
0.344439
0.373827
0.408069
0.447045
0.489041
0.521769
0.543786
0.562764
0.579765
0.594812
0.607945
0.619212
0.628662
0.63634
0.642284
0.646526
0.649088
0.649986
0.649229
0.646815
0.642736
0.636974
0.629506
0.620298
0.60931
0.596496
0.581805
0.565186
0.546594
0.526009
0.500172
0.461381
0.418452
0.379589
0.345537
0.316204
0.291311
0.270534
0.253546
0.240039
0.229737
0.222396
0.217809
0.215816
0.216298
0.219184
0.224446
0.232092
0.242154
0.254674
0.269674
0.2871
0.306694
0.327468
0.343922
0.351653
0.356372
0.358726
0.358844
0.355823
0.345164
0.331517
0.319018
0.308467
0.300124
0.294108
0.290382
0.288797
0.289075
0.29078
0.293231
0.295534
0.296511
0.295667
0.293642
0.291681
0.290671
0.29128
0.293964
0.29904
0.306713
0.3171
0.330221
0.345944
0.363689
0.381337
0.390765
0.394743
0.396795
0.363947
0.358999
0.346911
0.335177
0.325404
0.318069
0.313362
0.311448
0.312389
0.316124
0.322486
0.331262
0.341883
0.352799
0.356843
0.355208
0.351841
0.339762
0.323655
0.309028
0.296796
0.287268
0.280623
0.276996
0.276512
0.279305
0.285529
0.295361
0.309008
0.3267
0.348688
0.375237
0.406596
0.442832
0.48304
0.51895
0.542822
0.561888
0.579299
0.595003
0.608983
0.621244
0.631804
0.640687
0.647918
0.653521
0.657515
0.659916
0.660735
0.659976
0.657639
0.653715
0.648194
0.641056
0.63228
0.621837
0.609699
0.595838
0.580228
0.562856
0.543731
0.522732
0.493231
0.451283
0.410725
0.374482
0.342982
0.316095
0.293542
0.275015
0.26022
0.248885
0.240777
0.2357
0.233502
0.234077
0.237361
0.243331
0.252001
0.263406
0.277582
0.294537
0.314158
0.33591
0.357349
0.369653
0.376275
0.380909
0.383618
0.384532
0.383873
0.378953
0.366398
0.353024
0.341443
0.33228
0.32589
0.322291
0.321365
0.322849
0.326298
0.33081
0.335258
0.337064
0.335208
0.330974
0.326996
0.324336
0.323816
0.325908
0.330925
0.339033
0.350298
0.364659
0.381817
0.400181
0.411615
0.416344
0.419459
0.421061
0.397364
0.396693
0.390241
0.377031
0.365294
0.356416
0.350616
0.348248
0.349426
0.354041
0.361736
0.372307
0.384219
0.390315
0.389978
0.38831
0.385769
0.379054
0.362777
0.34594
0.331467
0.320044
0.311953
0.307347
0.306343
0.309056
0.315621
0.326197
0.340966
0.360125
0.383867
0.412361
0.445688
0.483316
0.520648
0.545802
0.564361
0.581646
0.597541
0.611964
0.624873
0.636244
0.646073
0.654364
0.661125
0.666366
0.670097
0.672327
0.673062
0.672302
0.670048
0.666293
0.66103
0.654246
0.645927
0.636059
0.624627
0.611619
0.597031
0.580871
0.563165
0.543958
0.52213
0.489656
0.448013
0.409427
0.375503
0.346347
0.321759
0.301467
0.285197
0.272689
0.263719
0.258102
0.255695
0.256399
0.260158
0.266956
0.276805
0.289735
0.305769
0.324867
0.346798
0.370427
0.388221
0.396707
0.402861
0.407369
0.410305
0.411795
0.412026
0.411221
0.405531
0.393154
0.380998
0.370989
0.364268
0.360888
0.3608
0.363782
0.369548
0.376632
0.384441
0.387201
0.38413
0.376469
0.369953
0.365137
0.363196
0.364508
0.369401
0.377932
0.390047
0.405447
0.423089
0.434624
0.439826
0.44327
0.445686
0.446931
0.430989
0.430816
0.429868
0.423546
0.411191
0.401291
0.394324
0.391467
0.39293
0.39854
0.407183
0.418599
0.424653
0.425085
0.423925
0.422284
0.420047
0.417041
0.4071
0.389085
0.372478
0.359066
0.349416
0.343741
0.342169
0.344806
0.351767
0.363193
0.379243
0.400057
0.425718
0.456151
0.490994
0.527606
0.552808
0.570471
0.587159
0.602795
0.617253
0.630441
0.642299
0.652787
0.661881
0.669571
0.675851
0.68072
0.684181
0.686234
0.686882
0.686123
0.683957
0.680379
0.675386
0.668969
0.661124
0.651845
0.64113
0.62898
0.615407
0.600434
0.584098
0.566458
0.547589
0.524647
0.490402
0.450487
0.414172
0.382577
0.355728
0.333451
0.315517
0.30169
0.291759
0.285548
0.282922
0.28379
0.288103
0.295846
0.307028
0.321662
0.339713
0.361
0.384804
0.407025
0.418486
0.425457
0.431093
0.435401
0.438439
0.440315
0.441191
0.441279
0.440764
0.435891
0.426461
0.415975
0.409204
0.406125
0.406957
0.411304
0.419382
0.426432
0.430083
0.431231
0.430334
0.426826
0.419579
0.412676
0.409342
0.409734
0.414487
0.423342
0.435847
0.450831
0.460666
0.465378
0.468593
0.471225
0.473084
0.474045
0.464787
0.46477
0.464806
0.464395
0.459815
0.451854
0.443894
0.440694
0.442375
0.448948
0.456498
0.46068
0.460735
0.459594
0.458354
0.456853
0.454996
0.452738
0.449091
0.437687
0.419992
0.404682
0.393453
0.386666
0.384513
0.387095
0.394515
0.40689
0.424363
0.446977
0.474585
0.50632
0.54007
0.563863
0.580303
0.59602
0.61101
0.625123
0.638235
0.650249
0.661095
0.670722
0.679094
0.686187
0.691987
0.696484
0.699672
0.701547
0.702108
0.701352
0.699278
0.695882
0.691164
0.685122
0.677755
0.669068
0.659067
0.647764
0.635184
0.621358
0.606337
0.590187
0.572996
0.554877
0.531475
0.496881
0.459206
0.425269
0.396014
0.371549
0.35177
0.336474
0.325475
0.31861
0.315751
0.316814
0.321756
0.330561
0.343222
0.359724
0.379911
0.403235
0.427573
0.442026
0.449353
0.455539
0.460654
0.464703
0.467734
0.469836
0.471144
0.471837
0.47214
0.472315
0.469709
0.464867
0.459394
0.456691
0.458342
0.462328
0.465744
0.467565
0.467186
0.467175
0.46803
0.469002
0.467507
0.464477
0.460981
0.460426
0.465085
0.473703
0.482736
0.489597
0.492865
0.49551
0.497943
0.499953
0.50138
0.502119
0.498603
0.498672
0.498866
0.499293
0.499992
0.498205
0.495476
0.49371
0.494457
0.496468
0.497881
0.496681
0.495359
0.4942
0.493043
0.491778
0.490345
0.488736
0.487
0.483307
0.472859
0.456818
0.444329
0.436512
0.433836
0.43641
0.444349
0.457706
0.47664
0.500962
0.529734
0.558089
0.579045
0.593832
0.608269
0.622295
0.635739
0.648452
0.660313
0.671225
0.681111
0.689912
0.697585
0.704097
0.709426
0.713556
0.716475
0.718175
0.718651
0.7179
0.715919
0.712708
0.708266
0.702598
0.695708
0.687605
0.678304
0.667827
0.656204
0.643478
0.629705
0.614958
0.599329
0.582932
0.565895
0.54308
0.509959
0.474717
0.443131
0.416338
0.394572
0.377662
0.365487
0.357903
0.35479
0.356069
0.361706
0.371676
0.385923
0.404404
0.426675
0.451002
0.467231
0.474999
0.481259
0.486694
0.491281
0.495024
0.497957
0.500152
0.501714
0.502783
0.503535
0.50418
0.504964
0.505078
0.503755
0.502807
0.503063
0.50363
0.502855
0.501916
0.50158
0.501778
0.502584
0.50396
0.506047
0.507505
0.507979
0.509313
0.512488
0.516667
0.520091
0.521841
0.523827
0.525852
0.527718
0.529263
0.530363
0.530934
0.532348
0.532451
0.53269
0.533127
0.533843
0.534938
0.535891
0.535813
0.53543
0.534108
0.532364
0.530975
0.52982
0.528804
0.527841
0.526871
0.525871
0.52486
0.52391
0.523154
0.520812
0.513543
0.50151
0.493243
0.490302
0.492945
0.501453
0.515581
0.535446
0.56006
0.581347
0.598097
0.610921
0.623836
0.636645
0.649154
0.661197
0.672632
0.683342
0.693228
0.702211
0.710231
0.717236
0.72319
0.728065
0.731838
0.734496
0.736026
0.736422
0.735677
0.733791
0.730763
0.726596
0.721296
0.714873
0.70734
0.698718
0.689036
0.678328
0.666645
0.654047
0.640611
0.626431
0.611619
0.596308
0.580639
0.559652
0.530069
0.497275
0.468233
0.444501
0.425861
0.412421
0.404067
0.400671
0.402166
0.40853
0.419736
0.435508
0.455806
0.478862
0.494853
0.502824
0.508679
0.513992
0.518695
0.522752
0.526153
0.528919
0.531101
0.532775
0.534045
0.535036
0.535879
0.536694
0.53751
0.538301
0.538512
0.537863
0.536848
0.536048
0.535543
0.535441
0.535771
0.536569
0.537843
0.539621
0.541864
0.54456
0.547072
0.548927
0.550251
0.551613
0.553131
0.554749
0.556352
0.557813
0.559018
0.559875
0.560319
0.56599
0.566094
0.566317
0.566682
0.567203
0.567844
0.568409
0.568613
0.568093
0.567146
0.566049
0.565035
0.564142
0.563356
0.562646
0.561995
0.561408
0.560924
0.560625
0.560644
0.561181
0.561424
0.558617
0.554858
0.552576
0.555407
0.564483
0.578312
0.594018
0.608612
0.620479
0.631292
0.642532
0.653946
0.665322
0.676479
0.687262
0.697538
0.707193
0.716132
0.724277
0.731563
0.737938
0.743363
0.747804
0.751237
0.753645
0.755013
0.755332
0.754596
0.752804
0.749957
0.746058
0.741117
0.735147
0.728164
0.720194
0.711268
0.701429
0.690727
0.679227
0.667008
0.654163
0.640806
0.627065
0.613093
0.599061
0.5812
0.556919
0.526945
0.50194
0.481507
0.466813
0.45768
0.453968
0.45563
0.462659
0.475115
0.491755
0.512451
0.526113
0.533143
0.538128
0.542901
0.547334
0.551343
0.554878
0.557917
0.560467
0.562556
0.56424
0.565589
0.566684
0.567608
0.568421
0.569135
0.569691
0.569906
0.56971
0.569302
0.568944
0.568769
0.56887
0.569296
0.570077
0.571224
0.572728
0.57454
0.576556
0.578508
0.58018
0.581602
0.582956
0.584321
0.585687
0.586994
0.588165
0.589122
0.589799
0.590149
0.599528
0.599618
0.599803
0.600082
0.600441
0.600827
0.601124
0.601184
0.600891
0.600332
0.599651
0.598973
0.598359
0.59783
0.597392
0.597054
0.596841
0.596803
0.597021
0.597617
0.598755
0.600655
0.603575
0.605521
0.607703
0.612177
0.619456
0.628453
0.637449
0.645548
0.654479
0.664029
0.673971
0.684095
0.694218
0.704179
0.713835
0.723065
0.73176
0.739831
0.747201
0.753805
0.759592
0.764518
0.768551
0.771663
0.773833
0.775048
0.775296
0.774572
0.772873
0.770202
0.766564
0.761969
0.756432
0.749975
0.742624
0.734415
0.725391
0.715606
0.705126
0.694029
0.682409
0.670375
0.658054
0.645596
0.633173
0.620996
0.607249
0.588843
0.566138
0.544252
0.528782
0.519011
0.514944
0.516619
0.523846
0.537214
0.551538
0.561251
0.566048
0.56978
0.573645
0.577462
0.5811
0.584466
0.5875
0.590172
0.592473
0.594419
0.59604
0.597384
0.598503
0.599446
0.600249
0.600917
0.601422
0.601707
0.60177
0.601708
0.601656
0.60172
0.601973
0.602465
0.603221
0.604247
0.605526
0.607011
0.608616
0.610208
0.61168
0.613023
0.614288
0.61551
0.616683
0.617773
0.618731
0.619505
0.620049
0.62033
0.632975
0.633049
0.633194
0.633402
0.633651
0.633899
0.634077
0.63411
0.633953
0.633642
0.633249
0.632848
0.632492
0.632214
0.632037
0.631987
0.632099
0.632425
0.633041
0.634046
0.635567
0.637749
0.640734
0.64459
0.649316
0.654451
0.659886
0.665785
0.672453
0.679835
0.687858
0.696376
0.705226
0.714244
0.723276
0.732182
0.740835
0.749125
0.756952
0.764232
0.77089
0.776865
0.782105
0.786568
0.790218
0.793029
0.794978
0.796049
0.796233
0.795522
0.793915
0.791414
0.788025
0.783762
0.778639
0.77268
0.765914
0.758377
0.750114
0.741181
0.731642
0.721574
0.711069
0.700231
0.689182
0.678062
0.667035
0.656291
0.646055
0.636227
0.623754
0.60991
0.59647
0.586579
0.582127
0.583471
0.588718
0.594658
0.599487
0.601354
0.603591
0.606282
0.609209
0.612204
0.615138
0.61792
0.620486
0.622797
0.624836
0.626604
0.628119
0.629406
0.630498
0.631426
0.632212
0.632863
0.633373
0.633731
0.633955
0.634103
0.634253
0.63448
0.634839
0.63537
0.636095
0.637016
0.638118
0.639363
0.640691
0.642027
0.643311
0.644521
0.645664
0.646747
0.647762
0.648684
0.649482
0.650119
0.650563
0.650791
0.666349
0.666408
0.666521
0.66668
0.666864
0.667042
0.667174
0.667223
0.667171
0.667034
0.666854
0.666677
0.666547
0.666496
0.666556
0.666759
0.667142
0.667758
0.668671
0.66996
0.671718
0.67404
0.677003
0.680642
0.684918
0.689678
0.694858
0.700508
0.70672
0.713483
0.720741
0.728392
0.736314
0.744379
0.75246
0.760437
0.7682
0.775648
0.782692
0.789253
0.795262
0.80066
0.805397
0.80943
0.812726
0.815256
0.816999
0.817939
0.818064
0.817369
0.81585
0.813513
0.810363
0.806413
0.801682
0.796192
0.789974
0.783064
0.775509
0.767361
0.758686
0.749557
0.740061
0.730297
0.720379
0.710436
0.700614
0.691079
0.682015
0.67362
0.666161
0.659179
0.651461
0.644802
0.640593
0.639141
0.63928
0.638858
0.638572
0.639283
0.640682
0.64255
0.644706
0.647004
0.649328
0.65159
0.653726
0.655693
0.657468
0.659044
0.660424
0.661622
0.662657
0.663547
0.664309
0.664949
0.665474
0.66589
0.666217
0.666495
0.666774
0.667106
0.667533
0.668082
0.668773
0.669605
0.670567
0.671631
0.672757
0.673898
0.675015
0.676085
0.6771
0.678053
0.678933
0.679721
0.680393
0.680924
0.681293
0.681481
0.699663
0.699712
0.699805
0.699933
0.700081
0.70023
0.700356
0.700439
0.700473
0.70047
0.700455
0.700461
0.700521
0.700668
0.700933
0.701349
0.701954
0.702794
0.703924
0.705406
0.707306
0.709688
0.712599
0.716056
0.720037
0.724482
0.729358
0.734669
0.740435
0.746638
0.75323
0.760135
0.767259
0.774498
0.781748
0.788907
0.795879
0.802575
0.808915
0.814826
0.820245
0.825116
0.829391
0.83303
0.835999
0.838271
0.839824
0.840643
0.840716
0.840037
0.838606
0.836424
0.8335
0.829847
0.825483
0.820432
0.814725
0.808398
0.801495
0.79407
0.786184
0.777907
0.769321
0.760518
0.751602
0.742688
0.733906
0.725395
0.717305
0.709788
0.702988
0.696966
0.691877
0.687585
0.683902
0.680773
0.678371
0.676953
0.676357
0.676525
0.677302
0.678528
0.680061
0.681779
0.683581
0.685386
0.687134
0.688781
0.690301
0.691679
0.692911
0.694002
0.69496
0.695798
0.696526
0.697152
0.697685
0.698137
0.698527
0.698884
0.699243
0.699639
0.700102
0.700654
0.701308
0.702064
0.702914
0.703838
0.704807
0.705793
0.706765
0.707705
0.708598
0.709432
0.710196
0.710873
0.711444
0.711893
0.712202
0.71236
0.73293
0.732972
0.733052
0.733164
0.733298
0.733441
0.733579
0.733704
0.733813
0.733917
0.734034
0.734189
0.734409
0.734723
0.735159
0.735749
0.73653
0.73754
0.738825
0.740433
0.742413
0.744807
0.747648
0.750946
0.754691
0.758857
0.763422
0.768377
0.773712
0.779403
0.785407
0.79166
0.798088
0.804606
0.811126
0.817563
0.823833
0.829859
0.835567
0.840892
0.845776
0.850168
0.854021
0.857299
0.859969
0.862004
0.863384
0.864092
0.86412
0.86346
0.862111
0.860077
0.857366
0.853991
0.849971
0.845329
0.840095
0.834306
0.828004
0.82124
0.814072
0.806566
0.798798
0.790852
0.782822
0.77481
0.766927
0.759291
0.752022
0.745237
0.739039
0.733497
0.728668
0.724516
0.720978
0.718039
0.715763
0.714224
0.713377
0.71316
0.713472
0.714199
0.715232
0.716471
0.71783
0.719239
0.720642
0.721997
0.723276
0.724459
0.725539
0.726513
0.727385
0.72816
0.728845
0.729448
0.729978
0.730447
0.730871
0.731272
0.731675
0.732105
0.732583
0.733125
0.73374
0.73443
0.735187
0.735998
0.736843
0.7377
0.738549
0.739371
0.740154
0.740883
0.741546
0.742129
0.742619
0.743001
0.743263
0.743396
0.766154
0.766193
0.766268
0.766375
0.766507
0.766656
0.766816
0.766983
0.767159
0.767352
0.767577
0.767853
0.768204
0.768654
0.76923
0.76996
0.770876
0.772011
0.773403
0.775089
0.777104
0.77948
0.782238
0.785388
0.788924
0.792833
0.797098
0.801704
0.806633
0.811856
0.817333
0.823011
0.828827
0.834711
0.840588
0.846387
0.852033
0.857459
0.862601
0.867399
0.8718
0.875757
0.879228
0.882176
0.884573
0.886392
0.887614
0.888224
0.888211
0.88757
0.886301
0.884407
0.881896
0.878781
0.87508
0.870817
0.866022
0.860727
0.854975
0.848814
0.842297
0.835487
0.828453
0.821271
0.814024
0.806802
0.799701
0.792819
0.786255
0.780099
0.774433
0.769315
0.764782
0.760834
0.757454
0.754642
0.752419
0.750802
0.749767
0.749266
0.749226
0.749565
0.750197
0.751042
0.75203
0.753099
0.754198
0.75529
0.756345
0.757343
0.758273
0.759127
0.759906
0.760611
0.761245
0.761816
0.762331
0.762801
0.763237
0.763658
0.76408
0.764522
0.764999
0.765522
0.766099
0.766729
0.767407
0.768124
0.768866
0.769616
0.770358
0.771078
0.771763
0.772399
0.772975
0.77348
0.773901
0.774229
0.774452
0.774566
0.79934
0.799378
0.799452
0.79956
0.799698
0.799861
0.800047
0.800254
0.800488
0.800754
0.801067
0.801443
0.8019
0.80246
0.803147
0.803985
0.805002
0.806226
0.807687
0.809414
0.811435
0.813771
0.816438
0.819444
0.822785
0.826453
0.830433
0.834709
0.839259
0.844055
0.849059
0.854225
0.859499
0.864821
0.87013
0.875362
0.880453
0.885345
0.889979
0.894303
0.898269
0.901832
0.904956
0.907606
0.909754
0.911377
0.912456
0.912977
0.91293
0.91231
0.911117
0.909354
0.907029
0.904156
0.900752
0.896839
0.892446
0.887606
0.882356
0.876743
0.870816
0.864633
0.858256
0.851754
0.8452
0.838674
0.832257
0.826031
0.820078
0.814473
0.80928
0.804549
0.800312
0.796583
0.793363
0.790656
0.788468
0.786797
0.785625
0.784911
0.784602
0.784637
0.784948
0.785471
0.786148
0.786927
0.787762
0.78862
0.789471
0.790296
0.791081
0.791817
0.792501
0.793131
0.79371
0.794241
0.794731
0.795187
0.79562
0.796042
0.796466
0.796904
0.797368
0.797867
0.798403
0.798979
0.799589
0.800226
0.800881
0.80154
0.802191
0.802821
0.80342
0.803975
0.804476
0.804914
0.805278
0.80556
0.805752
0.805849
0.832488
0.832526
0.832603
0.832716
0.832863
0.833043
0.833255
0.8335
0.833783
0.834111
0.834495
0.83495
0.835492
0.836139
0.836912
0.837831
0.838921
0.840204
0.841705
0.843447
0.84545
0.84773
0.8503
0.853164
0.85632
0.85976
0.863472
0.867439
0.871639
0.876045
0.880622
0.88533
0.890122
0.894946
0.899749
0.904477
0.909074
0.913487
0.917667
0.921565
0.925139
0.928348
0.931158
0.933538
0.935461
0.936907
0.937857
0.938298
0.938222
0.937623
0.936502
0.934862
0.932711
0.930062
0.926932
0.923342
0.919318
0.914892
0.910101
0.904985
0.899592
0.893973
0.888184
0.882288
0.876349
0.870437
0.86462
0.85897
0.853554
0.848434
0.843664
0.839287
0.835334
0.831821
0.828759
0.826151
0.823999
0.822295
0.821023
0.82015
0.819636
0.819432
0.819486
0.819747
0.820165
0.820697
0.821305
0.821955
0.822624
0.823289
0.823938
0.82456
0.825149
0.825703
0.826222
0.826707
0.827163
0.827596
0.828013
0.828424
0.828836
0.829261
0.829704
0.830173
0.830669
0.831194
0.831743
0.832311
0.83289
0.833471
0.834043
0.834596
0.83512
0.835605
0.836042
0.836422
0.836737
0.836981
0.837146
0.83723
0.865597
0.865637
0.865717
0.865837
0.865996
0.866193
0.866429
0.866708
0.867032
0.867411
0.867853
0.868371
0.868979
0.869693
0.87053
0.871508
0.872646
0.873965
0.875483
0.877218
0.879187
0.8814
0.883868
0.886591
0.88957
0.892795
0.896256
0.899936
0.903814
0.907864
0.912055
0.916352
0.920712
0.925091
0.929444
0.933722
0.937877
0.941864
0.945636
0.949152
0.952373
0.955263
0.95779
0.959925
0.961646
0.962932
0.963766
0.964137
0.964036
0.963459
0.962406
0.960881
0.958891
0.956449
0.953571
0.950277
0.946592
0.942545
0.93817
0.933506
0.928594
0.923482
0.91822
0.912865
0.907472
0.902103
0.896817
0.891675
0.886733
0.882045
0.877655
0.873603
0.869915
0.86661
0.863701
0.861191
0.859081
0.857363
0.856021
0.855031
0.85436
0.853969
0.853818
0.853864
0.854068
0.854392
0.854804
0.855274
0.855778
0.856299
0.856822
0.857335
0.857833
0.858311
0.858767
0.859203
0.859619
0.860021
0.860414
0.860803
0.861195
0.861598
0.862015
0.862451
0.862907
0.863384
0.863878
0.864385
0.864899
0.865412
0.865915
0.8664
0.866859
0.867282
0.867663
0.867994
0.868268
0.868479
0.868623
0.868695
0.898665
0.898708
0.898793
0.89892
0.89909
0.899303
0.899562
0.899868
0.900228
0.900648
0.901136
0.901703
0.902361
0.903124
0.904006
0.905023
0.906191
0.907526
0.909044
0.910757
0.912678
0.914817
0.917179
0.919765
0.922573
0.925595
0.928821
0.932235
0.935816
0.939542
0.943384
0.947309
0.951282
0.955264
0.959214
0.96309
0.96685
0.970454
0.973861
0.977034
0.979938
0.98254
0.984812
0.986728
0.988266
0.989408
0.990139
0.990447
0.990326
0.989771
0.988782
0.987364
0.985524
0.983273
0.980627
0.977604
0.974228
0.970526
0.966529
0.962273
0.957795
0.953139
0.948351
0.943478
0.938573
0.933686
0.928871
0.924179
0.919659
0.915356
0.91131
0.907554
0.904113
0.901005
0.898243
0.895831
0.89377
0.892054
0.890668
0.889593
0.888802
0.888266
0.887952
0.887825
0.887851
0.888001
0.888244
0.888557
0.888917
0.889307
0.889714
0.890127
0.890537
0.89094
0.891334
0.891717
0.89209
0.892456
0.892817
0.893179
0.893545
0.89392
0.894307
0.894708
0.895125
0.895556
0.896
0.896453
0.896908
0.897361
0.897804
0.898231
0.898632
0.899003
0.899336
0.899624
0.899862
0.900045
0.90017
0.900232
0.931691
0.931736
0.931825
0.93196
0.932141
0.932369
0.932646
0.932976
0.933364
0.933816
0.934339
0.934943
0.935637
0.936435
0.937348
0.938388
0.93957
0.940906
0.942408
0.944087
0.945952
0.94801
0.950265
0.952717
0.955361
0.958192
0.961198
0.964365
0.967674
0.971104
0.974628
0.978219
0.981844
0.985468
0.989057
0.992573
0.99598
0.999241
1.00232
1.00519
1.0078
1.01015
1.01219
1.01391
1.01528
1.0163
1.01693
1.01719
1.01705
1.01652
1.01559
1.01427
1.01257
1.01049
1.00806
1.00528
1.00219
0.998802
0.995148
0.991261
0.987175
0.98293
0.978565
0.974125
0.969654
0.965198
0.960802
0.956511
0.952368
0.948411
0.944675
0.941189
0.937977
0.935054
0.932434
0.930121
0.928116
0.926414
0.925004
0.92387
0.922991
0.922343
0.921899
0.921631
0.921512
0.921515
0.921615
0.921792
0.922025
0.922299
0.922601
0.92292
0.923248
0.923579
0.923911
0.92424
0.924568
0.924894
0.925221
0.925551
0.925886
0.92623
0.926584
0.92695
0.927328
0.927716
0.928114
0.928517
0.928921
0.929321
0.929711
0.930085
0.930438
0.930762
0.931052
0.931303
0.931511
0.93167
0.931778
0.931833
0.964672
0.964719
0.964813
0.964954
0.965144
0.965384
0.965678
0.966027
0.966436
0.966912
0.967461
0.968092
0.968811
0.969631
0.970561
0.971612
0.972794
0.974119
0.975595
0.977231
0.979033
0.981007
0.983155
0.985475
0.987964
0.990614
0.993415
0.996353
0.999412
1.00257
1.00581
1.00909
1.01241
1.01571
1.01897
1.02217
1.02526
1.02821
1.03099
1.03358
1.03595
1.03806
1.03989
1.04143
1.04266
1.04356
1.04411
1.04432
1.04417
1.04366
1.04278
1.04156
1.03998
1.03807
1.03583
1.03328
1.03045
1.02734
1.024
1.02045
1.01672
1.01284
1.00886
1.0048
1.00072
0.996648
0.992627
0.988696
0.98489
0.981245
0.97779
0.974552
0.97155
0.968802
0.966317
0.964102
0.962158
0.960482
0.959063
0.957891
0.956948
0.956215
0.955669
0.955288
0.95505
0.954931
0.954911
0.95497
0.955093
0.955264
0.955471
0.955704
0.955955
0.956218
0.95649
0.956766
0.957047
0.957332
0.957622
0.957917
0.958219
0.95853
0.95885
0.95918
0.959519
0.959868
0.960222
0.96058
0.960938
0.96129
0.961634
0.961962
0.962271
0.962554
0.962808
0.963027
0.963207
0.963346
0.96344
0.963487
0.997607
0.997655
0.997753
0.9979
0.998097
0.998348
0.998653
0.999016
0.999442
0.999936
1.0005
1.00115
1.00189
1.00272
1.00365
1.0047
1.00588
1.00718
1.00862
1.01021
1.01194
1.01383
1.01587
1.01806
1.0204
1.02288
1.02549
1.02822
1.03105
1.03396
1.03693
1.03995
1.04297
1.04599
1.04896
1.05186
1.05467
1.05734
1.05987
1.06221
1.06434
1.06624
1.06789
1.06927
1.07037
1.07116
1.07164
1.07181
1.07164
1.07115
1.07034
1.0692
1.06774
1.06597
1.06391
1.06157
1.05897
1.05612
1.05306
1.04981
1.0464
1.04286
1.03921
1.03551
1.03178
1.02805
1.02436
1.02075
1.01725
1.01389
1.01069
1.00768
1.00487
1.00229
0.999931
0.997813
0.995934
0.994291
0.992878
0.991684
0.990696
0.989899
0.989274
0.988804
0.988468
0.988248
0.988126
0.988086
0.988112
0.988192
0.988315
0.98847
0.98865
0.988849
0.989063
0.989288
0.989523
0.989765
0.990016
0.990276
0.990543
0.99082
0.991105
0.9914
0.991703
0.992012
0.992327
0.992644
0.992959
0.99327
0.993571
0.993859
0.994129
0.994377
0.994598
0.994789
0.994946
0.995067
0.995148
0.99519
1.03049
1.03054
1.03064
1.03079
1.031
1.03126
1.03157
1.03194
1.03238
1.03289
1.03346
1.03412
1.03486
1.0357
1.03663
1.03767
1.03883
1.0401
1.0415
1.04303
1.0447
1.0465
1.04844
1.05051
1.05271
1.05502
1.05746
1.05999
1.0626
1.06529
1.06802
1.07079
1.07356
1.07631
1.07902
1.08166
1.08421
1.08663
1.08892
1.09104
1.09296
1.09468
1.09616
1.0974
1.09837
1.09908
1.09949
1.09962
1.09945
1.09898
1.09821
1.09715
1.0958
1.09417
1.09227
1.09012
1.08773
1.08512
1.08232
1.07934
1.07621
1.07297
1.06964
1.06624
1.06282
1.05941
1.05602
1.0527
1.04948
1.04637
1.0434
1.0406
1.03797
1.03554
1.03331
1.03129
1.02947
1.02787
1.02647
1.02527
1.02425
1.02341
1.02273
1.02218
1.02177
1.02147
1.02126
1.02113
1.02108
1.02108
1.02113
1.02121
1.02133
1.02147
1.02162
1.0218
1.02199
1.02219
1.0224
1.02263
1.02286
1.0231
1.02335
1.02361
1.02388
1.02415
1.02443
1.02471
1.02499
1.02526
1.02552
1.02577
1.02601
1.02623
1.02642
1.02658
1.02672
1.02683
1.0269
1.02693
1.06333
1.06338
1.06348
1.06364
1.06384
1.06411
1.06443
1.06481
1.06525
1.06576
1.06635
1.06701
1.06775
1.06858
1.0695
1.07053
1.07166
1.0729
1.07425
1.07573
1.07732
1.07904
1.08087
1.08282
1.08489
1.08705
1.08932
1.09167
1.09409
1.09657
1.09908
1.10162
1.10416
1.10667
1.10914
1.11155
1.11386
1.11607
1.11814
1.12006
1.1218
1.12334
1.12468
1.12579
1.12666
1.12728
1.12764
1.12773
1.12755
1.1271
1.12638
1.1254
1.12414
1.12264
1.12089
1.11891
1.11671
1.11432
1.11174
1.10901
1.10615
1.10317
1.10012
1.09701
1.09387
1.09073