/*--------------------------------*- C++ -*----------------------------------*\
| =========                 |                                                 |
| \\      /  F ield         | OpenFOAM: The Open Source CFD Toolbox           |
|  \\    /   O peration     | Version:  2406                                  |
|   \\  /    A nd           | Website:  www.openfoam.com                      |
|    \\/     M anipulation  |                                                 |
\*---------------------------------------------------------------------------*/
FoamFile
{
    version     2.0;
    format      ascii;
    arch        "LSB;label=32;scalar=64";
    class       volScalarField;
    location    "8.4";
    object      D;
}
// * * * * * * * * * * * * * * * * * * * * * * * * * * * * * * * * * * * * * //

dimensions      [0 2 -1 0 0 0 0];

internalField   nonuniform List<scalar> 
14400
(
7.28773e-05
7.28356e-05
7.27807e-05
7.27384e-05
7.27182e-05
7.27159e-05
7.27216e-05
7.27276e-05
7.27327e-05
7.27441e-05
7.27764e-05
7.28466e-05
7.29639e-05
7.31143e-05
7.32422e-05
7.32534e-05
7.30823e-05
7.2793e-05
7.24506e-05
7.2068e-05
7.16174e-05
7.10565e-05
7.03496e-05
6.94834e-05
6.84769e-05
6.73811e-05
6.62671e-05
6.52051e-05
6.42484e-05
6.34292e-05
6.27635e-05
6.22605e-05
6.19325e-05
6.1808e-05
6.19546e-05
6.25477e-05
6.41678e-05
7.01014e-05
0.000125922
0.00013824
0.00013824
0.00013824
0.00013824
0.00013824
0.00013824
0.00013824
0.00013824
0.00013824
0.00013824
0.00013824
0.00013824
0.00013824
0.00013824
0.00013824
0.00013824
0.00013824
0.00013824
0.00013824
0.00013824
0.000114915
6.95544e-05
6.43137e-05
6.29683e-05
6.25898e-05
6.26678e-05
6.30599e-05
6.37249e-05
6.46605e-05
6.58768e-05
6.7372e-05
6.9103e-05
7.09607e-05
7.27765e-05
7.43685e-05
7.55951e-05
7.63799e-05
7.67052e-05
7.65976e-05
7.61187e-05
7.53639e-05
7.44613e-05
7.35669e-05
7.28635e-05
7.25871e-05
7.31756e-05
7.60765e-05
9.00607e-05
0.000137686
0.00010039
7.59777e-05
7.14171e-05
6.99476e-05
6.94252e-05
6.93487e-05
6.95256e-05
6.98542e-05
7.02669e-05
7.07124e-05
7.11488e-05
7.15412e-05
7.18594e-05
7.20761e-05
7.21669e-05
7.21128e-05
7.1907e-05
7.15578e-05
7.10857e-05
7.05184e-05
6.9888e-05
6.92309e-05
6.85865e-05
6.79973e-05
6.75091e-05
6.71747e-05
6.70659e-05
6.73055e-05
6.81661e-05
7.04792e-05
7.83198e-05
0.000133685
7.23167e-05
7.22088e-05
7.20616e-05
7.19308e-05
7.18384e-05
7.17842e-05
7.17594e-05
7.17561e-05
7.1773e-05
7.18175e-05
7.19051e-05
7.20555e-05
7.2283e-05
7.25746e-05
7.28541e-05
7.29494e-05
7.26894e-05
7.22614e-05
7.18033e-05
7.13439e-05
7.08537e-05
7.02865e-05
6.96042e-05
6.87914e-05
6.78626e-05
6.68607e-05
6.58455e-05
6.48768e-05
6.40014e-05
6.32498e-05
6.26394e-05
6.21829e-05
6.18978e-05
6.18198e-05
6.20321e-05
6.27531e-05
6.47284e-05
7.19676e-05
0.000134006
0.00013824
0.00013824
0.00013824
0.00013824
0.00013824
0.00013824
0.00013824
0.00013824
0.00013824
0.00013824
0.00013824
0.00013824
0.00013824
0.00013824
0.00013824
0.00013824
0.00013824
0.00013824
0.00013824
0.00013824
0.000124555
7.04637e-05
6.46234e-05
6.30926e-05
6.26244e-05
6.26421e-05
6.29803e-05
6.3586e-05
6.44485e-05
6.55707e-05
6.69476e-05
6.85401e-05
7.02537e-05
7.19407e-05
7.34352e-05
7.46003e-05
7.53551e-05
7.56757e-05
7.55855e-05
7.51463e-05
7.44547e-05
7.36382e-05
7.28485e-05
7.22628e-05
7.21195e-05
7.29055e-05
7.65171e-05
9.72586e-05
0.000138145
0.000112519
7.68206e-05
7.13973e-05
6.97091e-05
6.90615e-05
6.88859e-05
6.89739e-05
6.92207e-05
6.95611e-05
6.9948e-05
7.03435e-05
7.07149e-05
7.10307e-05
7.12586e-05
7.13647e-05
7.13211e-05
7.11172e-05
7.07681e-05
7.03046e-05
6.97624e-05
6.91767e-05
6.85815e-05
6.80114e-05
6.75032e-05
6.70978e-05
6.68471e-05
6.68271e-05
6.71801e-05
6.82582e-05
7.13796e-05
8.49425e-05
0.000137623
7.15034e-05
7.12368e-05
7.08949e-05
7.05961e-05
7.03769e-05
7.02357e-05
7.01603e-05
7.01405e-05
7.01742e-05
7.02693e-05
7.04448e-05
7.07302e-05
7.11581e-05
7.17403e-05
7.23911e-05
7.27525e-05
7.21913e-05
7.14136e-05
7.0711e-05
7.01065e-05
6.95462e-05
6.89695e-05
6.83314e-05
6.76108e-05
6.68133e-05
6.59678e-05
6.51163e-05
6.4303e-05
6.35653e-05
6.29305e-05
6.24183e-05
6.20472e-05
6.18431e-05
6.18563e-05
6.22053e-05
6.32412e-05
6.66217e-05
8.73431e-05
0.000138164
0.00013824
0.00013824
0.00013824
0.00013824
0.00013824
0.00013824
0.00013824
0.00013824
0.00013824
0.00013824
0.00013824
0.00013824
0.00013824
0.00013824
0.00013824
0.00013824
0.00013824
0.00013824
0.00013824
0.00013824
0.000136409
7.45422e-05
6.55827e-05
6.34064e-05
6.27146e-05
6.26054e-05
6.28392e-05
6.33352e-05
6.40662e-05
6.50231e-05
6.61937e-05
6.75433e-05
6.89981e-05
7.04427e-05
7.17415e-05
7.27733e-05
7.34577e-05
7.37648e-05
7.37127e-05
7.33608e-05
7.2803e-05
7.21603e-05
7.15741e-05
7.12119e-05
7.13182e-05
7.24547e-05
7.72215e-05
0.000111189
0.000138237
0.000129808
7.86905e-05
7.16158e-05
6.93973e-05
6.84862e-05
6.81266e-05
6.80605e-05
6.81707e-05
6.83922e-05
6.86828e-05
6.90105e-05
6.93466e-05
6.96591e-05
6.99079e-05
7.00438e-05
7.00206e-05
6.98194e-05
6.94687e-05
6.90188e-05
6.85181e-05
6.80049e-05
6.75092e-05
6.70579e-05
6.66797e-05
6.64104e-05
6.63016e-05
6.64396e-05
6.70022e-05
6.84879e-05
7.33571e-05
0.000106848
0.000138236
7.09823e-05
7.03573e-05
6.96753e-05
6.91361e-05
6.8759e-05
6.85179e-05
6.83861e-05
6.83466e-05
6.8395e-05
6.85404e-05
6.88091e-05
6.92509e-05
6.99464e-05
7.10082e-05
7.2511e-05
7.3936e-05
7.21549e-05
7.05881e-05
6.94825e-05
6.86759e-05
6.80264e-05
6.74382e-05
6.68515e-05
6.62358e-05
6.55851e-05
6.49126e-05
6.4243e-05
6.36056e-05
6.30278e-05
6.25339e-05
6.21457e-05
6.18878e-05
6.17975e-05
6.19469e-05
6.25079e-05
6.40324e-05
6.95314e-05
0.000117999
0.00013824
0.00013824
0.00013824
0.00013824
0.00013824
0.00013824
0.00013824
0.00013824
0.00013824
0.00013824
0.00013824
0.00013824
0.00013824
0.00013824
0.00013824
0.00013824
0.00013824
0.00013824
0.00013824
0.00013824
0.00013824
0.000138235
0.000100731
6.81854e-05
6.40149e-05
6.2895e-05
6.25852e-05
6.26695e-05
6.30187e-05
6.35823e-05
6.43361e-05
6.52591e-05
6.63185e-05
6.7458e-05
6.85945e-05
6.96289e-05
7.04671e-05
7.10418e-05
7.13245e-05
7.13288e-05
7.11064e-05
7.07401e-05
7.03361e-05
7.00217e-05
6.99612e-05
7.04305e-05
7.21363e-05
7.84132e-05
0.00012779
0.00013824
0.000138167
9.49432e-05
7.32728e-05
6.933e-05
6.79343e-05
6.73112e-05
6.70516e-05
6.7003e-05
6.70927e-05
6.72796e-05
6.75358e-05
6.78371e-05
6.81529e-05
6.84361e-05
6.86184e-05
6.86251e-05
6.84209e-05
6.80568e-05
6.76123e-05
6.715e-05
6.67102e-05
6.63176e-05
6.59914e-05
6.57539e-05
6.56386e-05
6.57024e-05
6.60552e-05
6.69462e-05
6.91276e-05
7.63658e-05
0.000131123
0.00013824
7.18281e-05
7.01017e-05
6.87693e-05
6.78901e-05
6.73287e-05
6.69833e-05
6.6795e-05
6.67348e-05
6.67946e-05
6.69852e-05
6.73435e-05
6.79524e-05
6.89894e-05
7.08818e-05
7.49231e-05
8.4856e-05
7.37264e-05
7.01572e-05
6.84109e-05
6.73431e-05
6.65874e-05
6.59802e-05
6.54367e-05
6.49133e-05
6.43925e-05
6.38742e-05
6.33699e-05
6.2897e-05
6.24753e-05
6.21262e-05
6.18737e-05
6.17499e-05
6.18086e-05
6.216e-05
6.30935e-05
6.57595e-05
7.84974e-05
0.000137741
0.00013824
0.00013824
0.00013824
0.00013824
0.00013824
0.00013824
0.00013824
0.00013824
0.00013824
0.00013824
0.00013824
0.00013824
0.00013824
0.00013824
0.00013824
0.00013824
0.00013824
0.00013824
0.00013824
0.00013824
0.00013824
0.00013824
0.00013003
7.16467e-05
6.50134e-05
6.32337e-05
6.26297e-05
6.25179e-05
6.26927e-05
6.30723e-05
6.3615e-05
6.42909e-05
6.50672e-05
6.58996e-05
6.67301e-05
6.74923e-05
6.81225e-05
6.8574e-05
6.88269e-05
6.88924e-05
6.88118e-05
6.86521e-05
6.85025e-05
6.84806e-05
6.87665e-05
6.97485e-05
7.28368e-05
8.8006e-05
0.000137893
0.00013824
0.00013824
0.000128746
7.68246e-05
6.98671e-05
6.76662e-05
6.66693e-05
6.61771e-05
6.5961e-05
6.59252e-05
6.60212e-05
6.62215e-05
6.65061e-05
6.68482e-05
6.7196e-05
6.74578e-05
6.751e-05
6.72807e-05
6.68652e-05
6.63928e-05
6.5942e-05
6.55528e-05
6.52428e-05
6.50244e-05
6.49165e-05
6.49552e-05
6.5213e-05
6.58572e-05
6.73639e-05
7.20306e-05
0.000104015
0.000138235
0.00013824
7.97312e-05
7.14586e-05
6.85197e-05
6.70853e-05
6.6282e-05
6.5814e-05
6.55623e-05
6.54786e-05
6.555e-05
6.57894e-05
6.62483e-05
6.70627e-05
6.85967e-05
7.23048e-05
8.94011e-05
0.00013545
7.98148e-05
7.06036e-05
6.77355e-05
6.63003e-05
6.54052e-05
6.47599e-05
6.42389e-05
6.37812e-05
6.33585e-05
6.2961e-05
6.25908e-05
6.22574e-05
6.19757e-05
6.17658e-05
6.16552e-05
6.16879e-05
6.19473e-05
6.26268e-05
6.43358e-05
7.03883e-05
0.000124198
0.00013824
0.00013824
0.00013824
0.00013824
0.00013824
0.00013824
0.00013824
0.00013824
0.00013824
0.00013824
0.00013824
0.00013824
0.00013824
0.00013824
0.00013824
0.00013824
0.00013824
0.00013824
0.00013824
0.00013824
0.00013824
0.00013824
0.00013824
0.000138235
9.98143e-05
6.80668e-05
6.39818e-05
6.28293e-05
6.24453e-05
6.24163e-05
6.26039e-05
6.2944e-05
6.33968e-05
6.3928e-05
6.45012e-05
6.50756e-05
6.56084e-05
6.60605e-05
6.64043e-05
6.66299e-05
6.6748e-05
6.67915e-05
6.68151e-05
6.68977e-05
6.71586e-05
6.78174e-05
6.94607e-05
7.49864e-05
0.000117921
0.00013824
0.00013824
0.00013824
0.000138236
0.000105941
7.31659e-05
6.81525e-05
6.643e-05
6.56086e-05
6.51988e-05
6.50409e-05
6.50629e-05
6.52319e-05
6.55337e-05
6.59532e-05
6.64392e-05
6.68717e-05
6.70157e-05
6.6696e-05
6.61254e-05
6.55497e-05
6.50563e-05
6.46788e-05
6.44212e-05
6.42883e-05
6.42986e-05
6.44981e-05
6.49918e-05
6.60679e-05
6.87147e-05
7.89371e-05
0.000136897
0.00013824
0.00013824
0.000134445
7.83727e-05
6.95757e-05
6.69525e-05
6.57484e-05
6.50977e-05
6.47548e-05
6.4638e-05
6.47275e-05
6.50391e-05
6.56492e-05
6.6803e-05
6.92638e-05
7.70944e-05
0.000133679
0.00013824
0.000117156
7.36881e-05
6.77616e-05
6.56728e-05
6.45623e-05
6.38423e-05
6.3314e-05
6.28911e-05
6.25333e-05
6.22229e-05
6.19557e-05
6.17367e-05
6.15787e-05
6.15032e-05
6.1546e-05
6.17735e-05
6.23352e-05
6.36776e-05
6.8017e-05
9.95681e-05
0.000138235
0.00013824
0.00013824
0.00013824
0.00013824
0.00013824
0.00013824
0.00013824
0.00013824
0.00013824
0.00013824
0.00013824
0.00013824
0.00013824
0.00013824
0.00013824
0.00013824
0.00013824
0.00013824
0.00013824
0.00013824
0.00013824
0.00013824
0.00013824
0.00013824
0.000135945
7.37166e-05
6.54412e-05
6.33244e-05
6.25357e-05
6.22524e-05
6.22344e-05
6.23814e-05
6.26391e-05
6.29693e-05
6.33395e-05
6.37191e-05
6.40803e-05
6.44001e-05
6.46642e-05
6.48701e-05
6.50296e-05
6.51715e-05
6.53459e-05
6.56342e-05
6.61801e-05
6.7305e-05
7.00899e-05
8.13395e-05
0.000137245
0.00013824
0.00013824
0.00013824
0.00013824
0.000138023
8.70217e-05
7.05017e-05
6.69493e-05
6.55303e-05
6.48355e-05
6.45355e-05
6.44935e-05
6.46606e-05
6.50369e-05
6.5649e-05
6.64753e-05
6.74194e-05
6.78657e-05
6.71949e-05
6.61075e-05
6.52464e-05
6.46024e-05
6.41781e-05
6.39391e-05
6.38761e-05
6.40117e-05
6.44217e-05
6.52922e-05
6.73318e-05
7.41848e-05
0.000129354
0.00013824
0.00013824
0.00013824
0.00013824
0.000130732
7.5308e-05
6.81424e-05
6.59736e-05
6.49577e-05
6.44417e-05
6.42642e-05
6.43907e-05
6.48447e-05
6.57593e-05
6.78064e-05
7.43422e-05
0.00012354
0.00013824
0.00013824
0.000138013
8.58231e-05
6.91436e-05
6.56097e-05
6.41177e-05
6.3255e-05
6.26777e-05
6.22558e-05
6.19323e-05
6.16809e-05
6.14923e-05
6.13696e-05
6.1327e-05
6.13927e-05
6.16215e-05
6.21274e-05
6.32253e-05
6.62519e-05
8.16564e-05
0.000138021
0.00013824
0.00013824
0.00013824
0.00013824
0.00013824
0.00013824
0.00013824
0.00013824
0.00013824
0.00013824
0.00013824
0.00013824
0.00013824
0.00013824
0.00013824
0.00013824
0.00013824
0.00013824
0.00013824
0.00013824
0.00013824
0.00013824
0.00013824
0.00013824
0.00013824
0.00013824
0.000122791
7.05293e-05
6.46309e-05
6.29603e-05
6.22866e-05
6.20193e-05
6.19687e-05
6.20499e-05
6.2214e-05
6.24268e-05
6.26626e-05
6.29013e-05
6.31294e-05
6.33403e-05
6.35365e-05
6.37318e-05
6.39555e-05
6.42618e-05
6.47505e-05
6.56356e-05
6.75324e-05
7.34872e-05
0.000120398
0.00013824
0.00013824
0.00013824
0.00013824
0.00013824
0.00013824
0.00013726
8.0618e-05
6.95574e-05
6.63997e-05
6.50785e-05
6.45531e-05
6.44405e-05
6.46477e-05
6.52187e-05
6.63781e-05
6.8333e-05
7.21958e-05
7.45615e-05
7.16376e-05
6.76155e-05
6.58654e-05
6.47679e-05
6.41853e-05
6.39182e-05
6.39249e-05
6.4242e-05
6.50563e-05
6.6836e-05
7.30669e-05
0.000121241
0.00013824
0.00013824
0.00013824
0.00013824
0.00013824
0.00013824
0.000127583
7.44909e-05
6.79454e-05
6.58255e-05
6.48437e-05
6.45165e-05
6.47401e-05
6.55828e-05
6.73139e-05
7.34024e-05
0.000117643
0.00013824
0.00013824
0.00013824
0.00013824
0.000131581
7.38365e-05
6.6546e-05
6.42137e-05
6.3051e-05
6.23531e-05
6.18887e-05
6.15691e-05
6.13537e-05
6.12275e-05
6.11943e-05
6.12759e-05
6.15186e-05
6.20292e-05
6.30531e-05
6.54761e-05
7.47855e-05
0.000136851
0.00013824
0.00013824
0.00013824
0.00013824
0.00013824
0.00013824
0.00013824
0.00013824
0.00013824
0.00013824
0.00013824
0.00013824
0.00013824
0.00013824
0.00013824
0.00013824
0.00013824
0.00013824
0.00013824
0.00013824
0.00013824
0.00013824
0.00013824
0.00013824
0.00013824
0.00013824
0.00013824
0.000138238
0.000104529
6.89454e-05
6.41498e-05
6.26717e-05
6.20332e-05
6.17475e-05
6.16512e-05
6.16675e-05
6.17523e-05
6.18785e-05
6.20291e-05
6.21947e-05
6.23734e-05
6.25712e-05
6.28054e-05
6.31103e-05
6.35544e-05
6.42816e-05
6.56758e-05
6.94266e-05
9.06857e-05
0.00013817
0.00013824
0.00013824
0.00013824
0.00013824
0.00013824
0.00013824
0.00013824
0.000137218
8.45062e-05
7.0601e-05
6.66063e-05
6.55523e-05
6.53139e-05
6.56621e-05
6.6791e-05
7.05634e-05
7.87041e-05
0.000120533
0.000134432
0.000115668
7.52183e-05
6.9393e-05
6.61883e-05
6.5124e-05
6.47115e-05
6.48334e-05
6.55598e-05
6.77695e-05
7.34822e-05
0.000122551
0.00013824
0.00013824
0.00013824
0.00013824
0.00013824
0.00013824
0.00013824
0.00013824
0.000131748
7.83601e-05
7.02007e-05
6.68838e-05
6.59976e-05
6.65824e-05
6.94222e-05
7.46436e-05
0.000123796
0.00013824
0.00013824
0.00013824
0.00013824
0.00013824
0.00013824
0.000118851
7.15947e-05
6.54188e-05
6.34073e-05
6.24247e-05
6.18401e-05
6.14849e-05
6.12847e-05
6.1214e-05
6.12818e-05
6.15345e-05
6.2069e-05
6.31965e-05
6.58e-05
7.42875e-05
0.000135779
0.00013824
0.00013824
0.00013824
0.00013824
0.00013824
0.00013824
0.00013824
0.00013824
0.00013824
0.00013824
0.00013824
0.00013824
0.00013824
0.00013824
0.00013824
0.00013824
0.00013824
0.00013824
0.00013824
0.00013824
0.00013824
0.00013824
0.00013824
0.00013824
0.00013824
0.00013824
0.00013824
0.00013824
0.00013824
0.000138215
9.22264e-05
6.78815e-05
6.38115e-05
6.24266e-05
6.17878e-05
6.14763e-05
6.13405e-05
6.13081e-05
6.13428e-05
6.14257e-05
6.15484e-05
6.17112e-05
6.19246e-05
6.22119e-05
6.26195e-05
6.32503e-05
6.43479e-05
6.66845e-05
7.45317e-05
0.000134589
0.00013824
0.00013824
0.00013824
0.00013824
0.00013824
0.00013824
0.00013824
0.00013824
0.00013824
0.000137984
0.000104939
7.31763e-05
7.01184e-05
6.93062e-05
7.04267e-05
7.38116e-05
0.000107363
0.000137223
0.00013824
0.00013824
0.00013824
0.000135236
9.73271e-05
7.24104e-05
6.93105e-05
6.79638e-05
6.86092e-05
7.10702e-05
8.38642e-05
0.000131894
0.00013824
0.00013824
0.00013824
0.00013824
0.00013824
0.00013824
0.00013824
0.00013824
0.00013824
0.00013824
0.000137262
0.000107961
7.63873e-05
7.20934e-05
7.46141e-05
0.000100837
0.000134556
0.00013824
0.00013824
0.00013824
0.00013824
0.00013824
0.00013824
0.00013824
0.00013824
0.000111638
7.074e-05
6.49593e-05
6.31819e-05
6.22716e-05
6.18062e-05
6.15955e-05
6.15875e-05
6.18084e-05
6.24032e-05
6.36438e-05
6.72627e-05
7.98758e-05
0.000136658
0.00013824
0.00013824
0.00013824
0.00013824
0.00013824
0.00013824
0.00013824
0.00013824
0.00013824
0.00013824
0.00013824
0.00013824
0.00013824
0.00013824
0.00013824
0.00013824
0.00013824
0.00013824
0.00013824
0.00013824
0.00013824
0.00013824
0.00013824
0.00013824
0.00013824
0.00013824
0.00013824
0.00013824
0.00013824
0.00013824
0.00013824
0.000138156
8.74008e-05
6.75439e-05
6.36522e-05
6.22574e-05
6.16033e-05
6.12726e-05
6.11087e-05
6.10528e-05
6.10768e-05
6.11689e-05
6.1331e-05
6.15805e-05
6.19543e-05
6.25264e-05
6.35018e-05
6.55138e-05
7.19147e-05
0.000124266
0.00013824
0.00013824
0.00013824
0.00013824
0.00013824
0.00013824
0.00013824
0.00013824
0.00013824
0.00013824
0.00013824
0.000138237
0.000130963
0.000107993
9.7845e-05
0.000111562
0.000133504
0.000138239
0.00013824
0.00013824
0.00013824
0.00013824
0.00013824
0.000138227
0.000128105
0.000101815
8.67004e-05
9.44936e-05
0.000119871
0.000138029
0.00013824
0.00013824
0.00013824
0.00013824
0.00013824
0.00013824
0.00013824
0.00013824
0.00013824
0.00013824
0.00013824
0.00013824
0.000138239
0.000136771
0.000129954
0.000135618
0.000138234
0.00013824
0.00013824
0.00013824
0.00013824
0.00013824
0.00013824
0.00013824
0.00013824
0.00013824
0.00013824
0.000116507
7.13836e-05
6.60052e-05
6.37599e-05
6.29647e-05
6.26873e-05
6.27954e-05
6.3361e-05
6.51986e-05
6.95608e-05
9.78529e-05
0.000137953
0.00013824
0.00013824
0.00013824
0.00013824
0.00013824
0.00013824
0.00013824
0.00013824
0.00013824
0.00013824
0.00013824
0.00013824
0.00013824
0.00013824
0.00013824
0.00013824
0.00013824
0.00013824
0.00013824
0.00013824
0.00013824
0.00013824
0.00013824
0.00013824
0.00013824
0.00013824
0.00013824
0.00013824
0.00013824
0.00013824
0.00013824
0.00013824
0.00013824
0.000138146
8.99707e-05
6.80352e-05
6.37107e-05
6.22485e-05
6.15835e-05
6.12213e-05
6.1049e-05
6.10098e-05
6.10786e-05
6.12582e-05
6.15819e-05
6.21243e-05
6.30241e-05
6.48864e-05
7.07912e-05
0.000115164
0.00013824
0.00013824
0.00013824
0.00013824
0.00013824
0.00013824
0.00013824
0.00013824
0.00013824
0.00013824
0.00013824
0.00013824
0.00013824
0.00013824
0.000138239
0.000138226
0.000138239
0.00013824
0.00013824
0.00013824
0.00013824
0.00013824
0.00013824
0.00013824
0.00013824
0.00013824
0.000138235
0.000138106
0.000138214
0.00013824
0.00013824
0.00013824
0.00013824
0.00013824
0.00013824
0.00013824
0.00013824
0.00013824
0.00013824
0.00013824
0.00013824
0.00013824
0.00013824
0.00013824
0.00013824
0.00013824
0.00013824
0.00013824
0.00013824
0.00013824
0.00013824
0.00013824
0.00013824
0.00013824
0.00013824
0.00013824
0.00013824
0.00013824
0.00013824
0.000130041
8.29575e-05
6.95051e-05
6.72871e-05
6.66187e-05
6.72849e-05
6.91593e-05
8.0921e-05
0.000124196
0.000138234
0.00013824
0.00013824
0.00013824
0.00013824
0.00013824
0.00013824
0.00013824
0.00013824
0.00013824
0.00013824
0.00013824
0.00013824
0.00013824
0.00013824
0.00013824
0.00013824
0.00013824
0.00013824
0.00013824
0.00013824
0.00013824
0.00013824
0.00013824
0.00013824
0.00013824
0.00013824
0.00013824
0.00013824
0.00013824
0.00013824
0.00013824
0.00013824
0.00013824
0.00013824
0.00013824
0.000138204
0.000101106
6.92607e-05
6.41982e-05
6.2686e-05
6.18568e-05
6.14749e-05
6.13454e-05
6.13934e-05
6.16213e-05
6.21104e-05
6.30974e-05
6.4891e-05
7.07556e-05
0.000115238
0.00013824
0.00013824
0.00013824
0.00013824
0.00013824
0.00013824
0.00013824
0.00013824
0.00013824
0.00013824
0.00013824
0.00013824
0.00013824
0.00013824
0.00013824
0.00013824
0.00013824
0.00013824
0.00013824
0.00013824
0.00013824
0.00013824
0.00013824
0.00013824
0.00013824
0.00013824
0.00013824
0.00013824
0.00013824
0.00013824
0.00013824
0.00013824
0.00013824
0.00013824
0.00013824
0.00013824
0.00013824
0.00013824
0.00013824
0.00013824
0.00013824
0.00013824
0.00013824
0.00013824
0.00013824
0.00013824
0.00013824
0.00013824
0.00013824
0.00013824
0.00013824
0.00013824
0.00013824
0.00013824
0.00013824
0.00013824
0.00013824
0.00013824
0.00013824
0.00013824
0.00013824
0.000138087
0.000122578
0.000100397
9.34731e-05
0.000103424
0.000124095
0.000138037
0.00013824
0.00013824
0.00013824
0.00013824
0.00013824
0.00013824
0.00013824
0.00013824
0.00013824
0.00013824
0.00013824
0.00013824
0.00013824
0.00013824
0.00013824
0.00013824
0.00013824
0.00013824
0.00013824
0.00013824
0.00013824
0.00013824
0.00013824
0.00013824
0.00013824
0.00013824
0.00013824
0.00013824
0.00013824
0.00013824
0.00013824
0.00013824
0.00013824
0.00013824
0.00013824
0.00013824
0.00013824
0.00013824
0.000138237
0.000120747
7.21392e-05
6.69425e-05
6.38015e-05
6.28444e-05
6.25252e-05
6.25441e-05
6.29034e-05
6.38552e-05
6.70376e-05
7.28777e-05
0.000125392
0.00013824
0.00013824
0.00013824
0.00013824
0.00013824
0.00013824
0.00013824
0.00013824
0.00013824
0.00013824
0.00013824
0.00013824
0.00013824
0.00013824
0.00013824
0.00013824
0.00013824
0.00013824
0.00013824
0.00013824
0.00013824
0.00013824
0.00013824
0.00013824
0.00013824
0.00013824
0.00013824
0.00013824
0.00013824
0.00013824
0.00013824
0.00013824
0.00013824
0.00013824
0.00013824
0.00013824
0.00013824
0.00013824
0.00013824
0.00013824
0.00013824
0.00013824
0.00013824
0.00013824
0.00013824
0.00013824
0.00013824
0.00013824
0.00013824
0.00013824
0.00013824
0.00013824
0.00013824
0.00013824
0.00013824
0.00013824
0.00013824
0.00013824
0.00013824
0.00013824
0.00013824
0.00013824
0.00013824
0.00013824
0.000138236
0.000138222
0.000138238
0.00013824
0.00013824
0.00013824
0.00013824
0.00013824
0.00013824
0.00013824
0.00013824
0.00013824
0.00013824
0.00013824
0.00013824
0.00013824
0.00013824
0.00013824
0.00013824
0.00013824
0.00013824
0.00013824
0.00013824
0.00013824
0.00013824
0.00013824
0.00013824
0.00013824
0.00013824
0.00013824
0.00013824
0.00013824
0.00013824
0.00013824
0.00013824
0.00013824
0.00013824
0.00013824
0.00013824
0.00013824
0.00013824
0.00013824
0.00013824
0.00013824
0.00013824
0.000135848
0.000104516
7.15572e-05
6.81281e-05
6.70323e-05
6.69272e-05
6.79112e-05
7.06421e-05
0.00010003
0.000135889
0.00013824
0.00013824
0.00013824
0.00013824
0.00013824
0.00013824
0.00013824
0.00013824
0.00013824
0.00013824
0.00013824
0.00013824
0.00013824
0.00013824
0.00013824
0.00013824
0.00013824
0.00013824
0.00013824
0.00013824
0.00013824
0.00013824
0.00013824
0.00013824
0.00013824
0.00013824
0.00013824
0.00013824
0.00013824
0.00013824
0.00013824
0.00013824
0.00013824
0.00013824
0.00013824
0.00013824
0.00013824
0.00013824
0.00013824
0.00013824
0.00013824
0.00013824
0.00013824
0.00013824
0.00013824
0.00013824
0.00013824
0.00013824
0.00013824
0.00013824
0.00013824
0.00013824
0.00013824
0.00013824
0.00013824
0.00013824
0.00013824
0.00013824
0.00013824
0.00013824
0.00013824
0.00013824
0.00013824
0.00013824
0.00013824
0.00013824
0.00013824
0.00013824
0.00013824
0.00013824
0.00013824
0.00013824
0.00013824
0.00013824
0.00013824
0.00013824
0.00013824
0.00013824
0.00013824
0.00013824
0.00013824
0.00013824
0.00013824
0.00013824
0.00013824
0.00013824
0.00013824
0.00013824
0.00013824
0.00013824
0.00013824
0.00013824
0.00013824
0.00013824
0.00013824
0.00013824
0.00013824
0.00013824
0.00013824
0.00013824
0.00013824
0.00013824
0.00013824
0.00013824
0.00013824
0.00013824
0.00013824
0.00013824
0.00013824
0.00013824
0.00013824
0.000138239
0.000135585
0.000118269
0.000103644
0.000101289
0.000113433
0.000132807
0.000138236
0.00013824
0.00013824
0.00013824
0.00013824
0.00013824
0.00013824
0.00013824
0.00013824
0.00013824
0.00013824
0.00013824
0.00013824
0.00013824
0.00013824
0.00013824
0.00013824
0.00013824
0.00013824
0.00013824
0.00013824
0.00013824
0.00013824
0.00013824
0.00013824
0.00013824
0.00013824
0.00013824
0.00013824
0.00013824
0.00013824
0.00013824
0.00013824
0.00013824
0.00013824
0.00013824
0.00013824
0.00013824
0.00013824
0.00013824
0.00013824
0.00013824
0.00013824
0.00013824
0.00013824
0.00013824
0.00013824
0.00013824
0.00013824
0.00013824
0.00013824
0.00013824
0.00013824
0.00013824
0.00013824
0.00013824
0.00013824
0.00013824
0.00013824
0.00013824
0.00013824
0.00013824
0.00013824
0.00013824
0.00013824
0.00013824
0.00013824
0.00013824
0.00013824
0.00013824
0.00013824
0.00013824
0.00013824
0.00013824
0.00013824
0.00013824
0.00013824
0.00013824
0.00013824
0.00013824
0.00013824
0.00013824
0.00013824
0.00013824
0.00013824
0.00013824
0.00013824
0.00013824
0.00013824
0.00013824
0.00013824
0.00013824
0.00013824
0.00013824
0.00013824
0.00013824
0.00013824
0.00013824
0.00013824
0.00013824
0.00013824
0.00013824
0.00013824
0.00013824
0.00013824
0.00013824
0.00013824
0.00013824
0.00013824
0.00013824
0.00013824
0.00013824
0.00013824
0.00013824
0.00013824
0.00013824
0.000138238
0.000138237
0.00013824
0.00013824
0.00013824
0.00013824
0.00013824
0.00013824
0.00013824
0.00013824
0.00013824
0.00013824
0.00013824
0.00013824
0.00013824
0.00013824
0.00013824
0.00013824
0.00013824
0.00013824
0.00013824
0.00013824
0.00013824
0.00013824
0.00013824
0.00013824
0.00013824
0.00013824
0.00013824
0.00013824
0.00013824
0.00013824
0.00013824
0.00013824
0.00013824
0.00013824
0.00013824
0.00013824
0.00013824
0.00013824
0.00013824
0.00013824
0.00013824
0.00013824
0.00013824
0.00013824
0.00013824
0.00013824
0.00013824
0.00013824
0.00013824
0.00013824
0.00013824
0.00013824
0.00013824
0.00013824
0.00013824
0.00013824
0.00013824
0.00013824
0.00013824
0.00013824
0.00013824
0.00013824
0.00013824
0.00013824
0.00013824
0.00013824
0.00013824
0.00013824
0.00013824
0.00013824
0.00013824
0.00013824
0.00013824
0.00013824
0.00013824
0.00013824
0.00013824
0.00013824
0.00013824
0.00013824
0.00013824
0.00013824
0.00013824
0.00013824
0.00013824
0.00013824
0.00013824
0.00013824
0.00013824
0.00013824
0.00013824
0.00013824
0.00013824
0.00013824
0.00013824
0.00013824
0.00013824
0.00013824
0.00013824
0.00013824
0.00013824
0.00013824
0.00013824
0.00013824
0.00013824
0.00013824
0.00013824
0.00013824
0.00013824
0.00013824
0.00013824
0.00013824
0.00013824
0.00013824
0.00013824
0.00013824
0.00013824
0.00013824
0.00013824
0.00013824
0.00013824
0.00013824
0.00013824
0.00013824
0.00013824
0.00013824
0.00013824
0.00013824
0.00013824
0.00013824
0.00013824
0.00013824
0.00013824
0.00013824
0.00013824
0.00013824
0.00013824
0.00013824
0.00013824
0.00013824
0.00013824
0.00013824
0.00013824
0.00013824
0.00013824
0.00013824
0.00013824
0.00013824
0.00013824
0.00013824
0.00013824
0.00013824
0.00013824
0.00013824
0.00013824
0.00013824
0.00013824
0.00013824
0.00013824
0.00013824
0.00013824
0.00013824
0.00013824
0.00013824
0.00013824
0.00013824
0.00013824
0.00013824
0.00013824
0.00013824
0.00013824
0.00013824
0.00013824
0.00013824
0.00013824
0.00013824
0.00013824
0.00013824
0.00013824
0.00013824
0.00013824
0.00013824
0.00013824
0.00013824
0.00013824
0.00013824
0.00013824
0.00013824
0.00013824
0.00013824
0.00013824
0.00013824
0.00013824
0.00013824
0.00013824
0.00013824
0.00013824
0.00013824
0.00013824
0.00013824
0.00013824
0.00013824
0.00013824
0.00013824
0.00013824
0.00013824
0.00013824
0.00013824
0.00013824
0.00013824
0.00013824
0.00013824
0.00013824
0.00013824
0.00013824
0.00013824
0.00013824
0.00013824
0.00013824
0.00013824
0.00013824
0.00013824
0.00013824
0.00013824
0.00013824
0.00013824
0.00013824
0.00013824
0.00013824
0.00013824
0.00013824
0.00013824
0.00013824
0.00013824
0.00013824
0.00013824
0.00013824
0.00013824
0.00013824
0.00013824
0.00013824
0.00013824
0.00013824
0.00013824
0.00013824
0.00013824
0.00013824
0.00013824
0.00013824
0.00013824
0.00013824
0.00013824
0.00013824
0.00013824
0.00013824
0.00013824
0.00013824
0.00013824
0.00013824
0.00013824
0.00013824
0.00013824
0.00013824
0.00013824
0.00013824
0.00013824
0.00013824
0.00013824
0.00013824
0.00013824
0.00013824
0.00013824
0.00013824
0.00013824
0.00013824
0.00013824
0.00013824
0.00013824
0.00013824
0.00013824
0.00013824
0.00013824
0.00013824
0.00013824
0.00013824
0.00013824
0.00013824
0.00013824
0.00013824
0.00013824
0.00013824
0.00013824
0.00013824
0.00013824
0.00013824
0.00013824
0.00013824
0.00013824
0.00013824
0.00013824
0.00013824
0.00013824
0.00013824
0.00013824
0.00013824
0.00013824
0.00013824
0.00013824
0.00013824
0.00013824
0.00013824
0.00013824
0.00013824
0.00013824
0.00013824
0.00013824
0.00013824
0.00013824
0.00013824
0.00013824
0.00013824
0.00013824
0.00013824
0.00013824
0.00013824
0.00013824
0.00013824
0.00013824
0.00013824
0.00013824
0.00013824
0.00013824
0.00013824
0.00013824
0.00013824
0.00013824
0.00013824
0.00013824
0.00013824
0.00013824
0.00013824
0.00013824
0.00013824
0.00013824
0.00013824
0.00013824
0.00013824
0.00013824
0.00013824
0.00013824
0.00013824
0.00013824
0.00013824
0.00013824
0.00013824
0.00013824
0.00013824
0.00013824
0.00013824
0.00013824
0.00013824
0.00013824
0.00013824
0.00013824
0.00013824
0.00013824
0.00013824
0.00013824
0.00013824
0.00013824
0.00013824
0.00013824
0.00013824
0.00013824
0.00013824
0.00013824
0.00013824
0.00013824
0.00013824
0.00013824
0.00013824
0.00013824
0.00013824
0.00013824
0.00013824
0.00013824
0.00013824
0.00013824
0.00013824
0.00013824
0.00013824
0.00013824
0.00013824
0.00013824
0.00013824
0.00013824
0.00013824
0.00013824
0.00013824
0.00013824
0.00013824
0.00013824
0.00013824
0.00013824
0.00013824
0.00013824
0.00013824
0.00013824
0.00013824
0.00013824
0.00013824
0.00013824
0.00013824
0.00013824
0.00013824
0.00013824
0.00013824
0.00013824
0.00013824
0.00013824
0.00013824
0.00013824
0.00013824
0.00013824
0.00013824
0.00013824
0.00013824
0.00013824
0.00013824
0.00013824
0.00013824
0.00013824
0.00013824
0.00013824
0.00013824
0.00013824
0.00013824
0.00013824
0.00013824
0.00013824
0.00013824
0.00013824
0.00013824
0.00013824
0.00013824
0.00013824
0.00013824
0.00013824
0.00013824
0.00013824
0.00013824
0.00013824
0.00013824
0.00013824
0.00013824
0.00013824
0.00013824
0.00013824
0.00013824
0.00013824
0.00013824
0.00013824
0.00013824
0.00013824
0.00013824
0.00013824
0.00013824
0.00013824
0.00013824
0.00013824
0.00013824
0.00013824
0.00013824
0.00013824
0.00013824
0.00013824
0.00013824
0.00013824
0.00013824
0.00013824
0.00013824
0.00013824
0.00013824
0.00013824
0.00013824
0.00013824
0.00013824
0.00013824
0.00013824
0.00013824
0.00013824
0.00013824
0.00013824
0.00013824
0.00013824
0.00013824
0.00013824
0.00013824
0.00013824
0.00013824
0.00013824
0.00013824
0.00013824
0.00013824
0.00013824
0.00013824
0.00013824
0.00013824
0.00013824
0.00013824
0.00013824
0.00013824
0.00013824
0.00013824
0.00013824
0.00013824
0.00013824
0.00013824
0.00013824
0.00013824
0.00013824
0.00013824
0.00013824
0.00013824
0.00013824
0.00013824
0.00013824
0.00013824
0.00013824
0.00013824
0.00013824
0.00013824
0.00013824
0.00013824
0.00013824
0.00013824
0.00013824
0.00013824
0.00013824
0.00013824
0.00013824
0.00013824
0.00013824
0.00013824
0.00013824
0.00013824
0.00013824
0.00013824
0.00013824
0.00013824
0.00013824
0.00013824
0.00013824
0.00013824
0.00013824
0.00013824
0.00013824
0.00013824
0.00013824
0.00013824
0.00013824
0.00013824
0.00013824