/*--------------------------------*- C++ -*----------------------------------*\
| =========                 |                                                 |
| \\      /  F ield         | OpenFOAM: The Open Source CFD Toolbox           |
|  \\    /   O peration     | Version:  2406                                  |
|   \\  /    A nd           | Website:  www.openfoam.com                      |
|    \\/     M anipulation  |                                                 |
\*---------------------------------------------------------------------------*/
FoamFile
{
    version     2.0;
    format      ascii;
    arch        "LSB;label=32;scalar=64";
    class       volScalarField;
    location    "8.4";
    object      Da;
}
// * * * * * * * * * * * * * * * * * * * * * * * * * * * * * * * * * * * * * //

dimensions      [0 2 -1 0 0 0 0];

internalField   nonuniform List<scalar> 
14400
(
4.91227e-05
4.91044e-05
4.90803e-05
4.90618e-05
4.90531e-05
4.90523e-05
4.9055e-05
4.90577e-05
4.90599e-05
4.90649e-05
4.9079e-05
4.91098e-05
4.91615e-05
4.92279e-05
4.92844e-05
4.92895e-05
4.92143e-05
4.90869e-05
4.89361e-05
4.87676e-05
4.85688e-05
4.83212e-05
4.80087e-05
4.76254e-05
4.71797e-05
4.66942e-05
4.62003e-05
4.57293e-05
4.5305e-05
4.49416e-05
4.46462e-05
4.44229e-05
4.42771e-05
4.42212e-05
4.42851e-05
4.4546e-05
4.52598e-05
4.78756e-05
7.24667e-05
7.8e-05
7.8e-05
7.8e-05
7.8e-05
7.8e-05
7.8e-05
7.8e-05
7.8e-05
7.8e-05
7.8e-05
7.8e-05
7.8e-05
7.8e-05
7.8e-05
7.8e-05
7.8e-05
7.8e-05
7.8e-05
7.8e-05
7.79999e-05
6.76013e-05
4.76378e-05
4.53264e-05
4.4733e-05
4.45666e-05
4.4602e-05
4.47762e-05
4.50713e-05
4.54864e-05
4.60258e-05
4.66889e-05
4.74563e-05
4.82796e-05
4.90838e-05
4.97884e-05
5.0331e-05
5.06778e-05
5.08212e-05
5.07731e-05
5.05606e-05
5.02259e-05
4.98256e-05
4.94289e-05
4.91165e-05
4.89929e-05
4.92516e-05
5.05318e-05
5.67033e-05
7.77541e-05
6.12629e-05
5.04868e-05
4.84725e-05
4.78236e-05
4.75933e-05
4.75602e-05
4.76391e-05
4.7785e-05
4.79681e-05
4.81656e-05
4.83589e-05
4.85327e-05
4.86736e-05
4.87696e-05
4.88097e-05
4.87858e-05
4.86948e-05
4.85402e-05
4.83312e-05
4.808e-05
4.78009e-05
4.75097e-05
4.72241e-05
4.69628e-05
4.67462e-05
4.65976e-05
4.65487e-05
4.66539e-05
4.70334e-05
4.80542e-05
5.1514e-05
7.59739e-05
4.8874e-05
4.88264e-05
4.87615e-05
4.87038e-05
4.86632e-05
4.86394e-05
4.86286e-05
4.86272e-05
4.86346e-05
4.86542e-05
4.86928e-05
4.87592e-05
4.88596e-05
4.89885e-05
4.9112e-05
4.91543e-05
4.90398e-05
4.88511e-05
4.86491e-05
4.84465e-05
4.82303e-05
4.79797e-05
4.76781e-05
4.73184e-05
4.69071e-05
4.64632e-05
4.60131e-05
4.55836e-05
4.51954e-05
4.4862e-05
4.45911e-05
4.43885e-05
4.42616e-05
4.42263e-05
4.43192e-05
4.46363e-05
4.55049e-05
4.86829e-05
7.60695e-05
7.8e-05
7.8e-05
7.8e-05
7.8e-05
7.8e-05
7.8e-05
7.8e-05
7.8e-05
7.8e-05
7.8e-05
7.8e-05
7.8e-05
7.8e-05
7.8e-05
7.8e-05
7.8e-05
7.8e-05
7.8e-05
7.8e-05
7.8e-05
7.18716e-05
4.80375e-05
4.54621e-05
4.47875e-05
4.45817e-05
4.45904e-05
4.47409e-05
4.50097e-05
4.53923e-05
4.589e-05
4.65006e-05
4.72067e-05
4.79661e-05
4.87134e-05
4.93751e-05
4.98906e-05
5.02242e-05
5.03656e-05
5.03251e-05
5.01301e-05
4.98233e-05
4.94611e-05
4.91107e-05
4.88503e-05
4.87856e-05
4.91317e-05
5.0726e-05
5.98809e-05
7.79578e-05
6.66209e-05
5.08588e-05
4.84632e-05
4.77177e-05
4.7432e-05
4.7355e-05
4.73944e-05
4.75041e-05
4.76551e-05
4.78266e-05
4.80019e-05
4.81664e-05
4.83062e-05
4.84071e-05
4.84541e-05
4.84348e-05
4.83446e-05
4.81901e-05
4.79849e-05
4.77448e-05
4.74854e-05
4.72217e-05
4.6969e-05
4.67436e-05
4.65637e-05
4.64522e-05
4.64427e-05
4.6598e-05
4.70737e-05
4.84509e-05
5.4426e-05
7.7724e-05
4.85128e-05
4.83951e-05
4.8244e-05
4.81121e-05
4.80154e-05
4.79531e-05
4.79198e-05
4.79112e-05
4.79261e-05
4.7968e-05
4.80456e-05
4.81716e-05
4.83608e-05
4.86181e-05
4.89057e-05
4.90655e-05
4.8818e-05
4.84747e-05
4.81646e-05
4.78978e-05
4.76504e-05
4.73956e-05
4.71135e-05
4.67946e-05
4.64415e-05
4.60668e-05
4.56895e-05
4.53289e-05
4.50018e-05
4.47202e-05
4.4493e-05
4.43282e-05
4.42372e-05
4.42423e-05
4.43955e-05
4.48513e-05
4.63361e-05
5.53847e-05
7.79646e-05
7.8e-05
7.8e-05
7.8e-05
7.8e-05
7.8e-05
7.8e-05
7.8e-05
7.8e-05
7.8e-05
7.8e-05
7.8e-05
7.8e-05
7.8e-05
7.8e-05
7.8e-05
7.8e-05
7.8e-05
7.8e-05
7.8e-05
7.8e-05
7.71589e-05
4.97985e-05
4.58814e-05
4.49253e-05
4.46212e-05
4.45739e-05
4.46782e-05
4.48984e-05
4.52227e-05
4.56471e-05
4.61662e-05
4.67646e-05
4.74094e-05
4.80495e-05
4.86248e-05
4.90814e-05
4.93841e-05
4.95196e-05
4.9496e-05
4.93395e-05
4.90919e-05
4.88065e-05
4.8546e-05
4.83846e-05
4.84304e-05
4.89316e-05
5.10365e-05
6.60338e-05
7.79987e-05
7.42624e-05
5.16836e-05
4.85588e-05
4.75789e-05
4.71767e-05
4.70182e-05
4.69894e-05
4.70385e-05
4.71369e-05
4.72657e-05
4.74109e-05
4.75597e-05
4.76981e-05
4.78082e-05
4.78684e-05
4.78581e-05
4.77691e-05
4.76138e-05
4.74147e-05
4.7193e-05
4.69657e-05
4.67461e-05
4.65461e-05
4.63784e-05
4.62588e-05
4.62101e-05
4.62706e-05
4.65187e-05
4.71746e-05
4.93243e-05
6.40977e-05
7.79981e-05
4.82802e-05
4.80042e-05
4.77029e-05
4.74646e-05
4.72981e-05
4.71916e-05
4.71335e-05
4.71161e-05
4.71374e-05
4.72017e-05
4.73205e-05
4.75157e-05
4.78231e-05
4.82924e-05
4.89563e-05
4.95848e-05
4.87994e-05
4.81077e-05
4.76194e-05
4.72632e-05
4.69763e-05
4.67164e-05
4.6457e-05
4.61845e-05
4.58965e-05
4.55986e-05
4.5302e-05
4.50194e-05
4.47633e-05
4.45442e-05
4.43719e-05
4.42572e-05
4.42167e-05
4.42819e-05
4.45288e-05
4.52e-05
4.76221e-05
6.89584e-05
7.8e-05
7.8e-05
7.8e-05
7.8e-05
7.8e-05
7.8e-05
7.8e-05
7.8e-05
7.8e-05
7.8e-05
7.8e-05
7.8e-05
7.8e-05
7.8e-05
7.8e-05
7.8e-05
7.8e-05
7.8e-05
7.8e-05
7.8e-05
7.8e-05
7.79977e-05
6.13089e-05
4.70293e-05
4.51937e-05
4.47005e-05
4.45646e-05
4.46027e-05
4.4758e-05
4.50081e-05
4.53424e-05
4.57516e-05
4.62213e-05
4.67264e-05
4.72301e-05
4.76884e-05
4.80595e-05
4.83138e-05
4.84386e-05
4.844e-05
4.83409e-05
4.81779e-05
4.79983e-05
4.78581e-05
4.78303e-05
4.80367e-05
4.87895e-05
5.15616e-05
7.33701e-05
7.8e-05
7.79674e-05
5.8843e-05
4.92886e-05
4.75479e-05
4.69315e-05
4.66565e-05
4.6542e-05
4.65208e-05
4.65607e-05
4.66436e-05
4.67571e-05
4.68905e-05
4.70302e-05
4.71555e-05
4.72361e-05
4.72391e-05
4.71487e-05
4.69876e-05
4.67909e-05
4.65863e-05
4.63916e-05
4.62177e-05
4.60732e-05
4.59678e-05
4.59164e-05
4.59441e-05
4.60996e-05
4.64928e-05
4.74561e-05
5.06519e-05
7.4835e-05
7.8e-05
4.86498e-05
4.78885e-05
4.73002e-05
4.69119e-05
4.66639e-05
4.65113e-05
4.64282e-05
4.64016e-05
4.64281e-05
4.65123e-05
4.66707e-05
4.69398e-05
4.7398e-05
4.8234e-05
5.00175e-05
5.43884e-05
4.94895e-05
4.79148e-05
4.71436e-05
4.66719e-05
4.6338e-05
4.60697e-05
4.58294e-05
4.55979e-05
4.53674e-05
4.51379e-05
4.49146e-05
4.4705e-05
4.45181e-05
4.43632e-05
4.4251e-05
4.41957e-05
4.42211e-05
4.43755e-05
4.47864e-05
4.59565e-05
5.15003e-05
7.77667e-05
7.8e-05
7.8e-05
7.8e-05
7.8e-05
7.8e-05
7.8e-05
7.8e-05
7.8e-05
7.8e-05
7.8e-05
7.8e-05
7.8e-05
7.8e-05
7.8e-05
7.8e-05
7.8e-05
7.8e-05
7.8e-05
7.8e-05
7.8e-05
7.8e-05
7.8e-05
7.43085e-05
4.85579e-05
4.56339e-05
4.48496e-05
4.45838e-05
4.45352e-05
4.46133e-05
4.47818e-05
4.50226e-05
4.53223e-05
4.56664e-05
4.60353e-05
4.64034e-05
4.67411e-05
4.70202e-05
4.722e-05
4.73316e-05
4.73602e-05
4.7324e-05
4.72526e-05
4.71857e-05
4.71751e-05
4.73006e-05
4.77337e-05
4.90963e-05
5.57814e-05
7.78448e-05
7.8e-05
7.8e-05
7.37867e-05
5.08567e-05
4.77839e-05
4.68117e-05
4.63714e-05
4.61541e-05
4.60588e-05
4.60431e-05
4.60857e-05
4.61744e-05
4.63003e-05
4.64516e-05
4.66054e-05
4.6721e-05
4.6744e-05
4.66427e-05
4.64589e-05
4.62501e-05
4.60506e-05
4.58784e-05
4.57412e-05
4.56444e-05
4.55964e-05
4.56131e-05
4.57267e-05
4.60109e-05
4.66758e-05
4.87346e-05
6.28276e-05
7.79975e-05
7.8e-05
5.2124e-05
4.84836e-05
4.71875e-05
4.65543e-05
4.61996e-05
4.59929e-05
4.58817e-05
4.58448e-05
4.58764e-05
4.59822e-05
4.6185e-05
4.65449e-05
4.72224e-05
4.8859e-05
5.63897e-05
7.67533e-05
5.21694e-05
4.81092e-05
4.6843e-05
4.6209e-05
4.58136e-05
4.55284e-05
4.52981e-05
4.50958e-05
4.49088e-05
4.47329e-05
4.45689e-05
4.44212e-05
4.42964e-05
4.42031e-05
4.41537e-05
4.41676e-05
4.42816e-05
4.45809e-05
4.53341e-05
4.80008e-05
7.17025e-05
7.8e-05
7.8e-05
7.8e-05
7.8e-05
7.8e-05
7.8e-05
7.8e-05
7.8e-05
7.8e-05
7.8e-05
7.8e-05
7.8e-05
7.8e-05
7.8e-05
7.8e-05
7.8e-05
7.8e-05
7.8e-05
7.8e-05
7.8e-05
7.8e-05
7.8e-05
7.8e-05
7.79976e-05
6.08872e-05
4.69751e-05
4.51785e-05
4.46712e-05
4.45026e-05
4.44905e-05
4.4574e-05
4.4725e-05
4.49258e-05
4.51613e-05
4.54153e-05
4.56698e-05
4.59058e-05
4.6106e-05
4.62581e-05
4.63577e-05
4.64097e-05
4.64285e-05
4.64384e-05
4.64743e-05
4.6589e-05
4.68795e-05
4.76048e-05
5.00444e-05
6.89956e-05
7.79999e-05
7.8e-05
7.8e-05
7.79982e-05
6.3687e-05
4.92373e-05
4.70247e-05
4.62642e-05
4.59015e-05
4.57206e-05
4.5651e-05
4.56608e-05
4.57356e-05
4.5869e-05
4.60543e-05
4.6269e-05
4.646e-05
4.65234e-05
4.63823e-05
4.61302e-05
4.58759e-05
4.56578e-05
4.54908e-05
4.53769e-05
4.53179e-05
4.53222e-05
4.54101e-05
4.56279e-05
4.61028e-05
4.72696e-05
5.17636e-05
7.73948e-05
7.8e-05
7.8e-05
7.63005e-05
5.1526e-05
4.76511e-05
4.64938e-05
4.59622e-05
4.5675e-05
4.55235e-05
4.5472e-05
4.55115e-05
4.56493e-05
4.59188e-05
4.64287e-05
4.75155e-05
5.09711e-05
7.59659e-05
7.79999e-05
6.86449e-05
4.94684e-05
4.68523e-05
4.593e-05
4.54395e-05
4.51214e-05
4.4888e-05
4.47011e-05
4.45429e-05
4.44055e-05
4.42873e-05
4.41902e-05
4.41201e-05
4.40863e-05
4.41047e-05
4.42045e-05
4.44515e-05
4.50422e-05
4.69495e-05
6.07643e-05
7.79977e-05
7.8e-05
7.8e-05
7.8e-05
7.8e-05
7.8e-05
7.8e-05
7.8e-05
7.8e-05
7.8e-05
7.8e-05
7.8e-05
7.8e-05
7.8e-05
7.8e-05
7.8e-05
7.8e-05
7.8e-05
7.8e-05
7.8e-05
7.8e-05
7.8e-05
7.8e-05
7.8e-05
7.8e-05
7.69466e-05
4.94447e-05
4.58198e-05
4.48891e-05
4.45419e-05
4.44174e-05
4.441e-05
4.44755e-05
4.45899e-05
4.47362e-05
4.49003e-05
4.50684e-05
4.52284e-05
4.53699e-05
4.54867e-05
4.55777e-05
4.5648e-05
4.57104e-05
4.57872e-05
4.59141e-05
4.61549e-05
4.66514e-05
4.78797e-05
5.28297e-05
7.75533e-05
7.8e-05
7.8e-05
7.8e-05
7.8e-05
7.79021e-05
5.53209e-05
4.8057e-05
4.64916e-05
4.58656e-05
4.5559e-05
4.54265e-05
4.5408e-05
4.54819e-05
4.56481e-05
4.59184e-05
4.6283e-05
4.66999e-05
4.68954e-05
4.66006e-05
4.61205e-05
4.57404e-05
4.5456e-05
4.52685e-05
4.51628e-05
4.51348e-05
4.51945e-05
4.53753e-05
4.57596e-05
4.66601e-05
4.96846e-05
7.40298e-05
7.8e-05
7.8e-05
7.8e-05
7.8e-05
7.46446e-05
5.01798e-05
4.70175e-05
4.606e-05
4.56117e-05
4.53839e-05
4.53055e-05
4.53614e-05
4.55621e-05
4.59662e-05
4.68707e-05
4.97564e-05
7.14596e-05
7.8e-05
7.8e-05
7.78971e-05
5.47841e-05
4.74582e-05
4.59005e-05
4.52418e-05
4.48608e-05
4.46057e-05
4.44193e-05
4.42763e-05
4.41651e-05
4.40816e-05
4.40272e-05
4.40081e-05
4.40366e-05
4.4137e-05
4.43592e-05
4.48413e-05
4.61669e-05
5.28652e-05
7.78969e-05
7.8e-05
7.8e-05
7.8e-05
7.8e-05
7.8e-05
7.8e-05
7.8e-05
7.8e-05
7.8e-05
7.8e-05
7.8e-05
7.8e-05
7.8e-05
7.8e-05
7.8e-05
7.8e-05
7.8e-05
7.8e-05
7.8e-05
7.8e-05
7.8e-05
7.8e-05
7.8e-05
7.8e-05
7.8e-05
7.8e-05
7.10645e-05
4.8064e-05
4.54652e-05
4.47288e-05
4.44319e-05
4.43143e-05
4.42923e-05
4.43286e-05
4.44013e-05
4.44957e-05
4.46001e-05
4.47058e-05
4.48067e-05
4.49e-05
4.49866e-05
4.50728e-05
4.51715e-05
4.53065e-05
4.55222e-05
4.59128e-05
4.675e-05
4.93781e-05
7.00744e-05
7.8e-05
7.8e-05
7.8e-05
7.8e-05
7.8e-05
7.8e-05
7.75569e-05
5.2494e-05
4.76377e-05
4.62479e-05
4.56652e-05
4.54334e-05
4.53837e-05
4.54751e-05
4.5727e-05
4.62385e-05
4.70991e-05
4.88058e-05
4.98386e-05
4.85586e-05
4.67835e-05
4.60121e-05
4.5528e-05
4.52707e-05
4.51526e-05
4.51555e-05
4.52952e-05
4.56542e-05
4.64401e-05
4.91902e-05
7.04206e-05
7.8e-05
7.8e-05
7.8e-05
7.8e-05
7.8e-05
7.8e-05
7.32368e-05
4.98166e-05
4.69263e-05
4.59932e-05
4.55598e-05
4.54156e-05
4.55142e-05
4.58864e-05
4.66505e-05
4.9339e-05
6.88371e-05
7.8e-05
7.8e-05
7.8e-05
7.8e-05
7.50183e-05
4.95294e-05
4.63129e-05
4.52833e-05
4.47697e-05
4.44614e-05
4.42562e-05
4.4115e-05
4.40198e-05
4.39639e-05
4.3949e-05
4.39847e-05
4.40914e-05
4.43157e-05
4.47648e-05
4.58246e-05
4.98763e-05
7.73501e-05
7.8e-05
7.8e-05
7.8e-05
7.8e-05
7.8e-05
7.8e-05
7.8e-05
7.8e-05
7.8e-05
7.8e-05
7.8e-05
7.8e-05
7.8e-05
7.8e-05
7.8e-05
7.8e-05
7.8e-05
7.8e-05
7.8e-05
7.8e-05
7.8e-05
7.8e-05
7.8e-05
7.8e-05
7.8e-05
7.8e-05
7.8e-05
7.79992e-05
6.29645e-05
4.73622e-05
4.52522e-05
4.4601e-05
4.43196e-05
4.41938e-05
4.41515e-05
4.41589e-05
4.41966e-05
4.42526e-05
4.43192e-05
4.43925e-05
4.44714e-05
4.45588e-05
4.46622e-05
4.47968e-05
4.49928e-05
4.53137e-05
4.59287e-05
4.75813e-05
5.69193e-05
7.79679e-05
7.8e-05
7.8e-05
7.8e-05
7.8e-05
7.8e-05
7.8e-05
7.8e-05
7.75365e-05
5.41907e-05
4.80984e-05
4.63387e-05
4.58737e-05
4.57684e-05
4.5922e-05
4.64194e-05
4.80819e-05
5.16451e-05
7.01165e-05
7.62855e-05
6.79538e-05
5.01265e-05
4.75646e-05
4.6154e-05
4.56842e-05
4.55018e-05
4.55555e-05
4.58758e-05
4.68466e-05
4.93702e-05
7.09924e-05
7.8e-05
7.8e-05
7.8e-05
7.8e-05
7.8e-05
7.8e-05
7.8e-05
7.8e-05
7.50869e-05
5.14875e-05
4.79199e-05
4.64559e-05
4.60672e-05
4.63238e-05
4.75766e-05
4.9877e-05
7.15523e-05
7.8e-05
7.8e-05
7.8e-05
7.8e-05
7.8e-05
7.8e-05
6.93481e-05
4.85386e-05
4.58143e-05
4.49261e-05
4.44921e-05
4.4234e-05
4.40771e-05
4.39886e-05
4.39572e-05
4.39869e-05
4.40981e-05
4.43334e-05
4.48285e-05
4.59657e-05
4.96579e-05
7.68498e-05
7.8e-05
7.8e-05
7.8e-05
7.8e-05
7.8e-05
7.8e-05
7.8e-05
7.8e-05
7.8e-05
7.8e-05
7.8e-05
7.8e-05
7.8e-05
7.8e-05
7.8e-05
7.8e-05
7.8e-05
7.8e-05
7.8e-05
7.8e-05
7.8e-05
7.8e-05
7.8e-05
7.8e-05
7.8e-05
7.8e-05
7.8e-05
7.8e-05
7.8e-05
7.79883e-05
5.75234e-05
4.68892e-05
4.5102e-05
4.44923e-05
4.42108e-05
4.40734e-05
4.40136e-05
4.39995e-05
4.4015e-05
4.40517e-05
4.4106e-05
4.41779e-05
4.42721e-05
4.43989e-05
4.45789e-05
4.48575e-05
4.5342e-05
4.63724e-05
4.98275e-05
7.63536e-05
7.8e-05
7.8e-05
7.8e-05
7.8e-05
7.8e-05
7.8e-05
7.8e-05
7.8e-05
7.8e-05
7.78832e-05
6.3199e-05
4.92363e-05
4.78872e-05
4.75277e-05
4.80231e-05
4.95116e-05
6.42704e-05
7.75379e-05
7.8e-05
7.8e-05
7.79999e-05
7.66447e-05
5.98279e-05
4.88984e-05
4.75289e-05
4.69327e-05
4.72182e-05
4.83052e-05
5.38848e-05
7.51511e-05
7.8e-05
7.8e-05
7.8e-05
7.8e-05
7.8e-05
7.8e-05
7.8e-05
7.8e-05
7.8e-05
7.8e-05
7.75544e-05
6.45359e-05
5.06156e-05
4.87533e-05
4.98469e-05
6.13798e-05
7.63402e-05
7.8e-05
7.8e-05
7.8e-05
7.8e-05
7.8e-05
7.8e-05
7.8e-05
7.79998e-05
6.61375e-05
4.8159e-05
4.56099e-05
4.48248e-05
4.44236e-05
4.42183e-05
4.41252e-05
4.41215e-05
4.42185e-05
4.44798e-05
4.50268e-05
4.6613e-05
5.20682e-05
7.72579e-05
7.8e-05
7.8e-05
7.8e-05
7.8e-05
7.8e-05
7.8e-05
7.8e-05
7.8e-05
7.8e-05
7.8e-05
7.8e-05
7.8e-05
7.8e-05
7.8e-05
7.8e-05
7.8e-05
7.8e-05
7.8e-05
7.8e-05
7.8e-05
7.8e-05
7.8e-05
7.8e-05
7.8e-05
7.8e-05
7.8e-05
7.8e-05
7.8e-05
7.8e-05
7.8e-05
7.8e-05
7.79602e-05
5.53886e-05
4.67387e-05
4.50313e-05
4.44171e-05
4.41286e-05
4.39827e-05
4.39105e-05
4.3886e-05
4.38968e-05
4.39375e-05
4.40091e-05
4.41192e-05
4.42842e-05
4.45367e-05
4.49676e-05
4.58559e-05
4.86793e-05
7.17436e-05
7.8e-05
7.8e-05
7.8e-05
7.8e-05
7.8e-05
7.8e-05
7.8e-05
7.8e-05
7.8e-05
7.8e-05
7.8e-05
7.79988e-05
7.47399e-05
6.45586e-05
6.00714e-05
6.61381e-05
7.58688e-05
7.79993e-05
7.8e-05
7.8e-05
7.8e-05
7.8e-05
7.8e-05
7.79941e-05
7.34686e-05
6.18201e-05
5.51433e-05
5.85821e-05
6.98137e-05
7.79029e-05
7.8e-05
7.8e-05
7.8e-05
7.8e-05
7.8e-05
7.8e-05
7.8e-05
7.8e-05
7.8e-05
7.8e-05
7.8e-05
7.8e-05
7.79994e-05
7.73297e-05
7.42809e-05
7.68095e-05
7.7997e-05
7.8e-05
7.8e-05
7.8e-05
7.8e-05
7.8e-05
7.8e-05
7.8e-05
7.8e-05
7.8e-05
7.79998e-05
6.82764e-05
4.84406e-05
4.60627e-05
4.50789e-05
4.47285e-05
4.4606e-05
4.46535e-05
4.4902e-05
4.5704e-05
4.76317e-05
5.99751e-05
7.78634e-05
7.8e-05
7.8e-05
7.8e-05
7.8e-05
7.8e-05
7.8e-05
7.8e-05
7.8e-05
7.8e-05
7.8e-05
7.8e-05
7.8e-05
7.8e-05
7.8e-05
7.8e-05
7.8e-05
7.8e-05
7.8e-05
7.8e-05
7.8e-05
7.8e-05
7.8e-05
7.8e-05
7.8e-05
7.8e-05
7.8e-05
7.8e-05
7.8e-05
7.8e-05
7.8e-05
7.8e-05
7.8e-05
7.8e-05
7.79553e-05
5.65118e-05
4.69566e-05
4.50567e-05
4.44118e-05
4.41188e-05
4.39592e-05
4.38835e-05
4.38665e-05
4.3897e-05
4.39762e-05
4.41189e-05
4.43581e-05
4.4755e-05
4.55775e-05
4.81813e-05
6.76935e-05
7.79999e-05
7.8e-05
7.8e-05
7.8e-05
7.8e-05
7.8e-05
7.8e-05
7.8e-05
7.8e-05
7.8e-05
7.8e-05
7.8e-05
7.8e-05
7.8e-05
7.79994e-05
7.79936e-05
7.79998e-05
7.8e-05
7.8e-05
7.8e-05
7.8e-05
7.8e-05
7.8e-05
7.8e-05
7.8e-05
7.8e-05
7.79975e-05
7.79384e-05
7.79882e-05
7.8e-05
7.8e-05
7.8e-05
7.8e-05
7.8e-05
7.8e-05
7.8e-05
7.8e-05
7.8e-05
7.8e-05
7.8e-05
7.8e-05
7.8e-05
7.8e-05
7.8e-05
7.8e-05
7.8e-05
7.8e-05
7.8e-05
7.8e-05
7.8e-05
7.8e-05
7.8e-05
7.8e-05
7.8e-05
7.8e-05
7.8e-05
7.8e-05
7.8e-05
7.8e-05
7.43042e-05
5.34322e-05
4.76095e-05
4.66307e-05
4.63344e-05
4.66295e-05
4.74553e-05
5.2515e-05
7.1684e-05
7.79973e-05
7.8e-05
7.8e-05
7.8e-05
7.8e-05
7.8e-05
7.8e-05
7.8e-05
7.8e-05
7.8e-05
7.8e-05
7.8e-05
7.8e-05
7.8e-05
7.8e-05
7.8e-05
7.8e-05
7.8e-05
7.8e-05
7.8e-05
7.8e-05
7.8e-05
7.8e-05
7.8e-05
7.8e-05
7.8e-05
7.8e-05
7.8e-05
7.8e-05
7.8e-05
7.8e-05
7.8e-05
7.8e-05
7.8e-05
7.8e-05
7.8e-05
7.79828e-05
6.14175e-05
4.74987e-05
4.52672e-05
4.46031e-05
4.42381e-05
4.40706e-05
4.40139e-05
4.40352e-05
4.41358e-05
4.43511e-05
4.47856e-05
4.55746e-05
4.81627e-05
6.77097e-05
7.79999e-05
7.8e-05
7.8e-05
7.8e-05
7.8e-05
7.8e-05
7.8e-05
7.8e-05
7.8e-05
7.8e-05
7.8e-05
7.8e-05
7.8e-05
7.8e-05
7.8e-05
7.8e-05
7.8e-05
7.8e-05
7.8e-05
7.8e-05
7.8e-05
7.8e-05
7.8e-05
7.8e-05
7.8e-05
7.8e-05
7.8e-05
7.8e-05
7.8e-05
7.8e-05
7.8e-05
7.8e-05
7.8e-05
7.8e-05
7.8e-05
7.8e-05
7.8e-05
7.8e-05
7.8e-05
7.8e-05
7.8e-05
7.8e-05
7.8e-05
7.8e-05
7.8e-05
7.8e-05
7.8e-05
7.8e-05
7.8e-05
7.8e-05
7.8e-05
7.8e-05
7.8e-05
7.8e-05
7.8e-05
7.8e-05
7.8e-05
7.8e-05
7.8e-05
7.8e-05
7.8e-05
7.79273e-05
7.09744e-05
6.11384e-05
5.80738e-05
6.24684e-05
7.16331e-05
7.7903e-05
7.8e-05
7.8e-05
7.8e-05
7.8e-05
7.8e-05
7.8e-05
7.8e-05
7.8e-05
7.8e-05
7.8e-05
7.8e-05
7.8e-05
7.8e-05
7.8e-05
7.8e-05
7.8e-05
7.8e-05
7.8e-05
7.8e-05
7.8e-05
7.8e-05
7.8e-05
7.8e-05
7.8e-05
7.8e-05
7.8e-05
7.8e-05
7.8e-05
7.8e-05
7.8e-05
7.8e-05
7.8e-05
7.8e-05
7.8e-05
7.8e-05
7.8e-05
7.8e-05
7.8e-05
7.79986e-05
7.01182e-05
4.87347e-05
4.64717e-05
4.50909e-05
4.46734e-05
4.45336e-05
4.45421e-05
4.47005e-05
4.51187e-05
4.65155e-05
4.90671e-05
7.22064e-05
7.8e-05
7.8e-05
7.8e-05
7.8e-05
7.8e-05
7.8e-05
7.8e-05
7.8e-05
7.8e-05
7.8e-05
7.8e-05
7.8e-05
7.8e-05
7.8e-05
7.8e-05
7.8e-05
7.8e-05
7.8e-05
7.8e-05
7.8e-05
7.8e-05
7.8e-05
7.8e-05
7.8e-05
7.8e-05
7.8e-05
7.8e-05
7.8e-05
7.8e-05
7.8e-05
7.8e-05
7.8e-05
7.8e-05
7.8e-05
7.8e-05
7.8e-05
7.8e-05
7.8e-05
7.8e-05
7.8e-05
7.8e-05
7.8e-05
7.8e-05
7.8e-05
7.8e-05
7.8e-05
7.8e-05
7.8e-05
7.8e-05
7.8e-05
7.8e-05
7.8e-05
7.8e-05
7.8e-05
7.8e-05
7.8e-05
7.8e-05
7.8e-05
7.8e-05
7.8e-05
7.8e-05
7.8e-05
7.8e-05
7.8e-05
7.7998e-05
7.79914e-05
7.7999e-05
7.8e-05
7.8e-05
7.8e-05
7.8e-05
7.8e-05
7.8e-05
7.8e-05
7.8e-05
7.8e-05
7.8e-05
7.8e-05
7.8e-05
7.8e-05
7.8e-05
7.8e-05
7.8e-05
7.8e-05
7.8e-05
7.8e-05
7.8e-05
7.8e-05
7.8e-05
7.8e-05
7.8e-05
7.8e-05
7.8e-05
7.8e-05
7.8e-05
7.8e-05
7.8e-05
7.8e-05
7.8e-05
7.8e-05
7.8e-05
7.8e-05
7.8e-05
7.8e-05
7.8e-05
7.8e-05
7.8e-05
7.8e-05
7.8e-05
7.68854e-05
6.29027e-05
4.84751e-05
4.7e-05
4.65171e-05
4.64707e-05
4.6906e-05
4.81024e-05
6.09335e-05
7.69127e-05
7.8e-05
7.8e-05
7.8e-05
7.8e-05
7.8e-05
7.8e-05
7.8e-05
7.8e-05
7.8e-05
7.8e-05
7.8e-05
7.8e-05
7.8e-05
7.8e-05
7.8e-05
7.8e-05
7.8e-05
7.8e-05
7.8e-05
7.8e-05
7.8e-05
7.8e-05
7.8e-05
7.8e-05
7.8e-05
7.8e-05
7.8e-05
7.8e-05
7.8e-05
7.8e-05
7.8e-05
7.8e-05
7.8e-05
7.8e-05
7.8e-05
7.8e-05
7.8e-05
7.8e-05
7.8e-05
7.8e-05
7.8e-05
7.8e-05
7.8e-05
7.8e-05
7.8e-05
7.8e-05
7.8e-05
7.8e-05
7.8e-05
7.8e-05
7.8e-05
7.8e-05
7.8e-05
7.8e-05
7.8e-05
7.8e-05
7.8e-05
7.8e-05
7.8e-05
7.8e-05
7.8e-05
7.8e-05
7.8e-05
7.8e-05
7.8e-05
7.8e-05
7.8e-05
7.8e-05
7.8e-05
7.8e-05
7.8e-05
7.8e-05
7.8e-05
7.8e-05
7.8e-05
7.8e-05
7.8e-05
7.8e-05
7.8e-05
7.8e-05
7.8e-05
7.8e-05
7.8e-05
7.8e-05
7.8e-05
7.8e-05
7.8e-05
7.8e-05
7.8e-05
7.8e-05
7.8e-05
7.8e-05
7.8e-05
7.8e-05
7.8e-05
7.8e-05
7.8e-05
7.8e-05
7.8e-05
7.8e-05
7.8e-05
7.8e-05
7.8e-05
7.8e-05
7.8e-05
7.8e-05
7.8e-05
7.8e-05
7.8e-05
7.8e-05
7.8e-05
7.79994e-05
7.676e-05
6.90306e-05
6.25536e-05
6.15148e-05
6.68935e-05
7.55149e-05
7.79983e-05
7.8e-05
7.8e-05
7.8e-05
7.8e-05
7.8e-05
7.8e-05
7.8e-05
7.8e-05
7.8e-05
7.8e-05
7.8e-05
7.8e-05
7.8e-05
7.8e-05
7.8e-05
7.8e-05
7.8e-05
7.8e-05
7.8e-05
7.8e-05
7.8e-05
7.8e-05
7.8e-05
7.8e-05
7.8e-05
7.8e-05
7.8e-05
7.8e-05
7.8e-05
7.8e-05
7.8e-05
7.8e-05
7.8e-05
7.8e-05
7.8e-05
7.8e-05
7.8e-05
7.8e-05
7.8e-05
7.8e-05
7.8e-05
7.8e-05
7.8e-05
7.8e-05
7.8e-05
7.8e-05
7.8e-05
7.8e-05
7.8e-05
7.8e-05
7.8e-05
7.8e-05
7.8e-05
7.8e-05
7.8e-05
7.8e-05
7.8e-05
7.8e-05
7.8e-05
7.8e-05
7.8e-05
7.8e-05
7.8e-05
7.8e-05
7.8e-05
7.8e-05
7.8e-05
7.8e-05
7.8e-05
7.8e-05
7.8e-05
7.8e-05
7.8e-05
7.8e-05
7.8e-05
7.8e-05
7.8e-05
7.8e-05
7.8e-05
7.8e-05
7.8e-05
7.8e-05
7.8e-05
7.8e-05
7.8e-05
7.8e-05
7.8e-05
7.8e-05
7.8e-05
7.8e-05
7.8e-05
7.8e-05
7.8e-05
7.8e-05
7.8e-05
7.8e-05
7.8e-05
7.8e-05
7.8e-05
7.8e-05
7.8e-05
7.8e-05
7.8e-05
7.8e-05
7.8e-05
7.8e-05
7.8e-05
7.8e-05
7.8e-05
7.8e-05
7.8e-05
7.8e-05
7.8e-05
7.8e-05
7.8e-05
7.79992e-05
7.79985e-05
7.79999e-05
7.8e-05
7.8e-05
7.8e-05
7.8e-05
7.8e-05
7.8e-05
7.8e-05
7.8e-05
7.8e-05
7.8e-05
7.8e-05
7.8e-05
7.8e-05
7.8e-05
7.8e-05
7.8e-05
7.8e-05
7.8e-05
7.8e-05
7.8e-05
7.8e-05
7.8e-05
7.8e-05
7.8e-05
7.8e-05
7.8e-05
7.8e-05
7.8e-05
7.8e-05
7.8e-05
7.8e-05
7.8e-05
7.8e-05
7.8e-05
7.8e-05
7.8e-05
7.8e-05
7.8e-05
7.8e-05
7.8e-05
7.8e-05
7.8e-05
7.8e-05
7.8e-05
7.8e-05
7.8e-05
7.8e-05
7.8e-05
7.8e-05
7.8e-05
7.8e-05
7.8e-05
7.8e-05
7.8e-05
7.8e-05
7.8e-05
7.8e-05
7.8e-05
7.8e-05
7.8e-05
7.8e-05
7.8e-05
7.8e-05
7.8e-05
7.8e-05
7.8e-05
7.8e-05
7.8e-05
7.8e-05
7.8e-05
7.8e-05
7.8e-05
7.8e-05
7.8e-05
7.8e-05
7.8e-05
7.8e-05
7.8e-05
7.8e-05
7.8e-05
7.8e-05
7.8e-05
7.8e-05
7.8e-05
7.8e-05
7.8e-05
7.8e-05
7.8e-05
7.8e-05
7.8e-05
7.8e-05
7.8e-05
7.8e-05
7.8e-05
7.8e-05
7.8e-05
7.8e-05
7.8e-05
7.8e-05
7.8e-05
7.8e-05
7.8e-05
7.8e-05
7.8e-05
7.8e-05
7.8e-05
7.8e-05
7.8e-05
7.8e-05
7.8e-05
7.8e-05
7.8e-05
7.8e-05
7.8e-05
7.8e-05
7.8e-05
7.8e-05
7.8e-05
7.8e-05
7.8e-05
7.8e-05
7.8e-05
7.8e-05
7.8e-05
7.8e-05
7.8e-05
7.8e-05
7.8e-05
7.8e-05
7.8e-05
7.8e-05
7.8e-05
7.8e-05
7.8e-05
7.8e-05
7.8e-05
7.8e-05
7.8e-05
7.8e-05
7.8e-05
7.8e-05
7.8e-05
7.8e-05
7.8e-05
7.8e-05
7.8e-05
7.8e-05
7.8e-05
7.8e-05
7.8e-05
7.8e-05
7.8e-05
7.8e-05
7.8e-05
7.8e-05
7.8e-05
7.8e-05
7.8e-05
7.8e-05
7.8e-05
7.8e-05
7.8e-05
7.8e-05
7.8e-05
7.8e-05
7.8e-05
7.8e-05
7.8e-05
7.8e-05
7.8e-05
7.8e-05
7.8e-05
7.8e-05
7.8e-05
7.8e-05
7.8e-05
7.8e-05
7.8e-05
7.8e-05
7.8e-05
7.8e-05
7.8e-05
7.8e-05
7.8e-05
7.8e-05
7.8e-05
7.8e-05
7.8e-05
7.8e-05
7.8e-05
7.8e-05
7.8e-05
7.8e-05
7.8e-05
7.8e-05
7.8e-05
7.8e-05
7.8e-05
7.8e-05
7.8e-05
7.8e-05
7.8e-05
7.8e-05
7.8e-05
7.8e-05
7.8e-05
7.8e-05
7.8e-05
7.8e-05
7.8e-05
7.8e-05
7.8e-05
7.8e-05
7.8e-05
7.8e-05
7.8e-05
7.8e-05
7.8e-05
7.8e-05
7.8e-05
7.8e-05
7.8e-05
7.8e-05
7.8e-05
7.8e-05
7.8e-05
7.8e-05
7.8e-05
7.8e-05
7.8e-05
7.8e-05
7.8e-05
7.8e-05
7.8e-05
7.8e-05
7.8e-05
7.8e-05
7.8e-05
7.8e-05
7.8e-05
7.8e-05
7.8e-05
7.8e-05
7.8e-05
7.8e-05
7.8e-05
7.8e-05
7.8e-05
7.8e-05
7.8e-05
7.8e-05
7.8e-05
7.8e-05
7.8e-05
7.8e-05
7.8e-05
7.8e-05
7.8e-05
7.8e-05
7.8e-05
7.8e-05
7.8e-05
7.8e-05
7.8e-05
7.8e-05
7.8e-05
7.8e-05
7.8e-05
7.8e-05
7.8e-05
7.8e-05
7.8e-05
7.8e-05
7.8e-05
7.8e-05
7.8e-05
7.8e-05
7.8e-05
7.8e-05
7.8e-05
7.8e-05
7.8e-05
7.8e-05
7.8e-05
7.8e-05
7.8e-05
7.8e-05
7.8e-05
7.8e-05
7.8e-05
7.8e-05
7.8e-05
7.8e-05
7.8e-05
7.8e-05
7.8e-05
7.8e-05
7.8e-05
7.8e-05
7.8e-05
7.8e-05
7.8e-05
7.8e-05
7.8e-05
7.8e-05
7.8e-05
7.8e-05
7.8e-05
7.8e-05
7.8e-05
7.8e-05
7.8e-05
7.8e-05
7.8e-05
7.8e-05
7.8e-05
7.8e-05
7.8e-05
7.8e-05
7.8e-05
7.8e-05
7.8e-05
7.8e-05
7.8e-05
7.8e-05
7.8e-05
7.8e-05
7.8e-05
7.8e-05
7.8e-05
7.8e-05
7.8e-05
7.8e-05
7.8e-05
7.8e-05
7.8e-05
7.8e-05
7.8e-05
7.8e-05
7.8e-05
7.8e-05
7.8e-05
7.8e-05
7.8e-05
7.8e-05
7.8e-05
7.8e-05
7.8e-05
7.8e-05
7.8e-05
7.8e-05
7.8e-05
7.8e-05
7.8e-05
7.8e-05
7.8e-05
7.8e-05
7.8e-05
7.8e-05
7.8e-05
7.8e-05
7.8e-05
7.8e-05
7.8e-05
7.8e-05
7.8e-05
7.8e-05
7.8e-05
7.8e-05
7.8e-05
7.8e-05
7.8e-05
7.8e-05
7.8e-05
7.8e-05
7.8e-05
7.8e-05
7.8e-05
7.8e-05
7.8e-05
7.8e-05
7.8e-05
7.8e-05
7.8e-05
7.8e-05
7.8e-05
7.8e-05
7.8e-05
7.8e-05
7.8e-05
7.8e-05
7.8e-05
7.8e-05
7.8e-05
7.8e-05
7.8e-05
7.8e-05
7.8e-05
7.8e-05
7.8e-05
7.8e-05
7.8e-05
7.8e-05
7.8e-05
7.8e-05
7.8e-05
7.8e-05
7.8e-05
7.8e-05
7.8e-05
7.8e-05
7.8e-05
7.8e-05
7.8e-05
7.8e-05
7.8e-05
7.8e-05
7.8e-05
7.8e-05
7.8e-05
7.8e-05
7.8e-05
7.8e-05
7.8e-05
7.8e-05
7.8e-05
7.8e-05
7.8e-05
7.8e-05
7.8e-05
7.8e-05
7.8e-05
7.8e-05
7.8e-05
7.8e-05
7.8e-05
7.8e-05
7.8e-05
7.8e-05
7.8e-05
7.8e-05
7.8e-05
7.8e-05
7.8e-05
7.8e-05
7.8e-05
7.8e-05
7.8e-05
7.8e-05
7.8e-05
7.8e-05
7.8e-05
7.8e-05
7.8e-05
7.8e-05
7.8e-05
7.8e-05
7.8e-05
7.8e-05
7.8e-05
7.8e-05
7.8e-05
7.8e-05
7.8e-05
7.8e-05
7.8e-05
7.8e-05
7.8e-05
7.8e-05
7.8e-05
7.8e-05
7.8e-05
7.8e-05
7.8e-05
7.8e-05
7.8e-05
7.8e-05
7.8e-05
7.8e-05
7.8e-05
7.8e-05
7.8e-05
7.8e-05
7.8e-05
7.8e-05
7.8e-05
7.8e-05
7.8e-05
7.8e-05
7.8e-05
7.8e-05
7.8e-05
7.8e-05
7.8e-05
7.8e-05
7.8e-05
7.8e-05
7.8e-05
7.8e-05
7.8e-05
7.8e-05
7.8e-05
7.8e-05
7.8e-05
7.8e-05
7.8e-05
7.8e-05
7.8e-05
7.8e-05
7.8e-05
7.8e-05
7.8e-05
7.8e-05
7.8e-05
7.8e-05
7.8e-05
7.8e-05
7.8e-05
7.8e-05
7.8e-05
7.8e-05
7.8e-05
7.8e-05
7.8e-05
7.8e-05
7.8e-05
7.8e-05
7.8e-05
7.8e-05
7.8e-05
7.8e-05
7.8e-05
7.8e-05
7.8e-05
7.8e-05
7.8e-05
7.8e-05
7.8e-05
7.8e-05
7.8e-05
7.8e-05
7.8e-05
7.8e-05
7.8e-05
7.8e-05
7.8e-05
7.8e-05
7.8e-05
7.8e-05
7.8e-05
7.8e-05
7.8e-05
7.8e-05
7.8e-05
7.8e-05
7.8e-05
7.8e-05
7.8e-05
7.8e-05
7.8e-05
7.8e-05
7.8e-05
7.8e-05
7.8e-05
7.8e-05
7.8e-05
7.8e-05
7.8e-05
7.8e-05
7.8e-05
7.8e-05
7.8e-05
7.8e-05
7.8e-05
7.8e-05
7.8e-05
7.8e-05
7.8e-05
7.8e-05
7.8e-05
7.8e-05
7.8e-05
7.8e-05
7.8e-05
7.8e-05
7.8e-05
7.8e-05
7.8e-05
7.8e-05
7.8e-05
7.8e-05
7.8e-05
7.8e-05
7.8e-05
7.8e-05
7.8e-05
7.8e-05
7.8e-05
7.8e-05
7.8e-05
7.8e-05
7.8e-05
7.8e-05
7.8e-05
7.8e-05
7.8e-05
7.8e-05
7.8e-05
7.8e-05
7.8e-05
7.8e-05
7.8e-05
7.8e-05
7.8e-05
7.8e-05
7.8e-05
7.8e-05
7.8e-05
7.8e-05
7.8e-05
7.8e-05
7.8e-05
7.8e-05
7.8e-05
7.8e-05
7.8e-05
7.8e-05
7.8e-05
7.8e-05
7.8e-05
7.8e-05
7.8e-05
7.8e-05
7.8e-05
7.8e-05
7.8e-05
7.8e-05
7.8e-05
7.8e-05
7.8e-05
7.8e-05
7.8e-05
7.8e-05
7.8e-05
7.8e-05
7.8e-05
7.8e-05
7.8e-05
7.8e-05
7.8e-05
7.8e-05
7.8e-05
7.8e-05
7.8e-05
7.8e-05
7.8e-05
7.8e-05
7.8e-05
7.8e-05
7.8e-05
7.8e-05
7.8e-05
7.8e-05
7.8e-05
7.8e-05
7.8e-05
7.8e-05
7.8e-05
7.8e-05
7.8e-05
7.8e-05
7.8e-05
7.8e-05
7.8e-05
7.8e-05
7.8e-05
7.8e-05
7.8e-05
7.8e-05
7.8e-05
7.8e-05
7.8e-05
7.8e-05
7.8e-05
7.8e-05
7.8e-05
7.8e-05
7.8e-05
7.8e-05
7.8e-05
7.8e-05
7.8e-05
7.8e-05
7.8e-05
7.8e-05
7.8e-05
7.8e-05
7.8e-05
7.8e-05
7.8e-05
7.8e-05
7.8e-05
7.8e-05
7.8e-05
7.8e-05
7.8e-05
7.8e-05
7.8e-05
7.8e-05
7.8e-05
7.8e-05
7.8e-05
7.8e-05
7.8e-05
7.8e-05
7.8e-05
7.8e-05
7.8e-05
7.8e-05
7.8e-05
7.8e-05
7.8e-05
7.8e-05
7.8e-05
7.8e-05
7.8e-05
7.8e-05
7.8e-05
7.8e-05
7.8e-05
7.8e-05
7.8e-05
7.8e-05
7.8e-05
7.8e-05
7.8e-05
7.8e-05
7.8e-05
7.8e-05
7.8e-05
7.8e-05
7.8e-05
7.8e-05
7.8e-05
7.8e-05
7.8e-05
7.8e-05
7.8e-05
7.8e-05
7.8e-05
7.8e-05
7.8e-05
7.8e-05
7.8e-05
7.8e-05
7.8e-05
7.8e-05
7.8e-05
7.8e-05
7.8e-05
7.8e-05
7.8e-05
7.8e-05
7.8e-05
7.8e-05
7.8e-05
7.8e-05
7.8e-05
7.8e-05
7.8e-05
7.8e-05
7.8e-05
7.8e-05
7.8e-05
7.8e-05
7.8e-05
7.8e-05
7.8e-05
7.8e-05
7.8e-05
7.8e-05
7.8e-05
7.8e-05
7.8e-05
7.8e-05
7.8e-05
7.8e-05
7.8e-05
7.8e-05
7.8e-05
7.8e-05
7.8e-05
7.8e-05
7.8e-05
7.8e-05
7.8e-05
7.8e-05
7.8e-05
7.8e-05
7.8e-05
7.8e-05
7.8e-05
7.8e-05
7.8e-05
7.8e-05
7.8e-05
7.8e-05
7.8e-05
7.8e-05
7.8e-05
7.8e-05
7.8e-05
7.8e-05
7.8e-05
7.8e-05
7.8e-05
7.8e-05
7.8e-05
7.8e-05
7.8e-05
7.8e-05
7.8e-05
7.8e-05
7.8e-05
7.8e-05
7.8e-05
7.8e-05
7.8e-05
7.8e-05
7.8e-05
7.8e-05
7.8e-05
7.8e-05
7.8e-05
7.8e-05
7.8e-05
7.8e-05
7.8e-05
7.8e-05
7.8e-05
7.8e-05
7.8e-05
7.8e-05
7.8e-05
7.8e-05
7.8e-05
7.8e-05
7.8e-05
7.8e-05
7.8e-05
7.8e-05
7.8e-05
7.8e-05
7.8e-05
7.8e-05
7.8e-05
7.8e-05
7.8e-05
7.8e-05
7.8e-05
7.8e-05
7.8e-05
7.8e-05
7.8e-05
7.8e-05
7.8e-05
7.8e-05
7.8e-05
7.8e-05
7.8e-05
7.8e-05
7.8e-05
7.8e-05
7.8e-05
7.8e-05
7.8e-05
7.8e-05
7.8e-05
7.8e-05
7.8e-05
7.8e-05
7.8e-05
7.8e-05
7.8e-05
7.8e-05
7.8e-05
7.8e-05
7.8e-05
7.8e-05
7.8e-05
7.8e-05
7.8e-05
7.8e-05
7.8e-05
7.8e-05
7.8e-05
7.8e-05
7.8e-05
7.8e-05
7.8e-05
7.8e-05
7.8e-05
7.8e-05
7.8e-05
7.8e-05
7.8e-05
7.8e-05
7.8e-05
7.8e-05
7.8e-05
7.8e-05
7.8e-05
7.8e-05
7.8e-05
7.8e-05
7.8e-05
7.8e-05
7.8e-05
7.8e-05
7.8e-05
7.8e-05
7.8e-05
7.8e-05
7.8e-05
7.8e-05
7.8e-05
7.8e-05
7.8e-05
7.8e-05
7.8e-05
7.8e-05
7.8e-05
7.8e-05
7.8e-05
7.8e-05
7.8e-05
7.8e-05
7.8e-05
7.8e-05
7.8e-05
7.8e-05
7.8e-05
7.8e-05
7.8e-05
7.8e-05
7.8e-05
7.8e-05
7.8e-05
7.8e-05
7.8e-05
7.8e-05
7.8e-05
7.8e-05
7.8e-05
7.8e-05
7.8e-05
7.8e-05
7.8e-05
7.8e-05
7.8e-05
7.8e-05
7.8e-05
7.8e-05
7.8e-05
7.8e-05
7.8e-05
7.8e-05
7.8e-05
7.8e-05
7.8e-05
7.8e-05
7.8e-05
7.8e-05
7.8e-05
7.8e-05
7.8e-05
7.8e-05
7.8e-05
7.8e-05
7.8e-05
7.8e-05
7.8e-05
7.8e-05
7.8e-05
7.8e-05
7.8e-05
7.8e-05
7.8e-05
7.8e-05
7.8e-05
7.8e-05
7.8e-05
7.8e-05
7.8e-05
7.8e-05
7.8e-05
7.8e-05
7.8e-05
7.8e-05
7.8e-05
7.8e-05
7.8e-05
7.8e-05
7.8e-05
7.8e-05
7.8e-05
7.8e-05
7.8e-05
7.8e-05
7.8e-05
7.8e-05
7.8e-05
7.8e-05
7.8e-05
7.8e-05
7.8e-05
7.8e-05
7.8e-05
7.8e-05
7.8e-05
7.8e-05
7.8e-05
7.8e-05
7.8e-05
7.8e-05
7.8e-05
7.8e-05
7.8e-05
7.8e-05
7.8e-05
7.8e-05
7.8e-05
7.8e-05
7.8e-05
7.8e-05
7.8e-05
7.8e-05
7.8e-05
7.8e-05
7.8e-05
7.8e-05
7.8e-05
7.8e-05
7.8e-05
7.8e-05
7.8e-05
7.8e-05
7.8e-05
7.8e-05
7.8e-05
7.8e-05
7.8e-05
7.8e-05
7.8e-05
7.8e-05
7.8e-05
7.8e-05
7.8e-05
7.8e-05
7.8e-05
7.8e-05
7.8e-05
7.8e-05
7.8e-05
7.8e-05
7.8e-05
7.8e-05
7.8e-05
7.8e-05
7.8e-05
7.8e-05
7.8e-05
7.8e-05
7.8e-05
7.8e-05
7.8e-05
7.8e-05
7.8e-05
7.8e-05
7.8e-05
7.8e-05
7.8e-05
7.8e-05
7.8e-05
7.8e-05
7.8e-05
7.8e-05
7.8e-05
7.8e-05
7.8e-05
7.8e-05
7.8e-05
7.8e-05
7.8e-05
7.8e-05
7.8e-05
7.8e-05
7.8e-05
7.8e-05
7.8e-05
7.8e-05
7.8e-05
7.8e-05
7.8e-05
7.8e-05
7.8e-05
7.8e-05
7.8e-05
7.8e-05
7.8e-05
7.8e-05
7.8e-05
7.8e-05
7.8e-05
7.8e-05
7.8e-05
7.8e-05
7.8e-05
7.8e-05
7.8e-05
7.8e-05
7.8e-05
7.8e-05
7.8e-05
7.8e-05