/*--------------------------------*- C++ -*----------------------------------*\
| =========                 |                                                 |
| \\      /  F ield         | OpenFOAM: The Open Source CFD Toolbox           |
|  \\    /   O peration     | Version:  2406                                  |
|   \\  /    A nd           | Website:  www.openfoam.com                      |
|    \\/     M anipulation  |                                                 |
\*---------------------------------------------------------------------------*/
FoamFile
{
    version     2.0;
    format      ascii;
    arch        "LSB;label=32;scalar=64";
    class       volScalarField;
    location    "1.65";
    object      C_0;
}
// * * * * * * * * * * * * * * * * * * * * * * * * * * * * * * * * * * * * * //

dimensions      [1 -3 0 0 0 0 0];

internalField   nonuniform List<scalar> 
14400
(
2.19829
2.19399
2.18496
2.17014
2.14175
2.10107
2.0702
2.06152
2.07705
2.11464
2.16123
2.19434
2.21371
2.22788
2.23791
2.24433
2.24738
2.24703
2.24297
2.23457
2.22056
2.19277
2.1541
2.1272
2.1236
2.14529
2.18992
2.24427
2.2844
2.31003
2.33136
2.34947
2.36505
2.37856
2.39034
2.40062
2.40958
2.41736
2.42405
2.42975
2.43452
2.4384
2.44145
2.4437
2.44517
2.44587
2.44583
2.44506
2.44355
2.4413
2.43832
2.43458
2.43008
2.42479
2.41869
2.41174
2.40391
2.39515
2.38539
2.37457
2.3626
2.34937
2.33474
2.31855
2.30057
2.28053
2.25805
2.23263
2.20354
2.16973
2.11722
2.04515
1.97947
1.9307
1.90205
1.89431
1.9074
1.94045
1.99042
2.04734
2.08803
2.11136
2.12893
2.14201
2.15141
2.15763
2.16098
2.16165
2.15968
2.15504
2.14755
2.13685
2.12237
2.10307
2.07144
2.02563
1.98671
1.96877
1.9739
2.00009
2.03476
2.05698
2.06657
2.06941
2.06604
2.05594
2.03323
1.99791
1.97091
1.96494
1.98206
2.02019
2.06534
2.0965
2.1155
2.12976
2.14035
2.14787
2.15271
2.15508
2.20259
2.19873
2.19074
2.17805
2.15928
2.1284
2.09622
2.08689
2.10313
2.14195
2.1781
2.20145
2.2189
2.23203
2.24151
2.2477
2.25078
2.25072
2.24733
2.24017
2.22854
2.21091
2.18176
2.15331
2.14906
2.17162
2.2177
2.26078
2.29043
2.31432
2.33458
2.35199
2.36711
2.3803
2.39184
2.40194
2.41077
2.41844
2.42505
2.43068
2.43539
2.43924
2.44226
2.44448
2.44592
2.44662
2.44657
2.44579
2.44428
2.44204
2.43907
2.43534
2.43086
2.4256
2.41953
2.41262
2.40484
2.39614
2.38646
2.37573
2.36386
2.35076
2.33631
2.32033
2.30263
2.28297
2.261
2.23629
2.20821
2.17582
2.13528
2.07678
2.00964
1.95933
1.93018
1.92241
1.93588
1.97025
2.02147
2.06662
2.09584
2.1171
2.13341
2.1457
2.15459
2.16049
2.16367
2.16427
2.16236
2.1579
2.15075
2.14064
2.12717
2.10967
2.08683
2.05137
2.01189
1.99345
1.99915
2.02627
2.05178
2.06563
2.07333
2.07563
2.07276
2.06451
2.05013
2.02401
1.9961
1.98953
2.00711
2.04577
2.08064
2.10306
2.12022
2.13344
2.1434
2.15055
2.15518
2.15745
2.21074
2.20759
2.20123
2.19159
2.17886
2.16357
2.14301
2.13372
2.14998
2.17625
2.19644
2.21391
2.2284
2.23984
2.24839
2.25419
2.25731
2.25776
2.25544
2.25024
2.24204
2.23101
2.21766
2.2002
2.1959
2.21874
2.25146
2.27782
2.30135
2.32224
2.34064
2.35683
2.37109
2.38368
2.39477
2.40454
2.4131
2.42057
2.42702
2.43253
2.43714
2.4409
2.44385
2.44602
2.44744
2.4481
2.44804
2.44725
2.44575
2.44352
2.44056
2.43687
2.43242
2.42721
2.42121
2.41438
2.4067
2.39811
2.38857
2.37801
2.36636
2.35352
2.33939
2.32382
2.30667
2.28771
2.2667
2.24332
2.21717
2.18778
2.15467
2.11511
2.06454
2.01375
1.9848
1.97703
1.99017
2.02484
2.06119
2.08843
2.11006
2.12779
2.14191
2.15279
2.16075
2.16607
2.16892
2.16941
2.16759
2.16344
2.15689
2.14781
2.13601
2.12131
2.10372
2.08368
2.05706
2.03904
2.04446
2.0607
2.07167
2.08024
2.08547
2.08702
2.08485
2.07901
2.06982
2.05822
2.04127
2.03495
2.05205
2.07795
2.09744
2.11457
2.12888
2.14038
2.14928
2.15576
2.16
2.16209
2.22204
2.21966
2.21498
2.20824
2.20002
2.19169
2.18541
2.18229
2.19146
2.20306
2.21634
2.22937
2.24093
2.25054
2.25803
2.26336
2.26653
2.26754
2.26644
2.2633
2.25837
2.2523
2.24657
2.24347
2.24481
2.25972
2.27705
2.29601
2.3149
2.33265
2.3489
2.36358
2.37676
2.38854
2.39904
2.40834
2.41654
2.42372
2.42994
2.43526
2.43973
2.44337
2.44623
2.44833
2.44969
2.45032
2.45023
2.44943
2.44793
2.44572
2.44279
2.43914
2.43476
2.42962
2.42371
2.417
2.40945
2.40103
2.39169
2.38138
2.37003
2.35757
2.3439
2.32891
2.3125
2.2945
2.27476
2.25311
2.22938
2.20348
2.17554
2.14631
2.11586
2.08228
2.05871
2.05098
2.05858
2.07765
2.09521
2.1122
2.12818
2.1421
2.15365
2.16278
2.16957
2.17413
2.17654
2.17686
2.17514
2.17138
2.16557
2.15768
2.14773
2.13585
2.12245
2.10857
2.09614
2.08549
2.08552
2.08848
2.09349
2.0982
2.10128
2.10214
2.10061
2.09685
2.09146
2.08575
2.08204
2.08118
2.091
2.10274
2.11602
2.1289
2.14034
2.14993
2.15755
2.16322
2.16696
2.16882
2.23572
2.23404
2.23081
2.22635
2.2213
2.2167
2.21408
2.21503
2.2194
2.22708
2.23651
2.24628
2.25542
2.26336
2.26983
2.27468
2.27788
2.27945
2.27948
2.27815
2.27584
2.27325
2.27154
2.27239
2.27755
2.28674
2.29952
2.31427
2.32959
2.34457
2.35873
2.37184
2.38383
2.3947
2.40449
2.41323
2.421
2.42782
2.43376
2.43886
2.44314
2.44663
2.44937
2.45138
2.45267
2.45325
2.45313
2.45232
2.45082
2.44863
2.44574
2.44215
2.43784
2.4328
2.42701
2.42044
2.41308
2.40487
2.39579
2.3858
2.37482
2.36282
2.34972
2.33544
2.3199
2.30303
2.28474
2.26498
2.24375
2.2212
2.1977
2.17407
2.15178
2.1328
2.11821
2.11102
2.11127
2.11646
2.12579
2.137
2.14834
2.15879
2.1678
2.1751
2.18062
2.18432
2.18623
2.18636
2.18473
2.18138
2.17632
2.16961
2.16139
2.1519
2.14164
2.13147
2.12266
2.11662
2.11357
2.11371
2.11559
2.11779
2.11932
2.11964
2.11859
2.11634
2.1134
2.11077
2.10985
2.1121
2.11737
2.12547
2.13499
2.14467
2.15365
2.16144
2.16779
2.17259
2.1758
2.17741
2.25108
2.24996
2.24785
2.24507
2.24212
2.23974
2.23881
2.24008
2.24367
2.24934
2.25635
2.26383
2.27109
2.27766
2.28323
2.28766
2.29087
2.29291
2.29387
2.29397
2.29359
2.29331
2.29395
2.29648
2.30169
2.30966
2.32002
2.33196
2.34461
2.35731
2.3696
2.38121
2.39202
2.40194
2.41097
2.41911
2.42639
2.43282
2.43843
2.44326
2.44732
2.45065
2.45325
2.45515
2.45635
2.45687
2.45672
2.4559
2.4544
2.45224
2.44939
2.44587
2.44165
2.43673
2.43108
2.42469
2.41754
2.40959
2.40081
2.39118
2.38065
2.36917
2.35671
2.34321
2.32865
2.31297
2.29618
2.27831
2.25946
2.23987
2.21998
2.2005
2.18247
2.16712
2.15549
2.14873
2.14693
2.14916
2.1545
2.16164
2.1694
2.17692
2.18364
2.18922
2.19348
2.19632
2.1977
2.19761
2.19606
2.19307
2.18871
2.18307
2.17631
2.16872
2.16074
2.153
2.14627
2.14127
2.13826
2.13718
2.13737
2.13805
2.13856
2.13851
2.13779
2.1365
2.13505
2.13407
2.13434
2.13655
2.14077
2.14676
2.15381
2.16115
2.16815
2.17439
2.17957
2.18356
2.18625
2.18761
2.26756
2.26686
2.26557
2.26395
2.26237
2.26132
2.26133
2.2628
2.26584
2.27028
2.27571
2.28159
2.28746
2.29294
2.29778
2.30184
2.30505
2.30744
2.30911
2.31027
2.31124
2.31246
2.31448
2.31788
2.32309
2.33018
2.33895
2.34894
2.35959
2.37045
2.38114
2.3914
2.40108
2.41008
2.41835
2.42586
2.43262
2.43862
2.44389
2.44842
2.45225
2.45538
2.45783
2.4596
2.46072
2.46117
2.46098
2.46014
2.45865
2.45652
2.45373
2.45028
2.44617
2.44138
2.4359
2.42971
2.42279
2.41512
2.40669
2.39746
2.38741
2.37651
2.36473
2.35207
2.3385
2.32403
2.30871
2.29262
2.27591
2.25885
2.24184
2.22548
2.21049
2.19769
2.1878
2.18139
2.17853
2.17875
2.18141
2.18567
2.1907
2.19585
2.20062
2.20466
2.20776
2.20978
2.21064
2.21032
2.20881
2.20614
2.20238
2.19763
2.19206
2.18594
2.1796
2.17351
2.16815
2.16392
2.16102
2.15938
2.15868
2.15847
2.15835
2.15807
2.15753
2.15683
2.15622
2.1561
2.15691
2.15898
2.1624
2.16699
2.17233
2.17796
2.18342
2.18837
2.19256
2.19581
2.19803
2.19915
2.28474
2.28434
2.28362
2.28278
2.28209
2.28185
2.2824
2.28396
2.28661
2.29024
2.2946
2.29937
2.30421
2.30886
2.31312
2.31687
2.32004
2.32268
2.32486
2.32676
2.32864
2.3308
2.33363
2.33748
2.34259
2.34903
2.35667
2.36524
2.37438
2.38376
2.3931
2.40217
2.41082
2.41895
2.42647
2.43337
2.4396
2.44517
2.45007
2.4543
2.45787
2.4608
2.46308
2.46472
2.46574
2.46612
2.46589
2.46503
2.46355
2.46145
2.45872
2.45536
2.45137
2.44672
2.44142
2.43545
2.42879
2.42143
2.41336
2.40456
2.39502
2.38471
2.37365
2.36182
2.34924
2.33595
2.32201
2.30754
2.2927
2.27776
2.26306
2.24907
2.23631
2.22534
2.21664
2.21052
2.20703
2.20591
2.20672
2.20891
2.21189
2.21517
2.21832
2.22104
2.22311
2.22438
2.22477
2.22422
2.22272
2.22031
2.21703
2.21301
2.20838
2.20336
2.19823
2.19329
2.18888
2.18524
2.18251
2.18065
2.17949
2.17879
2.17831
2.17788
2.17745
2.17707
2.17691
2.1772
2.1782
2.18007
2.18286
2.18645
2.19058
2.19494
2.19921
2.20312
2.20647
2.2091
2.21091
2.21183
2.30233
2.30213
2.3018
2.30148
2.30134
2.30159
2.30245
2.30403
2.30639
2.30947
2.31309
2.31706
2.32116
2.32518
2.32898
2.33246
2.33558
2.33837
2.34089
2.34328
2.34574
2.34848
2.35176
2.3558
2.36076
2.36668
2.37347
2.38096
2.38892
2.39711
2.40532
2.41336
2.42109
2.42841
2.43524
2.44153
2.44725
2.45238
2.45691
2.46083
2.46415
2.46686
2.46896
2.47047
2.47138
2.47169
2.47141
2.47054
2.46907
2.46701
2.46435
2.46108
2.45721
2.45272
2.44761
2.44187
2.43548
2.42845
2.42076
2.41241
2.40338
2.39369
2.38333
2.37232
2.3607
2.34851
2.33584
2.32282
2.3096
2.29643
2.28359
2.27143
2.26035
2.25073
2.24289
2.23702
2.23315
2.23113
2.23066
2.23135
2.23279
2.2346
2.23645
2.23807
2.23926
2.23988
2.23983
2.23906
2.23755
2.23533
2.23244
2.22898
2.22508
2.2209
2.21665
2.21256
2.20884
2.20566
2.20313
2.20122
2.19985
2.19889
2.1982
2.19768
2.1973
2.19709
2.19714
2.1976
2.19861
2.20025
2.20253
2.20537
2.2086
2.212
2.21535
2.21844
2.22111
2.22322
2.22467
2.22541
2.32011
2.32005
2.31997
2.31998
2.32019
2.32074
2.32176
2.32332
2.32546
2.32814
2.33124
2.33463
2.33817
2.34171
2.34515
2.34841
2.35146
2.35432
2.35705
2.35974
2.36255
2.36562
2.36913
2.37321
2.37798
2.38344
2.38956
2.39621
2.40323
2.41045
2.41771
2.42486
2.43177
2.43835
2.44454
2.45026
2.45549
2.46019
2.46436
2.46797
2.47102
2.47352
2.47545
2.47682
2.47762
2.47786
2.47753
2.47664
2.47519
2.47316
2.47057
2.46741
2.46366
2.45934
2.45443
2.44893
2.44283
2.43613
2.42883
2.42092
2.41242
2.40332
2.39365
2.38343
2.37271
2.36155
2.35004
2.33829
2.32646
2.31476
2.30342
2.29271
2.28293
2.27434
2.26716
2.26152
2.25744
2.25481
2.25343
2.25303
2.25332
2.254
2.25481
2.25553
2.25598
2.25604
2.25561
2.25463
2.2531
2.25101
2.24842
2.2454
2.24205
2.2385
2.23491
2.23144
2.22825
2.22545
2.22311
2.22124
2.21981
2.21873
2.21793
2.21736
2.21698
2.21684
2.21697
2.21746
2.21838
2.21977
2.22164
2.2239
2.22644
2.22911
2.23174
2.23418
2.2363
2.23798
2.23915
2.23974
2.33795
2.33798
2.33807
2.33828
2.33871
2.33942
2.34052
2.34204
2.344
2.34637
2.34909
2.35206
2.35518
2.35835
2.3615
2.36456
2.36753
2.3704
2.37323
2.3761
2.37909
2.38232
2.38591
2.38995
2.39449
2.39956
2.40512
2.41108
2.41733
2.42375
2.43021
2.43659
2.44278
2.4487
2.45429
2.45948
2.46424
2.46854
2.47235
2.47566
2.47846
2.48074
2.4825
2.48372
2.48442
2.48458
2.48421
2.48331
2.48187
2.47989
2.47737
2.47431
2.4707
2.46655
2.46184
2.45658
2.45077
2.44441
2.43749
2.43003
2.42204
2.41353
2.40452
2.39505
2.38517
2.37494
2.36446
2.35383
2.3432
2.33273
2.32262
2.31307
2.30431
2.29653
2.28988
2.28446
2.28026
2.27723
2.27522
2.27403
2.27346
2.27327
2.27326
2.27325
2.2731
2.27268
2.27192
2.27077
2.26919
2.2672
2.26484
2.26215
2.25922
2.25615
2.25305
2.25006
2.24727
2.24477
2.24262
2.24083
2.2394
2.23828
2.23743
2.23682
2.23644
2.2363
2.23644
2.23688
2.23768
2.23884
2.24034
2.24214
2.24415
2.24625
2.24832
2.25025
2.25192
2.25326
2.25419
2.25466
2.35576
2.35584
2.35603
2.35638
2.35692
2.35773
2.35885
2.36031
2.36212
2.36427
2.36669
2.36934
2.37214
2.37502
2.37792
2.38081
2.38368
2.38653
2.38939
2.39232
2.39539
2.39867
2.40224
2.40617
2.41048
2.41519
2.42027
2.42566
2.43127
2.43702
2.44279
2.4485
2.45406
2.45939
2.46444
2.46914
2.47347
2.47738
2.48085
2.48387
2.48642
2.48849
2.49007
2.49116
2.49175
2.49184
2.49143
2.49051
2.48909
2.48715
2.48471
2.48175
2.47828
2.4743
2.4698
2.46479
2.45927
2.45324
2.44671
2.43968
2.43218
2.42423
2.41585
2.40708
2.39797
2.38859
2.37903
2.36938
2.35977
2.35034
2.34124
2.33265
2.32472
2.31759
2.31139
2.30616
2.30193
2.29864
2.29618
2.29442
2.2932
2.29235
2.2917
2.29112
2.29048
2.28967
2.28864
2.28732
2.2857
2.28377
2.28157
2.27913
2.27652
2.27381
2.2711
2.26846
2.26599
2.26374
2.26176
2.26007
2.25868
2.25755
2.25669
2.25606
2.25566
2.2555
2.25559
2.25596
2.25661
2.25755
2.25875
2.26018
2.26176
2.26342
2.26505
2.26657
2.26789
2.26895
2.26968
2.27006
2.37348
2.3736
2.37385
2.37427
2.37488
2.37572
2.37684
2.37823
2.37992
2.38187
2.38407
2.38647
2.38901
2.39165
2.39436
2.39709
2.39985
2.40264
2.40548
2.4084
2.41147
2.41472
2.41822
2.422
2.42607
2.43046
2.43512
2.44001
2.44508
2.45025
2.45543
2.46056
2.46556
2.47037
2.47492
2.47918
2.4831
2.48665
2.4898
2.49254
2.49485
2.49672
2.49814
2.49909
2.49958
2.4996
2.49915
2.49822
2.49681
2.49492
2.49256
2.48971
2.48638
2.48257
2.47828
2.47351
2.46827
2.46257
2.45641
2.4498
2.44278
2.43535
2.42756
2.41944
2.41104
2.40243
2.39368
2.38489
2.37616
2.36761
2.35937
2.35156
2.34431
2.33773
2.33191
2.32688
2.32266
2.3192
2.31644
2.31427
2.31258
2.31122
2.31009
2.30905
2.30802
2.3069
2.30563
2.30417
2.3025
2.30062
2.29854
2.29629
2.29392
2.29149
2.28906
2.28671
2.28448
2.28244
2.28061
2.27902
2.27768
2.27658
2.27571
2.27506
2.27464
2.27444
2.27447
2.27474
2.27525
2.27599
2.27694
2.27807
2.27931
2.28061
2.28189
2.28308
2.28412
2.28495
2.28553
2.28583
2.39108
2.39122
2.3915
2.39196
2.3926
2.39345
2.39454
2.39586
2.39744
2.39924
2.40125
2.40345
2.40578
2.40823
2.41076
2.41335
2.41599
2.4187
2.42147
2.42435
2.42736
2.43054
2.43392
2.43752
2.44136
2.44544
2.44973
2.45419
2.45879
2.46346
2.46813
2.47275
2.47726
2.48159
2.4857
2.48955
2.4931
2.49631
2.49917
2.50165
2.50373
2.50541
2.50666
2.50749
2.50788
2.50783
2.50734
2.5064
2.50502
2.50318
2.50089
2.49815
2.49495
2.49131
2.48723
2.4827
2.47774
2.47235
2.46655
2.46035
2.45377
2.44685
2.4396
2.43208
2.42432
2.4164
2.40838
2.40034
2.39237
2.38457
2.37705
2.36991
2.36324
2.35712
2.35163
2.34679
2.34261
2.33907
2.33611
2.33365
2.33161
2.32988
2.32837
2.32698
2.32564
2.32426
2.32281
2.32124
2.31952
2.31766
2.31567
2.31356
2.31138
2.30916
2.30696
2.30482
2.30279
2.30091
2.29922
2.29772
2.29644
2.29536
2.2945
2.29385
2.2934
2.29315
2.29311
2.29328
2.29366
2.29422
2.29496
2.29583
2.2968
2.29781
2.29881
2.29974
2.30056
2.30121
2.30166
2.3019
2.40854
2.40869
2.40899
2.40946
2.4101
2.41094
2.41199
2.41325
2.41472
2.4164
2.41826
2.42028
2.42244
2.42472
2.42709
2.42955
2.43207
2.43468
2.43737
2.44016
2.44308
2.44615
2.44939
2.45281
2.45641
2.4602
2.46416
2.46824
2.47243
2.47666
2.48088
2.48506
2.48912
2.49303
2.49675
2.50022
2.50343
2.50633
2.50891
2.51115
2.51302
2.51451
2.51561
2.51632
2.51662
2.51651
2.51598
2.51504
2.51367
2.51188
2.50967
2.50703
2.50398
2.5005
2.49662
2.49232
2.48763
2.48254
2.47709
2.47127
2.46512
2.45866
2.45192
2.44494
2.43777
2.43047
2.42309
2.41571
2.40841
2.40126
2.39436
2.38778
2.3816
2.37589
2.37069
2.36604
2.36193
2.35835
2.35527
2.35261
2.35032
2.34832
2.34652
2.34487
2.34328
2.34171
2.34011
2.33844
2.33669
2.33484
2.33291
2.33091
2.32887
2.32682
2.32479
2.32282
2.32095
2.31921
2.31763
2.31621
2.31498
2.31394
2.31309
2.31242
2.31194
2.31165
2.31155
2.31162
2.31187
2.31229
2.31284
2.3135
2.31424
2.31502
2.3158
2.31652
2.31715
2.31766
2.31802
2.3182
2.42586
2.42601
2.42631
2.42678
2.42741
2.42823
2.42923
2.43042
2.4318
2.43336
2.43509
2.43697
2.43898
2.44112
2.44335
2.44567
2.44808
2.45057
2.45316
2.45585
2.45866
2.46159
2.46467
2.4679
2.47128
2.4748
2.47845
2.4822
2.48601
2.48986
2.49369
2.49746
2.50114
2.50467
2.50803
2.51117
2.51406
2.51668
2.519
2.52101
2.52268
2.524
2.52496
2.52555
2.52577
2.5256
2.52504
2.52409
2.52275
2.521
2.51887
2.51634
2.51342
2.51011
2.50641
2.50234
2.49791
2.49311
2.48798
2.48253
2.47677
2.47074
2.46447
2.458
2.45136
2.44461
2.43781
2.43101
2.42429
2.41771
2.41134
2.40525
2.3995
2.39414
2.38922
2.38474
2.38072
2.37715
2.37399
2.37121
2.36874
2.36654
2.36454
2.36269
2.36092
2.35919
2.35747
2.35573
2.35394
2.35211
2.35022
2.34831
2.34637
2.34445
2.34255
2.34072
2.33898
2.33735
2.33586
2.33452
2.33334
2.33232
2.33148
2.33081
2.3303
2.32997
2.3298
2.32979
2.32993
2.3302
2.3306
2.33109
2.33165
2.33224
2.33283
2.33339
2.33387
2.33427
2.33454
2.33468
2.44302
2.44317
2.44347
2.44392
2.44454
2.44533
2.44628
2.44741
2.4487
2.45016
2.45177
2.45353
2.45541
2.45741
2.45951
2.46171
2.464
2.46637
2.46885
2.47142
2.4741
2.47689
2.47981
2.48285
2.48601
2.48928
2.49264
2.49608
2.49957
2.50307
2.50655
2.50997
2.5133
2.51649
2.51952
2.52235
2.52496
2.52732
2.52941
2.5312
2.53269
2.53385
2.53468
2.53517
2.5353
2.53508
2.53449
2.53354
2.53221
2.53052
2.52846
2.52604
2.52324
2.52009
2.51658
2.51273
2.50854
2.50402
2.4992
2.49408
2.4887
2.48307
2.47723
2.47121
2.46506
2.45881
2.45252
2.44624
2.44003
2.43394
2.42804
2.42238
2.41701
2.41196
2.40728
2.40298
2.39907
2.39553
2.39234
2.38948
2.38691
2.38457
2.38242
2.38041
2.37851
2.37667
2.37486
2.37305
2.37124
2.36941
2.36757
2.36572
2.36387
2.36204
2.36025
2.35853
2.35689
2.35536
2.35394
2.35266
2.35153
2.35054
2.3497
2.34902
2.34849
2.34812
2.34789
2.3478
2.34784
2.348
2.34827
2.34862
2.34902
2.34946
2.3499
2.35032
2.35069
2.35099
2.3512
2.35131
2.46003
2.46018
2.46047
2.46091
2.4615
2.46225
2.46316
2.46422
2.46544
2.46681
2.46832
2.46996
2.47172
2.4736
2.47558
2.47765
2.47982
2.48208
2.48443
2.48688
2.48942
2.49207
2.49482
2.49767
2.50062
2.50365
2.50676
2.50992
2.51311
2.51631
2.51947
2.52257
2.52559
2.52847
2.53121
2.53377
2.53611
2.53823
2.5401
2.5417
2.54302
2.54403
2.54474
2.54513
2.54519
2.54491
2.5443
2.54335
2.54205
2.54041
2.53843
2.5361
2.53343
2.53043
2.5271
2.52345
2.51949
2.51524
2.5107
2.5059
2.50086
2.49561
2.49016
2.48456
2.47884
2.47305
2.46721
2.46139
2.45564
2.44999
2.4445
2.43922
2.43418
2.42942
2.42497
2.42084
2.41703
2.41355
2.41037
2.40747
2.40483
2.4024
2.40015
2.39804
2.39603
2.39411
2.39223
2.39039
2.38856
2.38674
2.38492
2.38312
2.38134
2.37959
2.37789
2.37626
2.3747
2.37324
2.37189
2.37066
2.36956
2.3686
2.36777
2.36708
2.36653
2.36612
2.36583
2.36568
2.36564
2.3657
2.36585
2.36608
2.36636
2.36667
2.36699
2.3673
2.36758
2.3678
2.36795
2.36804
2.4769
2.47704
2.47732
2.47774
2.47831
2.47902
2.47988
2.48088
2.48203
2.48331
2.48472
2.48626
2.48791
2.48968
2.49154
2.4935
2.49555
2.49769
2.49992
2.50224
2.50465
2.50714
2.50972
2.51239
2.51514
2.51795
2.52082
2.52373
2.52665
2.52957
2.53245
2.53527
2.538
2.54061
2.54308
2.54538
2.5475
2.5494
2.55107
2.55249
2.55364
2.55453
2.55512
2.55542
2.55541
2.55509
2.55446
2.55351
2.55223
2.55064
2.54873
2.5465
2.54395
2.54109
2.53794
2.53448
2.53074
2.52674
2.52247
2.51797
2.51325
2.50833
2.50325
2.49803
2.49271
2.48732
2.4819
2.47649
2.47113
2.46587
2.46075
2.45581
2.45107
2.44657
2.44233
2.43837
2.43468
2.43127
2.42812
2.42521
2.42253
2.42005
2.41773
2.41555
2.41348
2.4115
2.40958
2.4077
2.40586
2.40405
2.40226
2.4005
2.39878
2.39709
2.39546
2.3939
2.39241
2.39102
2.38972
2.38854
2.38747
2.38652
2.3857
2.385
2.38443
2.38398
2.38365
2.38344
2.38332
2.3833
2.38336
2.38349
2.38367
2.38388
2.3841
2.38432
2.38451
2.38467
2.38479
2.38484
2.49362
2.49376
2.49402
2.49443
2.49497
2.49564
2.49645
2.4974
2.49847
2.49968
2.501
2.50245
2.504
2.50566
2.50741
2.50926
2.5112
2.51322
2.51532
2.51751
2.51978
2.52212
2.52455
2.52704
2.52959
2.5322
2.53485
2.53752
2.5402
2.54286
2.54548
2.54805
2.55052
2.55288
2.55512
2.55719
2.55909
2.56079
2.56228
2.56353
2.56455
2.5653
2.56579
2.56601
2.56594
2.56558
2.56493
2.56398
2.56274
2.56119
2.55935
2.55721
2.55478
2.55206
2.54906
2.5458
2.54227
2.53849
2.53448
2.53025
2.52582
2.52122
2.51647
2.5116
2.50664
2.50161
2.49656
2.49153
2.48653
2.48162
2.47683
2.47219
2.46772
2.46346
2.45942
2.45562
2.45205
2.44872
2.44561
2.44273
2.44004
2.43753
2.43518
2.43296
2.43084
2.42882
2.42687
2.42498
2.42314
2.42134
2.41958
2.41785
2.41617
2.41454
2.41297
2.41146
2.41003
2.40869
2.40744
2.40629
2.40525
2.40432
2.4035
2.4028
2.40221
2.40173
2.40136
2.40109
2.40092
2.40082
2.40081
2.40085
2.40094
2.40107
2.40121
2.40135
2.40148
2.40159
2.40167
2.40171
2.51021
2.51034
2.5106
2.51098
2.51149
2.51213
2.51289
2.51378
2.51479
2.51592
2.51717
2.51852
2.51998
2.52154
2.52319
2.52493
2.52675
2.52866
2.53064
2.5327
2.53483
2.53703
2.5393
2.54162
2.54399
2.54641
2.54885
2.55131
2.55376
2.55619
2.55858
2.56091
2.56315
2.56529
2.56731
2.56917
2.57087
2.57239
2.57371
2.57482
2.5757
2.57635
2.57674
2.57688
2.57676
2.57636
2.5757
2.57476
2.57354
2.57204
2.57026
2.56821
2.56589
2.56331
2.56046
2.55737
2.55403
2.55047
2.5467
2.54272
2.53857
2.53426
2.52982
2.52527
2.52063
2.51594
2.51122
2.50652
2.50185
2.49725
2.49276
2.48839
2.48417
2.48013
2.47628
2.47263
2.46918
2.46594
2.46289
2.46004
2.45737
2.45486
2.45249
2.45025
2.44811
2.44607
2.44411
2.44221
2.44038
2.43859
2.43685
2.43516
2.43351
2.43193
2.4304
2.42894
2.42756
2.42626
2.42505
2.42393
2.42291
2.422
2.42119
2.42048
2.41987
2.41937
2.41896
2.41865
2.41842
2.41827
2.41819
2.41816
2.41818
2.41824
2.41831
2.41839
2.41847
2.41854
2.41859
2.41862
2.52667
2.5268
2.52704
2.5274
2.52788
2.52848
2.5292
2.53004
2.53099
2.53205
2.53322
2.53449
2.53586
2.53733
2.53888
2.54051
2.54223
2.54402
2.54588
2.54782
2.54981
2.55187
2.55398
2.55615
2.55835
2.56058
2.56284
2.5651
2.56734
2.56957
2.57174
2.57386
2.57589
2.57783
2.57964
2.58132
2.58284
2.5842
2.58537
2.58634
2.5871
2.58764
2.58795
2.58802
2.58784
2.58742
2.58674
2.58581
2.58461
2.58316
2.58145
2.57949
2.57727
2.57481
2.57211
2.56918
2.56603
2.56267
2.55911
2.55538
2.55148
2.54744
2.54327
2.53901
2.53467
2.53028
2.52587
2.52147
2.51709
2.51278
2.50855
2.50444
2.50045
2.49661
2.49293
2.48943
2.4861
2.48295
2.47998
2.47718
2.47453
2.47204
2.46967
2.46743
2.46529
2.46325
2.46128
2.45939
2.45756
2.45579
2.45407
2.45241
2.4508
2.44925
2.44777
2.44635
2.44501
2.44375
2.44257
2.44148
2.44048
2.43957
2.43877
2.43805
2.43743
2.43691
2.43647
2.43612
2.43585
2.43565
2.43551
2.43543
2.43539
2.43538
2.4354
2.43544
2.43547
2.43551
2.43554
2.43555
2.54301
2.54313
2.54336
2.5437
2.54415
2.54472
2.5454
2.54618
2.54708
2.54807
2.54917
2.55036
2.55165
2.55302
2.55448
2.55601
2.55762
2.55931
2.56105
2.56286
2.56473
2.56666
2.56862
2.57063
2.57268
2.57474
2.57682
2.57889
2.58095
2.58298
2.58497
2.58689
2.58873
2.59048
2.59211
2.59362
2.59498
2.59618
2.59721
2.59806
2.59871
2.59916
2.59939
2.5994
2.59918
2.59873
2.59804
2.59711
2.59595
2.59454
2.59289
2.59101
2.58889
2.58655
2.58399
2.58121
2.57823
2.57506
2.57171
2.56819
2.56453
2.56073
2.55683
2.55283
2.54876
2.54465
2.54051
2.53638
2.53228
2.52822
2.52424
2.52035
2.51657
2.51292
2.50941
2.50605
2.50285
2.4998
2.4969
2.49416
2.49155
2.48908
2.48674
2.48451
2.48238
2.48034
2.47838
2.4765
2.47468
2.47293
2.47124
2.4696
2.46803
2.46652
2.46507
2.46369
2.46238
2.46115
2.46
2.45893
2.45795
2.45705
2.45625
2.45553
2.4549
2.45436
2.4539
2.45352
2.45321
2.45296
2.45278
2.45265
2.45256
2.45251
2.45248
2.45247
2.45248
2.45248
2.45249
2.4525
2.55924
2.55935
2.55956
2.55988
2.56031
2.56084
2.56148
2.56222
2.56306
2.56399
2.56502
2.56614
2.56735
2.56863
2.57
2.57144
2.57295
2.57452
2.57616
2.57785
2.5796
2.58139
2.58322
2.58509
2.58698
2.58888
2.5908
2.5927
2.59459
2.59644
2.59825
2.59999
2.60166
2.60324
2.60471
2.60606
2.60728
2.60834
2.60925
2.60998
2.61053
2.61089
2.61105
2.611
2.61075
2.61027
2.60958
2.60866
2.60752
2.60616
2.60457
2.60276
2.60074
2.59851
2.59608
2.59345
2.59063
2.58763
2.58447
2.58116
2.57771
2.57414
2.57047
2.56672
2.5629
2.55904
2.55515
2.55127
2.54741
2.54359
2.53983
2.53615
2.53257
2.5291
2.52575
2.52252
2.51943
2.51648
2.51367
2.51099
2.50844
2.50601
2.50369
2.50148
2.49937
2.49735
2.4954
2.49354
2.49174
2.49001
2.48834
2.48674
2.48519
2.48371
2.4823
2.48095
2.47967
2.47847
2.47734
2.47629
2.47533
2.47444
2.47364
2.47292
2.47228
2.47173
2.47124
2.47084
2.47049
2.47022
2.46999
2.46982
2.46969
2.4696
2.46954
2.4695
2.46947
2.46946
2.46945
2.46945
2.57535
2.57546
2.57566
2.57596
2.57636
2.57686
2.57746
2.57815
2.57894
2.57982
2.58078
2.58183
2.58296
2.58417
2.58545
2.5868
2.58821
2.58968
2.59121
2.59279
2.59442
2.59609
2.59779
2.59952
2.60126
2.60302
2.60478
2.60653
2.60825
2.60995
2.61159
2.61318
2.61469
2.61611
2.61743
2.61864
2.61972
2.62066
2.62145
2.62208
2.62254
2.62282
2.62292
2.62282
2.62253
2.62203
2.62133
2.62043
2.61931
2.61799
2.61647
2.61473
2.6128
2.61068
2.60836
2.60587
2.6032
2.60036
2.59738
2.59426
2.59101
2.58765
2.5842
2.58066
2.57707
2.57344
2.56979
2.56614
2.5625
2.5589
2.55534
2.55186
2.54846
2.54515
2.54195
2.53886
2.53588
2.53303
2.5303
2.52769
2.52519
2.52281
2.52053
2.51835
2.51627
2.51427
2.51235
2.51051
2.50873
2.50703
2.50538
2.50381
2.50229
2.50084
2.49946
2.49814
2.49689
2.49571
2.49461
2.49358
2.49262
2.49175
2.49095
2.49023
2.48959
2.48901
2.48852
2.48809
2.48772
2.48741
2.48716
2.48695
2.48679
2.48667
2.48657
2.4865
2.48646
2.48642
2.4864
2.48639
2.59137
2.59146
2.59165
2.59194
2.59231
2.59278
2.59335
2.594
2.59473
2.59555
2.59646
2.59744
2.5985
2.59963
2.60082
2.60208
2.60341
2.60478
2.60621
2.60768
2.6092
2.61074
2.61232
2.61392
2.61554
2.61716
2.61877
2.62038
2.62196
2.6235
2.62499
2.62643
2.6278
2.62908
2.63026
2.63134
2.6323
2.63312
2.63381
2.63435
2.63473
2.63494
2.63498
2.63484
2.63451
2.634
2.6333
2.6324
2.63132
2.63004
2.62856
2.6269
2.62506
2.62303
2.62083
2.61846
2.61593
2.61325
2.61043
2.60748
2.60442
2.60125
2.598
2.59467
2.59129
2.58787
2.58443
2.58099
2.57755
2.57415
2.57079
2.56748
2.56425
2.5611
2.55803
2.55507
2.55221
2.54946
2.54681
2.54427
2.54184
2.53951
2.53728
2.53514
2.53308
2.53111
2.52922
2.5274
2.52566
2.52398
2.52236
2.52081
2.51933
2.5179
2.51655
2.51526
2.51403
2.51288
2.51179
2.51078
2.50984
2.50897
2.50818
2.50746
2.50681
2.50623
2.50572
2.50527
2.50488
2.50455
2.50427
2.50404
2.50385
2.5037
2.50358
2.50349
2.50342
2.50337
2.50334
2.50333
2.60729
2.60738
2.60755
2.60782
2.60817
2.60861
2.60914
2.60975
2.61044
2.61121
2.61205
2.61297
2.61396
2.61502
2.61614
2.61731
2.61855
2.61983
2.62116
2.62253
2.62394
2.62537
2.62684
2.62831
2.6298
2.63129
2.63278
2.63425
2.63569
2.6371
2.63846
2.63976
2.64099
2.64214
2.6432
2.64416
2.64501
2.64573
2.64632
2.64677
2.64708
2.64723
2.64721
2.64703
2.64668
2.64616
2.64545
2.64457
2.64351
2.64227
2.64085
2.63926
2.63749
2.63556
2.63346
2.63121
2.62881
2.62627
2.6236
2.62082
2.61792
2.61494
2.61187
2.60873
2.60555
2.60232
2.59908
2.59582
2.59258
2.58935
2.58617
2.58303
2.57996
2.57695
2.57402
2.57118
2.56843
2.56578
2.56322
2.56075
2.55838
2.55611
2.55393
2.55183
2.54981
2.54788
2.54602
2.54423
2.54251
2.54086
2.53928
2.53775
2.5363
2.5349
2.53357
2.53231
2.53111
2.52997
2.52891
2.52791
2.52698
2.52613
2.52534
2.52462
2.52397
2.52338
2.52286
2.52239
2.52199
2.52164
2.52134
2.52108
2.52087
2.5207
2.52056
2.52045
2.52037
2.52031
2.52027
2.52025
2.62311
2.6232
2.62336
2.62361
2.62395
2.62436
2.62485
2.62542
2.62607
2.62678
2.62757
2.62843
2.62936
2.63034
2.63139
2.63248
2.63363
2.63483
2.63607
2.63734
2.63865
2.63998
2.64133
2.6427
2.64407
2.64544
2.6468
2.64814
2.64946
2.65074
2.65197
2.65315
2.65426
2.6553
2.65624
2.65709
2.65784
2.65847
2.65897
2.65935
2.65958
2.65968
2.65962
2.6594
2.65903
2.65849
2.65779
2.65692
2.65588
2.65468
2.65331
2.65178
2.65009
2.64824
2.64625
2.64411
2.64183
2.63942
2.6369
2.63426
2.63153
2.6287
2.62581
2.62285
2.61984
2.61679
2.61372
2.61065
2.60758
2.60453
2.6015
2.59852
2.59559
2.59272
2.58992
2.5872
2.58456
2.582
2.57952
2.57713
2.57483
2.57262
2.57049
2.56844
2.56646
2.56457
2.56274
2.56099
2.5593
2.55768
2.55612
2.55463
2.5532
2.55183
2.55053
2.54929
2.54811
2.547
2.54595
2.54497
2.54406
2.54321
2.54243
2.54171
2.54105
2.54046
2.53993
2.53946
2.53904
2.53867
2.53836
2.53809
2.53786
2.53766
2.53751
2.53738
2.53729
2.53722
2.53717
2.53715
2.63886
2.63893
2.63909
2.63932
2.63963
2.64002
2.64048
2.64101
2.64162
2.64229
2.64303
2.64383
2.64469
2.64561
2.64658
2.64761
2.64868
2.64979
2.65094
2.65212
2.65333
2.65456
2.65581
2.65707
2.65833
2.65959
2.66084
2.66207
2.66327
2.66443
2.66555
2.66661
2.66761
2.66854
2.66938
2.67013
2.67078
2.67133
2.67175
2.67206
2.67223
2.67227
2.67217
2.67193
2.67153
2.67099
2.67028
2.66943
2.66842
2.66725
2.66593
2.66446
2.66284
2.66108
2.65918
2.65714
2.65498
2.65269
2.6503
2.6478
2.64521
2.64255
2.63981
2.63701
2.63416
2.63128
2.62838
2.62547
2.62256
2.61966
2.61679
2.61396
2.61117
2.60843
2.60575
2.60314
2.6006
2.59813
2.59574
2.59343
2.5912
2.58904
2.58696
2.58496
2.58304
2.58118
2.57939
2.57767
2.57602
2.57443
2.57291
2.57144
2.57004
2.5687
2.56742
2.56621
2.56505
2.56396
2.56293
2.56197
2.56106
2.56022
2.55945
2.55873
2.55808
2.55748
2.55695
2.55646
2.55604
2.55566
2.55533
2.55504
2.5548
2.55459
2.55442
2.55429
2.55418
2.5541
2.55405
2.55403
2.65452
2.65459
2.65474
2.65496
2.65525
2.65561
2.65604
2.65654
2.6571
2.65773
2.65841
2.65916
2.65996
2.66082
2.66173
2.66268
2.66367
2.66471
2.66577
2.66687
2.66799
2.66913
2.67028
2.67144
2.6726
2.67375
2.67489
2.67602
2.67711
2.67816
2.67918
2.68013
2.68103
2.68186
2.6826
2.68327
2.68383
2.6843
2.68466
2.6849
2.68502
2.68501
2.68487
2.6846
2.68419
2.68363
2.68294
2.6821
2.68111
2.67998
2.67871
2.67729
2.67574
2.67405
2.67224
2.6703
2.66824
2.66607
2.6638
2.66144
2.65898
2.65646
2.65386
2.65121
2.64852
2.64579
2.64305
2.64029
2.63753
2.63478
2.63205
2.62935
2.62669
2.62407
2.62151
2.619
2.61656
2.61419
2.61188
2.60964
2.60748
2.60539
2.60337
2.60142
2.59954
2.59772
2.59598
2.59429
2.59268
2.59112
2.58963
2.58819
2.58682
2.58551
2.58425
2.58306
2.58193
2.58086
2.57985
2.57889
2.578
2.57717
2.5764
2.57569
2.57504
2.57445
2.57391
2.57342
2.57298
2.57259
2.57225
2.57196
2.5717
2.57149
2.5713
2.57116
2.57104
2.57096
2.5709
2.57088
2.67011
2.67018
2.67031
2.67052
2.67079
2.67113
2.67153
2.67199
2.67252
2.6731
2.67374
2.67444
2.67519
2.67598
2.67682
2.67771
2.67863
2.67959
2.68058
2.68159
2.68263
2.68368
2.68474
2.6858
2.68687
2.68793
2.68897
2.68999
2.69098
2.69194
2.69285
2.69372
2.69452
2.69526
2.69592
2.6965
2.69699
2.69738
2.69767
2.69786
2.69793
2.69788
2.69771
2.69741
2.69698
2.69643
2.69573
2.69491
2.69394
2.69285
2.69162
2.69026
2.68877
2.68716
2.68542
2.68357
2.68162
2.67956
2.6774
2.67515
2.67283
2.67043
2.66797
2.66546
2.66291
2.66033
2.65772
2.6551
2.65248
2.64987
2.64727
2.6447
2.64216
2.63966
2.63721
2.63481
2.63246
2.63017
2.62795
2.62579
2.62369
2.62166
2.6197
2.6178
2.61597