/*--------------------------------*- C++ -*----------------------------------*\
| =========                 |                                                 |
| \\      /  F ield         | OpenFOAM: The Open Source CFD Toolbox           |
|  \\    /   O peration     | Version:  2406                                  |
|   \\  /    A nd           | Website:  www.openfoam.com                      |
|    \\/     M anipulation  |                                                 |
\*---------------------------------------------------------------------------*/
FoamFile
{
    version     2.0;
    format      ascii;
    arch        "LSB;label=32;scalar=64";
    class       volScalarField;
    location    "1.45";
    object      C_0;
}
// * * * * * * * * * * * * * * * * * * * * * * * * * * * * * * * * * * * * * //

dimensions      [1 -3 0 0 0 0 0];

internalField   nonuniform List<scalar> 
14400
(
2.59305
2.58976
2.58284
2.57152
2.55341
2.51997
2.48662
2.47541
2.49205
2.53054
2.56791
2.5895
2.6046
2.61569
2.62357
2.62869
2.63121
2.63112
2.62823
2.62205
2.61166
2.59451
2.56246
2.53194
2.52461
2.54593
2.5897
2.6318
2.65776
2.67759
2.69402
2.70793
2.71986
2.73018
2.73915
2.74696
2.75373
2.75958
2.76459
2.76882
2.77233
2.77514
2.77731
2.77884
2.77976
2.78009
2.77984
2.779
2.77758
2.77559
2.77302
2.76985
2.76608
2.76169
2.75665
2.75095
2.74454
2.7374
2.72947
2.72069
2.711
2.7003
2.68848
2.67542
2.66093
2.64478
2.62667
2.60618
2.58268
2.55529
2.52066
2.46619
2.40189
2.35285
2.3251
2.31877
2.33379
2.37001
2.42179
2.46641
2.49246
2.51083
2.52464
2.5349
2.54224
2.54708
2.54965
2.55009
2.54846
2.54471
2.53869
2.53014
2.51859
2.50323
2.48181
2.44476
2.40546
2.38689
2.39518
2.42466
2.45407
2.46842
2.47572
2.47785
2.4752
2.4674
2.45259
2.42265
2.39247
2.38341
2.40123
2.43985
2.47641
2.49746
2.51252
2.52383
2.53223
2.5382
2.54204
2.54392
2.59634
2.59338
2.58724
2.57751
2.56347
2.54221
2.51528
2.50184
2.52079
2.55231
2.57736
2.59502
2.60861
2.61889
2.62635
2.63127
2.63381
2.63394
2.63152
2.62625
2.6176
2.60481
2.58497
2.56044
2.551
2.57466
2.61106
2.64065
2.66264
2.68099
2.69655
2.7099
2.72147
2.73153
2.74032
2.74799
2.75465
2.76042
2.76537
2.76955
2.77301
2.7758
2.77794
2.77945
2.78036
2.78068
2.78041
2.77957
2.77816
2.77617
2.77361
2.77045
2.7667
2.76233
2.75732
2.75165
2.74528
2.73819
2.73031
2.72161
2.712
2.70141
2.68973
2.67684
2.66258
2.64675
2.62906
2.60917
2.58658
2.56059
2.53015
2.48923
2.43522
2.38531
2.35833
2.35204
2.36621
2.40326
2.44582
2.47719
2.49874
2.51539
2.52818
2.53781
2.54476
2.54934
2.55177
2.55217
2.55058
2.54697
2.54122
2.53314
2.52239
2.50847
2.49062
2.46577
2.43385
2.41291
2.4235
2.44678
2.46431
2.47494
2.48089
2.48263
2.48035
2.47387
2.46273
2.44468
2.42075
2.40937
2.42953
2.46082
2.48519
2.50266
2.51626
2.52675
2.53465
2.54033
2.544
2.5458
2.6026
2.60017
2.59525
2.58779
2.57787
2.5662
2.55345
2.54486
2.55855
2.57544
2.59093
2.60461
2.61594
2.62491
2.63165
2.63626
2.6388
2.63929
2.63766
2.63382
2.62767
2.61931
2.60948
2.59897
2.59404
2.61223
2.63345
2.65311
2.67115
2.68717
2.70127
2.71367
2.72457
2.73417
2.7426
2.75001
2.75648
2.76209
2.76691
2.77099
2.77437
2.7771
2.77919
2.78066
2.78154
2.78184
2.78157
2.78072
2.77931
2.77734
2.77479
2.77165
2.76793
2.7636
2.75865
2.75304
2.74675
2.73975
2.73199
2.72342
2.71399
2.70361
2.69219
2.67964
2.66582
2.65055
2.63365
2.61486
2.59387
2.57035
2.54394
2.51462
2.48012
2.44306
2.4212
2.41509
2.4241
2.44909
2.47318
2.49297
2.50992
2.52382
2.53489
2.5434
2.54962
2.55375
2.55593
2.55624
2.55472
2.55136
2.54609
2.53881
2.52938
2.51764
2.50356
2.4876
2.47027
2.45494
2.46088
2.47054
2.47931
2.48614
2.49025
2.49144
2.48968
2.485
2.4776
2.46825
2.45798
2.45129
2.46586
2.48261
2.49808
2.51173
2.52311
2.53225
2.53931
2.54446
2.54782
2.54948
2.61129
2.60944
2.6058
2.60052
2.59405
2.58735
2.58244
2.58184
2.58681
2.59576
2.6063
2.61654
2.62562
2.63317
2.63907
2.6433
2.64586
2.64676
2.64602
2.6437
2.63997
2.63528
2.6307
2.62837
2.63096
2.63977
2.65263
2.6672
2.68168
2.69527
2.7077
2.71892
2.72898
2.73795
2.74592
2.75296
2.75915
2.76454
2.76919
2.77313
2.7764
2.77903
2.78105
2.78247
2.78331
2.78358
2.78329
2.78244
2.78103
2.77907
2.77654
2.77345
2.76977
2.7655
2.76062
2.75511
2.74893
2.74207
2.73447
2.72611
2.71691
2.70683
2.69579
2.68371
2.67048
2.656
2.64013
2.62274
2.60371
2.58298
2.56066
2.53731
2.51446
2.4936
2.47963
2.47395
2.47627
2.48575
2.49816
2.51158
2.52415
2.53508
2.54414
2.55129
2.55659
2.56012
2.56195
2.56214
2.5607
2.55765
2.55296
2.54663
2.53866
2.52914
2.51838
2.50717
2.49725
2.49088
2.48939
2.492
2.49623
2.50007
2.50253
2.50319
2.50193
2.49886
2.4944
2.48955
2.48628
2.48708
2.49278
2.50211
2.51279
2.52308
2.53219
2.53982
2.54588
2.55038
2.55335
2.55483
2.62182
2.62051
2.61797
2.61446
2.61044
2.6067
2.60444
2.6049
2.6084
2.61449
2.62195
2.62964
2.63683
2.64307
2.64817
2.65202
2.65458
2.65587
2.65596
2.65498
2.65321
2.65115
2.64966
2.65001
2.6535
2.6604
2.67011
2.68138
2.69308
2.70453
2.71534
2.72534
2.73448
2.74274
2.75016
2.75678
2.76262
2.76774
2.77217
2.77593
2.77906
2.78158
2.7835
2.78485
2.78564
2.78588
2.78556
2.7847
2.7833
2.78136
2.77887
2.77582
2.77221
2.76802
2.76323
2.75784
2.75181
2.74512
2.73773
2.72961
2.72073
2.71102
2.70044
2.68892
2.67641
2.66283
2.64813
2.63226
2.61525
2.59719
2.5784
2.55951
2.54168
2.52647
2.51531
2.50986
2.5101
2.5146
2.52214
2.53104
2.54
2.54823
2.55529
2.56101
2.56532
2.56818
2.56962
2.56965
2.5683
2.56557
2.56148
2.5561
2.5495
2.54188
2.53365
2.52546
2.51839
2.51358
2.51148
2.51185
2.51353
2.51538
2.51662
2.51687
2.51598
2.51409
2.5116
2.50926
2.50822
2.50965
2.51381
2.52027
2.52788
2.53561
2.54276
2.54895
2.554
2.55782
2.56037
2.56164
2.63367
2.63279
2.63112
2.62891
2.62654
2.62457
2.62372
2.62459
2.62738
2.63185
2.63737
2.64326
2.64897
2.65413
2.65852
2.66201
2.66456
2.66619
2.66696
2.66706
2.66674
2.66645
2.66679
2.66851
2.67225
2.6782
2.68603
2.69511
2.70475
2.71442
2.72379
2.73263
2.74084
2.74837
2.75521
2.76135
2.76682
2.77163
2.77581
2.77937
2.78233
2.78471
2.78653
2.7878
2.78853
2.78872
2.78838
2.78751
2.78612
2.7842
2.78175
2.77875
2.77522
2.77112
2.76645
2.7612
2.75534
2.74885
2.74171
2.73389
2.72536
2.71607
2.70601
2.69513
2.68339
2.67078
2.65729
2.64294
2.62783
2.61214
2.59623
2.58066
2.56627
2.55405
2.54496
2.53975
2.53845
2.54041
2.54475
2.55045
2.5566
2.56252
2.5678
2.57216
2.57548
2.57767
2.5787
2.57856
2.57727
2.57483
2.57131
2.56677
2.56134
2.55525
2.54885
2.54264
2.53727
2.53334
2.53109
2.53039
2.53067
2.53128
2.53171
2.53167
2.53104
2.52993
2.52864
2.52768
2.5277
2.52926
2.53253
2.53726
2.54287
2.54871
2.55428
2.55923
2.56336
2.56652
2.56866
2.56974
2.64641
2.64585
2.64482
2.64352
2.64223
2.64134
2.64126
2.64234
2.64469
2.64817
2.65242
2.65704
2.66165
2.66595
2.66976
2.67295
2.67547
2.67735
2.67865
2.67954
2.68025
2.6811
2.68254
2.68499
2.68881
2.69411
2.70072
2.70828
2.71638
2.72463
2.73275
2.74055
2.74789
2.7547
2.76095
2.76661
2.77167
2.77616
2.78006
2.7834
2.78618
2.78842
2.79012
2.79129
2.79195
2.79209
2.79172
2.79085
2.78946
2.78757
2.78516
2.78223
2.77878
2.7748
2.77026
2.76517
2.7595
2.75325
2.74638
2.73888
2.73073
2.72191
2.7124
2.70218
2.69125
2.67961
2.6673
2.65438
2.64098
2.62731
2.61371
2.60063
2.58868
2.57851
2.57073
2.56573
2.56355
2.56383
2.56601
2.56941
2.57341
2.57746
2.5812
2.58436
2.58676
2.58831
2.58894
2.58862
2.58737
2.58519
2.58215
2.57832
2.57385
2.56894
2.56386
2.55899
2.55472
2.55139
2.54917
2.54796
2.54748
2.54736
2.54728
2.54705
2.54658
2.54594
2.54535
2.54513
2.54562
2.54715
2.54978
2.55338
2.55762
2.56208
2.56642
2.57034
2.57367
2.57625
2.57801
2.5789
2.6597
2.65937
2.65879
2.65811
2.65752
2.65728
2.65765
2.65883
2.66087
2.6637
2.66711
2.67084
2.67464
2.67828
2.68161
2.68454
2.68703
2.68907
2.69076
2.6922
2.6936
2.69519
2.69726
2.70009
2.70388
2.7087
2.71445
2.72092
2.72785
2.73496
2.74204
2.74891
2.75546
2.7616
2.76727
2.77245
2.77711
2.78126
2.78488
2.78798
2.79057
2.79265
2.79422
2.7953
2.79588
2.79597
2.79557
2.79469
2.79332
2.79145
2.78909
2.78624
2.78288
2.77901
2.77463
2.76971
2.76425
2.75824
2.75167
2.74452
2.73678
2.72844
2.7195
2.70995
2.69982
2.68912
2.67791
2.66629
2.65439
2.64242
2.63066
2.61948
2.60931
2.60059
2.5937
2.58889
2.58618
2.58534
2.58603
2.58778
2.59015
2.59273
2.5952
2.59731
2.59891
2.59987
2.60012
2.59963
2.59839
2.59642
2.59377
2.59052
2.5868
2.58278
2.57867
2.57472
2.57122
2.56835
2.56622
2.56479
2.56392
2.56339
2.56301
2.56266
2.56227
2.56191
2.5617
2.56184
2.56253
2.56392
2.56607
2.56888
2.57213
2.57557
2.57896
2.58206
2.58472
2.5868
2.58823
2.58896
2.67331
2.67315
2.67288
2.6726
2.67245
2.67261
2.67324
2.67444
2.67626
2.67865
2.68148
2.68458
2.68777
2.69091
2.69388
2.69659
2.69901
2.70116
2.7031
2.70491
2.70675
2.70879
2.71123
2.71423
2.71792
2.72235
2.72746
2.73311
2.73913
2.74532
2.75153
2.75761
2.76344
2.76896
2.77409
2.7788
2.78307
2.78688
2.79022
2.79308
2.79547
2.79739
2.79883
2.7998
2.80031
2.80034
2.79991
2.79902
2.79766
2.79583
2.79352
2.79075
2.78749
2.78375
2.77952
2.77479
2.76956
2.76381
2.75754
2.75075
2.74343
2.73557
2.7272
2.71831
2.70894
2.69913
2.68895
2.67848
2.66788
2.65732
2.64704
2.63732
2.62848
2.62082
2.6146
2.60996
2.60692
2.60534
2.60499
2.60554
2.60668
2.6081
2.60953
2.61078
2.61168
2.61213
2.61204
2.61138
2.61014
2.60833
2.60599
2.6032
2.60006
2.5967
2.5933
2.59003
2.58707
2.58456
2.58257
2.58108
2.58002
2.57927
2.57872
2.57829
2.57795
2.57773
2.57771
2.578
2.57872
2.57995
2.5817
2.58392
2.58645
2.58913
2.59178
2.59422
2.59634
2.59801
2.59916
2.59975
2.68709
2.68704
2.68696
2.68695
2.68709
2.68748
2.68825
2.68944
2.69109
2.69316
2.69557
2.69821
2.70096
2.70372
2.70639
2.70891
2.71127
2.71347
2.71556
2.7176
2.71971
2.72201
2.72462
2.72767
2.73123
2.73533
2.73992
2.74493
2.75022
2.75567
2.76115
2.76654
2.77174
2.77669
2.78133
2.7856
2.78949
2.79297
2.79603
2.79865
2.80084
2.80259
2.8039
2.80477
2.80519
2.80518
2.80472
2.80381
2.80246
2.80067
2.79843
2.79573
2.79258
2.78898
2.78491
2.78037
2.77537
2.76989
2.76393
2.7575
2.7506
2.74323
2.73541
2.72716
2.71851
2.70952
2.70025
2.69081
2.68132
2.67193
2.66285
2.65429
2.64647
2.63962
2.63391
2.62943
2.6262
2.62412
2.62303
2.62271
2.62293
2.62345
2.62406
2.6246
2.62492
2.62492
2.62453
2.62372
2.62246
2.62076
2.61866
2.61622
2.61352
2.61067
2.6078
2.60502
2.60248
2.60025
2.5984
2.59693
2.5958
2.59495
2.59431
2.59383
2.59351
2.59335
2.5934
2.59373
2.5944
2.59545
2.59688
2.59863
2.60062
2.60272
2.60479
2.60672
2.60839
2.60972
2.61065
2.61112
2.70092
2.70094
2.701
2.70115
2.70145
2.70199
2.70282
2.70398
2.70549
2.70732
2.70943
2.71173
2.71415
2.71661
2.71904
2.72141
2.72369
2.72589
2.72805
2.73022
2.73247
2.7349
2.73758
2.7406
2.744
2.74781
2.75198
2.75646
2.76117
2.766
2.77086
2.77565
2.7803
2.78474
2.78892
2.79279
2.79631
2.79948
2.80227
2.80466
2.80666
2.80824
2.80942
2.81018
2.81052
2.81045
2.80996
2.80905
2.80772
2.80596
2.80378
2.80117
2.79813
2.79467
2.79076
2.78643
2.78165
2.77644
2.7708
2.76473
2.75824
2.75133
2.74404
2.73639
2.72842
2.72018
2.71174
2.70319
2.69465
2.68625
2.67814
2.6705
2.6635
2.65728
2.65198
2.64766
2.64432
2.64191
2.6403
2.63935
2.63887
2.6387
2.63867
2.63863
2.63847
2.6381
2.63746
2.6365
2.63521
2.63359
2.63167
2.6295
2.62714
2.62467
2.62219
2.61979
2.61756
2.61557
2.61386
2.61245
2.61131
2.61041
2.60973
2.60922
2.60889
2.60875
2.60881
2.60911
2.6097
2.61057
2.61172
2.61312
2.61468
2.61633
2.61796
2.61947
2.6208
2.62185
2.62258
2.62296
2.71473
2.71479
2.71493
2.71519
2.71559
2.7162
2.71705
2.71817
2.71957
2.72122
2.72309
2.72514
2.7273
2.72952
2.73176
2.73399
2.73619
2.73836
2.74054
2.74275
2.74506
2.74753
2.75021
2.75315
2.75638
2.75991
2.76372
2.76776
2.77198
2.77629
2.78063
2.78491
2.78907
2.79306
2.79682
2.80031
2.8035
2.80637
2.8089
2.81107
2.81287
2.8143
2.81534
2.816
2.81627
2.81614
2.81562
2.81471
2.81339
2.81168
2.80956
2.80704
2.80411
2.80079
2.79705
2.79291
2.78837
2.78343
2.7781
2.77238
2.76628
2.75983
2.75304
2.74595
2.73859
2.73103
2.72333
2.71556
2.70784
2.70026
2.69297
2.68608
2.67973
2.67403
2.66907
2.6649
2.66152
2.65889
2.65692
2.65551
2.65452
2.65381
2.65327
2.65278
2.65223
2.65156
2.65069
2.64961
2.64828
2.64672
2.64493
2.64296
2.64086
2.63868
2.6365
2.63439
2.63241
2.63061
2.62903
2.62768
2.62657
2.62567
2.62496
2.62444
2.6241
2.62394
2.62397
2.62422
2.6247
2.62541
2.62633
2.62743
2.62866
2.62995
2.63123
2.63242
2.63346
2.63429
2.63487
2.63517
2.72848
2.72857
2.72876
2.72907
2.72953
2.73017
2.73102
2.73209
2.73338
2.73489
2.73658
2.73843
2.74038
2.74242
2.7445
2.74659
2.7487
2.75083
2.75298
2.75519
2.7575
2.75995
2.76257
2.7654
2.76845
2.77173
2.77523
2.7789
2.78269
2.78657
2.79045
2.79428
2.79802
2.8016
2.80498
2.80813
2.81101
2.8136
2.81589
2.81785
2.81947
2.82074
2.82166
2.82222
2.82241
2.82223
2.82168
2.82076
2.81946
2.81779
2.81574
2.81331
2.8105
2.80731
2.80374
2.7998
2.79549
2.79082
2.78578
2.7804
2.77468
2.76865
2.76234
2.75576
2.74898
2.74203
2.73498
2.7279
2.72087
2.714
2.70738
2.70112
2.69531
2.69004
2.68537
2.68135
2.67797
2.6752
2.67299
2.67124
2.66987
2.66876
2.66783
2.66698
2.66612
2.66519
2.66415
2.66296
2.6616
2.66006
2.65838
2.65656
2.65465
2.65269
2.65074
2.64885
2.64706
2.64542
2.64396
2.64269
2.64161
2.64072
2.64001
2.63948
2.63912
2.63893
2.63892
2.6391
2.63947
2.64003
2.64075
2.64162
2.64258
2.64359
2.64459
2.64552
2.64634
2.64699
2.64745
2.64768
2.74214
2.74225
2.74246
2.7428
2.74329
2.74394
2.74476
2.74578
2.74698
2.74837
2.74991
2.7516
2.75339
2.75527
2.75721
2.75919
2.7612
2.76326
2.76536
2.76753
2.7698
2.77219
2.77472
2.77742
2.78029
2.78334
2.78656
2.7899
2.79334
2.79682
2.80032
2.80376
2.80711
2.81033
2.81337
2.81621
2.81881
2.82114
2.8232
2.82496
2.82641
2.82753
2.82833
2.82879
2.82891
2.82869
2.82812
2.82719
2.82591
2.82428
2.8223
2.81995
2.81726
2.81421
2.81081
2.80706
2.80298
2.79855
2.79381
2.78875
2.78339
2.77777
2.77189
2.76579
2.75952
2.75312
2.74665
2.74017
2.73376
2.72748
2.72144
2.7157
2.71034
2.70544
2.70103
2.69715
2.6938
2.69096
2.68858
2.6866
2.68495
2.68354
2.68231
2.68118
2.68008
2.67895
2.67776
2.67647
2.67508
2.67357
2.67195
2.67025
2.66848
2.6667
2.66492
2.6632
2.66157
2.66006
2.6587
2.6575
2.65646
2.65559
2.65489
2.65435
2.65397
2.65375
2.65369
2.65379
2.65406
2.65448
2.65503
2.6557
2.65645
2.65723
2.65801
2.65873
2.65937
2.65988
2.66024
2.66042
2.7557
2.75581
2.75604
2.75639
2.75688
2.75752
2.75832
2.75928
2.7604
2.76169
2.76311
2.76466
2.76632
2.76806
2.76987
2.77174
2.77366
2.77564
2.77767
2.77978
2.78198
2.78428
2.7867
2.78926
2.79196
2.7948
2.79775
2.8008
2.80393
2.80708
2.81023
2.81333
2.81635
2.81924
2.82198
2.82453
2.82686
2.82896
2.83081
2.83238
2.83366
2.83465
2.83534
2.83571
2.83576
2.83549
2.8349
2.83397
2.83272
2.83113
2.82921
2.82695
2.82437
2.82146
2.81822
2.81466
2.81079
2.80662
2.80215
2.7974
2.79238
2.78713
2.78165
2.776
2.7702
2.76429
2.75834
2.75238
2.7465
2.74074
2.73518
2.72989
2.72493
2.72034
2.71617
2.71243
2.70913
2.70625
2.70377
2.70163
2.69977
2.69815
2.69669
2.69535
2.69405
2.69277
2.69146
2.6901
2.68867
2.68718
2.68561
2.68399
2.68234
2.68068
2.67905
2.67746
2.67596
2.67456
2.67328
2.67214
2.67115
2.6703
2.6696
2.66905
2.66865
2.66839
2.66828
2.66832
2.66849
2.66879
2.6692
2.66971
2.67028
2.67088
2.67148
2.67204
2.67253
2.67293
2.67321
2.67335
2.76914
2.76925
2.76948
2.76984
2.77032
2.77094
2.7717
2.77261
2.77367
2.77486
2.77618
2.77762
2.77915
2.78078
2.78248
2.78424
2.78607
2.78796
2.78991
2.79194
2.79405
2.79625
2.79855
2.80097
2.80349
2.80612
2.80885
2.81164
2.81448
2.81734
2.82019
2.82298
2.8257
2.82831
2.83077
2.83306
2.83515
2.83704
2.83868
2.84008
2.84122
2.84208
2.84266
2.84294
2.84294
2.84262
2.84201
2.84108
2.83985
2.83831
2.83645
2.83428
2.83181
2.82903
2.82595
2.82258
2.81891
2.81497
2.81076
2.8063
2.80161
2.7967
2.7916
2.78635
2.78097
2.77551
2.77001
2.76453
2.7591
2.7538
2.74867
2.74376
2.73914
2.73483
2.73086
2.72726
2.72403
2.72116
2.71861
2.71637
2.71437
2.71259
2.71097
2.70946
2.70802
2.70661
2.70521
2.70379
2.70234
2.70085
2.69932
2.69777
2.69621
2.69465
2.69312
2.69164
2.69024
2.68893
2.68772
2.68664
2.68568
2.68486
2.68417
2.68361
2.68319
2.6829
2.68274
2.6827
2.68279
2.68299
2.68328
2.68365
2.68407
2.68453
2.68498
2.68541
2.68579
2.68609
2.68631
2.68642
2.78247
2.78258
2.78281
2.78315
2.78362
2.78422
2.78495
2.7858
2.78679
2.7879
2.78913
2.79047
2.7919
2.79342
2.79502
2.79668
2.79842
2.80021
2.80208
2.80401
2.80602
2.80811
2.81029
2.81256
2.81492
2.81736
2.81987
2.82243
2.82502
2.82761
2.83019
2.83272
2.83517
2.83751
2.83972
2.84178
2.84366
2.84534
2.84681
2.84805
2.84904
2.84979
2.85027
2.85047
2.85041
2.85006
2.84943
2.8485
2.84729
2.84579
2.844
2.84192
2.83955
2.8369
2.83398
2.83078
2.82731
2.82359
2.81963
2.81545
2.81105
2.80646
2.80171
2.79682
2.79183
2.78677
2.78168
2.7766
2.77159
2.76668
2.76192
2.75735
2.75303
2.74896
2.7452
2.74173
2.73858
2.73573
2.73316
2.73085
2.72876
2.72687
2.72513
2.7235
2.72195
2.72045
2.71898
2.71751
2.71604
2.71456
2.71306
2.71156
2.71006
2.70858
2.70714
2.70575
2.70443
2.70319
2.70204
2.70101
2.70008
2.69928
2.69859
2.69803
2.69759
2.69727
2.69706
2.69697
2.69698
2.69709
2.69728
2.69753
2.69784
2.69817
2.69851
2.69883
2.69912
2.69935
2.69951
2.69959
2.79568
2.79579
2.79601
2.79635
2.7968
2.79737
2.79805
2.79886
2.79979
2.80083
2.80198
2.80322
2.80456
2.80599
2.80749
2.80906
2.81069
2.8124
2.81417
2.816
2.81791
2.81989
2.82194
2.82407
2.82627
2.82852
2.83083
2.83318
2.83554
2.83791
2.84024
2.84253
2.84474
2.84685
2.84884
2.85068
2.85236
2.85386
2.85517
2.85626
2.85712
2.85776
2.85814
2.85828
2.85816
2.85778
2.85713
2.85621
2.85503
2.85357
2.85184
2.84984
2.84758
2.84505
2.84227
2.83924
2.83596
2.83246
2.82873
2.8248
2.82068
2.81639
2.81195
2.8074
2.80275
2.79805
2.79333
2.78862
2.78397
2.7794
2.77497
2.77071
2.76665
2.76281
2.75922
2.75589
2.75282
2.75001
2.74744
2.7451
2.74296
2.74099
2.73917
2.73746
2.73583
2.73426
2.73274
2.73124
2.72975
2.72828
2.7268
2.72534
2.7239
2.72248
2.72111
2.71979
2.71853
2.71735
2.71625
2.71526
2.71436
2.71358
2.7129
2.71233
2.71187
2.71152
2.71127
2.71113
2.71107
2.7111
2.71121
2.71137
2.71158
2.71181
2.71205
2.71229
2.7125
2.71267
2.71279
2.71285
2.80878
2.80889
2.8091
2.80942
2.80985
2.81039
2.81104
2.8118
2.81267
2.81365
2.81472
2.81588
2.81714
2.81847
2.81988
2.82136
2.82291
2.82452
2.82619
2.82793
2.82973
2.83159
2.83352
2.8355
2.83755
2.83964
2.84176
2.84392
2.84608
2.84822
2.85034
2.85241
2.8544
2.8563
2.85809
2.85974
2.86125
2.86258
2.86373
2.86469
2.86544
2.86597
2.86627
2.86634
2.86617
2.86576
2.8651
2.86419
2.86303
2.86161
2.85995
2.85803
2.85587
2.85346
2.85082
2.84794
2.84485
2.84154
2.83803
2.83433
2.83047
2.82645
2.82231
2.81806
2.81374
2.80936
2.80496
2.80058
2.79625
2.792
2.78786
2.78386
2.78004
2.77641
2.77298
2.76978
2.7668
2.76405
2.7615
2.75915
2.75699
2.75497
2.75309
2.75133
2.74965
2.74803
2.74647
2.74495
2.74346
2.74199
2.74054
2.73911
2.73771
2.73634
2.73502
2.73375
2.73255
2.73142
2.73037
2.72941
2.72854
2.72776
2.72709
2.72652
2.72604
2.72567
2.72538
2.72519
2.72508
2.72505
2.72508
2.72516
2.72529
2.72544
2.7256
2.72577
2.72591
2.72604
2.72612
2.72617
2.82178
2.82188
2.82208
2.82239
2.82279
2.8233
2.82392
2.82463
2.82545
2.82636
2.82737
2.82846
2.82963
2.83088
2.83221
2.8336
2.83505
2.83657
2.83815
2.83978
2.84148
2.84323
2.84503
2.84688
2.84878
2.85071
2.85267
2.85464
2.85661
2.85857
2.86049
2.86236
2.86416
2.86587
2.86748
2.86896
2.8703
2.87148
2.87249
2.87333
2.87396
2.8744
2.87463
2.87464
2.87443
2.87399
2.87332
2.87242
2.87128
2.86991
2.8683
2.86646
2.8644
2.8621
2.85959
2.85687
2.85394
2.85082
2.84751
2.84404
2.84041
2.83665
2.83277
2.8288
2.82477
2.82068
2.81658
2.8125
2.80845
2.80448
2.8006
2.79684
2.79324
2.78979
2.78653
2.78345
2.78057
2.77787
2.77536
2.77303
2.77085
2.76882
2.76691
2.76511
2.76339
2.76175
2.76017
2.75863
2.75714
2.75567
2.75424
2.75284
2.75148
2.75016
2.74888
2.74766
2.7465
2.74541
2.74439
2.74346
2.74261
2.74185
2.74118
2.7406
2.74012
2.73972
2.7394
2.73917
2.73901
2.73892
2.73889
2.73891
2.73897
2.73905
2.73915
2.73926
2.73936
2.73944
2.7395
2.73953
2.83467
2.83476
2.83496
2.83525
2.83563
2.83611
2.83669
2.83737
2.83813
2.83898
2.83993
2.84095
2.84205
2.84322
2.84446
2.84577
2.84714
2.84856
2.85005
2.85158
2.85317
2.85481
2.85649
2.85821
2.85997
2.86176
2.86356
2.86537
2.86717
2.86895
2.8707
2.87239
2.87401
2.87555
2.87699
2.87831
2.8795
2.88055
2.88143
2.88215
2.88269
2.88305
2.88321
2.88316
2.88291
2.88245
2.88177
2.88088
2.87977
2.87844
2.87689
2.87512
2.87315
2.87096
2.86858
2.86599
2.86323
2.86028
2.85716
2.8539
2.85049
2.84696
2.84333
2.83962
2.83584
2.83202
2.82819
2.82437
2.82058
2.81686
2.81322
2.80968
2.80627
2.803
2.79988
2.79692
2.79414
2.79151
2.78905
2.78674
2.78457
2.78254
2.78062
2.7788
2.77707
2.77541
2.77382
2.77228
2.77078
2.76933
2.76792
2.76654
2.76521
2.76392
2.76268
2.7615
2.76038
2.75932
2.75834
2.75743
2.7566
2.75585
2.75518
2.7546
2.7541
2.75368
2.75334
2.75307
2.75287
2.75274
2.75265
2.75262
2.75262
2.75265
2.7527
2.75276
2.75281
2.75286
2.7529
2.75292
2.84746
2.84755
2.84774
2.84801
2.84837
2.84883
2.84937
2.85
2.85072
2.85152
2.8524
2.85336
2.85439
2.85549
2.85665
2.85788
2.85916
2.8605
2.86189
2.86333
2.86482
2.86634
2.86791
2.86951
2.87114
2.87278
2.87444
2.8761
2.87774
2.87937
2.88095
2.88248
2.88394
2.88533
2.88661
2.88779
2.88885
2.88977
2.89054
2.89116
2.89161
2.89189
2.89198
2.89189
2.89161
2.89112
2.89044
2.88956
2.88847
2.88718
2.88569
2.884
2.88211
2.88003
2.87776
2.87531
2.87269
2.8699
2.86697
2.86389
2.86069
2.85738
2.85397
2.85049
2.84695
2.84337
2.83978
2.8362
2.83265
2.82915
2.82572
2.82239
2.81916
2.81605
2.81307
2.81023
2.80754
2.80499
2.80258
2.80031
2.79817
2.79614
2.79422
2.7924
2.79067
2.789
2.78741
2.78587
2.78438
2.78294
2.78155
2.7802
2.77889
2.77764
2.77643
2.77528
2.77419
2.77316
2.7722
2.77131
2.7705
2.76976
2.7691
2.76851
2.768
2.76756
2.7672
2.7669
2.76667
2.7665
2.76637
2.76629
2.76625
2.76623
2.76624
2.76625
2.76628
2.7663
2.76632
2.76633
2.86017
2.86025
2.86042
2.86068
2.86102
2.86145
2.86196
2.86255
2.86322
2.86397
2.8648
2.86569
2.86666
2.86769
2.86878
2.86993
2.87113
2.87238
2.87368
2.87503
2.87642
2.87784
2.8793
2.88078
2.88228
2.8838
2.88532
2.88684
2.88834
2.88982
2.89125
2.89264
2.89396
2.8952
2.89635
2.8974
2.89833
2.89914
2.89981
2.90033
2.9007
2.90091
2.90095
2.90081
2.90049
2.9
2.89931
2.89844
2.89738
2.89613
2.89469
2.89306
2.89126
2.88927
2.88712
2.88479
2.88231
2.87968
2.87691
2.87401
2.871
2.86788
2.86468
2.86141
2.85809
2.85474
2.85137
2.84801
2.84467
2.84138
2.83814
2.83499
2.83192
2.82896
2.82612
2.8234
2.8208
2.81832
2.81598
2.81375
2.81164
2.80963
2.80773
2.80592
2.80419
2.80253
2.80094
2.79941
2.79794
2.79651
2.79514
2.79381
2.79253
2.7913
2.79012
2.789
2.78794
2.78694
2.786
2.78513
2.78433
2.78359
2.78293
2.78235
2.78183
2.78138
2.78099
2.78067
2.78041
2.7802
2.78004
2.77992
2.77984
2.77979
2.77976
2.77974
2.77974
2.77974
2.77975
2.77975
2.87278
2.87286
2.87302
2.87326
2.87359
2.87399
2.87447
2.87502
2.87565
2.87635
2.87712
2.87796
2.87886
2.87983
2.88085
2.88192
2.88305
2.88422
2.88543
2.88669
2.88798
2.8893
2.89065
2.89203
2.89341
2.89481
2.89621
2.8976
2.89896
2.90031
2.90161
2.90286
2.90404
2.90516
2.90618
2.90711
2.90794
2.90864
2.90922
2.90966
2.90995
2.9101
2.91008
2.90991
2.90956
2.90905
2.90837
2.9075
2.90647
2.90526
2.90387
2.90231
2.90059
2.89869
2.89664
2.89444
2.89209
2.8896
2.88698
2.88425
2.88141
2.87847
2.87546
2.87239
2.86927
2.86612
2.86295
2.85979
2.85664
2.85354
2.85048
2.84749
2.84459
2.84177
2.83905
2.83643
2.83393
2.83153
2.82925
2.82707
2.825
2.82303
2.82115
2.81935
2.81764
2.81599
2.81441
2.8129
2.81144
2.81003
2.80867
2.80737
2.80611
2.80491
2.80376
2.80266
2.80162
2.80064
2.79972
2.79887
2.79808
2.79736
2.7967
2.79611
2.79558
2.79512
2.79472
2.79438
2.79409
2.79386
2.79367
2.79352
2.79341
2.79332
2.79326
2.79322
2.7932
2.79318
2.79317
2.79317
2.88531
2.88539
2.88554
2.88577
2.88607
2.88645
2.88689
2.88741
2.888
2.88866
2.88938
2.89016
2.89101
2.89191
2.89286
2.89386
2.89491
2.89601
2.89714
2.89831
2.89951
2.90074
2.90199
2.90326
2.90454
2.90582
2.9071
2.90837
2.90962
2.91083
2.91201
2.91314
2.91421
2.9152
2.91612
2.91694
2.91766
2.91827
2.91876
2.91912
2.91935
2.91944
2.91938
2.91917
2.91881
2.91828
2.9176
2.91675
2.91574
2.91456
2.91323
2.91173
2.91008
2.90827
2.90632
2.90423
2.902
2.89964
2.89717
2.89458
2.8919
2.88914
2.88631
2.88341
2.88047
2.87751
2.87452
2.87154
2.86858
2.86564
2.86275
2.85992
2.85716
2.85447
2.85187
2.84936
2.84694
2.84463
2.84241
2.84029
2.83826
2.83633
2.83448
2.83271
2.83101
2.82938
2.82782
2.82632
2.82488
2.82349
2.82216
2.82088
2.81964
2.81846
2.81734
2.81626
2.81524
2.81429
2.81338
2.81254
2.81177
2.81105
2.8104
2.8098
2.80927
2.8088
2.80839
2.80803
2.80773
2.80747
2.80725
2.80708
2.80694
2.80683
2.80675
2.80669
2.80664
2.80661
2.80659
2.80658
2.89777
2.89784
2.89798
2.8982
2.89848
2.89883
2.89925
2.89974
2.90029
2.9009
2.90157
2.90231
2.90309
2.90393
2.90482
2.90576
2.90674
2.90776
2.90881
2.9099
2.91101
2.91215
2.9133
2.91447
2.91565
2.91683
2.918
2.91916
2.9203
2.9214
2.92247
2.92348
2.92444
2.92533
2.92614
2.92686
2.92749
2.92802
2.92843
2.92872
2.92889
2.92893
2.92883
2.92859
2.9282
2.92767
2.92699
2.92615
2.92516
2.92403
2.92274
2.9213
2.91972
2.918
2.91614
2.91415
2.91203
2.9098
2.90746
2.90502
2.90249
2.89988
2.89721
2.89448
2.89171
2.88891
2.8861
2.88328
2.88048
2.87771
2.87497
2.87228
2.86965
2.86708
2.8646
2.86219
2.85986
2.85762
2.85547
2.85341
2.85143
2.84954
2.84772
2.84598
2.84431
2.84271
2.84117
2.83969
2.83827
2.83691
2.83559
2.83433
2.83312
2.83196
2.83086
2.82981
2.82881
2.82787
2.82698
2.82616
2.82539
2.82468
2.82403
2.82344
2.8229
2.82243
2.822
2.82163
2.82131
2.82103
2.8208
2.8206
2.82044
2.82031
2.82021
2.82013
2.82007
2.82003
2.82
2.81999
2.91015
2.91022
2.91035
2.91055
2.91082
2.91115
2.91154
2.91199
2.91251
2.91308
2.91371
2.91439
2.91513
2.91591
2.91674
2.91761
2.91852
2.91947
2.92045
2.92145
2.92249
2.92354
2.92461
2.92568
2.92677
2.92785
2.92892
2.92997
2.93101
2.93201
2.93297
2.93388
2.93474
2.93553
2.93625
2.93688
2.93743
2.93787
2.93822
2.93845
2.93856
2.93856
2.93842
2.93815
2.93775
2.93721
2.93653
2.93571
2.93474
2.93364
2.9324
2.93102
2.9295
2.92786
2.92609
2.92419
2.92218
2.92007
2.91785
2.91554
2.91315
2.91068
2.90816
2.90558
2.90297
2.90033
2.89767
2.89501
2.89236
2.88973
2.88713
2.88458
2.88207
2.87962
2.87724
2.87493
2.87269
2.87053
2.86845
2.86645
2.86452
2.86267
2.86089
2.85919
2.85755
2.85597
2.85446
2.85301
2.85161
2.85026
2.84897
2.84773
2.84655
2.84541
2.84433
2.8433
2.84232
2.84139
2.84052
2.83971
2.83895
2.83825
2.8376
2.83701
2.83648
2.83599
2.83556
2.83518
2.83484
2.83455
2.8343
2.83409
2.83391
2.83376
2.83365
2.83355
2.83348
2.83343
2.8334
2.83338
2.92247
2.92253
2.92266
2.92284
2.92309
2.9234
2.92376
2.92419
2.92467
2.9252
2.92579
2.92642
2.92711
2.92784
2.92861
2.92942
2.93027
2.93114
2.93205
2.93299
2.93394
2.93491
2.9359
2.93689
2.93788
2.93887
2.93985
2.94081
2.94175
2.94265
2.94352
2.94434
2.9451
2.9458
2.94643
2.94699
2.94746
2.94784
2.94812
2.94829
2.94836
2.94831
2.94814
2.94785
2.94743
2.94688
2.94621
2.9454
2.94446
2.94339
2.9422
2.94087
2.93942
2.93784
2.93615
2.93435
2.93244
2.93043
2.92833
2.92614
2.92388
2.92155
2.91916
2.91673
2.91425
2.91176
2.90924
2.90673
2.90422
2.90172
2.89925
2.89682
2.89443
2.8921
2.88982
2.8876
2.88545
2.88336
2.88135
2.8794
2.87753
2.87573
2.87399
2.87232
2.87072
2.86917
2.86769
2.86626
2.86489
2.86357
2.8623
2.86108
2.85992
2.8588
2.85774
2.85673
2.85577
2.85486
2.85401
2.85321
2.85246
2.85176
2.85112
2.85053
2.85
2.84951
2.84907
2.84868
2.84833
2.84803
2.84777
2.84754
2.84735
2.84719
2.84706
2.84695
2.84687
2.84681
2.84677
2.84675
2.93472
2.93478
2.9349
2.93507
2.9353
2.93559
2.93593
2.93632
2.93677
2.93727
2.93782
2.93841
2.93904
2.93972
2.94044
2.94119
2.94198
2.94279
2.94363
2.9445
2.94538
2.94627
2.94718
2.94809
2.949
2.9499
2.95079
2.95167
2.95252
2.95333
2.95411
2.95484
2.95553
2.95615
2.9567
2.95718
2.95758
2.9579
2.95812
2.95824
2.95826
2.95818
2.95798
2.95767
2.95724
2.95669
2.95602
2.95523
2.95431
2.95328
2.95212
2.95084
2.94945
2.94795
2.94633
2.94462
2.9428
2.94089
2.9389
2.93682
2.93468
2.93247
2.93021
2.9279
2.92556
2.9232
2.92082
2.91843
2.91605
2.91369
2.91134
2.90902
2.90675
2.90451
2.90233
2.9002
2.89813
2.89612
2.89417
2.89229
2.89047
2.88872
2.88703
2.8854
2.88383
2.88231
2.88086
2.87946
2.87811
2.87682
2.87557
2.87438
2.87324
2.87215
2.8711
2.87011
2.86917
2.86828
2.86744
2.86665
2.86591
2.86522
2.86459
2.864
2.86346
2.86297
2.86253
2.86213
2.86178
2.86147
2.86119
2.86096
2.86075
2.86058
2.86044
2.86032
2.86024
2.86017
2.86013
2.86011
2.94692
2.94697
2.94708
2.94724
2.94746
2.94772
2.94804
2.94841
2.94883
2.94929
2.9498
2.95035
2.95094
2.95157
2.95223
2.95293
2.95366
2.95441
2.95519
2.95599
2.9568
2.95762
2.95846
2.95929
2.96012
2.96095
2.96176
2.96255
2.96332
2.96405
2.96475
2.96541
2.96601
2.96656
2.96704
2.96745
2.96779
2.96805
2.96822
2.96829
2.96828
2.96816
2.96793
2.9676
2.96717
2.96661
2.96595
2.96517
2.96428
2.96328
2.96216
2.96093
2.9596
2.95816
2.95662
2.95498
2.95325
2.95143
2.94954
2.94757
2.94554
2.94344
2.9413
2.93912
2.9369
2.93466
2.9324
2.93014
2.92788
2.92563
2.92339
2.92119
2.91901
2.91688
2.91479
2.91274
2.91075
2.90881
2.90693
2.90511
2.90335
2.90164
2.89999
2.89841
2.89687
2.8954
2.89397
2.8926
2.89128
2.89001
2.8888
2.88763
2.88651
2.88544
2.88441
2.88344
2.88252
2.88164
2.88081
2.88004
2.87931
2.87863
2.878
2.87742
2.87688
2.87639
2.87595
2.87555
2.87519
2.87487
2.87458
2.87434
2.87412
2.87394
2.87379
2.87367
2.87358
2.87351
2.87346
2.87344
2.95906
2.95911
2.95921
2.95936
2.95956
2.95981
2.9601
2.96044
2.96083
2.96126
2.96173
2.96224
2.96279
2.96338
2.96399
2.96464
2.96531
2.96601
2.96673
2.96746
2.96821
2.96897
2.96973
2.97049
2.97125
2.972
2.97274
2.97346
2.97415
2.97481
2.97543
2.97601
2.97655
2.97703
2.97745
2.9778
2.97808
2.97828
2.97841
2.97844
2.97839
2.97824
2.978
2.97765
2.9772
2.97665
2.97599
2.97523
2.97436
2.97339
2.97231
2.97113
2.96985
2.96847
2.967
2.96543
2.96378
2.96206
2.96025
2.95838
2.95645
2.95447
2.95243
2.95036
2.94826
2.94613
2.94399
2.94184
2.93969
2.93755
2.93542
2.93332
2.93124
2.9292
2.92719
2.92523
2.92332
2.92145
2.91963
2.91787
2.91616
2.91451
2.91291
2.91136
2.90986
2.90842
2.90703
2.90569
2.9044
2.90316