/*--------------------------------*- C++ -*----------------------------------*\
| =========                 |                                                 |
| \\      /  F ield         | OpenFOAM: The Open Source CFD Toolbox           |
|  \\    /   O peration     | Version:  2406                                  |
|   \\  /    A nd           | Website:  www.openfoam.com                      |
|    \\/     M anipulation  |                                                 |
\*---------------------------------------------------------------------------*/
FoamFile
{
    version     2.0;
    format      ascii;
    arch        "LSB;label=32;scalar=64";
    class       volScalarField;
    location    "1.45";
    object      C_0_0;
}
// * * * * * * * * * * * * * * * * * * * * * * * * * * * * * * * * * * * * * //

dimensions      [1 -3 0 0 0 0 0];

internalField   nonuniform List<scalar> 
14400
(
2.60298
2.59971
2.59285
2.58162
2.5637
2.53042
2.49702
2.48574
2.50241
2.54092
2.57808
2.59945
2.61444
2.62545
2.63328
2.63836
2.64086
2.64078
2.63792
2.63178
2.62148
2.60454
2.57264
2.54204
2.53462
2.55592
2.59965
2.64149
2.66718
2.68686
2.70317
2.71697
2.72882
2.73906
2.74796
2.75571
2.76243
2.76823
2.7732
2.7774
2.78087
2.78366
2.78581
2.78732
2.78823
2.78856
2.78829
2.78746
2.78605
2.78407
2.7815
2.77835
2.7746
2.77023
2.76523
2.75956
2.75319
2.74609
2.73821
2.72949
2.71985
2.70922
2.69748
2.6845
2.6701
2.65406
2.63606
2.61569
2.59235
2.56513
2.53084
2.47678
2.41264
2.36369
2.33605
2.32978
2.34476
2.38098
2.43268
2.477
2.50277
2.52101
2.53472
2.54491
2.55221
2.55701
2.55956
2.56
2.55837
2.55464
2.54867
2.54017
2.5287
2.51344
2.49223
2.45536
2.41605
2.39748
2.40585
2.43541
2.46471
2.47891
2.48615
2.48826
2.48563
2.47789
2.46323
2.43341
2.40315
2.39402
2.41185
2.45048
2.48686
2.5077
2.52266
2.5339
2.54224
2.54817
2.55198
2.55385
2.60625
2.60331
2.59722
2.58755
2.57362
2.5526
2.52577
2.51221
2.53124
2.56262
2.58739
2.60493
2.61842
2.62863
2.63603
2.64093
2.64344
2.64357
2.64118
2.63595
2.62737
2.61469
2.59508
2.57063
2.56104
2.58475
2.62094
2.6502
2.67202
2.69023
2.70568
2.71893
2.73041
2.7404
2.74912
2.75673
2.76334
2.76907
2.77397
2.77812
2.78155
2.78431
2.78643
2.78793
2.78882
2.78914
2.78887
2.78803
2.78662
2.78464
2.78209
2.77895
2.77522
2.77087
2.76589
2.76025
2.75393
2.74687
2.73905
2.7304
2.72085
2.71032
2.69872
2.68591
2.67174
2.65601
2.63843
2.61867
2.59622
2.5704
2.54016
2.49968
2.44611
2.39621
2.36941
2.36317
2.37723
2.41435
2.4566
2.4876
2.50901
2.52554
2.53824
2.5478
2.5547
2.55925
2.56167
2.56206
2.56048
2.55689
2.55118
2.54315
2.53248
2.51864
2.50091
2.47632
2.44454
2.42354
2.43425
2.45749
2.47482
2.48538
2.49128
2.49301
2.49074
2.48431
2.47324
2.45539
2.43152
2.42003
2.44024
2.4714
2.49551
2.51287
2.52637
2.53679
2.54465
2.55028
2.55393
2.55572
2.61246
2.61005
2.60516
2.59776
2.58791
2.57631
2.56374
2.55513
2.56881
2.58547
2.60086
2.61444
2.62569
2.6346
2.64129
2.64587
2.6484
2.64889
2.64728
2.64346
2.63737
2.62907
2.6193
2.60896
2.60397
2.62209
2.64305
2.66257
2.68047
2.69637
2.71037
2.72267
2.73349
2.74301
2.75139
2.75873
2.76515
2.77072
2.7755
2.77955
2.7829
2.7856
2.78767
2.78913
2.79
2.79029
2.79001
2.78917
2.78777
2.7858
2.78326
2.78014
2.77644
2.77214
2.76721
2.76163
2.75539
2.74843
2.74071
2.7322
2.72282
2.71251
2.70117
2.68869
2.67495
2.65979
2.64299
2.62432
2.60347
2.58009
2.55386
2.52472
2.49064
2.45382
2.43213
2.42608
2.43498
2.45984
2.4836
2.50326
2.5201
2.53391
2.5449
2.55336
2.55953
2.56363
2.5658
2.5661
2.56459
2.56125
2.55601
2.54878
2.53941
2.52775
2.51376
2.49791
2.48078
2.46549
2.47146
2.48098
2.4897
2.49649
2.50057
2.50175
2.5
2.49535
2.488
2.47871
2.46858
2.46185
2.47639
2.49294
2.50831
2.52188
2.53318
2.54225
2.54927
2.55438
2.55773
2.55938
2.62108
2.61925
2.61563
2.61039
2.60396
2.59731
2.59243
2.59186
2.59676
2.60565
2.61611
2.62629
2.6353
2.6428
2.64866
2.65286
2.65541
2.6563
2.65557
2.65326
2.64956
2.64491
2.64036
2.63803
2.64063
2.64933
2.6621
2.67655
2.69092
2.70441
2.71675
2.72789
2.73787
2.74677
2.75468
2.76167
2.76781
2.77316
2.77776
2.78167
2.78491
2.78752
2.78952
2.79092
2.79175
2.79202
2.79172
2.79087
2.78947
2.78752
2.785
2.78192
2.77827
2.77403
2.76917
2.76369
2.75755
2.75073
2.74318
2.73486
2.72573
2.71571
2.70474
2.69273
2.67959
2.6652
2.64943
2.63215
2.61324
2.59264
2.57047
2.54727
2.52457
2.50395
2.49009
2.48445
2.48676
2.49608
2.50842
2.52175
2.53423
2.54509
2.55409
2.56118
2.56645
2.56996
2.57178
2.57196
2.57053
2.5675
2.56284
2.55655
2.54864
2.53918
2.52848
2.51735
2.50749
2.50119
2.49969
2.5023
2.5065
2.51032
2.51277
2.51342
2.51216
2.50911
2.50468
2.49986
2.4966
2.49741
2.50304
2.51231
2.52292
2.53315
2.5422
2.54977
2.55579
2.56026
2.56321
2.56468
2.63154
2.63023
2.62772
2.62423
2.62023
2.61652
2.61427
2.61473
2.6182
2.62425
2.63166
2.6393
2.64643
2.65263
2.65769
2.66151
2.66406
2.66534
2.66543
2.66446
2.6627
2.66066
2.65918
2.65952
2.66297
2.66981
2.67945
2.69063
2.70225
2.71361
2.72434
2.73426
2.74333
2.75153
2.75889
2.76545
2.77125
2.77633
2.78072
2.78445
2.78755
2.79005
2.79196
2.79329
2.79407
2.7943
2.79398
2.79312
2.79173
2.78979
2.78731
2.78428
2.78069
2.77652
2.77177
2.7664
2.76041
2.75376
2.74641
2.73835
2.72952
2.71987
2.70935
2.69791
2.68548
2.67198
2.65738
2.64162
2.62471
2.60677
2.58809
2.56933
2.55161
2.53651
2.52543
2.52002
2.52027
2.52474
2.53223
2.54108
2.54998
2.55815
2.56517
2.57085
2.57512
2.57796
2.57939
2.57942
2.57808
2.57536
2.57131
2.56595
2.5594
2.55183
2.54365
2.53552
2.52849
2.52372
2.52163
2.52201
2.52368
2.52552
2.52676
2.527
2.52612
2.52424
2.52176
2.51944
2.5184
2.51981
2.52393
2.53035
2.53792
2.54559
2.55269
2.55885
2.56386
2.56765
2.57019
2.57145
2.6433
2.64242
2.64077
2.63857
2.63621
2.63426
2.63341
2.63427
2.63705
2.64149
2.64697
2.65281
2.65848
2.66361
2.66797
2.67143
2.67397
2.67558
2.67635
2.67645
2.67613
2.67584
2.67617
2.67788
2.68159
2.68748
2.69526
2.70427
2.71383
2.72343
2.73272
2.7415
2.74965
2.75712
2.7639
2.77
2.77542
2.78019
2.78433
2.78786
2.7908
2.79317
2.79497
2.79622
2.79694
2.79712
2.79678
2.79591
2.79453
2.79261
2.79017
2.7872
2.78368
2.7796
2.77496
2.76974
2.76392
2.75747
2.75037
2.7426
2.73412
2.72489
2.71489
2.70408
2.69241
2.67988
2.66648
2.65222
2.63721
2.62162
2.60581
2.59034
2.57605
2.56391
2.55489
2.54971
2.54843
2.55037
2.55469
2.56035
2.56646
2.57234
2.57758
2.58192
2.58521
2.58738
2.58841
2.58827
2.58698
2.58457
2.58107
2.57655
2.57116
2.56511
2.55875
2.55259
2.54725
2.54334
2.54112
2.54043
2.5407
2.54131
2.54174
2.5417
2.54107
2.53997
2.53869
2.53773
2.53774
2.53928
2.54253
2.54723
2.5528
2.5586
2.56414
2.56906
2.57315
2.5763
2.57842
2.57949
2.65594
2.65539
2.65437
2.65307
2.65179
2.6509
2.65083
2.6519
2.65423
2.65768
2.66191
2.6665
2.67107
2.67535
2.67912
2.68229
2.6848
2.68666
2.68795
2.68884
2.68954
2.69039
2.6918
2.69423
2.69802
2.70328
2.70984
2.71734
2.72537
2.73356
2.74162
2.74936
2.75664
2.7634
2.7696
2.77521
2.78024
2.78469
2.78856
2.79187
2.79462
2.79684
2.79853
2.79969
2.80033
2.80047
2.8001
2.79923
2.79785
2.79596
2.79356
2.79065
2.78722
2.78325
2.77875
2.77368
2.76805
2.76183
2.75501
2.74755
2.73946
2.73069
2.72124
2.71109
2.70022
2.68866
2.67642
2.66358
2.65027
2.63669
2.62318
2.61019
2.59831
2.58821
2.58048
2.57552
2.57335
2.57363
2.5758
2.57919
2.58315
2.58719
2.5909
2.59404
2.59642
2.59796
2.59858
2.59827
2.59702
2.59486
2.59183
2.58803
2.58359
2.57871
2.57366
2.56882
2.56458
2.56128
2.55907
2.55787
2.5574
2.55728
2.5572
2.55697
2.5565
2.55587
2.55528
2.55505
2.55555
2.55706
2.55967
2.56325
2.56745
2.57189
2.57619
2.5801
2.5834
2.58596
2.58771
2.5886
2.66914
2.66882
2.66824
2.66756
2.66697
2.66673
2.6671
2.66827
2.6703
2.67311
2.67649
2.6802
2.68396
2.68758
2.69089
2.6938
2.69627
2.6983
2.69997
2.7014
2.70279
2.70437
2.70642
2.70922
2.71298
2.71776
2.72347
2.72989
2.73676
2.74382
2.75084
2.75766
2.76416
2.77025
2.77588
2.78102
2.78564
2.78975
2.79334
2.79642
2.79899
2.80104
2.8026
2.80367
2.80424
2.80433
2.80393
2.80304
2.80167
2.79981
2.79747
2.79463
2.79129
2.78744
2.78308
2.77819
2.77277
2.7668
2.76026
2.75316
2.74546
2.73718
2.72829
2.71881
2.70873
2.6981
2.68697
2.67542
2.6636
2.65171
2.64002
2.62892
2.61881
2.61014
2.60331
2.59853
2.59583
2.59501
2.59569
2.59743
2.59978
2.60234
2.6048
2.6069
2.60848
2.60943
2.60968
2.6092
2.60797
2.60601
2.60338
2.60015
2.59645
2.59245
2.58837
2.58445
2.58097
2.57812
2.57601
2.57459
2.57373
2.5732
2.57283
2.57247
2.57209
2.57173
2.57152
2.57165
2.57234
2.57372
2.57585
2.57864
2.58187
2.58529
2.58865
2.59173
2.59437
2.59644
2.59787
2.59859
2.68265
2.68249
2.68222
2.68194
2.6818
2.68196
2.68258
2.68377
2.68558
2.68795
2.69076
2.69383
2.69701
2.70012
2.70307
2.70576
2.70817
2.7103
2.71222
2.71402
2.71585
2.71787
2.72028
2.72326
2.72692
2.73132
2.73638
2.74199
2.74796
2.75411
2.76027
2.76629
2.77208
2.77756
2.78265
2.78732
2.79156
2.79533
2.79864
2.80148
2.80385
2.80575
2.80718
2.80814
2.80863
2.80866
2.80823
2.80734
2.80598
2.80416
2.80187
2.79911
2.79587
2.79215
2.78794
2.78324
2.77804
2.77232
2.76609
2.75934
2.75207
2.74426
2.73594
2.72711
2.7178
2.70805
2.69793
2.68753
2.677
2.66651
2.65629
2.64664
2.63786
2.63025
2.62407
2.61946
2.61644
2.61487
2.61452
2.61507
2.6162
2.61761
2.61904
2.62028
2.62117
2.62161
2.62153
2.62087
2.61964
2.61783
2.61551
2.61274
2.60962
2.60628
2.6029
2.59966
2.59672
2.59422
2.59224
2.59077
2.58972
2.58897
2.58843
2.588
2.58766
2.58744
2.58742
2.58771
2.58842
2.58964
2.59138
2.59358
2.59609
2.59876
2.60138
2.60382
2.60591
2.60757
2.60872
2.6093
2.69633
2.69628
2.69621
2.69619
2.69633
2.69672
2.69748
2.69866
2.7003
2.70235
2.70475
2.70737
2.7101
2.71284
2.71549
2.718
2.72034
2.72252
2.72459
2.72661
2.72871
2.73098
2.73358
2.7366
2.74014
2.7442
2.74876
2.75372
2.75898
2.76438
2.76982
2.77516
2.78033
2.78524
2.78983
2.79407
2.79793
2.80138
2.80441
2.80702
2.80919
2.81092
2.81221
2.81307
2.81349
2.81346
2.813
2.8121
2.81076
2.80897
2.80674
2.80406
2.80093
2.79734
2.79329
2.78879
2.78381
2.77836
2.77244
2.76605
2.75919
2.75187
2.74409
2.73589
2.7273
2.71837
2.70916
2.69978
2.69035
2.68102
2.672
2.66349
2.65573
2.64892
2.64325
2.6388
2.63559
2.63353
2.63244
2.63213
2.63234
2.63286
2.63347
2.634
2.63432
2.63432
2.63394
2.63312
2.63187
2.63018
2.6281
2.62567
2.62299
2.62016
2.61731
2.61455
2.61202
2.60981
2.60798
2.60652
2.60539
2.60454
2.60391
2.60344
2.60311
2.60295
2.603
2.60333
2.60399
2.60504
2.60645
2.6082
2.61017
2.61225
2.61432
2.61623
2.61789
2.61921
2.62013
2.62059
2.71006
2.71008
2.71014
2.71029
2.71059
2.71112
2.71194
2.7131
2.7146
2.71642
2.71851
2.72079
2.72319
2.72563
2.72805
2.7304
2.73266
2.73485
2.73699
2.73914
2.74138
2.74378
2.74644
2.74944
2.75282
2.75659
2.76072
2.76517
2.76984
2.77463
2.77945
2.78421
2.78883
2.79323
2.79737
2.80121
2.80471
2.80785
2.81061
2.81298
2.81496
2.81653
2.81769
2.81844
2.81878
2.8187
2.81821
2.8173
2.81597
2.81422
2.81205
2.80946
2.80644
2.80299
2.79911
2.7948
2.79005
2.78487
2.77927
2.77323
2.76678
2.75992
2.75267
2.74507
2.73715
2.72896
2.72057
2.71208
2.70359
2.69524
2.68719
2.6796
2.67264
2.66647
2.6612
2.65691
2.65359
2.6512
2.6496
2.64865
2.64818
2.64801
2.64797
2.64794
2.64778
2.64741
2.64677
2.64582
2.64453
2.64293
2.64102
2.63886
2.63652
2.63407
2.6316
2.62922
2.62701
2.62503
2.62333
2.62193
2.62079
2.6199
2.61922
2.61872
2.6184
2.61825
2.61831
2.61861
2.61919
2.62005
2.6212
2.62258
2.62414
2.62577
2.62739
2.6289
2.63021
2.63126
2.63198
2.63236
2.72377
2.72384
2.72397
2.72423
2.72463
2.72523
2.72608
2.72719
2.72857
2.73021
2.73207
2.7341
2.73625
2.73845
2.74068
2.74289
2.74507
2.74723
2.74938
2.75158
2.75388
2.75632
2.75898
2.76189
2.7651
2.7686
2.77238
2.77639
2.78058
2.78485
2.78915
2.7934
2.79753
2.80148
2.80521
2.80868
2.81184
2.81469
2.81719
2.81935
2.82113
2.82254
2.82358
2.82422
2.82449
2.82436
2.82384
2.82292
2.82161
2.8199
2.81779
2.81529
2.81238
2.80907
2.80536
2.80124
2.79673
2.79182
2.78651
2.78083
2.77477
2.76835
2.76161
2.75456
2.74725
2.73974
2.73208
2.72437
2.71669
2.70917
2.70192
2.69507
2.68876
2.6831
2.67818
2.67403
2.67068
2.66806
2.66611
2.6647
2.66372
2.66302
2.66248
2.66199
2.66145
2.66078
2.65992
2.65884
2.65752
2.65597
2.65419
2.65223
2.65014
2.64798
2.64582
2.64372
2.64175
2.63996
2.6384
2.63706
2.63595
2.63506
2.63436
2.63384
2.6335
2.63334
2.63337
2.63362
2.63409
2.63479
2.63571
2.6368
2.63802
2.6393
2.64057
2.64176
2.64279
2.64362
2.64419
2.64449
2.73743
2.73751
2.7377
2.73801
2.73847
2.7391
2.73994
2.741
2.74229
2.74378
2.74546
2.74729
2.74924
2.75126
2.75332
2.7554
2.75749
2.7596
2.76174
2.76393
2.76622
2.76865
2.77125
2.77405
2.77708
2.78034
2.78381
2.78745
2.79121
2.79505
2.79891
2.80271
2.80641
2.80996
2.81332
2.81644
2.8193
2.82187
2.82413
2.82607
2.82768
2.82894
2.82985
2.83039
2.83058
2.8304
2.82985
2.82893
2.82764
2.82597
2.82393
2.82151
2.81872
2.81555
2.812
2.80808
2.8038
2.79915
2.79414
2.78879
2.78311
2.77712
2.77084
2.76431
2.75757
2.75066
2.74366
2.73662
2.72964
2.72281
2.71624
2.71001
2.70424
2.69901
2.69437
2.69037
2.68702
2.68427
2.68206
2.68033
2.67897
2.67787
2.67694
2.67609
2.67524
2.67432
2.67329
2.6721
2.67075
2.66922
2.66755
2.66574
2.66384
2.6619
2.65996
2.65808
2.65631
2.65468
2.65323
2.65196
2.65089
2.65001
2.64931
2.64878
2.64842
2.64823
2.64822
2.6484
2.64876
2.64931
2.65003
2.65089
2.65185
2.65285
2.65384
2.65477
2.65558
2.65623
2.65668
2.65691
2.75099
2.75109
2.7513
2.75164
2.75212
2.75277
2.75359
2.7546
2.75579
2.75717
2.7587
2.76037
2.76215
2.76401
2.76594
2.7679
2.7699
2.77194
2.77403
2.77618
2.77843
2.7808
2.78331
2.78599
2.78884
2.79187
2.79505
2.79837
2.80178
2.80524
2.8087
2.81212
2.81545
2.81864
2.82165
2.82446
2.82704
2.82935
2.83139
2.83313
2.83457
2.83568
2.83647
2.83693
2.83704
2.83681
2.83624
2.83532
2.83405
2.83242
2.83044
2.82811
2.82543
2.8224
2.81902
2.81529
2.81123
2.80684
2.80212
2.79709
2.79177
2.78617
2.78033
2.77428
2.76804
2.76169
2.75525
2.74881
2.74244
2.73621
2.7302
2.7245
2.71918
2.7143
2.70993
2.70607
2.70274
2.69992
2.69755
2.69559
2.69394
2.69255
2.69133
2.6902
2.6891
2.68799
2.6868
2.68553
2.68414
2.68264
2.68103
2.67934
2.67758
2.67581
2.67405
2.67234
2.67072
2.66922
2.66787
2.66667
2.66564
2.66478
2.66408
2.66354
2.66316
2.66294
2.66288
2.66299
2.66325
2.66367
2.66422
2.66488
2.66562
2.6664
2.66717
2.66789
2.66853
2.66903
2.66939
2.66957
2.76444
2.76455
2.76478
2.76513
2.76562
2.76625
2.76704
2.768
2.76912
2.77039
2.7718
2.77334
2.77498
2.77671
2.77851
2.78037
2.78227
2.78423
2.78625
2.78834
2.79052
2.79281
2.79521
2.79775
2.80043
2.80324
2.80617
2.8092
2.81229
2.81542
2.81854
2.82162
2.82461
2.82748
2.83019
2.83272
2.83504
2.83712
2.83895
2.8405
2.84178
2.84275
2.84343
2.84379
2.84384
2.84357
2.84298
2.84205
2.8408
2.83922
2.83731
2.83507
2.8325
2.8296
2.82638
2.82284
2.81899
2.81484
2.8104
2.80568
2.80069
2.79547
2.79003
2.78441
2.77865
2.77278
2.76686
2.76094
2.75509
2.74938
2.74385
2.7386
2.73367
2.72911
2.72496
2.72125
2.71797
2.71511
2.71264
2.71051
2.70867
2.70706
2.70561
2.70427
2.70299
2.70171
2.70041
2.69906
2.69764
2.69615
2.6946
2.69299
2.69135
2.6897
2.68808
2.6865
2.68501
2.68362
2.68235
2.68122
2.68023
2.67939
2.67869
2.67815
2.67775
2.67749
2.67738
2.67741
2.67758
2.67788
2.67829
2.67879
2.67936
2.67996
2.68055
2.68111
2.6816
2.68199
2.68227
2.68241
2.77779
2.7779
2.77813
2.77848
2.77896
2.77958
2.78034
2.78124
2.78228
2.78347
2.78478
2.7862
2.78773
2.78934
2.79103
2.79278
2.79459
2.79646
2.7984
2.80041
2.8025
2.80469
2.80698
2.80937
2.81188
2.81448
2.81718
2.81995
2.82277
2.82561
2.82843
2.8312
2.8339
2.83648
2.83892
2.84119
2.84327
2.84514
2.84677
2.84815
2.84928
2.85013
2.8507
2.85098
2.85097
2.85065
2.85004
2.84911
2.84788
2.84635
2.8445
2.84235
2.83988
2.83712
2.83406
2.8307
2.82706
2.82314
2.81896
2.81453
2.80986
2.80498
2.79992
2.79469
2.78935
2.78392
2.77846
2.77301
2.76762
2.76234
2.75725
2.75237
2.74778
2.7435
2.73956
2.73598
2.73277
2.72991
2.72739
2.72515
2.72317
2.7214
2.71979
2.71829
2.71686
2.71546
2.71407
2.71266
2.71122
2.70973
2.70822
2.70668
2.70512
2.70357
2.70206
2.70059
2.69919
2.69789
2.69669
2.69561
2.69466
2.69384
2.69316
2.6926
2.69218
2.6919
2.69174
2.6917
2.69179
2.69198
2.69227
2.69264
2.69306
2.69351
2.69396
2.69439
2.69476
2.69507
2.69528
2.69539
2.79102
2.79113
2.79136
2.7917
2.79217
2.79276
2.79348
2.79433
2.79531
2.79642
2.79764
2.79896
2.80038
2.80189
2.80348
2.80513
2.80685
2.80863
2.81048
2.8124
2.81439
2.81647
2.81863
2.82088
2.82322
2.82564
2.82812
2.83066
2.83323
2.83581
2.83836
2.84087
2.8433
2.84562
2.84782
2.84985
2.85172
2.85338
2.85484
2.85606
2.85705
2.85778
2.85825
2.85846
2.85839
2.85804
2.8574
2.85648
2.85528
2.85378
2.852
2.84993
2.84758
2.84494
2.84203
2.83885
2.8354
2.83171
2.82777
2.82361
2.81923
2.81468
2.80995
2.8051
2.80013
2.7951
2.79005
2.785
2.78002
2.77514
2.77041
2.76587
2.76157
2.75754
2.75379
2.75035
2.74722
2.74438
2.74183
2.73954
2.73747
2.73558
2.73385
2.73223
2.7307
2.72921
2.72774
2.72629
2.72482
2.72335
2.72186
2.72037
2.71889
2.71742
2.71598
2.7146
2.71328
2.71205
2.71092
2.70989
2.70897
2.70817
2.70749
2.70693
2.70649
2.70617
2.70597
2.70587
2.70588
2.70599
2.70618
2.70643
2.70674
2.70707
2.7074
2.70772
2.708
2.70823
2.70839
2.70847
2.80414
2.80425
2.80447
2.8048
2.80525
2.80581
2.8065
2.8073
2.80822
2.80925
2.81039
2.81162
2.81295
2.81437
2.81585
2.81741
2.81904
2.82073
2.82248
2.8243
2.82619
2.82816
2.83019
2.8323
2.83448
2.83672
2.83901
2.84134
2.84368
2.84603
2.84834
2.85061
2.8528
2.85489
2.85686
2.85869
2.86036
2.86184
2.86313
2.86421
2.86507
2.86569
2.86608
2.86621
2.86608
2.8657
2.86505
2.86414
2.86296
2.8615
2.85978
2.8578
2.85555
2.85303
2.85027
2.84725
2.84399
2.84051
2.8368
2.83289
2.8288
2.82453
2.82013
2.8156
2.81099
2.80631
2.80162
2.79694
2.79231
2.78778
2.78338
2.77914
2.7751
2.77129
2.76772
2.76441
2.76137
2.75857
2.75602
2.7537
2.75157
2.74961
2.7478
2.7461
2.74448
2.74293
2.74141
2.73992
2.73845
2.73698
2.73551
2.73406
2.73263
2.73122
2.72986
2.72854
2.72729
2.72612
2.72503
2.72404
2.72315
2.72237
2.7217
2.72113
2.72067
2.72033
2.72008
2.71993
2.71988
2.71991
2.72001
2.72018
2.72038
2.72061
2.72085
2.72109
2.72129
2.72146
2.72158
2.72164
2.81715
2.81725
2.81746
2.81778
2.81821
2.81874
2.81939
2.82015
2.82101
2.82197
2.82304
2.82419
2.82544
2.82676
2.82816
2.82963
2.83116
2.83276
2.83442
2.83614
2.83793
2.83977
2.84169
2.84366
2.84568
2.84776
2.84987
2.852
2.85414
2.85627
2.85837
2.86042
2.8624
2.86428
2.86605
2.86769
2.86918
2.8705
2.87164
2.87259
2.87332
2.87385
2.87415
2.87421
2.87404
2.87363
2.87297
2.87206
2.8709
2.86949
2.86783
2.86593
2.86378
2.86138
2.85875
2.8559
2.85282
2.84953
2.84604
2.84237
2.83852
2.83453
2.83042
2.82619
2.82189
2.81754
2.81318
2.80882
2.80452
2.80029
2.79618
2.79221
2.78841
2.7848
2.7814
2.77821
2.77526
2.77252
2.76999
2.76765
2.7655
2.7635
2.76163
2.75988
2.75821
2.7566
2.75505
2.75354
2.75206
2.75059
2.74915
2.74773
2.74634
2.74499
2.74367
2.74242
2.74122
2.74009
2.73905
2.73809
2.73723
2.73646
2.73579
2.73522
2.73475
2.73438
2.7341
2.7339
2.73379
2.73376
2.73379
2.73387
2.734
2.73415
2.73431
2.73447
2.73462
2.73474
2.73483
2.73487
2.83005
2.83015
2.83035
2.83065
2.83106
2.83157
2.83217
2.83288
2.83369
2.8346
2.83559
2.83668
2.83784
2.83908
2.8404
2.84178
2.84322
2.84473
2.84629
2.84791
2.84959
2.85133
2.85312
2.85495
2.85683
2.85875
2.86069
2.86265
2.8646
2.86654
2.86845
2.8703
2.87209
2.87378
2.87537
2.87684
2.87816
2.87934
2.88034
2.88116
2.88179
2.88222
2.88245
2.88245
2.88224
2.8818
2.88113
2.88023
2.8791
2.87773
2.87613
2.8743
2.87225
2.86997
2.86747
2.86476
2.86185
2.85874
2.85546
2.85201
2.8484
2.84466
2.84081
2.83686
2.83285
2.82879
2.82472
2.82066
2.81664
2.81269
2.80883
2.8051
2.80151
2.79809
2.79485
2.79179
2.78893
2.78625
2.78376
2.78143
2.77927
2.77725
2.77536
2.77356
2.77186
2.77023
2.76866
2.76713
2.76564
2.76419
2.76277
2.76138
2.76002
2.75871
2.75744
2.75623
2.75507
2.75399
2.75298
2.75205
2.75121
2.75046
2.74979
2.74921
2.74873
2.74833
2.74802
2.74779
2.74763
2.74754
2.74751
2.74753
2.74759
2.74767
2.74777
2.74788
2.74797
2.74805
2.74811
2.74814
2.84285
2.84294
2.84313
2.84342
2.8438
2.84428
2.84486
2.84552
2.84628
2.84713
2.84806
2.84908
2.85017
2.85133
2.85256
2.85386
2.85522
2.85663
2.8581
2.85963
2.8612
2.86283
2.8645
2.8662
2.86795
2.86972
2.8715
2.8733
2.87508
2.87685
2.87858
2.88026
2.88187
2.88339
2.88482
2.88612
2.8873
2.88834
2.88922
2.88993
2.89046
2.89081
2.89096
2.89092
2.89066
2.8902
2.88953
2.88863
2.88753
2.8862
2.88466
2.8829
2.88094
2.87877
2.87639
2.87382
2.87107
2.86814
2.86504
2.8618
2.85841
2.8549
2.85129
2.8476
2.84385
2.84005
2.83625
2.83245
2.82869
2.82498
2.82136
2.81785
2.81446
2.81121
2.80811
2.80518
2.8024
2.7998
2.79735
2.79506
2.7929
2.79088
2.78897
2.78716
2.78544
2.7838
2.78221
2.78068
2.7792
2.77775
2.77635
2.77498
2.77366
2.77238
2.77115
2.76997
2.76886
2.76781
2.76683
2.76593
2.7651
2.76436
2.76369
2.76312
2.76262
2.7622
2.76186
2.7616
2.7614
2.76126
2.76118
2.76115
2.76115
2.76118
2.76123
2.76128
2.76134
2.76139
2.76143
2.76144
2.85555
2.85564
2.85582
2.85609
2.85645
2.8569
2.85744
2.85807
2.85878
2.85958
2.86045
2.8614
2.86242
2.86351
2.86467
2.86588
2.86716
2.86848
2.86986
2.87129
2.87276
2.87428
2.87583
2.87742
2.87903
2.88067
2.88231
2.88395
2.88558
2.88719
2.88876
2.89028
2.89173
2.8931
2.89437
2.89554
2.89658
2.8975
2.89826
2.89887
2.89932
2.89959
2.89968
2.89958
2.8993
2.89881
2.89813
2.89725
2.89617
2.89488
2.8934
2.89172
2.88984
2.88777
2.88551
2.88308
2.88047
2.8777
2.87478
2.87172
2.86854
2.86525
2.86186
2.8584
2.85488
2.85133
2.84776
2.8442
2.84067
2.8372
2.83379
2.83047
2.82726
2.82417
2.82121
2.81839
2.81572
2.81318
2.81079
2.80853
2.8064
2.80439
2.80248
2.80067
2.79895
2.7973
2.79571
2.79418
2.79271
2.79128
2.78989
2.78855
2.78725
2.786
2.7848
2.78366
2.78258
2.78156
2.7806
2.77972
2.77891
2.77817
2.77752
2.77693
2.77643
2.77599
2.77563
2.77534
2.7751
2.77493
2.77481
2.77473
2.77468
2.77467
2.77467
2.77469
2.77471
2.77474
2.77475
2.77476
2.86816
2.86825
2.86842
2.86867
2.86901
2.86944
2.86994
2.87053
2.8712
2.87194
2.87276
2.87365
2.8746
2.87563
2.87671
2.87785
2.87904
2.88028
2.88157
2.88291
2.88428
2.88569
2.88714
2.88861
2.8901
2.8916
2.89311
2.89462
2.89611
2.89757
2.89899
2.90036
2.90167
2.9029
2.90404
2.90508
2.906
2.9068
2.90746
2.90798
2.90834
2.90854
2.90858
2.90844
2.90812
2.90762
2.90694
2.90607
2.90501
2.90377
2.90234
2.90072
2.89892
2.89695
2.89481
2.8925
2.89003
2.88741
2.88466
2.88177
2.87878
2.87568
2.8725
2.86925
2.86595
2.86262
2.85927
2.85593
2.85261
2.84934
2.84612
2.84299
2.83994
2.837
2.83417
2.83147
2.82888
2.82643
2.82409
2.82188
2.81978
2.81779
2.8159
2.8141
2.81238
2.81073
2.80915
2.80763
2.80617
2.80475
2.80338
2.80207
2.80079
2.79957
2.7984
2.79729
2.79623
2.79524
2.7943
2.79344
2.79264
2.79192
2.79126
2.79067
2.79016
2.78971
2.78933
2.78901
2.78875
2.78854
2.78838
2.78827
2.78818
2.78813
2.7881
2.78809
2.78808
2.78809
2.78809
2.78809
2.88069
2.88077
2.88093
2.88117
2.88149
2.88188
2.88236
2.88291
2.88353
2.88423
2.885
2.88583
2.88672
2.88768
2.88869
2.88975
2.89087
2.89203
2.89324
2.89448
2.89576
2.89707
2.89841
2.89977
2.90115
2.90254
2.90392
2.9053
2.90665
2.90798
2.90927
2.91051
2.91169
2.91279
2.9138
2.91473
2.91554
2.91623
2.9168
2.91724
2.91753
2.91767
2.91765
2.91747
2.91713
2.91662
2.91593
2.91508
2.91404
2.91284
2.91146
2.90991
2.90819
2.90631
2.90427
2.90207
2.89973
2.89726
2.89466
2.89194
2.88912
2.8862
2.88321
2.88015
2.87705
2.87392
2.87077
2.86763
2.8645
2.86142
2.85838
2.85541
2.85252
2.84972
2.84702
2.84442
2.84193
2.83955
2.83728
2.83511
2.83306
2.8311
2.82923
2.82744
2.82574
2.8241
2.82254
2.82103
2.81958
2.81818
2.81683
2.81553
2.81429
2.81309
2.81195
2.81086
2.80982
2.80885
2.80794
2.80709
2.8063
2.80558
2.80493
2.80434
2.80382
2.80336
2.80297
2.80263
2.80234
2.80211
2.80192
2.80177
2.80166
2.80157
2.80152
2.80147
2.80145
2.80143
2.80142
2.80142
2.89313
2.89321
2.89336
2.89358
2.89388
2.89425
2.8947
2.89521
2.8958
2.89645
2.89716
2.89794
2.89878
2.89967
2.90062
2.90161
2.90265
2.90374
2.90486
2.90602
2.90721
2.90843
2.90967
2.91093
2.91219
2.91347
2.91473
2.91599
2.91723
2.91844
2.9196
2.92072
2.92178
2.92276
2.92367
2.92448
2.92519
2.9258
2.92628
2.92664
2.92686
2.92695
2.92689
2.92667
2.92631
2.92578
2.9251
2.92425
2.92325
2.92208
2.92075
2.91926
2.91761
2.91582
2.91388
2.91179
2.90958
2.90723
2.90477
2.90221
2.89954
2.8968
2.89398
2.8911
2.88818
2.88523
2.88227
2.8793
2.87636
2.87344
2.87057
2.86775
2.86501
2.86233
2.85975
2.85726
2.85486
2.85255
2.85035
2.84824
2.84623
2.84431
2.84247
2.84071
2.83902
2.83741
2.83586
2.83437
2.83293
2.83155
2.83023
2.82895
2.82773
2.82655
2.82543
2.82437
2.82335
2.8224
2.82151
2.82067
2.8199
2.81919
2.81854
2.81795
2.81742
2.81695
2.81654
2.81619
2.81588
2.81562
2.81541
2.81524
2.8151
2.81499
2.81491
2.81485
2.8148
2.81477
2.81475
2.81475
2.9055
2.90557
2.90571
2.90592
2.9062
2.90655
2.90697
2.90745
2.90799
2.9086
2.90927
2.91
2.91078
2.91161
2.91249
2.91342
2.91439
2.9154
2.91645
2.91752
2.91863
2.91976
2.9209
2.92206
2.92323
2.9244
2.92556
2.92671
2.92783
2.92893
2.92998
2.93099
2.93194
2.93282
2.93362
2.93433
2.93496
2.93548
2.93588
2.93617
2.93634
2.93637
2.93627
2.93603
2.93564
2.93511
2.93443
2.93359
2.93261
2.93148
2.93019
2.92877
2.92719
2.92548
2.92363
2.92165
2.91954
2.91732
2.915
2.91257
2.91005
2.90746
2.9048
2.90209
2.89934
2.89656
2.89376
2.89096
2.88818
2.88542
2.8827
2.88003
2.87741
2.87487
2.87239
2.87
2.86769
2.86546
2.86333
2.86128
2.85931
2.85743
2.85562
2.85389
2.85224
2.85064
2.84911
2.84764
2.84623
2.84487
2.84357
2.84231
2.84111
2.83996
2.83886
2.83782
2.83683
2.83589
2.83501
2.83419
2.83343
2.83272
2.83208
2.83149
2.83096
2.83048
2.83006
2.82969
2.82937
2.8291
2.82886
2.82867
2.82851
2.82838
2.82828
2.8282
2.82814
2.8281
2.82807
2.82806
2.91779
2.91786
2.91799
2.91819
2.91845
2.91878
2.91917
2.91962
2.92013
2.92069
2.92132
2.922
2.92272
2.9235
2.92432
2.92519
2.92609
2.92703
2.928
2.929
2.93002
2.93107
2.93212
2.93319
2.93427
2.93534
2.9364
2.93744
2.93847
2.93946
2.94041
2.94131
2.94216
2.94295
2.94366
2.94428
2.94482
2.94526
2.9456
2.94583
2.94594
2.94593
2.94579
2.94552
2.94512
2.94458
2.9439
2.94308
2.94212
2.94103
2.93979
2.93842
2.93691
2.93527
2.93351
2.93162
2.92963
2.92752
2.92532
2.92302
2.92064
2.91819
2.91568
2.91312
2.91052
2.9079
2.90525
2.90261
2.89998
2.89736
2.89478
2.89224
2.88975
2.88732
2.88495
2.88266
2.88043
2.87828
2.87622
2.87422
2.87231
2.87047
2.86871
2.86701
2.86538
2.86382
2.86231
2.86087
2.85948
2.85814
2.85686
2.85563
2.85445
2.85332
2.85224
2.85122
2.85024
2.84933
2.84846
2.84765
2.8469
2.8462
2.84556
2.84497
2.84444
2.84396
2.84353
2.84315
2.84282
2.84253
2.84228
2.84207
2.84189
2.84174
2.84162
2.84153
2.84146
2.84141
2.84138
2.84136
2.93002
2.93008
2.93021
2.93039
2.93064
2.93094
2.9313
2.93172
2.9322
2.93273
2.93331
2.93394
2.93462
2.93534
2.93611
2.93691
2.93775
2.93862
2.93952
2.94045
2.9414
2.94236
2.94333
2.94432
2.9453
2.94628
2.94725
2.9482
2.94913
2.95003
2.95088
2.9517
2.95245
2.95315
2.95377
2.95432
2.95478
2.95516
2.95543
2.9556
2.95566
2.95561
2.95544
2.95515
2.95473
2.95419
2.95351
2.95271
2.95178
2.95071
2.94952
2.9482
2.94675
2.94519
2.94351
2.94171
2.93981
2.93782
2.93573
2.93355
2.9313
2.92898
2.92661
2.92419
2.92173
2.91925
2.91675
2.91425
2.91175
2.90927
2.90682
2.90441
2.90203
2.89971
2.89744
2.89524
2.8931
2.89103
2.88903
2.88709
2.88523
2.88344
2.88172
2.88006
2.87846
2.87693
2.87545
2.87403
2.87267
2.87135
2.87009
2.86889
2.86773
2.86662
2.86557
2.86456
2.86361
2.8627
2.86185
2.86106
2.86031
2.85962
2.85899
2.8584
2.85787
2.85738
2.85695
2.85656
2.85622
2.85591
2.85565
2.85543
2.85524
2.85508
2.85494
2.85484
2.85476
2.8547
2.85466
2.85464
2.94219
2.94225
2.94236
2.94253
2.94276
2.94305
2.94338
2.94378
2.94422
2.94471
2.94525
2.94584
2.94647
2.94715
2.94786
2.9486
2.94938
2.95019
2.95102
2.95188
2.95275
2.95364
2.95454
2.95544
2.95634
2.95724
2.95812
2.95898
2.95982
2.96063
2.9614
2.96213
2.9628
2.96342
2.96397
2.96444
2.96484
2.96515
2.96536
2.96548
2.9655
2.96541
2.96521
2.9649
2.96447
2.96392
2.96326
2.96247
2.96156
2.96052
2.95937
2.9581
2.95672
2.95522
2.95362
2.95191
2.9501
2.9482
2.94622
2.94416
2.94202
2.93983
2.93758
2.93529
2.93296
2.93061
2.92825
2.92588
2.92351
2.92116
2.91883
2.91652
2.91426
2.91204
2.90987
2.90775
2.9057
2.9037
2.90176
2.89989
2.89809
2.89634
2.89466
2.89304
2.89148
2.88998
2.88853
2.88714
2.8858
2.88451
2.88328
2.88209
2.88096
2.87987
2.87884
2.87785
2.87691
2.87603
2.87519
2.87441
2.87368
2.87299
2.87236
2.87178
2.87124
2.87076
2.87032
2.86992
2.86957
2.86926
2.86899
2.86875
2.86855
2.86838
2.86824
2.86812
2.86803
2.86797
2.86793
2.86791
2.9543
2.95435
2.95446
2.95462
2.95483
2.95509
2.95541
2.95577
2.95619
2.95665
2.95715
2.9577
2.95828
2.95891
2.95957
2.96026
2.96098
2.96173
2.9625
2.96329
2.96409
2.96491
2.96573
2.96656
2.96738
2.9682
2.969
2.96979
2.97055
2.97128
2.97197
2.97262
2.97321
2.97375
2.97423
2.97464
2.97497
2.97522
2.97539
2.97547
2.97544
2.97532
2.9751
2.97477
2.97433
2.97378
2.97312
2.97234
2.97146
2.97046
2.96934
2.96812
2.96679
2.96536
2.96383
2.9622
2.96048
2.95867
2.95679
2.95483
2.95281
2.95073
2.9486
2.94643
2.94422
2.94199
2.93975
2.9375
2.93525
2.93302
2.9308
2.9286
2.92644
2.92432
2.92224
2.92021
2.91823
2.91631
2.91444
2.91263
2.91087
2.90918
2.90754
2.90596
2.90444
2.90297
2.90156
2.90019
2.89888
2.89762
2.89641
2.89525
2.89414
2.89307
2.89206
2.89109
2.89017
2.8893
2.88848
2.88771
2.88698
2.88631
2.88568
2.8851
2.88457
2.88408
2.88364
2.88324
2.88288
2.88257
2.88229
2.88204
2.88183
2.88165
2.8815
2.88138
2.88128
2.88121
2.88117
2.88115
2.96635
2.9664
2.9665
2.96665
2.96684
2.96709
2.96738
2.96772
2.96811
2.96853
2.969
2.96951
2.97005
2.97063
2.97124
2.97188
2.97255
2.97324
2.97395
2.97468
2.97542
2.97617
2.97693
2.97768
2.97844
2.97918
2.97991
2.98062
2.9813
2.98196
2.98258
2.98315
2.98368
2.98415
2.98456
2.98491
2.98519
2.98539
2.98551
2.98554
2.98549
2.98534
2.98509
2.98475
2.9843
2.98375
2.98309
2.98233
2.98147
2.9805
2.97942
2.97825
2.97697
2.9756
2.97414
2.97258
2.97094
2.96922
2.96743
2.96557
2.96365
2.96168
2.95965
2.95759
2.9555
2.95339
2.95126
2.94912
2.94699
2.94486
2.94274
2.94065
2.93859
2.93656
2.93457
2.93262
2.93071
2.92886
2.92705
2.9253
2.9236
2.92196
2.92037
2.91883
2.91734
2.91591
2.91453
2.9132
2.91191
2.91068
2.90949
2.90836