/*--------------------------------*- C++ -*----------------------------------*\
| =========                 |                                                 |
| \\      /  F ield         | OpenFOAM: The Open Source CFD Toolbox           |
|  \\    /   O peration     | Version:  2406                                  |
|   \\  /    A nd           | Website:  www.openfoam.com                      |
|    \\/     M anipulation  |                                                 |
\*---------------------------------------------------------------------------*/
FoamFile
{
    version     2.0;
    format      ascii;
    arch        "LSB;label=32;scalar=64";
    class       volScalarField;
    location    "5.9";
    object      D;
}
// * * * * * * * * * * * * * * * * * * * * * * * * * * * * * * * * * * * * * //

dimensions      [0 2 -1 0 0 0 0];

internalField   nonuniform List<scalar> 
14400
(
6.31983e-05
6.30429e-05
6.28105e-05
6.25732e-05
6.2371e-05
6.22208e-05
6.21286e-05
6.2097e-05
6.21293e-05
6.2232e-05
6.24149e-05
6.26898e-05
6.30626e-05
6.35074e-05
6.39022e-05
6.39586e-05
6.34354e-05
6.27018e-05
6.20051e-05
6.14129e-05
6.0922e-05
6.05131e-05
6.01683e-05
5.98748e-05
5.96251e-05
5.94162e-05
5.92484e-05
5.9126e-05
5.9057e-05
5.90551e-05
5.91438e-05
5.93663e-05
5.98104e-05
6.06901e-05
6.27064e-05
6.95802e-05
0.000133518
0.00013824
0.00013824
0.00013824
0.00013824
0.00013824
0.00013824
0.00013824
0.00013824
0.00013824
0.00013824
0.00013824
0.00013824
0.00013824
0.00013824
0.00013824
0.00013824
0.00013824
0.00013824
0.00013824
0.00013824
0.00013824
0.00013824
0.00013824
0.00013824
0.000111083
6.71442e-05
6.20585e-05
6.05761e-05
5.99381e-05
5.96439e-05
5.95361e-05
5.95466e-05
5.96394e-05
5.97917e-05
5.99867e-05
6.02099e-05
6.04475e-05
6.06869e-05
6.09173e-05
6.11318e-05
6.13292e-05
6.15168e-05
6.17119e-05
6.19452e-05
6.22679e-05
6.27709e-05
6.36482e-05
6.54732e-05
7.12052e-05
0.000114913
0.00013824
0.000129302
7.29396e-05
6.60514e-05
6.38216e-05
6.27634e-05
6.21835e-05
6.18542e-05
6.16764e-05
6.15983e-05
6.15888e-05
6.16258e-05
6.16912e-05
6.17667e-05
6.18324e-05
6.18678e-05
6.18563e-05
6.17922e-05
6.16844e-05
6.15514e-05
6.14137e-05
6.12902e-05
6.11974e-05
6.11513e-05
6.11706e-05
6.12814e-05
6.15268e-05
6.19886e-05
6.28533e-05
6.46931e-05
7.05291e-05
0.000117844
0.00013824
6.3476e-05
6.32294e-05
6.29006e-05
6.25924e-05
6.23443e-05
6.21665e-05
6.20593e-05
6.2022e-05
6.20566e-05
6.21704e-05
6.23766e-05
6.26959e-05
6.31539e-05
6.37639e-05
6.44504e-05
6.48113e-05
6.39474e-05
6.29415e-05
6.21002e-05
6.14374e-05
6.0913e-05
6.04892e-05
6.01392e-05
5.98461e-05
5.96001e-05
5.93971e-05
5.92372e-05
5.91243e-05
5.90669e-05
5.90798e-05
5.9189e-05
5.94435e-05
5.99498e-05
6.09999e-05
6.38116e-05
7.73819e-05
0.00013786
0.00013824
0.00013824
0.00013824
0.00013824
0.00013824
0.00013824
0.00013824
0.00013824
0.00013824
0.00013824
0.00013824
0.00013824
0.00013824
0.00013824
0.00013824
0.00013824
0.00013824
0.00013824
0.00013824
0.00013824
0.00013824
0.00013824
0.00013824
0.00013824
0.000123111
6.81654e-05
6.24051e-05
6.07383e-05
6.00235e-05
5.96883e-05
5.95541e-05
5.95447e-05
5.96207e-05
5.97578e-05
5.99383e-05
6.01477e-05
6.03726e-05
6.0601e-05
6.0823e-05
6.10325e-05
6.12293e-05
6.14213e-05
6.16267e-05
6.18773e-05
6.22274e-05
6.27756e-05
6.37388e-05
6.57648e-05
7.21691e-05
0.000124987
0.00013824
0.000137128
7.81725e-05
6.70391e-05
6.41162e-05
6.28755e-05
6.22232e-05
6.18569e-05
6.16579e-05
6.15679e-05
6.15536e-05
6.15926e-05
6.16663e-05
6.17557e-05
6.18386e-05
6.18894e-05
6.18845e-05
6.18144e-05
6.16928e-05
6.1545e-05
6.13961e-05
6.1267e-05
6.11747e-05
6.11353e-05
6.11679e-05
6.13005e-05
6.15812e-05
6.21055e-05
6.31028e-05
6.53045e-05
7.24095e-05
0.000131195
0.00013824
6.43242e-05
6.37433e-05
6.31443e-05
6.26675e-05
6.23202e-05
6.20855e-05
6.19484e-05
6.18999e-05
6.19392e-05
6.20748e-05
6.23272e-05
6.27365e-05
6.33776e-05
6.43964e-05
6.60835e-05
6.87994e-05
6.54934e-05
6.35416e-05
6.23272e-05
6.15054e-05
6.09098e-05
6.04545e-05
6.0093e-05
5.97993e-05
5.95595e-05
5.93675e-05
5.92225e-05
5.91284e-05
5.90944e-05
5.91378e-05
5.92898e-05
5.9612e-05
6.02468e-05
6.16391e-05
6.6243e-05
0.000105105
0.000138239
0.00013824
0.00013824
0.00013824
0.00013824
0.00013824
0.00013824
0.00013824
0.00013824
0.00013824
0.00013824
0.00013824
0.00013824
0.00013824
0.00013824
0.00013824
0.00013824
0.00013824
0.00013824
0.00013824
0.00013824
0.00013824
0.00013824
0.00013824
0.00013824
0.000136907
7.28585e-05
6.34711e-05
6.11366e-05
6.02181e-05
5.97895e-05
5.9599e-05
5.9549e-05
5.95917e-05
5.96992e-05
5.98524e-05
6.00362e-05
6.02379e-05
6.04464e-05
6.06535e-05
6.08545e-05
6.1051e-05
6.1252e-05
6.14774e-05
6.17623e-05
6.21683e-05
6.28155e-05
6.39948e-05
6.67095e-05
7.66255e-05
0.000136647
0.00013824
0.000138238
0.000106922
6.98251e-05
6.48021e-05
6.31438e-05
6.23342e-05
6.18882e-05
6.16442e-05
6.15296e-05
6.15062e-05
6.15503e-05
6.16433e-05
6.17653e-05
6.18903e-05
6.19806e-05
6.19939e-05
6.19056e-05
6.17472e-05
6.15619e-05
6.13855e-05
6.12421e-05
6.1149e-05
6.11222e-05
6.11819e-05
6.13606e-05
6.1719e-05
6.23902e-05
6.37545e-05
6.76035e-05
9.1072e-05
0.000138199
0.00013824
6.72519e-05
6.50276e-05
6.36928e-05
6.28745e-05
6.2354e-05
6.20276e-05
6.18442e-05
6.17792e-05
6.1826e-05
6.19951e-05
6.23193e-05
6.2872e-05
6.38328e-05
6.57437e-05
7.1205e-05
0.000105284
7.06073e-05
6.48561e-05
6.277e-05
6.16559e-05
6.09411e-05
6.04334e-05
6.00508e-05
5.9753e-05
5.95198e-05
5.93422e-05
5.92182e-05
5.91518e-05
5.91542e-05
5.92472e-05
5.94725e-05
5.99173e-05
6.07979e-05
6.28308e-05
6.99439e-05
0.000133368
0.00013824
0.00013824
0.00013824
0.00013824
0.00013824
0.00013824
0.00013824
0.00013824
0.00013824
0.00013824
0.00013824
0.00013824
0.00013824
0.00013824
0.00013824
0.00013824
0.00013824
0.00013824
0.00013824
0.00013824
0.00013824
0.00013824
0.00013824
0.00013824
0.00013824
0.000138239
0.000106375
6.64945e-05
6.19233e-05
6.05705e-05
5.99734e-05
5.96889e-05
5.95745e-05
5.95669e-05
5.96315e-05
5.97465e-05
5.98958e-05
6.00671e-05
6.02504e-05
6.04391e-05
6.06306e-05
6.08284e-05
6.10438e-05
6.12995e-05
6.16366e-05
6.2131e-05
6.29451e-05
6.45461e-05
6.93193e-05
0.000104051
0.000138237
0.00013824
0.00013824
0.000135113
7.4511e-05
6.61742e-05
6.37118e-05
6.25978e-05
6.20045e-05
6.16818e-05
6.1526e-05
6.14888e-05
6.1544e-05
6.16737e-05
6.18596e-05
6.20737e-05
6.22569e-05
6.23209e-05
6.21778e-05
6.19299e-05
6.16626e-05
6.14296e-05
6.12558e-05
6.11571e-05
6.11484e-05
6.1252e-05
6.15096e-05
6.20098e-05
6.29647e-05
6.50564e-05
7.1928e-05
0.0001286
0.00013824
0.00013824
8.49476e-05
6.87388e-05
6.49073e-05
6.33591e-05
6.25368e-05
6.20649e-05
6.18128e-05
6.17245e-05
6.17833e-05
6.20035e-05
6.24385e-05
6.32204e-05
6.47646e-05
6.90624e-05
9.57863e-05
0.000138216
9.89342e-05
6.81237e-05
6.36077e-05
6.19609e-05
6.10546e-05
6.04632e-05
6.00436e-05
5.97338e-05
5.95046e-05
5.93428e-05
5.92453e-05
5.92167e-05
5.9272e-05
5.9442e-05
5.97907e-05
6.04731e-05
6.19826e-05
6.69649e-05
0.000110343
0.00013824
0.00013824
0.00013824
0.00013824
0.00013824
0.00013824
0.00013824
0.00013824
0.00013824
0.00013824
0.00013824
0.00013824
0.00013824
0.00013824
0.00013824
0.00013824
0.00013824
0.00013824
0.00013824
0.00013824
0.00013824
0.00013824
0.00013824
0.00013824
0.00013824
0.00013824
0.00013824
0.000135693
7.12662e-05
6.33304e-05
6.11904e-05
6.02958e-05
5.98576e-05
5.9646e-05
5.95677e-05
5.95761e-05
5.96436e-05
5.97522e-05
5.98889e-05
6.00449e-05
6.0215e-05
6.03987e-05
6.06017e-05
6.08384e-05
6.11367e-05
6.15487e-05
6.2178e-05
6.32658e-05
6.5563e-05
7.29698e-05
0.000132245
0.00013824
0.00013824
0.00013824
0.00013824
0.000119702
7.1206e-05
6.51365e-05
6.32108e-05
6.23117e-05
6.18478e-05
6.16226e-05
6.15645e-05
6.16421e-05
6.1841e-05
6.21515e-05
6.25659e-05
6.29971e-05
6.32599e-05
6.28982e-05
6.24108e-05
6.1955e-05
6.16067e-05
6.13715e-05
6.12562e-05
6.12721e-05
6.14461e-05
6.18413e-05
6.26248e-05
6.4294e-05
6.93916e-05
0.000106675
0.000138239
0.00013824
0.00013824
0.000137977
8.55131e-05
6.81362e-05
6.44916e-05
6.30436e-05
6.23103e-05
6.19476e-05
6.18247e-05
6.19045e-05
6.22108e-05
6.28438e-05
6.40542e-05
6.68809e-05
7.8177e-05
0.000137408
0.00013824
0.000136381
7.43767e-05
6.52028e-05
6.25774e-05
6.13375e-05
6.06018e-05
6.01157e-05
5.97782e-05
5.95458e-05
5.93996e-05
5.93348e-05
5.9358e-05
5.94913e-05
5.97853e-05
6.03531e-05
6.15279e-05
6.4875e-05
8.49106e-05
0.00013818
0.00013824
0.00013824
0.00013824
0.00013824
0.00013824
0.00013824
0.00013824
0.00013824
0.00013824
0.00013824
0.00013824
0.00013824
0.00013824
0.00013824
0.00013824
0.00013824
0.00013824
0.00013824
0.00013824
0.00013824
0.00013824
0.00013824
0.00013824
0.00013824
0.00013824
0.00013824
0.00013824
0.00013824
0.000118443
6.80678e-05
6.25289e-05
6.08954e-05
6.01696e-05
5.98035e-05
5.96249e-05
5.95602e-05
5.95707e-05
5.96333e-05
5.97334e-05
5.98623e-05
6.0016e-05
6.01961e-05
6.04111e-05
6.06797e-05
6.10387e-05
6.15619e-05
6.24158e-05
6.40953e-05
6.90947e-05
0.000106871
0.000138239
0.00013824
0.00013824
0.00013824
0.00013824
0.000138237
0.000103253
6.98079e-05
6.47162e-05
6.30324e-05
6.22848e-05
6.19271e-05
6.18328e-05
6.19569e-05
6.22978e-05
6.28744e-05
6.38444e-05
6.51435e-05
6.68514e-05
6.49452e-05
6.36449e-05
6.26647e-05
6.20624e-05
6.16946e-05
6.15391e-05
6.15919e-05
6.18927e-05
6.25576e-05
6.4028e-05
6.81546e-05
9.08548e-05
0.000138202
0.00013824
0.00013824
0.00013824
0.00013824
0.000137774
8.13132e-05
6.7809e-05
6.43632e-05
6.29954e-05
6.24203e-05
6.22365e-05
6.23592e-05
6.28405e-05
6.39618e-05
6.63788e-05
7.42586e-05
0.000135013
0.00013824
0.00013824
0.00013824
0.000126057
7.06775e-05
6.40955e-05
6.19937e-05
6.09541e-05
6.03378e-05
5.99404e-05
5.96902e-05
5.95577e-05
5.95358e-05
5.96362e-05
5.98965e-05
6.04206e-05
6.14555e-05
6.39313e-05
7.40515e-05
0.000137392
0.00013824
0.00013824
0.00013824
0.00013824
0.00013824
0.00013824
0.00013824
0.00013824
0.00013824
0.00013824
0.00013824
0.00013824
0.00013824
0.00013824
0.00013824
0.00013824
0.00013824
0.00013824
0.00013824
0.00013824
0.00013824
0.00013824
0.00013824
0.00013824
0.00013824
0.00013824
0.00013824
0.00013824
0.00013824
0.000138233
9.55904e-05
6.62852e-05
6.21185e-05
6.07557e-05
6.01166e-05
5.97846e-05
5.96203e-05
5.956e-05
5.95702e-05
5.96317e-05
5.97348e-05
5.98764e-05
6.00601e-05
6.02981e-05
6.06166e-05
6.10678e-05
6.17674e-05
6.30166e-05
6.59919e-05
7.9223e-05
0.000137788
0.00013824
0.00013824
0.00013824
0.00013824
0.00013824
0.00013824
0.000138231
9.93331e-05
6.98195e-05
6.48396e-05
6.33614e-05
6.26661e-05
6.24923e-05
6.27269e-05
6.34466e-05
6.47285e-05
6.82723e-05
7.39225e-05
9.47586e-05
7.30159e-05
6.78626e-05
6.44696e-05
6.31757e-05
6.24506e-05
6.21941e-05
6.23177e-05
6.29178e-05
6.42773e-05
6.8482e-05
8.85012e-05
0.000138146
0.00013824
0.00013824
0.00013824
0.00013824
0.00013824
0.00013824
0.000137797
8.59033e-05
6.89797e-05
6.48252e-05
6.37086e-05
6.33741e-05
6.36118e-05
6.45611e-05
6.78431e-05
7.67066e-05
0.0001349
0.00013824
0.00013824
0.00013824
0.00013824
0.00013824
0.000114187
6.9491e-05
6.36375e-05
6.17567e-05
6.08526e-05
6.03182e-05
6.00182e-05
5.98959e-05
5.99401e-05
6.01789e-05
6.06865e-05
6.17891e-05
6.43968e-05
7.30096e-05
0.000136391
0.00013824
0.00013824
0.00013824
0.00013824
0.00013824
0.00013824
0.00013824
0.00013824
0.00013824
0.00013824
0.00013824
0.00013824
0.00013824
0.00013824
0.00013824
0.00013824
0.00013824
0.00013824
0.00013824
0.00013824
0.00013824
0.00013824
0.00013824
0.00013824
0.00013824
0.00013824
0.00013824
0.00013824
0.00013824
0.00013824
0.00013824
0.000138125
8.25847e-05
6.52943e-05
6.19689e-05
6.07346e-05
6.01291e-05
5.98127e-05
5.96564e-05
5.9602e-05
5.96204e-05
5.96986e-05
5.98342e-05
6.00334e-05
6.03144e-05
6.07177e-05
6.13273e-05
6.23635e-05
6.45293e-05
7.16489e-05
0.000132284
0.00013824
0.00013824
0.00013824
0.00013824
0.00013824
0.00013824
0.00013824
0.00013824
0.000138233
0.000109568
7.13673e-05
6.67825e-05
6.45349e-05
6.41235e-05
6.46987e-05
6.72617e-05
7.14488e-05
0.000104563
0.000136398
0.000138226
0.00013574
0.000101184
7.09759e-05
6.67308e-05
6.43351e-05
6.37766e-05
6.40886e-05
6.58907e-05
7.03377e-05
0.000100047
0.000138178
0.00013824
0.00013824
0.00013824
0.00013824
0.00013824
0.00013824
0.00013824
0.00013824
0.00013813
0.00010586
7.15432e-05
6.83018e-05
6.71482e-05
6.80138e-05
7.08665e-05
9.62889e-05
0.000137303
0.00013824
0.00013824
0.00013824
0.00013824
0.00013824
0.00013824
0.00013824
0.00011251
6.95233e-05
6.37823e-05
6.20737e-05
6.11417e-05
6.07071e-05
6.05888e-05
6.07641e-05
6.13536e-05
6.25033e-05
6.6175e-05
7.97919e-05
0.000136987
0.00013824
0.00013824
0.00013824
0.00013824
0.00013824
0.00013824
0.00013824
0.00013824
0.00013824
0.00013824
0.00013824
0.00013824
0.00013824
0.00013824
0.00013824
0.00013824
0.00013824
0.00013824
0.00013824
0.00013824
0.00013824
0.00013824
0.00013824
0.00013824
0.00013824
0.00013824
0.00013824
0.00013824
0.00013824
0.00013824
0.00013824
0.00013824
0.00013824
0.000137916
7.94354e-05
6.53883e-05
6.21051e-05
6.08455e-05
6.02465e-05
5.99366e-05
5.97909e-05
5.97533e-05
5.98051e-05
5.99446e-05
6.01813e-05
6.05456e-05
6.11151e-05
6.20532e-05
6.39995e-05
7.03118e-05
0.000123553
0.00013824
0.00013824
0.00013824
0.00013824
0.00013824
0.00013824
0.00013824
0.00013824
0.00013824
0.00013824
0.000138239
0.000128498
8.8972e-05
7.11493e-05
6.98675e-05
7.17892e-05
9.47816e-05
0.000130418
0.000138238
0.00013824
0.00013824
0.00013824
0.000138237
0.000128555
9.05444e-05
7.09755e-05
6.93101e-05
7.02709e-05
8.2076e-05
0.000123601
0.000138235
0.00013824
0.00013824
0.00013824
0.00013824
0.00013824
0.00013824
0.00013824
0.00013824
0.00013824
0.00013824
0.000138239
0.000130768
0.000104966
9.05052e-05
0.00010142
0.00012701
0.000138229
0.00013824
0.00013824
0.00013824
0.00013824
0.00013824
0.00013824
0.00013824
0.00013824
0.00013824
0.000122926
7.13973e-05
6.62122e-05
6.31839e-05
6.23097e-05
6.21823e-05
6.27218e-05
6.50216e-05
6.88609e-05
0.000101172
0.000138056
0.00013824
0.00013824
0.00013824
0.00013824
0.00013824
0.00013824
0.00013824
0.00013824
0.00013824
0.00013824
0.00013824
0.00013824
0.00013824
0.00013824
0.00013824
0.00013824
0.00013824
0.00013824
0.00013824
0.00013824
0.00013824
0.00013824
0.00013824
0.00013824
0.00013824
0.00013824
0.00013824
0.00013824
0.00013824
0.00013824
0.00013824
0.00013824
0.00013824
0.00013824
0.00013824
0.00013796
8.48232e-05
6.65319e-05
6.25301e-05
6.12039e-05
6.05731e-05
6.02656e-05
6.01339e-05
6.01493e-05
6.03127e-05
6.06389e-05
6.11851e-05
6.21755e-05
6.40199e-05
7.01247e-05
0.00012072
0.00013824
0.00013824
0.00013824
0.00013824
0.00013824
0.00013824
0.00013824
0.00013824
0.00013824
0.00013824
0.00013824
0.00013824
0.00013824
0.000138191
0.000131441
0.000123864
0.000133542
0.000138225
0.00013824
0.00013824
0.00013824
0.00013824
0.00013824
0.00013824
0.00013824
0.000138207
0.000131352
0.000120254
0.000127973
0.00013804
0.00013824
0.00013824
0.00013824
0.00013824
0.00013824
0.00013824
0.00013824
0.00013824
0.00013824
0.00013824
0.00013824
0.00013824
0.00013824
0.00013824
0.000138238
0.000138197
0.000138236
0.00013824
0.00013824
0.00013824
0.00013824
0.00013824
0.00013824
0.00013824
0.00013824
0.00013824
0.00013824
0.00013824
0.00013824
0.000135105
0.000100276
7.06763e-05
6.79178e-05
6.77553e-05
6.96515e-05
9.15946e-05
0.000127848
0.000138238
0.00013824
0.00013824
0.00013824
0.00013824
0.00013824
0.00013824
0.00013824
0.00013824
0.00013824
0.00013824
0.00013824
0.00013824
0.00013824
0.00013824
0.00013824
0.00013824
0.00013824
0.00013824
0.00013824
0.00013824
0.00013824
0.00013824
0.00013824
0.00013824
0.00013824
0.00013824
0.00013824
0.00013824
0.00013824
0.00013824
0.00013824
0.00013824
0.00013824
0.00013824
0.00013824
0.00013824
0.00013824
0.000138174
0.000100968
6.84887e-05
6.38329e-05
6.21123e-05
6.14009e-05
6.10247e-05
6.09585e-05
6.12087e-05
6.18037e-05
6.28576e-05
6.57156e-05
7.16855e-05
0.000127032
0.00013824
0.00013824
0.00013824
0.00013824
0.00013824
0.00013824
0.00013824
0.00013824
0.00013824
0.00013824
0.00013824
0.00013824
0.00013824
0.00013824
0.00013824
0.00013824
0.00013824
0.00013824
0.00013824
0.00013824
0.00013824
0.00013824
0.00013824
0.00013824
0.00013824
0.00013824
0.00013824
0.00013824
0.00013824
0.00013824
0.00013824
0.00013824
0.00013824
0.00013824
0.00013824
0.00013824
0.00013824
0.00013824
0.00013824
0.00013824
0.00013824
0.00013824
0.00013824
0.00013824
0.00013824
0.00013824
0.00013824
0.00013824
0.00013824
0.00013824
0.00013824
0.00013824
0.00013824
0.00013824
0.00013824
0.00013824
0.00013824
0.00013824
0.00013824
0.00013824
0.00013824
0.000138237
0.000135029
0.000122621
0.000122473
0.000133876
0.000138225
0.00013824
0.00013824
0.00013824
0.00013824
0.00013824
0.00013824
0.00013824
0.00013824
0.00013824
0.00013824
0.00013824
0.00013824
0.00013824
0.00013824
0.00013824
0.00013824
0.00013824
0.00013824
0.00013824
0.00013824
0.00013824
0.00013824
0.00013824
0.00013824
0.00013824
0.00013824
0.00013824
0.00013824
0.00013824
0.00013824
0.00013824
0.00013824
0.00013824
0.00013824
0.00013824
0.00013824
0.00013824
0.00013824
0.00013824
0.00013824
0.000138238
0.000124677
7.69284e-05
6.75581e-05
6.50657e-05
6.3409e-05
6.29958e-05
6.36714e-05
6.57197e-05
6.89338e-05
9.1142e-05
0.000135496
0.00013824
0.00013824
0.00013824
0.00013824
0.00013824
0.00013824
0.00013824
0.00013824
0.00013824
0.00013824
0.00013824
0.00013824
0.00013824
0.00013824
0.00013824
0.00013824
0.00013824
0.00013824
0.00013824
0.00013824
0.00013824
0.00013824
0.00013824
0.00013824
0.00013824
0.00013824
0.00013824
0.00013824
0.00013824
0.00013824
0.00013824
0.00013824
0.00013824
0.00013824
0.00013824
0.00013824
0.00013824
0.00013824
0.00013824
0.00013824
0.00013824
0.00013824
0.00013824
0.00013824
0.00013824
0.00013824
0.00013824
0.00013824
0.00013824
0.00013824
0.00013824
0.00013824
0.00013824
0.00013824
0.00013824
0.00013824
0.00013824
0.00013824
0.00013824
0.00013824
0.00013824
0.00013824
0.00013824
0.00013824
0.00013824
0.00013824
0.00013824
0.00013824
0.00013824
0.00013824
0.00013824
0.00013824
0.00013824
0.00013824
0.00013824
0.00013824
0.00013824
0.00013824
0.00013824
0.00013824
0.00013824
0.00013824
0.00013824
0.00013824
0.00013824
0.00013824
0.00013824
0.00013824
0.00013824
0.00013824
0.00013824
0.00013824
0.00013824
0.00013824
0.00013824
0.00013824
0.00013824
0.00013824
0.00013824
0.00013824
0.00013824
0.00013824
0.00013824
0.00013824
0.00013824
0.00013824
0.00013824
0.00013824
0.00013824
0.00013824
0.000137874
0.000118758
9.03206e-05
7.34446e-05
7.0402e-05
7.4452e-05
9.47051e-05
0.000125099
0.000138221
0.00013824
0.00013824
0.00013824
0.00013824
0.00013824
0.00013824
0.00013824
0.00013824
0.00013824
0.00013824
0.00013824
0.00013824
0.00013824
0.00013824
0.00013824
0.00013824
0.00013824
0.00013824
0.00013824
0.00013824
0.00013824
0.00013824
0.00013824
0.00013824
0.00013824
0.00013824
0.00013824
0.00013824
0.00013824
0.00013824
0.00013824
0.00013824
0.00013824
0.00013824
0.00013824
0.00013824
0.00013824
0.00013824
0.00013824
0.00013824
0.00013824
0.00013824
0.00013824
0.00013824
0.00013824
0.00013824
0.00013824
0.00013824
0.00013824
0.00013824
0.00013824
0.00013824
0.00013824
0.00013824
0.00013824
0.00013824
0.00013824
0.00013824
0.00013824
0.00013824
0.00013824
0.00013824
0.00013824
0.00013824
0.00013824
0.00013824
0.00013824
0.00013824
0.00013824
0.00013824
0.00013824
0.00013824
0.00013824
0.00013824
0.00013824
0.00013824
0.00013824
0.00013824
0.00013824
0.00013824
0.00013824
0.00013824
0.00013824
0.00013824
0.00013824
0.00013824
0.00013824
0.00013824
0.00013824
0.00013824
0.00013824
0.00013824
0.00013824
0.00013824
0.00013824
0.00013824
0.00013824
0.00013824
0.00013824
0.00013824
0.00013824
0.00013824
0.00013824
0.00013824
0.00013824
0.00013824
0.00013824
0.00013824
0.00013824
0.00013824
0.00013824
0.00013824
0.00013824
0.000138217
0.000137174
0.000135117
0.000137386
0.00013823
0.00013824
0.00013824
0.00013824
0.00013824
0.00013824
0.00013824
0.00013824
0.00013824
0.00013824
0.00013824
0.00013824
0.00013824
0.00013824
0.00013824
0.00013824
0.00013824
0.00013824
0.00013824
0.00013824
0.00013824
0.00013824
0.00013824
0.00013824
0.00013824
0.00013824
0.00013824
0.00013824
0.00013824
0.00013824
0.00013824
0.00013824
0.00013824
0.00013824
0.00013824
0.00013824
0.00013824
0.00013824
0.00013824
0.00013824
0.00013824
0.00013824
0.00013824
0.00013824
0.00013824
0.00013824
0.00013824
0.00013824
0.00013824
0.00013824
0.00013824
0.00013824
0.00013824
0.00013824
0.00013824
0.00013824
0.00013824
0.00013824
0.00013824
0.00013824
0.00013824
0.00013824
0.00013824
0.00013824
0.00013824
0.00013824
0.00013824
0.00013824
0.00013824
0.00013824
0.00013824
0.00013824
0.00013824
0.00013824
0.00013824
0.00013824
0.00013824
0.00013824
0.00013824
0.00013824
0.00013824
0.00013824
0.00013824
0.00013824
0.00013824
0.00013824
0.00013824
0.00013824
0.00013824
0.00013824
0.00013824
0.00013824
0.00013824
0.00013824
0.00013824
0.00013824
0.00013824
0.00013824
0.00013824
0.00013824
0.00013824
0.00013824
0.00013824
0.00013824
0.00013824
0.00013824
0.00013824
0.00013824
0.00013824
0.00013824
0.00013824
0.00013824
0.00013824
0.00013824
0.00013824
0.00013824
0.00013824
0.00013824
0.00013824
0.00013824
0.00013824
0.00013824
0.00013824
0.00013824
0.00013824
0.00013824
0.00013824
0.00013824
0.00013824
0.00013824
0.00013824
0.00013824
0.00013824
0.00013824
0.00013824
0.00013824
0.00013824
0.00013824
0.00013824
0.00013824
0.00013824
0.00013824
0.00013824
0.00013824
0.00013824
0.00013824
0.00013824
0.00013824
0.00013824
0.00013824
0.00013824
0.00013824
0.00013824
0.00013824
0.00013824
0.00013824
0.00013824
0.00013824
0.00013824
0.00013824
0.00013824
0.00013824
0.00013824
0.00013824
0.00013824
0.00013824
0.00013824
0.00013824
0.00013824
0.00013824
0.00013824
0.00013824
0.00013824
0.00013824
0.00013824
0.00013824
0.00013824
0.00013824
0.00013824
0.00013824
0.00013824
0.00013824
0.00013824
0.00013824
0.00013824
0.00013824
0.00013824
0.00013824
0.00013824
0.00013824
0.00013824
0.00013824
0.00013824
0.00013824
0.00013824
0.00013824
0.00013824
0.00013824
0.00013824
0.00013824
0.00013824
0.00013824
0.00013824
0.00013824
0.00013824
0.00013824
0.00013824
0.00013824
0.00013824
0.00013824
0.00013824
0.00013824
0.00013824
0.00013824
0.00013824
0.00013824
0.00013824
0.00013824
0.00013824
0.00013824
0.00013824
0.00013824
0.00013824
0.00013824
0.00013824
0.00013824
0.00013824
0.00013824
0.00013824
0.00013824
0.00013824
0.00013824
0.00013824
0.00013824
0.00013824
0.00013824
0.00013824
0.00013824
0.00013824
0.00013824
0.00013824
0.00013824
0.00013824
0.00013824
0.00013824
0.00013824
0.00013824
0.00013824
0.00013824
0.00013824
0.00013824
0.00013824
0.00013824
0.00013824
0.00013824
0.00013824
0.00013824
0.00013824
0.00013824
0.00013824
0.00013824
0.00013824
0.00013824
0.00013824
0.00013824
0.00013824
0.00013824
0.00013824
0.00013824
0.00013824
0.00013824
0.00013824
0.00013824
0.00013824
0.00013824
0.00013824
0.00013824
0.00013824
0.00013824
0.00013824
0.00013824
0.00013824
0.00013824
0.00013824
0.00013824
0.00013824
0.00013824
0.00013824
0.00013824
0.00013824
0.00013824
0.00013824
0.00013824
0.00013824
0.00013824
0.00013824
0.00013824
0.00013824
0.00013824
0.00013824
0.00013824
0.00013824
0.00013824
0.00013824
0.00013824
0.00013824
0.00013824
0.00013824
0.00013824
0.00013824
0.00013824
0.00013824
0.00013824
0.00013824
0.00013824
0.00013824
0.00013824
0.00013824
0.00013824
0.00013824
0.00013824
0.00013824
0.00013824
0.00013824
0.00013824
0.00013824
0.00013824
0.00013824
0.00013824
0.00013824
0.00013824
0.00013824
0.00013824
0.00013824
0.00013824
0.00013824
0.00013824
0.00013824
0.00013824
0.00013824
0.00013824
0.00013824
0.00013824
0.00013824
0.00013824
0.00013824
0.00013824
0.00013824
0.00013824
0.00013824
0.00013824
0.00013824
0.00013824
0.00013824
0.00013824
0.00013824
0.00013824
0.00013824
0.00013824
0.00013824
0.00013824
0.00013824
0.00013824
0.00013824
0.00013824
0.00013824
0.00013824
0.00013824
0.00013824
0.00013824
0.00013824
0.00013824
0.00013824
0.00013824
0.00013824
0.00013824
0.00013824
0.00013824
0.00013824
0.00013824
0.00013824
0.00013824
0.00013824
0.00013824
0.00013824
0.00013824
0.00013824
0.00013824
0.00013824
0.00013824
0.00013824
0.00013824
0.00013824
0.00013824
0.00013824
0.00013824
0.00013824
0.00013824
0.00013824
0.00013824
0.00013824
0.00013824
0.00013824
0.00013824
0.00013824
0.00013824
0.00013824
0.00013824
0.00013824
0.00013824
0.00013824
0.00013824
0.00013824
0.00013824
0.00013824
0.00013824
0.00013824
0.00013824
0.00013824
0.00013824
0.00013824
0.00013824
0.00013824
0.00013824
0.00013824
0.00013824
0.00013824
0.00013824
0.00013824
0.00013824
0.00013824
0.00013824
0.00013824
0.00013824
0.00013824
0.00013824
0.00013824
0.00013824
0.00013824
0.00013824
0.00013824
0.00013824
0.00013824
0.00013824
0.00013824
0.00013824
0.00013824
0.00013824
0.00013824
0.00013824
0.00013824
0.00013824
0.00013824
0.00013824
0.00013824
0.00013824
0.00013824
0.00013824
0.00013824
0.00013824
0.00013824
0.00013824
0.00013824
0.00013824
0.00013824
0.00013824
0.00013824
0.00013824
0.00013824
0.00013824
0.00013824
0.00013824
0.00013824
0.00013824
0.00013824
0.00013824
0.00013824
0.00013824
0.00013824
0.00013824
0.00013824
0.00013824
0.00013824
0.00013824
0.00013824
0.00013824
0.00013824
0.00013824
0.00013824
0.00013824
0.00013824
0.00013824
0.00013824
0.00013824
0.00013824
0.00013824
0.00013824
0.00013824
0.00013824
0.00013824
0.00013824
0.00013824
0.00013824
0.00013824
0.00013824
0.00013824
0.00013824
0.00013824
0.00013824
0.00013824
0.00013824
0.00013824
0.00013824
0.00013824
0.00013824
0.00013824
0.00013824
0.00013824
0.00013824
0.00013824
0.00013824
0.00013824
0.00013824
0.00013824
0.00013824
0.00013824
0.00013824
0.00013824
0.00013824
0.00013824
0.00013824
0.00013824
0.00013824
0.00013824
0.00013824
0.00013824
0.00013824
0.00013824
0.00013824
0.00013824
0.00013824
0.00013824
0.00013824
0.00013824
0.00013824
0.00013824
0.00013824
0.00013824
0.00013824
0.00013824
0.00013824
0.00013824
0.00013824
0.00013824
0.00013824
0.00013824
0.00013824
0.00013824
0.00013824
0.00013824
0.00013824
0.00013824
0.00013824
0.00013824
0.00013824
0.00013824
0.00013824
0.00013824
0.00013824
0.00013824
0.00013824
0.00013824
0.00013824
0.00013824
0.00013824
0.00013824
0.00013824
0.00013824
0.00013824
0.00013824
0.00013824
0.00013824
0.00013824
0.00013824
0.00013824
0.00013824
0.00013824
0.00013824
0.00013824
0.00013824
0.00013824
0.00013824
0.00013824
0.00013824
0.00013824
0.00013824
0.00013824
0.00013824
0.00013824
0.00013824
0.00013824
0.00013824
0.00013824
0.00013824
0.00013824
0.00013824
0.00013824
0.00013824
0.00013824
0.00013824
0.00013824
0.00013824
0.00013824
0.00013824
0.00013824
0.00013824
0.00013824
0.00013824
0.00013824
0.00013824
0.00013824
0.00013824
0.00013824
0.00013824
0.00013824
0.00013824
0.00013824
0.00013824
0.00013824
0.00013824
0.00013824
0.00013824
0.00013824
0.00013824
0.00013824
0.00013824
0.00013824
0.00013824
0.00013824
0.00013824
0.00013824
0.00013824
0.00013824
0.00013824
0.00013824
0.00013824
0.00013824
0.00013824
0.00013824
0.00013824
0.00013824
0.00013824
0.00013824
0.00013824
0.00013824
0.00013824
0.00013824
0.00013824
0.00013824
0.00013824
0.00013824
0.00013824
0.00013824
0.00013824
0.00013824
0.00013824
0.00013824
0.00013824
0.00013824
0.00013824
0.00013824
0.00013824
0.00013824
0.00013824
0.00013824
0.00013824
0.00013824
0.00013824
0.00013824
0.00013824
0.00013824
0.00013824
0.00013824
0.00013824
0.00013824
0.00013824
0.00013824
0.00013824
0.00013824
0.00013824
0.00013824
0.00013824
0.00013824
0.00013824
0.00013824
0.00013824
0.00013824
0.00013824
0.00013824
0.00013824
0.00013824
0.00013824
0.00013824
0.00013824
0.00013824
0.00013824
0.00013824
0.00013824
0.00013824
0.00013824
0.00013824
0.00013824
0.00013824
0.00013824
0.00013824
0.00013824
0.00013824
0.00013824
0.00013824
0.00013824
0.00013824
0.00013824
0.00013824
0.00013824
0.00013824
0.00013824
0.00013824
0.00013824
0.00013824
0.00013824
0.00013824
0.00013824
0.00013824
0.00013824
0.00013824
0.00013824
0.00013824
0.00013824
0.00013824
0.00013824
0.00013824
0.00013824
0.00013824
0.00013824
0.00013824
0.00013824
0.00013824
0.00013824
0.00013824
0.00013824
0.00013824
0.00013824
0.00013824
0.00013824
0.00013824
0.00013824
0.00013824
0.00013824
0.00013824
0.00013824
0.00013824
0.00013824
0.00013824
0.00013824
0.00013824
0.00013824
0.00013824
0.00013824
0.00013824
0.00013824
0.00013824
0.00013824
0.00013824
0.00013824
0.00013824
0.00013824
0.00013824
0.00013824
0.00013824
0.00013824
0.00013824
0.00013824
0.00013824
0.00013824
0.00013824
0.00013824
0.00013824
0.00013824
0.00013824
0.00013824
0.00013824
0.00013824
0.00013824
0.00013824
0.00013824
0.00013824
0.00013824
0.00013824
0.00013824
0.00013824
0.00013824
0.00013824
0.00013824
0.00013824
0.00013824
0.00013824
0.00013824
0.00013824
0.00013824
0.00013824
0.00013824
0.00013824
0.00013824
0.00013824
0.00013824
0.00013824
0.00013824
0.00013824
0.00013824
0.00013824
0.00013824
0.00013824
0.00013824
0.00013824
0.00013824
0.00013824
0.00013824
0.00013824
0.00013824
0.00013824
0.00013824
0.00013824
0.00013824
0.00013824
0.00013824
0.00013824
0.00013824
0.00013824
0.00013824
0.00013824
0.00013824
0.00013824
0.00013824
0.00013824
0.00013824
0.00013824
0.00013824
0.00013824
0.00013824
0.00013824
0.00013824
0.00013824
0.00013824
0.00013824
0.00013824
0.00013824
0.00013824
0.00013824
0.00013824
0.00013824
0.00013824
0.00013824
0.00013824
0.00013824
0.00013824
0.00013824
0.00013824
0.00013824
0.00013824
0.00013824
0.00013824
0.00013824
0.00013824
0.00013824
0.00013824
0.00013824
0.00013824
0.00013824
0.00013824
0.00013824
0.00013824
0.00013824
0.00013824
0.00013824
0.00013824
0.00013824
0.00013824
0.00013824
0.00013824
0.00013824
0.00013824
0.00013824
0.00013824
0.00013824
0.00013824
0.00013824
0.00013824
0.00013824
0.00013824
0.00013824
0.00013824
0.00013824
0.00013824
0.00013824
0.00013824
0.00013824
0.00013824
0.00013824
0.00013824
0.00013824
0.00013824
0.00013824
0.00013824
0.00013824
0.00013824
0.00013824
0.00013824
0.00013824
0.00013824
0.00013824
0.00013824
0.00013824
0.00013824
0.00013824
0.00013824
0.00013824
0.00013824
0.00013824
0.00013824
0.00013824
0.00013824
0.00013824
0.00013824
0.00013824
0.00013824
0.00013824
0.00013824
0.00013824
0.00013824