/*--------------------------------*- C++ -*----------------------------------*\
| =========                 |                                                 |
| \\      /  F ield         | OpenFOAM: The Open Source CFD Toolbox           |
|  \\    /   O peration     | Version:  2406                                  |
|   \\  /    A nd           | Website:  www.openfoam.com                      |
|    \\/     M anipulation  |                                                 |
\*---------------------------------------------------------------------------*/
FoamFile
{
    version     2.0;
    format      ascii;
    arch        "LSB;label=32;scalar=64";
    class       volScalarField;
    location    "7.75";
    object      C;
}
// * * * * * * * * * * * * * * * * * * * * * * * * * * * * * * * * * * * * * //

dimensions      [1 -3 0 0 0 0 0];

internalField   nonuniform List<scalar> 
14400
(
0.22818
0.22717
0.225403
0.223256
0.221122
0.219336
0.218148
0.217716
0.2181
0.219265
0.221077
0.223292
0.225554
0.227402
0.228307
0.227794
0.225671
0.222256
0.218121
0.213872
0.210051
0.207111
0.205428
0.205323
0.207083
0.210978
0.217273
0.22624
0.238162
0.253338
0.27209
0.294759
0.3217
0.35326
0.389717
0.431103
0.476418
0.518776
0.548709
0.569826
0.588028
0.603601
0.61676
0.627672
0.636463
0.64323
0.648048
0.650966
0.652019
0.651223
0.648577
0.644066
0.637657
0.629301
0.618927
0.606442
0.591725
0.57462
0.554925
0.532254
0.498683
0.452687
0.407594
0.366818
0.330958
0.299924
0.273418
0.251086
0.232569
0.217524
0.205629
0.196586
0.190122
0.185991
0.183985
0.183943
0.185751
0.189341
0.194684
0.201773
0.210606
0.221162
0.233367
0.247041
0.2618
0.276783
0.28951
0.296042
0.295034
0.287793
0.277704
0.267245
0.257299
0.248302
0.240488
0.233964
0.228741
0.22476
0.221902
0.220002
0.218864
0.218287
0.218091
0.218156
0.218452
0.219055
0.220127
0.221889
0.224586
0.228457
0.233718
0.240548
0.249072
0.259357
0.271385
0.285019
0.29992
0.315327
0.329265
0.337172
0.234937
0.233663
0.231493
0.228923
0.226417
0.224348
0.222981
0.222479
0.222905
0.224227
0.226311
0.228913
0.231663
0.234048
0.235423
0.235091
0.232636
0.228632
0.223867
0.219054
0.214772
0.211481
0.20955
0.209288
0.210973
0.214865
0.221223
0.230315
0.242417
0.25783
0.276872
0.299886
0.327225
0.359231
0.396176
0.438085
0.483887
0.524267
0.552
0.572737
0.590656
0.606014
0.619008
0.629792
0.638486
0.645181
0.649947
0.652832
0.653869
0.653072
0.650442
0.645963
0.639605
0.631319
0.621038
0.608675
0.594113
0.577208
0.557774
0.535556
0.504127
0.459817
0.414102
0.372683
0.336274
0.30476
0.277831
0.255126
0.23628
0.220948
0.208807
0.199561
0.192937
0.188695
0.186631
0.186587
0.188452
0.19216
0.197684
0.205019
0.214165
0.225108
0.237779
0.252007
0.267428
0.28318
0.296239
0.302368
0.302103
0.295018
0.284495
0.273553
0.263174
0.253819
0.245728
0.239008
0.233674
0.229661
0.226843
0.22504
0.224034
0.223592
0.223499
0.223603
0.223862
0.224365
0.225308
0.226948
0.229559
0.233403
0.238708
0.245658
0.254385
0.264958
0.277362
0.291468
0.306951
0.323029
0.33691
0.343516
0.248961
0.247051
0.243974
0.240494
0.237214
0.234565
0.232834
0.23219
0.232699
0.23433
0.236957
0.240339
0.244095
0.247646
0.250134
0.250342
0.247009
0.241651
0.235538
0.229563
0.224353
0.220358
0.217928
0.217349
0.218879
0.22276
0.22924
0.238575
0.251036
0.266918
0.28654
0.310239
0.338366
0.371246
0.409095
0.451762
0.497573
0.53395
0.558427
0.578463
0.595846
0.610791
0.623465
0.634002
0.642507
0.649061
0.653726
0.656547
0.657551
0.656754
0.654155
0.64974
0.64348
0.635331
0.625233
0.613105
0.598845
0.582326
0.563389
0.541837
0.514031
0.473358
0.426834
0.384365
0.34695
0.314511
0.28675
0.263305
0.243808
0.22791
0.215286
0.20564
0.198707
0.19425
0.192077
0.192033
0.194014
0.197958
0.203842
0.211664
0.221432
0.233136
0.246715
0.262005
0.278622
0.295571
0.308712
0.314217
0.314821
0.309205
0.298098
0.286262
0.275048
0.264994
0.256361
0.249264
0.243718
0.239656
0.236939
0.235358
0.234651
0.234518
0.234661
0.234854
0.23502
0.23529
0.235936
0.237296
0.239708
0.243473
0.248846
0.256024
0.265143
0.276273
0.2894
0.304384
0.320845
0.337744
0.35056
0.355339
0.271246
0.268038
0.263335
0.258352
0.253851
0.25031
0.248026
0.247164
0.24779
0.249876
0.253305
0.257855
0.263163
0.26863
0.273207
0.274826
0.269467
0.261676
0.253387
0.245631
0.239024
0.23398
0.230803
0.229746
0.231034
0.234891
0.241544
0.251235
0.264227
0.280809
0.301292
0.326013
0.355309
0.38948
0.428646
0.472203
0.515798
0.546134
0.567798
0.586843
0.603475
0.617839
0.63006
0.640245
0.648479
0.65483
0.65935
0.662077
0.663036
0.662239
0.659685
0.655362
0.649244
0.641293
0.631456
0.619666
0.605837
0.589863
0.571618
0.550943
0.526768
0.491641
0.445475
0.401905
0.36312
0.329346
0.300359
0.275818
0.255358
0.238625
0.225294
0.21507
0.20769
0.202931
0.200606
0.200573
0.202733
0.207033
0.213451
0.221995
0.232675
0.245492
0.260392
0.277199
0.295433
0.313596
0.325552
0.330513
0.331791
0.328939
0.318434
0.305496
0.293126
0.282076
0.27266
0.265021
0.259185
0.255085
0.252567
0.251388
0.251217
0.251646
0.252231
0.252594
0.252572
0.252396
0.252494
0.253344
0.255385
0.258982
0.264419
0.271908
0.281585
0.293513
0.307669
0.323871
0.341542
0.35869
0.368163
0.371549
0.303037
0.297322
0.290024
0.282864
0.276682
0.271941
0.268919
0.267766
0.268538
0.271208
0.275668
0.281722
0.289057
0.297127
0.304755
0.307394
0.299987
0.288783
0.277566
0.267473
0.259053
0.252643
0.248487
0.246794
0.247756
0.25157
0.258443
0.268601
0.282294
0.299799
0.321422
0.347485
0.378303
0.414126
0.454939
0.49937
0.535494
0.559598
0.57974
0.597638
0.613371
0.627028
0.638692
0.64844
0.656334
0.662429
0.666766
0.669375
0.670277
0.66948
0.666984
0.662778
0.656841
0.64914
0.639634
0.628266
0.614972
0.599672
0.582279
0.562701
0.540868
0.512406
0.470421
0.425575
0.385031
0.349519
0.318927
0.292949
0.271225
0.253401
0.239151
0.228181
0.220235
0.215098
0.212594
0.212592
0.215001
0.219775
0.2269
0.236386
0.248253
0.262504
0.279089
0.297811
0.318
0.336249
0.345656
0.350374
0.352226
0.351356
0.344668
0.331251
0.317637
0.305371
0.294966
0.286641
0.280455
0.276358
0.274189
0.273666
0.274375
0.275758
0.277126
0.277816
0.27742
0.276442
0.275602
0.275606
0.277033
0.280322
0.285787
0.293645
0.304019
0.316944
0.33236
0.35001
0.368831
0.382753
0.388472
0.391123
0.342497
0.334588
0.324037
0.314201
0.305982
0.299784
0.295865
0.294357
0.295304
0.298668
0.304335
0.3121
0.32165
0.332207
0.340539
0.341013
0.335866
0.322321
0.307999
0.29525
0.284711
0.276676
0.271338
0.268865
0.26942
0.273176
0.280319
0.291057
0.30562
0.324272
0.347304
0.37501
0.407636
0.445256
0.487234
0.527628
0.554758
0.575309
0.593926
0.610597
0.625344
0.63821
0.649241
0.658486
0.665989
0.671787
0.67591
0.678381
0.679216
0.67842
0.675993
0.671926
0.666201
0.658794
0.649672
0.638794
0.626112
0.611574
0.595124
0.576713
0.556302
0.533231
0.499964
0.455204
0.412886
0.375333
0.342796
0.315058
0.291783
0.272622
0.257249
0.245376
0.236753
0.231173
0.228472
0.228528
0.23126
0.236629
0.244626
0.255266
0.268571
0.28454
0.303086
0.323878
0.345616
0.361171
0.368495
0.373098
0.375371
0.375443
0.372975
0.36323
0.348742
0.335173
0.323624
0.314494
0.307918
0.303891
0.302265
0.302738
0.304803
0.307736
0.310454
0.311823
0.310652
0.308278
0.305915
0.304608
0.305101
0.3079
0.31333
0.321596
0.332782
0.346825
0.363535
0.382255
0.399157
0.407322
0.411295
0.413348
0.379728
0.375763
0.364384
0.352198
0.341894
0.334096
0.329173
0.327264
0.32842
0.33257
0.339554
0.349054
0.360568
0.371912
0.375167
0.373756
0.371193
0.361107
0.344485
0.32909
0.31628
0.306441
0.299759
0.296381
0.296458
0.300148
0.307619
0.319055
0.334662
0.354682
0.379378
0.409003
0.44365
0.482915
0.5243
0.553681
0.57421
0.592951
0.610058
0.625479
0.639199
0.651225
0.661576
0.670275
0.677349
0.682819
0.686706
0.689025
0.689785
0.688991
0.686642
0.682731
0.677244
0.670164
0.661466
0.651125
0.639108
0.625386
0.609931
0.592724
0.573762
0.553068
0.528087
0.49065
0.446911
0.407117
0.372358
0.342573
0.317478
0.296741
0.280045
0.267113
0.257703
0.251619
0.248705
0.248851
0.251983
0.258068
0.267101
0.279098
0.294075
0.312005
0.332711
0.355483
0.376475
0.387355
0.393711
0.398153
0.400716
0.401523
0.400784
0.39684
0.385773
0.371569
0.35889
0.348895
0.341903
0.338027
0.337164
0.339029
0.343026
0.348331
0.353185
0.355943
0.353226
0.348607
0.343949
0.340766
0.339963
0.342075
0.347395
0.356093
0.368189
0.38334
0.400961
0.418886
0.428588
0.432963
0.436037
0.437625
0.413435
0.413132
0.408195
0.396186
0.3844
0.375016
0.369065
0.366731
0.368143
0.373144
0.38147
0.392374
0.404654
0.409584
0.40891
0.407518
0.405387
0.400664
0.386446
0.369062
0.354053
0.342339
0.334194
0.329807
0.329344
0.33297
0.340841
0.353107
0.369933
0.391524
0.418095
0.449851
0.486557
0.52637
0.556403
0.57686
0.595188
0.612227
0.627875
0.642061
0.654748
0.665916
0.675562
0.683691
0.690311
0.695434
0.69907
0.701226
0.701908
0.701118
0.698854
0.695111
0.68988
0.68315
0.674905
0.66513
0.65381
0.640932
0.62649
0.61049
0.592955
0.573936
0.553523
0.52658
0.486432
0.445047
0.408015
0.375977
0.348824
0.32628
0.30806
0.293906
0.283595
0.27694
0.273797
0.274063
0.277673
0.284596
0.294827
0.308371
0.325225
0.3453
0.368183
0.39209
0.407441
0.415028
0.42084
0.425086
0.427817
0.429149
0.429263
0.428412
0.424079
0.413836
0.400716
0.389974
0.382575
0.378938
0.379008
0.382623
0.388941
0.397193
0.404113
0.406213
0.404122
0.397083
0.389677
0.38416
0.381784
0.383066
0.388195
0.397294
0.410367
0.426135
0.442593
0.452279
0.456519
0.459889
0.462264
0.463491
0.447403
0.447304
0.4471
0.442499
0.432736
0.422297
0.415525
0.412739
0.414481
0.420276
0.429553
0.43982
0.444574
0.444202
0.443293
0.442018
0.440287
0.438074
0.431314
0.414887
0.398264
0.384788
0.37512
0.369637
0.368574
0.372149
0.380511
0.393757
0.411965
0.435278
0.463756
0.49752
0.534825
0.563613
0.583504
0.600943
0.617455
0.632895
0.647153
0.660144
0.671815
0.682129
0.691065
0.698614
0.704771
0.709537
0.712913
0.714901
0.715503
0.714718
0.712545
0.708979
0.704016
0.69765
0.689873
0.680681
0.67007
0.658042
0.644608
0.62979
0.613631
0.596194
0.577576
0.557799
0.529821
0.489165
0.450166
0.415783
0.386387
0.361821
0.341871
0.326327
0.31499
0.307688
0.304292
0.304709
0.308874
0.316756
0.328337
0.343589
0.362453
0.384702
0.409207
0.428428
0.43773
0.444273
0.449536
0.453533
0.456318
0.457991
0.458707
0.458679
0.458173
0.454894
0.447602
0.437135
0.429633
0.426389
0.427317
0.432585
0.440189
0.4453
0.447959
0.44846
0.448425
0.446101
0.441175
0.433924
0.430227
0.430746
0.435577
0.444709
0.458354
0.470492
0.478458
0.48206
0.485222
0.487809
0.489638
0.490585
0.481469
0.481499
0.481619
0.481938
0.479218
0.473869
0.46747
0.464216
0.466367
0.472214
0.477608
0.480546
0.479784
0.478938
0.478043
0.476974
0.475667
0.474113
0.472319
0.464837
0.448756
0.434114
0.422965
0.416338
0.414608
0.418154
0.427126
0.441525
0.461213
0.486263
0.516071
0.550222
0.576011
0.594243
0.610372
0.625952
0.640793
0.654747
0.667696
0.679548
0.690239
0.699719
0.707956
0.714929
0.720623
0.72503
0.728144
0.729963
0.730485
0.729707
0.727627
0.724244
0.719555
0.71356
0.706258
0.697651
0.687747
0.676559
0.664109
0.650433
0.635583
0.619632
0.602674
0.584828
0.565852
0.538201
0.498905
0.462411
0.430737
0.40398
0.382098
0.364991
0.352495
0.34446
0.34078
0.341372
0.346167
0.35512
0.368189
0.38524
0.406021
0.429719
0.451322
0.462456
0.469102
0.474798
0.479496
0.483194
0.485931
0.487789
0.488895
0.48942
0.489587
0.489669
0.488531
0.484981
0.48095
0.478647
0.479534
0.481855
0.483919
0.48419
0.483606
0.483705
0.484491
0.48597
0.486183
0.484773
0.483225
0.483561
0.487885
0.495027
0.501961
0.50686
0.509459
0.51209
0.5145
0.516486
0.517896
0.518626
0.515505
0.515603
0.515846
0.51633
0.517213
0.517139
0.515584
0.514553
0.51515
0.516539
0.516784
0.515479
0.514518
0.513722
0.512966
0.512169
0.511294
0.510356
0.509412
0.508444
0.502185
0.489802
0.47779
0.470173
0.467697
0.471262
0.480981
0.496731
0.517684
0.543882
0.571865
0.593436
0.608971
0.623474
0.63779
0.651698
0.665019
0.677604
0.689334
0.700115
0.709872
0.718552
0.726112
0.732522
0.737762
0.741815
0.744671
0.746323
0.746766
0.745997
0.744013
0.740815
0.736402
0.730777
0.723946
0.715918
0.706707
0.696336
0.684836
0.67225
0.658638
0.644076
0.62866
0.612507
0.595751
0.577986
0.552125
0.515632
0.482276
0.453324
0.429339
0.410522
0.396744
0.387877
0.383869
0.38466
0.39015
0.400258
0.414924
0.433701
0.455703
0.477606
0.489578
0.495815
0.501422
0.50632
0.510456
0.513816
0.516423
0.51834
0.519662
0.520522
0.521082
0.521533
0.522072
0.52282
0.522448
0.521713
0.521404
0.520643
0.519214
0.518361
0.518031
0.518252
0.519043
0.520423
0.522432
0.525059
0.526744
0.528548
0.531435
0.534625
0.536486
0.538284
0.540305
0.54234
0.544203
0.54574
0.546831
0.547398
0.549443
0.549564
0.54983
0.55029
0.550994
0.551942
0.553064
0.553596
0.553126
0.551938
0.550795
0.549841
0.549085
0.548468
0.547931
0.547439
0.546987
0.546605
0.54637
0.546411
0.546859
0.543712
0.537729
0.530402
0.527359
0.531134
0.541534
0.558541
0.578986
0.598413
0.614822
0.627379
0.64007
0.652893
0.665614
0.678033
0.689981
0.701316
0.711922
0.721704
0.730584
0.738504
0.745417
0.751287
0.756086
0.759796
0.762401
0.763892
0.76426
0.763501
0.761615
0.7586
0.75446
0.7492
0.742832
0.735368
0.726829
0.717243
0.706648
0.695094
0.682642
0.669374
0.655384
0.640788
0.625723
0.610347
0.594439
0.571623
0.540435
0.510084
0.483992
0.463467
0.448335
0.438513
0.434119
0.435141
0.441365
0.452585
0.468854
0.488581
0.508033
0.519291
0.524713
0.529791
0.534452
0.538605
0.542192
0.545189
0.547607
0.549485
0.550892
0.551922
0.552688
0.553308
0.553881
0.55444
0.554857
0.554867
0.554183
0.553292
0.552494
0.552009
0.551906
0.552229
0.553004
0.554243
0.555947
0.558082
0.560525
0.562942
0.56481
0.566321
0.567861
0.56947
0.571136
0.572762
0.574232
0.575438
0.576293
0.576736
0.583261
0.583378
0.583621
0.584005
0.584532
0.585159
0.585765
0.586055
0.585849
0.585273
0.584611
0.584007
0.583513
0.583131
0.582852
0.582671
0.582607
0.582706
0.583051
0.58377
0.585055
0.587186
0.588336
0.588452
0.590111
0.595075
0.604062
0.615676
0.627867
0.638779
0.648969
0.659813
0.671037
0.682413
0.69374
0.704839
0.715555
0.725758
0.735335
0.744193
0.752257
0.759464
0.765765
0.771121
0.775501
0.778882
0.781247
0.782582
0.78288
0.782134
0.780344
0.77751
0.773637
0.768733
0.762812
0.755892
0.747997
0.739159
0.729421
0.718834
0.707464
0.695392
0.682713
0.66954
0.656006
0.642264
0.628494
0.614797
0.596297
0.572651
0.545546
0.524003
0.507641
0.496697
0.49183
0.49315
0.50009
0.511827
0.528914
0.54305
0.551824
0.555971
0.560136
0.564185
0.56799
0.571455
0.574516
0.577143
0.57933
0.5811
0.582498
0.583587
0.58444
0.585128
0.585706
0.586179
0.586488
0.586531
0.586256
0.585839
0.585464
0.585274
0.585355
0.585755
0.5865
0.587598
0.589032
0.590752
0.592647
0.594532
0.596214
0.597718
0.599166
0.600598
0.602008
0.60334
0.604524
0.605487
0.606166
0.606517
0.616963
0.617065
0.617271
0.617577
0.617969
0.618399
0.618781
0.618985
0.61894
0.618693
0.618369
0.618062
0.617828
0.617693
0.617673
0.617787
0.618065
0.618562
0.619357
0.620564
0.622335
0.624863
0.628357
0.633049
0.63811
0.643744
0.650378
0.65728
0.664702
0.673104
0.682219
0.691867
0.701851
0.711984
0.722094
0.732027
0.741644
0.750825
0.759465
0.767477
0.774786
0.78133
0.787058
0.791931
0.795915
0.798985
0.801122
0.802311
0.802543
0.801812
0.800117
0.797459
0.793844
0.789284
0.783792
0.777391
0.770107
0.761976
0.753041
0.743357
0.732989
0.722018
0.710536
0.698653
0.686495
0.67421
0.661966
0.649959
0.638426
0.625227
0.608855
0.590544
0.573805
0.561707
0.5563
0.557898
0.565237
0.574672
0.582386
0.587153
0.589629
0.592549
0.595674
0.598825
0.601868
0.604708
0.607277
0.609536
0.61147
0.613088
0.614414
0.615488
0.616356
0.617061
0.617634
0.618083
0.618385
0.618512
0.61847
0.618346
0.618246
0.618269
0.618484
0.618935
0.619645
0.620617
0.621832
0.623245
0.624778
0.626325
0.627794
0.629172
0.630486
0.63175
0.632956
0.634067
0.635039
0.63582
0.636367
0.63665
0.650563
0.650649
0.650819
0.651065
0.651366
0.651688
0.651974
0.652166
0.652231
0.652192
0.65211
0.652045
0.652044
0.65214
0.652361
0.652737
0.653305
0.65412
0.655252
0.656794
0.658859
0.661572
0.665044
0.669332
0.674288
0.679763
0.685632
0.692047
0.699053
0.706716
0.714937
0.723586
0.732515
0.741576
0.750626
0.759531
0.768169
0.776432
0.784225
0.791464
0.79808
0.804011
0.809208
0.813629
0.817243
0.820021
0.821944
0.822997
0.823169
0.822454
0.820852
0.818364
0.814998
0.810765
0.805682
0.799773
0.793065
0.785596
0.77741
0.768563
0.759118
0.749154
0.73876
0.728039
0.717112
0.706115
0.695202
0.68455
0.674363
0.664873
0.656159
0.64594
0.635753
0.627419
0.622374
0.620993
0.6223
0.624326
0.624719
0.625454
0.626942
0.628923
0.631186
0.63357
0.63595
0.638231
0.640347
0.642253
0.643928
0.645367
0.646582
0.647595
0.648434
0.649124
0.649688
0.650133
0.650458
0.650663
0.650768
0.650827
0.650907
0.651073
0.651377
0.651856
0.652527
0.653392
0.654435
0.65562
0.656895
0.658195
0.659468
0.660689
0.661854
0.662962
0.663997
0.664935
0.665743
0.666386
0.666834
0.667064
0.684076
0.684149
0.684292
0.684496
0.684744
0.68501
0.685263
0.685473
0.685625
0.685734
0.685833
0.685963
0.686162
0.686462
0.686895
0.687494
0.688299
0.689359
0.690736
0.692501
0.694736
0.69752
0.700916
0.704942
0.709541
0.71464
0.720191
0.726222
0.732748
0.73977
0.747227
0.755023
0.763048
0.771181
0.779303
0.787301
0.795069
0.80251
0.809538
0.816076
0.822057
0.827426
0.832132
0.836137
0.839406
0.841913
0.843637
0.844563
0.844681
0.843984
0.842472
0.840147
0.837018
0.833096
0.8284
0.822953
0.816785
0.809933
0.802442
0.794366
0.785767
0.77672
0.76731
0.757633
0.7478
0.737935
0.728175
0.718675
0.709602
0.701134
0.693445
0.686731
0.681052
0.676101
0.671862
0.668396
0.665547
0.663653
0.662899
0.662997
0.663764
0.665012
0.666577
0.668321
0.670131
0.671921
0.673626
0.675201
0.67662
0.67787
0.678952
0.679877
0.680659
0.681316
0.68186
0.682302
0.68265
0.682913
0.683113
0.683287
0.68348
0.683738
0.684097
0.684585
0.685215
0.685989
0.686895
0.687905
0.688985
0.690093
0.691193
0.69226
0.693282
0.694246
0.695136
0.695933
0.696612
0.697148
0.697519
0.697709
0.717515
0.71758
0.717705
0.717884
0.718103
0.718347
0.718596
0.718836
0.719063
0.719285
0.719526
0.719813
0.720178
0.720652
0.721263
0.722046
0.723038
0.724283
0.725831
0.727738
0.730062
0.732857
0.736159
0.739979
0.744293
0.749067
0.754271
0.7599
0.765947
0.772389
0.779176
0.786233
0.793472
0.800795
0.808104
0.815301
0.822296
0.829001
0.83534
0.841243
0.846649
0.851502
0.855759
0.859379
0.86233
0.864587
0.866128
0.866938
0.867007
0.86633
0.864905
0.862735
0.85983
0.856201
0.851868
0.846854
0.841188
0.834909
0.828059
0.82069
0.812864
0.804649
0.796126
0.787383
0.77852
0.769649
0.76089
0.752373
0.744236
0.736617
0.729646
0.723431
0.718006
0.713305
0.709277
0.70589
0.7032
0.701301
0.700228
0.699872
0.700103
0.700785
0.70179
0.703004
0.704332
0.705696
0.707035
0.708307
0.709481
0.710541
0.71148
0.712301
0.713011
0.713619
0.714134
0.714567
0.714926
0.715225
0.715484
0.715728
0.71599
0.716301
0.716688
0.717171
0.71776
0.718456
0.719249
0.720122
0.721048
0.722
0.72295
0.723878
0.724767
0.725602
0.726369
0.727049
0.727623
0.728074
0.728384
0.728543
0.750891
0.750949
0.751065
0.75123
0.751438
0.751677
0.751938
0.752214
0.752504
0.752818
0.753171
0.753586
0.754087
0.754702
0.75546
0.756389
0.757524
0.758903
0.760566
0.762557
0.764918
0.767686
0.770884
0.774521
0.778587
0.783062
0.787925
0.793161
0.798751
0.804664
0.810855
0.817262
0.823812
0.830424
0.837016
0.843505
0.849811
0.855859
0.861579
0.866909
0.871791
0.876177
0.880022
0.88329
0.885949
0.887976
0.889349
0.890054
0.890081
0.889423
0.888082
0.88606
0.883365
0.880011
0.876017
0.871405
0.866206
0.860455
0.854194
0.847473
0.84035
0.832888
0.825162
0.817252
0.809249
0.801251
0.793362
0.785692
0.778353
0.771453
0.765091
0.75934
0.754234
0.749762
0.745909
0.742669
0.740064
0.738122
0.736841
0.73616
0.735991
0.736235
0.736793
0.737574
0.738497
0.739494
0.740513
0.74151
0.742456
0.743332
0.744126
0.744837
0.745464
0.746014
0.746491
0.746905
0.747263
0.747579
0.747868
0.748151
0.74845
0.748787
0.749183
0.74965
0.750197
0.750824
0.751524
0.752284
0.753085
0.753907
0.75473
0.755535
0.756306
0.757028
0.757688
0.75827
0.758759
0.75914
0.759402
0.759536
0.784207
0.784263
0.784374
0.784534
0.784741
0.784986
0.785266
0.785577
0.785923
0.786311
0.786754
0.787271
0.787882
0.788612
0.789484
0.790526
0.791767
0.793239
0.794974
0.797007
0.799368
0.802084
0.805171
0.808635
0.812472
0.816668
0.821206
0.826069
0.831231
0.836662
0.842319
0.848148
0.854089
0.860074
0.866031
0.871891
0.877584
0.883044
0.888208
0.893021
0.897431
0.901391
0.904862
0.907809
0.910202
0.912018
0.913238
0.913848
0.913837
0.913201
0.91194
0.910056
0.90756
0.904463
0.900783
0.896545
0.891776
0.88651
0.880789
0.874659
0.868173
0.861391
0.85438
0.847214
0.839974
0.832744
0.825614
0.818679
0.812029
0.805752
0.799925
0.794605
0.789826
0.7856
0.781929
0.778815
0.776264
0.774282
0.772853
0.771936
0.771466
0.771371
0.771574
0.772001
0.772587
0.773273
0.774011
0.774764
0.775501
0.776203
0.776857
0.777455
0.777996
0.778481
0.778913
0.779297
0.779643
0.77996
0.780259
0.780558
0.780872
0.781216
0.781606
0.78205
0.782555
0.78312
0.78374
0.784405
0.785102
0.785815
0.786527
0.787225
0.787892
0.788517
0.789085
0.789584
0.790002
0.790326
0.790549
0.790661
0.817467
0.817522
0.817632
0.817794
0.818004
0.818261
0.818561
0.818906
0.8193
0.819748
0.820264
0.820862
0.82156
0.822378
0.823338
0.824463
0.825779
0.82731
0.829085
0.831128
0.833464
0.83611
0.83908
0.842376
0.845997
0.849931
0.854164
0.858676
0.863443
0.868434
0.873609
0.878923
0.884323
0.88975
0.895144
0.900444
0.90559
0.910524
0.91519
0.919537
0.92352
0.927095
0.930226
0.932881
0.935032
0.936657
0.937738
0.938262
0.938219
0.937605
0.93642
0.934667
0.932354
0.929496
0.926108
0.922214
0.917841
0.913022
0.907794
0.9022
0.896292
0.890123
0.883754
0.877252
0.870687
0.864135
0.857674
0.85138
0.845333
0.839602
0.83425
0.829327
0.824866
0.820884
0.817393
0.814396
0.811895
0.809888
0.808355
0.807264
0.806567
0.806209
0.80613
0.80627
0.806576
0.806999
0.807496
0.808032
0.808582
0.809123
0.809643
0.810131
0.810584
0.811
0.811381
0.81173
0.812052
0.812356
0.812652
0.81295
0.813262
0.8136
0.813974
0.81439
0.814852
0.81536
0.81591
0.816495
0.817102
0.817722
0.81834
0.818945
0.819522
0.820062
0.820552
0.82098
0.821338
0.821615
0.821804
0.8219
0.850671
0.850727
0.850839
0.851004
0.851222
0.851491
0.851813
0.852187
0.85262
0.853118
0.853691
0.854352
0.855117
0.856002
0.857027
0.85821
0.859574
0.861139
0.862927
0.864957
0.867248
0.869813
0.872661
0.875794
0.879209
0.882896
0.886842
0.891029
0.895431
0.90002
0.904761
0.909613
0.914528
0.919458
0.924351
0.929152
0.933809
0.938271
0.94249
0.946418
0.950015
0.953243
0.956066
0.958456
0.960388
0.96184
0.962796
0.963242
0.963172
0.96258
0.961467
0.959836
0.957695
0.955058
0.95194
0.948363
0.944354
0.939942
0.935163
0.930057
0.924671
0.919054
0.913261
0.907352
0.901389
0.895437
0.889564
0.883836
0.878319
0.873072
0.868148
0.863588
0.859425
0.855679
0.852362
0.84948
0.847034
0.845018
0.843415
0.842198
0.84133
0.840768
0.840465
0.840374
0.84045
0.84065
0.84094
0.841288
0.84167
0.842065
0.842459
0.842843
0.843209
0.843555
0.843881
0.844188
0.844479
0.844762
0.845042
0.845327
0.845627
0.845948
0.846299
0.846683
0.847103
0.847559
0.848047
0.84856
0.849091
0.84963
0.850167
0.850691
0.851191
0.851657
0.852079
0.852447
0.852754
0.852991
0.853153
0.853235
0.88382
0.883877
0.883991
0.884161
0.884388
0.88467
0.885011
0.885411
0.885876
0.886413
0.887031
0.88774
0.888554
0.889488
0.890556
0.891777
0.893168
0.894745
0.896526
0.898526
0.900759
0.903234
0.905957
0.90893
0.912148
0.915603
0.919281
0.923165
0.927232
0.931455
0.935803
0.940238
0.94472
0.949205
0.953648
0.958003
0.962223
0.966263
0.970079
0.973631
0.976881
0.979794
0.98234
0.98449
0.986223
0.987519
0.988362
0.98874
0.988646
0.988077
0.987032
0.985514
0.983533
0.9811
0.978231
0.974946
0.971269
0.967228
0.962858
0.958195
0.953281
0.948162
0.942885
0.937506
0.932078
0.92666
0.921309
0.916082
0.911036
0.90622
0.90168
0.897453
0.893567
0.890044
0.886895
0.884128
0.881744
0.879735
0.878089
0.876782
0.875787
0.875068
0.874589
0.874311
0.874197
0.874213
0.874327
0.874511
0.874745
0.875008
0.875287
0.875571
0.875854
0.876131
0.876399
0.876661
0.876916
0.87717
0.877426
0.877691
0.87797
0.878268
0.878591
0.878941
0.879319
0.879726
0.880157
0.880608
0.881072
0.881541
0.882007
0.882461
0.882893
0.883296
0.883659
0.883976
0.88424
0.884443
0.884582
0.884652
0.916912
0.91697
0.917087
0.917263
0.917497
0.917792
0.918148
0.91857
0.919061
0.919627
0.920278
0.921022
0.921871
0.922837
0.923934
0.925175
0.926575
0.928147
0.929905
0.931862
0.934027
0.936406
0.939004
0.94182
0.944851
0.948086
0.951514
0.955118
0.958877
0.962766
0.966756
0.970815
0.974907
0.978994
0.983035
0.98699
0.990817
0.994478
0.997933
1.00115
1.00408
1.00671
1.00901
1.01094
1.0125
1.01365
1.01439
1.01471
1.0146
1.01405
1.01307
1.01166
1.00982
1.00758
1.00494
1.00192
0.998546
0.994845
0.990847
0.986585
0.982097
0.977425
0.972613
0.967708
0.962758
0.957815
0.952928
0.948148
0.943522
0.939093
0.9349
0.930976
0.927347
0.924033
0.921047
0.918394
0.916078
0.914091
0.912423
0.911056
0.909967
0.909129
0.908512
0.908084
0.907815
0.907677
0.907642
0.907686
0.907789
0.907935
0.908109
0.908302
0.908505
0.908714
0.908926
0.909139
0.909355
0.909575
0.909802
0.91004
0.910292
0.910563
0.910855
0.91117
0.911508
0.911868
0.912248
0.912643
0.913048
0.913456
0.91386
0.914252
0.914626
0.914973
0.915286
0.915559
0.915785
0.91596
0.916078
0.916139
0.949945
0.950005
0.950124
0.950305
0.950547
0.950851
0.951221
0.951659
0.952169
0.952758
0.953432
0.9542
0.955072
0.956057
0.957167
0.958414
0.959809
0.961363
0.963087
0.96499
0.96708
0.96936
0.971833
0.974497
0.977348
0.980377
0.983571
0.986916
0.990392
0.993975
0.997642
1.00136
1.0051
1.00883
1.01251
1.0161
1.01958
1.0229
1.02603
1.02894
1.03159
1.03397
1.03604
1.03778
1.03917
1.0402
1.04085
1.04111
1.04098
1.04046
1.03953
1.03822
1.03652
1.03445
1.03202
1.02925
1.02615
1.02276
1.0191
1.0152
1.0111
1.00683
1.00243
0.997954
0.993432
0.988914
0.984442
0.980061
0.97581
0.971729
0.96785
0.964204
0.960813
0.957695
0.954864
0.952325
0.950081
0.948128
0.946456
0.945051
0.943896
0.942969
0.942244
0.941698
0.941304
0.941038
0.940877
0.940801
0.940791
0.940833
0.940913
0.941022
0.941151
0.941295
0.94145
0.941615
0.941789
0.941973
0.942167
0.942374
0.942597
0.942837
0.943096
0.943375
0.943674
0.943991
0.944323
0.944668
0.94502
0.945374
0.945724
0.946063
0.946385
0.946684
0.946954
0.947188
0.947382
0.947532
0.947634
0.947685
0.982918
0.982979
0.983101
0.983286
0.983534
0.983846
0.984226
0.984675
0.985199
0.985803
0.986492
0.987274
0.988158
0.989151
0.990264
0.991505
0.992884
0.994409
0.99609
0.997932
0.999942
1.00212
1.00447
1.00699
1.00967
1.0125
1.01548
1.01858
1.0218
1.0251
1.02847
1.03188
1.03531
1.03871
1.04206
1.04534
1.04849
1.05151
1.05435
1.05698
1.05938
1.06153
1.06339
1.06496
1.0662
1.06712
1.06769
1.0679
1.06776
1.06726
1.06639
1.06517
1.0636
1.06169
1.05945
1.0569
1.05405
1.05094
1.04759
1.04402
1.04026
1.03636
1.03234
1.02824
1.0241
1.01997
1.01587
1.01184
1.00793
1.00416
1.00057
0.997176
0.994005
0.991072
0.988388
0.985962
0.983794
0.981883
0.980221
0.978797
0.977598
0.976605
0.975799
0.975159
0.974664
0.974293
0.974028
0.97385
0.973742
0.973693
0.973689
0.973721
0.973781
0.973864
0.973965
0.974082
0.974214
0.974359
0.974519
0.974694
0.974884
0.975092
0.975318
0.975561
0.975821
0.976097
0.976387
0.976686
0.97699
0.977296
0.977598
0.97789
0.978168
0.978425
0.978656
0.978858
0.979024
0.979153
0.97924
0.979284
1.01583
1.01589
1.01602
1.0162
1.01646
1.01677
1.01716
1.01762
1.01815
1.01876
1.01946
1.02025
1.02113
1.02213
1.02323
1.02446
1.02581
1.0273
1.02893
1.03071
1.03263
1.03471
1.03694
1.03931
1.04183
1.04448
1.04726
1.05014
1.05312
1.05616
1.05927
1.0624
1.06553
1.06864
1.0717
1.07468
1.07756
1.08029
1.08287
1.08526
1.08743
1.08937
1.09105
1.09246
1.09357
1.09438
1.09488
1.09506
1.0949
1.09442
1.09361
1.09247
1.09102
1.08925
1.08719
1.08484
1.08223
1.07937
1.07629
1.07302
1.06958
1.066
1.06232
1.05857
1.05478
1.05098
1.04721
1.04351
1.0399
1.03642
1.03309
1.02993
1.02696
1.0242
1.02166
1.01934
1.01725
1.01539
1.01375
1.01232
1.01109
1.01005
1.00919
1.00848
1.0079
1.00744
1.00709
1.00683
1.00664
1.00651
1.00643
1.00639
1.00639
1.00641
1.00646
1.00654
1.00662
1.00673
1.00686
1.007
1.00715
1.00733
1.00752
1.00773
1.00795
1.00819
1.00844
1.0087
1.00896
1.00922
1.00948
1.00973
1.00997
1.01019
1.01039
1.01056
1.0107
1.01081
1.01089
1.01093
1.04868
1.04874
1.04887
1.04906
1.04931
1.04963
1.05002
1.05048
1.05102
1.05164
1.05233
1.05312
1.05401
1.05499
1.05608
1.05728
1.0586
1.06005
1.06163
1.06333
1.06517
1.06715
1.06926
1.0715
1.07386
1.07634
1.07893
1.0816
1.08436
1.08717
1.09003
1.09291
1.09578
1.09862
1.10142
1.10414
1.10675
1.10924
1.11158
1.11375
1.11571
1.11746
1.11898
1.12024
1.12124
1.12196
1.1224
1.12253
1.12237
1.12191
1.12115
1.12009
1.11874
1.11711
1.11521
1.11304
1.11064
1.10802
1.10519
1.10219
1.09903
1.09575
1.09238
1.08893
1.08545
1.08196
1.0785
1.07509
1.07175
1.06853
1.06543
1.06248
1.05971
1.05711
1.0547
1.05249
1.05048
1.04867
1.04706
1.04564
1.0444
1.04333
1.04242
1.04165
1.04102
1.04049
1.04007
1.03973
1.03947
1.03927
1.03913
1.03903
1.03897
1.03894
1.03894
1.03897
1.03902
1.03909
1.03918
1.03928
1.03941
1.03955
1.03971
1.03988
1.04007
1.04027
1.04049
1.0407
1.04093
1.04115
1.04137
1.04159
1.04179
1.04198
1.04215
1.0423
1.04242
1.04251
1.04257
1.04261
1.08147
1.08153
1.08166
1.08185
1.0821
1.08242
1.08281
1.08328
1.08381
1.08443
1.08512
1.0859
1.08678
1.08774
1.08881
1.08999
1.09127
1.09267
1.09419
1.09582
1.09758
1.09946
1.10145
1.10356
1.10578
1.1081
1.1105
1.11299
1.11554
1.11814
1.12077
1.12342
1.12605
1.12866
1.13121
1.13369
1.13608
1.13834
1.14047
1.14243
1.14421
1.1458
1.14716
1.1483
1.14919
1.14983
1.15021
1.15031
1.15015
1.14971
1.14899
1.148
1.14675
1.14524
1.14348
1.14149
1.13928
1.13687
1.13427
1.13151
1.12861
1.1256
1.1225
1.11933
1.11613
1.11292
1.10973
1.10658
1.1035
1.10051
1.09763
1.09488
1.09227
1.08982
1.08754
1.08544
1.08351
1.08176
1.08018
1.07878
1.07754
1.07645
1.07551
1.0747
1.07402
1.07344
1.07296