/*--------------------------------*- C++ -*----------------------------------*\
| =========                 |                                                 |
| \\      /  F ield         | OpenFOAM: The Open Source CFD Toolbox           |
|  \\    /   O peration     | Version:  2406                                  |
|   \\  /    A nd           | Website:  www.openfoam.com                      |
|    \\/     M anipulation  |                                                 |
\*---------------------------------------------------------------------------*/
FoamFile
{
    version     2.0;
    format      ascii;
    arch        "LSB;label=32;scalar=64";
    class       volScalarField;
    location    "7.75";
    object      C_0;
}
// * * * * * * * * * * * * * * * * * * * * * * * * * * * * * * * * * * * * * //

dimensions      [1 -3 0 0 0 0 0];

internalField   nonuniform List<scalar> 
14400
(
0.228245
0.227234
0.225465
0.223317
0.221181
0.219394
0.218206
0.217774
0.218159
0.219327
0.221141
0.223361
0.225628
0.22748
0.228388
0.227878
0.225754
0.222338
0.218202
0.213952
0.21013
0.20719
0.20551
0.205409
0.207175
0.211078
0.217383
0.226363
0.238299
0.253493
0.272264
0.294956
0.321923
0.353512
0.390001
0.431421
0.476768
0.519087
0.548978
0.57009
0.588288
0.603857
0.617014
0.627923
0.636712
0.643478
0.648294
0.651211
0.652263
0.651466
0.64882
0.644309
0.6379
0.629545
0.619172
0.606688
0.591972
0.574869
0.555177
0.532514
0.498976
0.453004
0.407883
0.367074
0.331183
0.30012
0.273589
0.251235
0.232699
0.217636
0.205725
0.19667
0.190194
0.186054
0.184042
0.183996
0.185802
0.189394
0.194739
0.201832
0.210671
0.221235
0.233449
0.247133
0.261904
0.276899
0.289634
0.296168
0.29516
0.287913
0.277814
0.267345
0.25739
0.248384
0.240564
0.234033
0.228806
0.224822
0.221961
0.22006
0.218921
0.218343
0.218147
0.218212
0.21851
0.219113
0.220187
0.22195
0.224649
0.228524
0.23379
0.240625
0.249157
0.25945
0.271487
0.285131
0.300044
0.315462
0.329407
0.337314
0.235009
0.233733
0.231561
0.228989
0.226481
0.22441
0.223043
0.222541
0.222969
0.224293
0.226381
0.228987
0.231742
0.234132
0.235511
0.235182
0.232727
0.228721
0.223954
0.219138
0.214856
0.211565
0.209636
0.209378
0.211069
0.214969
0.221338
0.230441
0.242559
0.257989
0.277051
0.300087
0.327452
0.359487
0.396463
0.438404
0.484231
0.524572
0.552267
0.573
0.590916
0.60627
0.619261
0.630043
0.638734
0.645428
0.650192
0.653077
0.654112
0.653315
0.650685
0.646206
0.639848
0.631562
0.621283
0.60892
0.59436
0.577457
0.558025
0.53581
0.504416
0.46014
0.414394
0.372942
0.336502
0.304961
0.278007
0.255279
0.236413
0.221064
0.208908
0.199648
0.193013
0.188762
0.186693
0.186644
0.188508
0.192217
0.197743
0.205082
0.214235
0.225185
0.237865
0.252104
0.267537
0.2833
0.296366
0.302496
0.302231
0.295142
0.284609
0.273658
0.263269
0.253905
0.245807
0.239082
0.233743
0.229727
0.226906
0.225102
0.224096
0.223654
0.223561
0.223665
0.223924
0.224428
0.225372
0.227014
0.229627
0.233474
0.238783
0.245739
0.254474
0.265054
0.277467
0.291584
0.307079
0.323167
0.337053
0.343657
0.249046
0.247134
0.244053
0.240569
0.237287
0.234636
0.232905
0.232261
0.232771
0.234406
0.237036
0.240423
0.244185
0.247743
0.250237
0.250449
0.247114
0.241753
0.235636
0.229659
0.224446
0.220452
0.218023
0.217448
0.218983
0.222873
0.229363
0.238709
0.251185
0.267085
0.286726
0.310449
0.338602
0.371512
0.409392
0.452087
0.497909
0.534242
0.558693
0.578725
0.596105
0.611046
0.623718
0.634252
0.642755
0.649307
0.653971
0.65679
0.657794
0.656997
0.654398
0.649982
0.643722
0.635574
0.625476
0.613349
0.599091
0.582574
0.563639
0.542089
0.514313
0.473676
0.427129
0.384631
0.347185
0.31472
0.286934
0.263466
0.243949
0.228033
0.215394
0.205735
0.198791
0.194326
0.192146
0.192098
0.194078
0.198023
0.203909
0.211735
0.221509
0.233221
0.246809
0.26211
0.278738
0.295698
0.308843
0.314347
0.314952
0.309336
0.298221
0.286374
0.27515
0.265088
0.256448
0.249345
0.243795
0.23973
0.23701
0.235429
0.234722
0.234589
0.234733
0.234927
0.235093
0.235362
0.236009
0.237371
0.239783
0.243552
0.248929
0.256113
0.265239
0.276377
0.289513
0.304507
0.320979
0.337887
0.350703
0.355479
0.27135
0.268137
0.26343
0.258442
0.253937
0.250394
0.248108
0.247247
0.247874
0.249963
0.253397
0.257953
0.263268
0.268744
0.27333
0.274957
0.269593
0.261796
0.253502
0.245741
0.239132
0.234087
0.230912
0.229857
0.231151
0.235016
0.241678
0.251382
0.264388
0.280987
0.301491
0.326235
0.355558
0.38976
0.428959
0.472547
0.516113
0.546407
0.568062
0.587103
0.603732
0.618092
0.630312
0.640494
0.648726
0.655075
0.659594
0.66232
0.663278
0.662481
0.659926
0.655603
0.649486
0.641535
0.631699
0.61991
0.606082
0.59011
0.571867
0.551194
0.527037
0.491951
0.445778
0.402182
0.363368
0.329566
0.300554
0.275991
0.255511
0.238761
0.225414
0.215176
0.207786
0.203018
0.200687
0.20065
0.202809
0.207109
0.21353
0.222078
0.232765
0.245589
0.260498
0.277315
0.29556
0.313733
0.325687
0.330647
0.331925
0.329076
0.318567
0.30562
0.293241
0.282181
0.272759
0.265114
0.259273
0.25517
0.252651
0.251471
0.251301
0.251731
0.252318
0.252682
0.252659
0.252483
0.25258
0.253431
0.255473
0.259072
0.264513
0.272007
0.281691
0.293628
0.307793
0.324005
0.341686
0.358837
0.368304
0.371689
0.303166
0.297443
0.290138
0.282972
0.276785
0.272041
0.269016
0.267863
0.268637
0.271311
0.275776
0.281837
0.289181
0.297261
0.3049
0.30754
0.300137
0.288924
0.2777
0.267602
0.259179
0.252767
0.248612
0.246921
0.247888
0.25171
0.258593
0.268763
0.282471
0.299993
0.321637
0.347723
0.378569
0.414423
0.455267
0.499713
0.535783
0.559862
0.580001
0.597895
0.613626
0.62728
0.638942
0.648687
0.65658
0.662673
0.667009
0.669617
0.670518
0.669721
0.667224
0.663019
0.657082
0.649381
0.639875
0.628509
0.615216
0.599917
0.582526
0.56295
0.54112
0.512695
0.470744
0.425869
0.385297
0.349757
0.31914
0.293138
0.271393
0.253552
0.239286
0.228303
0.220346
0.2152
0.21269
0.212684
0.215092
0.219866
0.226993
0.236484
0.248357
0.262616
0.27921
0.297943
0.318142
0.336393
0.345795
0.350512
0.352364
0.351494
0.344811
0.331389
0.317765
0.30549
0.295078
0.286747
0.280557
0.276457
0.274287
0.273765
0.274476
0.275861
0.277232
0.277924
0.277527
0.276547
0.275705
0.275708
0.277135
0.280425
0.285895
0.293758
0.304139
0.317073
0.332499
0.350158
0.368985
0.382897
0.388611
0.391262
0.342631
0.334728
0.324171
0.314329
0.306103
0.299901
0.29598
0.294471
0.295421
0.298789
0.304461
0.312234
0.321793
0.33236
0.34069
0.341162
0.336025
0.322482
0.308155
0.295401
0.284858
0.276821
0.271484
0.269013
0.269572
0.273335
0.280488
0.291238
0.305816
0.324486
0.347538
0.375268
0.407921
0.445573
0.487581
0.527934
0.555022
0.57557
0.594183
0.610851
0.625596
0.638459
0.649488
0.658732
0.666233
0.672029
0.676151
0.678622
0.679456
0.678659
0.676232
0.672165
0.666441
0.659034
0.649912
0.639035
0.626354
0.611817
0.595369
0.57696
0.556551
0.533497
0.500274
0.455513
0.413172
0.375592
0.343029
0.315267
0.291971
0.272791
0.257403
0.245516
0.236882
0.231294
0.228586
0.228638
0.231369
0.236738
0.244738
0.255383
0.268694
0.28467
0.303224
0.324026
0.345772
0.361317
0.368638
0.37324
0.375512
0.375584
0.37312
0.363383
0.348888
0.33531
0.323752
0.314617
0.308036
0.304007
0.302381
0.302855
0.304924
0.307862
0.310584
0.311957
0.310782
0.308404
0.306038
0.304728
0.305221
0.30802
0.313454
0.321725
0.332919
0.346971
0.36369
0.382417
0.399306
0.40746
0.411433
0.413486
0.379858
0.375902
0.364536
0.352346
0.342036
0.334232
0.329307
0.327398
0.328556
0.332711
0.339701
0.349208
0.360728
0.372071
0.375319
0.373911
0.371354
0.361287
0.344665
0.329266
0.316452
0.306611
0.299927
0.296552
0.296633
0.30033
0.307812
0.31926
0.334882
0.354919
0.379635
0.409283
0.443955
0.483242
0.524623
0.553955
0.57447
0.593208
0.610312
0.62573
0.639448
0.651472
0.661821
0.670519
0.677591
0.68306
0.686946
0.689263
0.690023
0.689229
0.68688
0.682968
0.677482
0.670402
0.661705
0.651364
0.639349
0.625628
0.610174
0.592968
0.574008
0.553315
0.528367
0.490983
0.447225
0.407403
0.372616
0.342807
0.31769
0.296933
0.280221
0.267274
0.257853
0.25176
0.248841
0.248982
0.252113
0.258198
0.267234
0.279236
0.29422
0.312157
0.332871
0.35565
0.376637
0.387504
0.393858
0.398298
0.40086
0.401667
0.400927
0.396991
0.385937
0.371725
0.359037
0.349036
0.342039
0.338161
0.337298
0.339167
0.343168
0.348481
0.35334
0.356108
0.35338
0.348759
0.344094
0.340907
0.340101
0.342213
0.347535
0.356239
0.368344
0.383504
0.40113
0.419039
0.428727
0.433101
0.436175
0.437763
0.413568
0.413265
0.408342
0.396353
0.384563
0.375172
0.36922
0.366887
0.3683
0.373305
0.381639
0.392546
0.404821
0.40974
0.409066
0.407677
0.405549
0.400843
0.386652
0.369266
0.354253
0.342536
0.334389
0.330004
0.329545
0.333179
0.34106
0.353339
0.370181
0.391789
0.418379
0.450156
0.486884
0.52671
0.556693
0.577119
0.595444
0.612481
0.628126
0.64231
0.654994
0.666161
0.675805
0.683932
0.690551
0.695673
0.699308
0.701463
0.702144
0.701354
0.69909
0.695347
0.690116
0.683386
0.675142
0.665368
0.654048
0.641172
0.626731
0.610732
0.593198
0.57418
0.553767
0.526866
0.486769
0.445359
0.4083
0.376237
0.349062
0.326498
0.308261
0.294093
0.28377
0.277106
0.273956
0.274219
0.277827
0.284751
0.294985
0.308535
0.325395
0.345477
0.368366
0.392271
0.407601
0.415181
0.420991
0.425235
0.427964
0.429294
0.429408
0.428556
0.424234
0.414008
0.40088
0.390136
0.382729
0.37909
0.379161
0.382783
0.389103
0.397366
0.404274
0.40637
0.404285
0.397259
0.389843
0.384323
0.381941
0.383222
0.388354
0.397459
0.41054
0.426316
0.442749
0.45242
0.456657
0.460026
0.462401
0.463629
0.447538
0.44744
0.447239
0.442654
0.432915
0.42247
0.415701
0.412917
0.414661
0.420457
0.429743
0.439991
0.444735
0.444359
0.443452
0.44218
0.440453
0.438244
0.431509
0.415114
0.398494
0.385015
0.375344
0.369863
0.368805
0.372388
0.380761
0.394019
0.412243
0.435575
0.464071
0.49785
0.535172
0.563909
0.583762
0.601197
0.617707
0.633145
0.6474
0.66039
0.672058
0.682371
0.691306
0.698853
0.705009
0.709774
0.713149
0.715136
0.715738
0.714952
0.712779
0.709213
0.70425
0.697884
0.690108
0.680916
0.670306
0.658279
0.644846
0.630029
0.613871
0.596435
0.577818
0.558048
0.530117
0.489488
0.450474
0.416073
0.386656
0.36207
0.342102
0.326543
0.315193
0.307882
0.30448
0.304892
0.309056
0.316938
0.328523
0.343782
0.362653
0.384909
0.409415
0.428605
0.437891
0.44443
0.449689
0.453685
0.456467
0.458138
0.458853
0.458824
0.458318
0.455052
0.447774
0.437318
0.429804
0.426557
0.427487
0.432767
0.440358
0.445455
0.448104
0.448599
0.448572
0.446258
0.441349
0.434109
0.430401
0.430919
0.435752
0.444889
0.458537
0.47065
0.478599
0.482197
0.485359
0.487946
0.489775
0.490723
0.481607
0.481637
0.481758
0.482079
0.479376
0.474047
0.467664
0.464416
0.466565
0.472402
0.477779
0.480706
0.47994
0.479096
0.478204
0.477139
0.475836
0.474286
0.4725
0.465048
0.449011
0.434372
0.423219
0.416596
0.414871
0.418425
0.427409
0.441822
0.461525
0.486597
0.516413
0.55056
0.576304
0.594497
0.610624
0.626201
0.641041
0.654993
0.667939
0.67979
0.690479
0.699958
0.708194
0.715165
0.720858
0.725264
0.728378
0.730196
0.730717
0.729939
0.727859
0.724476
0.719787
0.713792
0.70649
0.697884
0.68798
0.676793
0.664344
0.650669
0.635821
0.61987
0.602914
0.585069
0.566113
0.538509
0.499229
0.462732
0.431041
0.404264
0.382362
0.365239
0.352731
0.344687
0.340999
0.341586
0.346379
0.355333
0.368407
0.385465
0.406253
0.429952
0.451514
0.462623
0.469265
0.474957
0.479652
0.483348
0.486082
0.487938
0.489042
0.489567
0.489732
0.489812
0.488684
0.485144
0.481123
0.478823
0.479704
0.482013
0.484068
0.484326
0.483742
0.483842
0.484627
0.486107
0.486334
0.484935
0.483402
0.483745
0.488066
0.495195
0.502115
0.506998
0.509596
0.512226
0.514637
0.516623
0.518032
0.518763
0.515645
0.515743
0.515986
0.516471
0.517355
0.517294
0.515748
0.514721
0.515319
0.516702
0.516936
0.515633
0.514675
0.513882
0.513129
0.512335
0.511465
0.510531
0.509593
0.508637
0.502412
0.490085
0.47807
0.470464
0.467992
0.471565
0.481301
0.497064
0.518025
0.54425
0.572181
0.593716
0.609219
0.623721
0.638036
0.651943
0.665262
0.677846
0.689574
0.700353
0.71011
0.718788
0.726347
0.732756
0.737994
0.742047
0.744902
0.746554
0.746996
0.746227
0.744243
0.741044
0.736632
0.731007
0.724176
0.716149
0.706939
0.696568
0.685069
0.672484
0.658872
0.644311
0.628897
0.612745
0.595992
0.578253
0.552435
0.515982
0.482619
0.453644
0.42964
0.410807
0.397016
0.38814
0.384124
0.384909
0.390395
0.400503
0.415174
0.433959
0.455962
0.477814
0.489753
0.495985
0.501588
0.506482
0.510614
0.513971
0.516576
0.51849
0.519811
0.520669
0.521228
0.521676
0.522214
0.522961
0.522599
0.521866
0.521552
0.520779
0.519349
0.518497
0.518167
0.518388
0.519179
0.520559
0.522567
0.525197
0.526895
0.528704
0.531588
0.534768
0.536621
0.538419
0.54044
0.542476
0.544339
0.545876
0.546968
0.547534
0.549584
0.549705
0.549972
0.550432
0.551136
0.552083
0.553204
0.553737
0.55327
0.552085
0.550947
0.549996
0.549243
0.548628
0.548095
0.547607
0.547158
0.546781
0.546551
0.546598
0.547057
0.543947
0.538009
0.530722
0.527676
0.531457
0.541885
0.558901
0.579321
0.598705
0.615077
0.627621
0.640312
0.653134
0.665854
0.678273
0.690219
0.701554
0.712158
0.721938
0.730818
0.738737
0.745649
0.751518
0.756317
0.760026
0.76263
0.76412
0.764488
0.763729
0.761842
0.758827
0.754687
0.749428
0.743059
0.735596
0.727057
0.717472
0.706878
0.695324
0.682874
0.669606
0.655617
0.641023
0.625959
0.610585
0.594697
0.571924
0.540809
0.510437
0.484331
0.463788
0.448646
0.438816
0.434414
0.435428
0.441644
0.452861
0.469135
0.488867
0.508256
0.519476
0.524889
0.529963
0.534619
0.538768
0.542351
0.545346
0.547761
0.549636
0.551041
0.55207
0.552834
0.553452
0.554023
0.55458
0.554995
0.555002
0.554318
0.553428
0.552631
0.552145
0.552042
0.552365
0.55314
0.554379
0.556082
0.558216
0.560658
0.563074
0.564942
0.566455
0.567995
0.569605
0.571271
0.572897
0.574367
0.575573
0.576429
0.576872
0.583404
0.58352
0.583764
0.584148
0.584675
0.585303
0.585908
0.586199
0.585996
0.585422
0.584764
0.584162
0.583671
0.583293
0.583017
0.58284
0.58278
0.582883
0.583232
0.583957
0.585248
0.587384
0.588566
0.588707
0.590388
0.595368
0.604353
0.615953
0.628125
0.639009
0.649202
0.660048
0.671272
0.682649
0.693975
0.705073
0.715789
0.725991
0.735567
0.744424
0.752487
0.759694
0.765994
0.771349
0.775729
0.779109
0.781473
0.782808
0.783105
0.782359
0.780569
0.777735
0.773862
0.768958
0.763038
0.756117
0.748223
0.739385
0.729648
0.719062
0.707693
0.695621
0.682943
0.669771
0.656238
0.642497
0.628728
0.615039
0.596587
0.573006
0.545917
0.524357
0.507993
0.497044
0.492168
0.493478
0.500402
0.512126
0.52921
0.543286
0.552017
0.556155
0.560314
0.564358
0.568158
0.571619
0.574677
0.577301
0.579485
0.581253
0.582649
0.583736
0.584586
0.585273
0.585849
0.58632
0.586627
0.586668
0.586393
0.585976
0.5856
0.585411
0.585491
0.585891
0.586636
0.587734
0.589167
0.590886
0.59278
0.594665
0.596347
0.597852
0.5993
0.600733
0.602142
0.603475
0.60466
0.605622
0.606301
0.606653
0.617107
0.617209
0.617415
0.617721
0.618113
0.618544
0.618927
0.619132
0.619088
0.618844
0.618523
0.618219
0.617987
0.617855
0.617839
0.617956
0.618238
0.618739
0.619538
0.62075
0.622526
0.625057
0.628555
0.633252
0.638333
0.643976
0.650601
0.657496
0.664922
0.673328
0.682446
0.692095
0.70208
0.712213
0.722324
0.732257
0.741874
0.751054
0.759694
0.767705
0.775013
0.781556
0.787284
0.792156
0.79614
0.799209
0.801345
0.802534
0.802766
0.802034
0.800339
0.797681
0.794066
0.789506
0.784015
0.777614
0.770331
0.762199
0.753265
0.743581
0.733214
0.722244
0.710762
0.69888
0.686723
0.674439
0.662195
0.650189
0.638657
0.625496
0.609163
0.5909
0.574187
0.56209
0.556672
0.558262
0.565567
0.574952
0.582625
0.587351
0.589819
0.592733
0.595852
0.598998
0.602037
0.604873
0.607438
0.609694
0.611626
0.613241
0.614565
0.615637
0.616503
0.617206
0.617778
0.618225
0.618525
0.618651
0.618608
0.618483
0.618383
0.618406
0.618621
0.619071
0.619781
0.620752
0.621967
0.62338
0.624912
0.626458
0.627928
0.629305
0.63062
0.631885
0.63309
0.634202
0.635173
0.635955
0.636502
0.636784
0.650708
0.650794
0.650964
0.65121
0.651512
0.651834
0.652122
0.652314
0.652381
0.652344
0.652264
0.652202
0.652204
0.652303
0.652527
0.652906
0.653478
0.654296
0.655431
0.656978
0.659047
0.661763
0.66524
0.669531
0.674489
0.679967
0.68584
0.692259
0.699269
0.706935
0.715158
0.723808
0.732739
0.741801
0.750851
0.759756
0.768394
0.776657
0.784449
0.791688
0.798303
0.804234
0.80943
0.813851
0.817464
0.820242
0.822165
0.823217
0.823389
0.822674
0.821071
0.818584
0.815218
0.810985
0.805902
0.799993
0.793286
0.785817
0.777631
0.768784
0.75934
0.749376
0.738982
0.728263
0.717336
0.706339
0.695426
0.684774
0.674588
0.665097
0.656394
0.646203
0.636035
0.627708
0.622659
0.621265
0.622554
0.624554
0.624918
0.625648
0.62713
0.629105
0.631363
0.633743
0.636119
0.638397
0.640509
0.642412
0.644084
0.645521
0.646734
0.647745
0.648581
0.64927
0.649832
0.650275
0.650598
0.650802
0.650907
0.650965
0.651044
0.65121
0.651514
0.651992
0.652663
0.653527
0.65457
0.655754
0.657029
0.658329
0.659601
0.660822
0.661988
0.663096
0.664131
0.665069
0.665877
0.66652
0.666968
0.667198
0.684222
0.684295
0.684439
0.684643
0.684891
0.685158
0.685412
0.685623
0.685776
0.685887
0.685988
0.686121
0.686322
0.686625
0.687061
0.687663
0.688471
0.689535
0.690914
0.692683
0.694921
0.697709
0.701109
0.705138
0.70974
0.714842
0.720396
0.72643
0.732959
0.739984
0.747443
0.755241
0.763267
0.7714
0.779523
0.787522
0.79529
0.802731
0.809758
0.816296
0.822277
0.827645
0.832351
0.836355
0.839624
0.842131
0.843855
0.844781
0.844898
0.844201
0.842689
0.840364
0.837235
0.833313
0.828617
0.82317
0.817002
0.81015
0.80266
0.794584
0.785986
0.776939
0.767529
0.757852
0.74802
0.738155
0.728395
0.718895
0.709821
0.701352
0.693662
0.686943
0.681261
0.676311
0.672072
0.668598
0.665745
0.663851
0.663094
0.663188
0.663949
0.665193
0.666754
0.668493
0.6703
0.672086
0.673788
0.675361
0.676777
0.678024
0.679104
0.680027
0.680807
0.681462
0.682004
0.682445
0.682791
0.683053
0.683252
0.683425
0.683618
0.683875
0.684234
0.684721
0.685351
0.686125
0.687029
0.68804
0.689119
0.690227
0.691327
0.692394
0.693415
0.694379
0.69527
0.696067
0.696746
0.697282
0.697653
0.697843
0.717662
0.717727
0.717852
0.718031
0.718251
0.718495
0.718746
0.718987
0.719215
0.719439
0.719682
0.719971
0.720339
0.720815
0.721429
0.722215
0.72321
0.724457
0.726008
0.727918
0.730246
0.733044
0.736349
0.740172
0.744489
0.749265
0.754472
0.760105
0.766154
0.772599
0.779388
0.786447
0.793687
0.801011
0.80832
0.815518
0.822512
0.829218
0.835557
0.84146
0.846865
0.851719
0.855975
0.859595
0.862546
0.864802
0.866343
0.867153
0.867222
0.866545
0.865119
0.86295
0.860044
0.856416
0.852082
0.847068
0.841403
0.835123
0.828274
0.820905
0.813079
0.804865
0.796341
0.787598
0.778736
0.769864
0.761105
0.752588
0.74445
0.73683
0.729857
0.723639
0.718211
0.713507
0.709476
0.706087
0.703396
0.701494
0.700419
0.700059
0.700286
0.700964
0.701965
0.703176
0.7045
0.705861
0.707197
0.708466
0.709637
0.710695
0.711632
0.712451
0.713159
0.713765
0.714279
0.71471
0.715068
0.715366
0.715623
0.715867
0.716128
0.716438
0.716824
0.717307
0.717895
0.718591
0.719384
0.720256
0.721182
0.722134
0.723084
0.724011
0.7249
0.725736
0.726502
0.727182
0.727757
0.728208
0.728518
0.728676
0.751038
0.751097
0.751213
0.751378
0.751587
0.751827
0.752089
0.752366
0.752657
0.752972
0.753327
0.753744
0.754248
0.754865
0.755625
0.756557
0.757695
0.759077
0.760743
0.762736
0.7651
0.767871
0.771072
0.774712
0.77878
0.783258
0.788124
0.793362
0.798954
0.80487
0.811063
0.817471
0.824022
0.830636
0.837228
0.843717
0.850024
0.856072
0.861792
0.867122
0.872004
0.87639
0.880235
0.883502
0.886162
0.888188
0.889561
0.890266
0.890292
0.889635
0.888294
0.886271
0.883577
0.880223
0.876228
0.871617
0.866418
0.860666
0.854406
0.847685
0.840562
0.8331
0.825374
0.817464
0.809461
0.801462
0.793573
0.785902
0.778562
0.771662
0.765298
0.759544
0.754435
0.749961
0.746106
0.742864
0.740256
0.738312
0.737028
0.736344
0.736172
0.736412
0.736967
0.737744
0.738664
0.739659
0.740674
0.741669
0.742612
0.743486
0.744278
0.744987
0.745613
0.74616
0.746636
0.747048
0.747405
0.74772
0.748008
0.74829
0.748588
0.748925
0.749319
0.749786
0.750333
0.750959
0.751659
0.752418
0.753219
0.754041
0.754863
0.755668
0.756439
0.757161
0.757821
0.758403
0.758892
0.759274
0.759535
0.759669
0.784355
0.784411
0.784522
0.784683
0.78489
0.785136
0.785417
0.78573
0.786077
0.786466
0.786911
0.78743
0.788043
0.788774
0.789649
0.790693
0.791937
0.793411
0.795149
0.797185
0.799548
0.802267
0.805356
0.808823
0.812663
0.816861
0.821402
0.826266
0.831431
0.836864
0.842522
0.848353
0.854296
0.860281
0.866239
0.8721
0.877793
0.883253
0.888418
0.893231
0.897641
0.901601
0.905072
0.908018
0.910412
0.912228
0.913448
0.914057
0.914046
0.91341
0.912149
0.910265
0.907768
0.904671
0.900992
0.896753
0.891984
0.886719
0.880998
0.874868
0.868382
0.8616
0.854589
0.847423
0.840182
0.832951
0.825822
0.818885
0.812235
0.805956
0.800127
0.794805
0.790024
0.785796
0.782123
0.779006
0.776453
0.774469
0.773038
0.772117
0.771645
0.771546
0.771746
0.77217
0.772753
0.773436
0.774172
0.774922
0.775657
0.776357
0.777009
0.777605
0.778144
0.778627
0.779057
0.779441
0.779785
0.780101
0.780399
0.780697
0.78101
0.781354
0.781742
0.782186
0.78269
0.783255
0.783874
0.784539
0.785236
0.785948
0.786661
0.787358
0.788025
0.78865
0.789218
0.789717
0.790135
0.790459
0.790681
0.790794
0.817616
0.817671
0.817781
0.817943
0.818154
0.818412
0.818713
0.819059
0.819453
0.819903
0.820421
0.82102
0.82172
0.82254
0.823502
0.82463
0.825948
0.827482
0.829259
0.831304
0.833642
0.836291
0.839263
0.842562
0.846185
0.850122
0.854357
0.858871
0.863639
0.868632
0.873809
0.879125
0.884525
0.889953
0.895348
0.90065
0.905796
0.91073
0.915396
0.919744
0.923726
0.927301
0.930432
0.933087
0.935239
0.936864
0.937945
0.938468
0.938425
0.937811
0.936626
0.934873
0.93256
0.929702
0.926314
0.92242
0.918047
0.913227
0.907999
0.902406
0.896497
0.890328
0.883959
0.877457
0.870892
0.864339
0.857877
0.851583
0.845534
0.839802
0.834449
0.829524
0.825061
0.821077
0.817583
0.814584
0.812082
0.810072
0.808537
0.807443
0.806744
0.806383
0.8063
0.806438
0.806742
0.807161
0.807656
0.80819
0.808737
0.809277
0.809794
0.810281
0.810732
0.811146
0.811525
0.811873
0.812194
0.812497
0.812792
0.813089
0.8134
0.813737
0.81411
0.814526
0.814987
0.815495
0.816045
0.816628
0.817236
0.817855
0.818473
0.819077
0.819655
0.820195
0.820684
0.821113
0.82147
0.821747
0.821936
0.822032
0.85082
0.850877
0.850988
0.851154
0.851372
0.851642
0.851965
0.85234
0.852774
0.853274
0.853848
0.854511
0.855277
0.856164
0.857191
0.858376
0.859742
0.861309
0.863099
0.865132
0.867425
0.869992
0.872842
0.875978
0.879395
0.883084
0.887032
0.89122
0.895624
0.900215
0.904958
0.909811
0.914727
0.919659
0.924552
0.929354
0.934011
0.938474
0.942693
0.946622
0.950219
0.953446
0.95627
0.95866
0.960592
0.962043
0.962999
0.963446
0.963375
0.962783
0.96167
0.960039
0.957898
0.955261
0.952143
0.948566
0.944557
0.940144
0.935365
0.93026
0.924874
0.919256
0.913463
0.907553
0.90159
0.895637
0.889763
0.884035
0.878517
0.873269
0.868343
0.863782
0.859617
0.855868
0.852549
0.849666
0.847218
0.845199
0.843594
0.842375
0.841504
0.84094
0.840634
0.840541
0.840614
0.840812
0.8411
0.841445
0.841825
0.842218
0.84261
0.842992
0.843357
0.843701
0.844025
0.844331
0.844621
0.844903
0.845182
0.845466
0.845765
0.846086
0.846435
0.846819
0.847239
0.847694
0.848181
0.848694
0.849225
0.849764
0.8503
0.850823
0.851323
0.851789
0.852211
0.852579
0.852886
0.853123
0.853285
0.853367
0.883969
0.884026
0.884141
0.884311
0.884538
0.884821
0.885163
0.885564
0.88603
0.886568
0.887187
0.887898
0.888714
0.889649
0.89072
0.891942
0.893335
0.894914
0.896697
0.898699
0.900934
0.903411
0.906137
0.909111
0.912331
0.915788
0.919468
0.923354
0.927423
0.931647
0.935996
0.940432
0.944915
0.949402
0.953846
0.958202
0.962422
0.966462
0.970279
0.973831
0.977081
0.979994
0.98254
0.984691
0.986424
0.987719
0.988562
0.988941
0.988847
0.988277
0.987232
0.985715
0.983734
0.9813
0.978431
0.975145
0.971468
0.967428
0.963058
0.958395
0.95348
0.94836
0.943084
0.937704
0.932276
0.926857
0.921505
0.916278
0.91123
0.906413
0.901872
0.897643
0.893756
0.89023
0.88708
0.884311
0.881925
0.879914
0.878266
0.876957
0.875959
0.875238
0.874756
0.874476
0.87436
0.874373
0.874485
0.874668
0.874899
0.87516
0.875437
0.87572
0.876001
0.876276
0.876544
0.876803
0.877058
0.87731
0.877566
0.877829
0.878107
0.878405
0.878727
0.879076
0.879454
0.87986
0.880291
0.880741
0.881205
0.881674
0.88214
0.882593
0.883025
0.883427
0.883791
0.884108
0.884371
0.884574
0.884713
0.884783
0.917061
0.917119
0.917237
0.917413
0.917648
0.917943
0.9183
0.918723
0.919214
0.919782
0.920434
0.92118
0.92203
0.922998
0.924096
0.925339
0.926741
0.928315
0.930075
0.932034
0.9342
0.936582
0.939181
0.942
0.945032
0.948269
0.951699
0.955304
0.959064
0.962955
0.966947
0.971007
0.9751
0.979187
0.983229
0.987185
0.991013
0.994674
0.99813
1.00134
1.00428
1.00691
1.00921
1.01114
1.01269
1.01385
1.01459
1.01491
1.01479
1.01425
1.01327
1.01185
1.01002
1.00778
1.00513
1.00212
0.998743
0.995042
0.991043
0.986781
0.982293
0.977621
0.972808
0.967903
0.962953
0.958009
0.953121
0.94834
0.943713
0.939283
0.935088
0.931163
0.927533
0.924217
0.921229
0.918575
0.916256
0.914267
0.912597
0.911228
0.910137
0.909297
0.908677
0.908247
0.907977
0.907836
0.907799
0.907841
0.907943
0.908086
0.908259
0.90845
0.908652
0.908859
0.90907
0.909282
0.909496
0.909715
0.909941
0.910178
0.91043
0.9107
0.910991
0.911305
0.911642
0.912002
0.912381
0.912776
0.91318
0.913588
0.913992
0.914384
0.914758
0.915104
0.915417
0.91569
0.915916
0.916091
0.916209
0.916269
0.950094
0.950154
0.950274
0.950455
0.950697
0.951003
0.951373
0.951811
0.952323
0.952912
0.953588
0.954357
0.95523
0.956217
0.957329
0.958577
0.959974
0.96153
0.963255
0.96516
0.967251
0.969533
0.972008
0.974674
0.977527
0.980557
0.983753
0.987099
0.990576
0.994162
0.997829
1.00155
1.00529
1.00902
1.0127
1.01629
1.01977
1.02309
1.02622
1.02913
1.03179
1.03416
1.03623
1.03797
1.03936
1.04039
1.04104
1.0413
1.04118
1.04065
1.03973
1.03842
1.03672
1.03465
1.03222
1.02944
1.02635
1.02295
1.01929
1.01539
1.01129
1.00702
1.00263
0.998145
0.993623
0.989104
0.984632
0.980249
0.975998
0.971915
0.968036
0.964388
0.960995
0.957876
0.955043
0.952503
0.950257
0.948302
0.946628
0.945221
0.944064
0.943135
0.942408
0.94186
0.941464
0.941196
0.941033
0.940955
0.940944
0.940984
0.941062
0.941169
0.941297
0.941439
0.941594
0.941757
0.94193
0.942112
0.942306
0.942512
0.942734
0.942973
0.943232
0.94351
0.943808
0.944124
0.944456
0.944801
0.945152
0.945506
0.945855
0.946194
0.946516
0.946815
0.947085
0.947319
0.947513
0.947663
0.947764
0.947816
0.983067
0.983128
0.983251
0.983436
0.983684
0.983997
0.984377
0.984827
0.985352
0.985957
0.986647
0.987431
0.988316
0.98931
0.990424
0.991667
0.993047
0.994574
0.996257
0.998101
1.00011
1.00229
1.00464
1.00716
1.00984
1.01268
1.01566
1.01876
1.02198
1.02529
1.02866
1.03207
1.03549
1.0389
1.04225
1.04553
1.04868
1.0517
1.05454
1.05717
1.05957
1.06172
1.06358
1.06515
1.06639
1.06731
1.06788
1.0681
1.06795
1.06745
1.06659
1.06536
1.06379
1.06188
1.05964
1.05709
1.05425
1.05113
1.04778
1.04421
1.04045
1.03655
1.03253
1.02843
1.02429
1.02015
1.01605
1.01203
1.00811
1.00435
1.00075
0.997357
0.994184
0.99125
0.988565
0.986137
0.983967
0.982054
0.980391
0.978966
0.977764
0.976769
0.975961
0.975319
0.974823
0.97445
0.974183
0.974003
0.973894
0.973842
0.973837
0.973867
0.973926
0.974008
0.974108
0.974224
0.974354
0.974499
0.974657
0.974831
0.975021
0.975228
0.975453
0.975695
0.975955
0.976231
0.976519
0.976818
0.977122
0.977428
0.977729
0.978021
0.978298
0.978555
0.978787
0.978988
0.979154
0.979283
0.97937
0.979414
1.01598
1.01604
1.01617
1.01635
1.01661
1.01692
1.01731
1.01777
1.0183
1.01892
1.01961
1.0204
1.02129
1.02228
1.02339
1.02462
1.02597
1.02746
1.0291
1.03087
1.0328
1.03488
1.03711
1.03949
1.04201
1.04466
1.04743
1.05032
1.05329
1.05635
1.05945
1.06258
1.06571
1.06883
1.07189
1.07487
1.07774
1.08048
1.08306
1.08544
1.08762
1.08956
1.09124
1.09264
1.09376
1.09457
1.09507
1.09524
1.09509
1.09461
1.0938
1.09266
1.0912
1.08944
1.08737
1.08503
1.08241
1.07956
1.07648
1.07321
1.06977
1.06619
1.06251
1.05875
1.05496
1.05116
1.0474
1.04369
1.04009
1.0366
1.03327
1.0301
1.02714
1.02437
1.02183
1.01951
1.01742
1.01556
1.01392
1.01249
1.01126
1.01022
1.00935
1.00863
1.00806
1.0076
1.00725
1.00698
1.00679
1.00666
1.00658
1.00654
1.00653
1.00656
1.00661
1.00668
1.00676
1.00687
1.00699
1.00713
1.00729
1.00746
1.00766
1.00786
1.00809
1.00832
1.00857
1.00883
1.00909
1.00935
1.00961
1.00986
1.0101
1.01032
1.01052
1.01069
1.01083
1.01094
1.01102
1.01106
1.04883
1.04889
1.04902
1.04921
1.04946
1.04978
1.05017
1.05064
1.05117
1.05179
1.05249
1.05328
1.05416
1.05515
1.05624
1.05744
1.05877
1.06021
1.06179
1.0635
1.06534
1.06732
1.06943
1.07167
1.07404
1.07652
1.0791
1.08178
1.08454
1.08735
1.09021
1.09309
1.09596
1.09881
1.1016
1.10432
1.10694
1.10943
1.11177
1.11393
1.1159
1.11765
1.11917
1.12043
1.12143
1.12215
1.12258
1.12272
1.12256
1.1221
1.12134
1.12028
1.11893
1.1173
1.11539
1.11323
1.11083
1.1082
1.10538
1.10237
1.09922
1.09594
1.09256
1.08912
1.08563
1.08214
1.07868
1.07527
1.07193
1.06871
1.06561
1.06266
1.05988
1.05728
1.05487
1.05266
1.05065
1.04884
1.04723
1.0458
1.04456
1.04349
1.04258
1.04181
1.04117
1.04065
1.04022
1.03988
1.03962
1.03942
1.03927
1.03917
1.03911
1.03908
1.03908
1.03911
1.03916
1.03923
1.03931
1.03942
1.03954
1.03968
1.03984
1.04002
1.0402
1.04041
1.04062
1.04084
1.04106
1.04128
1.0415
1.04172
1.04192
1.04211
1.04228
1.04242
1.04255
1.04264
1.0427
1.04274
1.08162
1.08168
1.0818
1.08199
1.08225
1.08257
1.08296
1.08343
1.08396
1.08458
1.08527
1.08606
1.08693
1.0879
1.08897
1.09015
1.09143
1.09283
1.09435
1.09599
1.09775
1.09962
1.10162
1.10373
1.10595
1.10827
1.11068
1.11316
1.11572
1.11832
1.12095
1.12359
1.12623
1.12884
1.13139
1.13387
1.13626
1.13852
1.14065
1.14261
1.1444
1.14598
1.14735
1.14848
1.14938
1.15001
1.15039
1.1505
1.15033
1.14989
1.14917
1.14819
1.14693
1.14542
1.14367
1.14167
1.13946
1.13705
1.13445
1.13169
1.1288
1.12578
1.12268
1.11951
1.11631
1.1131
1.10991
1.10676
1.10367
1.10068
1.0978
1.09505
1.09244
1.08999
1.08771