/*--------------------------------*- C++ -*----------------------------------*\
| =========                 |                                                 |
| \\      /  F ield         | OpenFOAM: The Open Source CFD Toolbox           |
|  \\    /   O peration     | Version:  2406                                  |
|   \\  /    A nd           | Website:  www.openfoam.com                      |
|    \\/     M anipulation  |                                                 |
\*---------------------------------------------------------------------------*/
FoamFile
{
    version     2.0;
    format      ascii;
    arch        "LSB;label=32;scalar=64";
    class       volScalarField;
    location    "7.75";
    object      D;
}
// * * * * * * * * * * * * * * * * * * * * * * * * * * * * * * * * * * * * * //

dimensions      [0 2 -1 0 0 0 0];

internalField   nonuniform List<scalar> 
14400
(
6.96672e-05
6.95984e-05
6.94956e-05
6.93935e-05
6.93113e-05
6.92542e-05
6.92202e-05
6.92068e-05
6.92151e-05
6.92511e-05
6.93247e-05
6.94448e-05
6.96103e-05
6.97938e-05
6.99231e-05
6.98875e-05
6.96182e-05
6.91994e-05
6.87195e-05
6.82138e-05
6.76782e-05
6.70957e-05
6.64545e-05
6.57572e-05
6.50224e-05
6.42798e-05
6.35622e-05
6.28991e-05
6.23137e-05
6.18229e-05
6.14413e-05
6.11854e-05
6.10826e-05
6.11876e-05
6.16286e-05
6.27864e-05
6.6415e-05
8.71592e-05
0.00013816
0.00013824
0.00013824
0.00013824
0.00013824
0.00013824
0.00013824
0.00013824
0.00013824
0.00013824
0.00013824
0.00013824
0.00013824
0.00013824
0.00013824
0.00013824
0.00013824
0.00013824
0.00013824
0.00013824
0.00013824
0.000136669
7.48059e-05
6.52804e-05
6.29095e-05
6.20933e-05
6.18667e-05
6.19699e-05
6.2312e-05
6.28591e-05
6.36001e-05
6.45285e-05
6.5628e-05
6.6855e-05
6.81277e-05
6.93304e-05
7.03411e-05
7.1066e-05
7.14592e-05
7.15248e-05
7.13104e-05
7.08986e-05
7.03985e-05
6.99371e-05
6.96639e-05
6.97906e-05
7.07681e-05
7.42819e-05
9.17038e-05
0.000138
0.000103814
7.45873e-05
6.95887e-05
6.79446e-05
6.7258e-05
6.70051e-05
6.69957e-05
6.71356e-05
6.73665e-05
6.76462e-05
6.79404e-05
6.82192e-05
6.84545e-05
6.8619e-05
6.86873e-05
6.86403e-05
6.84724e-05
6.81939e-05
6.78274e-05
6.74015e-05
6.69461e-05
6.64916e-05
6.60683e-05
6.57079e-05
6.54455e-05
6.53266e-05
6.54215e-05
6.58649e-05
6.69852e-05
6.9912e-05
8.07928e-05
0.00013684
6.93689e-05
6.92392e-05
6.90549e-05
6.88778e-05
6.87368e-05
6.86388e-05
6.85812e-05
6.85608e-05
6.85783e-05
6.86399e-05
6.8757e-05
6.89424e-05
6.92017e-05
6.95129e-05
6.97877e-05
6.98382e-05
6.94774e-05
6.89275e-05
6.83464e-05
6.77804e-05
6.72198e-05
6.66404e-05
6.60245e-05
6.5369e-05
6.46862e-05
6.39995e-05
6.33364e-05
6.27231e-05
6.21812e-05
6.17283e-05
6.138e-05
6.11553e-05
6.10851e-05
6.12302e-05
6.17342e-05
6.30426e-05
6.74678e-05
9.97672e-05
0.000138235
0.00013824
0.00013824
0.00013824
0.00013824
0.00013824
0.00013824
0.00013824
0.00013824
0.00013824
0.00013824
0.00013824
0.00013824
0.00013824
0.00013824
0.00013824
0.00013824
0.00013824
0.00013824
0.00013824
0.00013824
0.000138052
8.34705e-05
6.62985e-05
6.31423e-05
6.21674e-05
6.1876e-05
6.19356e-05
6.22367e-05
6.27378e-05
6.34222e-05
6.42795e-05
6.52911e-05
6.64162e-05
6.75819e-05
6.86866e-05
6.96215e-05
7.03001e-05
7.06776e-05
7.07565e-05
7.05815e-05
7.02313e-05
6.98091e-05
6.9436e-05
6.92575e-05
6.94917e-05
7.06407e-05
7.48588e-05
0.000100025
0.000138206
0.000116673
7.55714e-05
6.97183e-05
6.78575e-05
6.706e-05
6.67302e-05
6.66585e-05
6.67445e-05
6.69292e-05
6.71717e-05
6.744e-05
6.77057e-05
6.79408e-05
6.8115e-05
6.81965e-05
6.81591e-05
6.79936e-05
6.77156e-05
6.7355e-05
6.69453e-05
6.65181e-05
6.61023e-05
6.57252e-05
6.54155e-05
6.52068e-05
6.51451e-05
6.53062e-05
6.58446e-05
6.71792e-05
7.11238e-05
9.22358e-05
0.000138145
6.90217e-05
6.87342e-05
6.83679e-05
6.80417e-05
6.77931e-05
6.76237e-05
6.7526e-05
6.74933e-05
6.75247e-05
6.76273e-05
6.78165e-05
6.81158e-05
6.85519e-05
6.91353e-05
6.97892e-05
7.01509e-05
6.94463e-05
6.85433e-05
6.77369e-05
6.70515e-05
6.64433e-05
6.58669e-05
6.52912e-05
6.47031e-05
6.4105e-05
6.35103e-05
6.29384e-05
6.24101e-05
6.19445e-05
6.15594e-05
6.12729e-05
6.11083e-05
6.11041e-05
6.13357e-05
6.19836e-05
6.36256e-05
6.93906e-05
0.000121322
0.00013824
0.00013824
0.00013824
0.00013824
0.00013824
0.00013824
0.00013824
0.00013824
0.00013824
0.00013824
0.00013824
0.00013824
0.00013824
0.00013824
0.00013824
0.00013824
0.00013824
0.00013824
0.00013824
0.00013824
0.00013824
0.000138238
0.000104186
6.81504e-05
6.35871e-05
6.23254e-05
6.19086e-05
6.18821e-05
6.21045e-05
6.252e-05
6.31026e-05
6.38349e-05
6.46949e-05
6.56452e-05
6.66265e-05
6.7559e-05
6.83566e-05
6.8948e-05
6.92943e-05
6.93966e-05
6.92937e-05
6.90555e-05
6.87741e-05
6.85607e-05
6.85572e-05
6.8996e-05
7.04609e-05
7.5791e-05
0.000115075
0.000138239
0.000133378
7.81576e-05
7.02692e-05
6.78154e-05
6.67648e-05
6.62832e-05
6.60985e-05
6.60919e-05
6.61997e-05
6.63819e-05
6.66097e-05
6.68575e-05
6.70976e-05
6.72949e-05
6.74054e-05
6.73868e-05
6.72213e-05
6.69368e-05
6.65788e-05
6.61906e-05
6.58059e-05
6.5451e-05
6.51489e-05
6.49243e-05
6.48089e-05
6.48514e-05
6.51394e-05
6.58656e-05
6.75997e-05
7.32561e-05
0.000115837
0.00013824
6.91527e-05
6.84464e-05
6.77228e-05
6.71596e-05
6.67614e-05
6.6501e-05
6.63541e-05
6.63055e-05
6.63512e-05
6.64998e-05
6.67748e-05
6.72204e-05
6.79139e-05
6.89841e-05
7.06098e-05
7.26079e-05
7.01248e-05
6.83146e-05
6.70959e-05
6.62271e-05
6.5549e-05
6.49681e-05
6.44323e-05
6.39153e-05
6.34088e-05
6.29163e-05
6.24488e-05
6.20208e-05
6.16488e-05
6.13505e-05
6.1147e-05
6.10686e-05
6.11674e-05
6.15519e-05
6.25077e-05
6.51483e-05
7.72955e-05
0.000137655
0.00013824
0.00013824
0.00013824
0.00013824
0.00013824
0.00013824
0.00013824
0.00013824
0.00013824
0.00013824
0.00013824
0.00013824
0.00013824
0.00013824
0.00013824
0.00013824
0.00013824
0.00013824
0.00013824
0.00013824
0.00013824
0.00013824
0.000128556
7.08237e-05
6.44018e-05
6.26354e-05
6.20022e-05
6.18396e-05
6.19478e-05
6.22474e-05
6.26992e-05
6.32776e-05
6.39568e-05
6.47031e-05
6.54701e-05
6.61999e-05
6.68314e-05
6.73137e-05
6.76185e-05
6.77477e-05
6.7733e-05
6.76323e-05
6.75245e-05
6.75126e-05
6.77452e-05
6.8502e-05
7.05579e-05
7.76111e-05
0.000131659
0.00013824
0.000138231
0.000102849
7.27234e-05
6.81011e-05
6.65426e-05
6.58238e-05
6.54845e-05
6.53621e-05
6.53799e-05
6.5496e-05
6.56839e-05
6.59209e-05
6.61807e-05
6.64237e-05
6.65877e-05
6.66006e-05
6.64213e-05
6.61079e-05
6.57333e-05
6.53548e-05
6.50076e-05
6.47149e-05
6.44954e-05
6.43704e-05
6.43723e-05
6.45585e-05
6.50451e-05
6.6116e-05
6.87223e-05
7.82591e-05
0.000136359
0.00013824
7.13764e-05
6.89612e-05
6.74304e-05
6.64786e-05
6.58763e-05
6.5504e-05
6.53e-05
6.52325e-05
6.52918e-05
6.5489e-05
6.5861e-05
6.64884e-05
6.75586e-05
6.95769e-05
7.45571e-05
9.328e-05
7.32522e-05
6.86045e-05
6.66279e-05
6.5491e-05
6.47122e-05
6.41096e-05
6.35994e-05
6.31405e-05
6.2714e-05
6.23148e-05
6.19467e-05
6.16188e-05
6.13449e-05
6.1143e-05
6.10383e-05
6.10715e-05
6.13193e-05
6.196e-05
6.35594e-05
6.91573e-05
0.000118921
0.00013824
0.00013824
0.00013824
0.00013824
0.00013824
0.00013824
0.00013824
0.00013824
0.00013824
0.00013824
0.00013824
0.00013824
0.00013824
0.00013824
0.00013824
0.00013824
0.00013824
0.00013824
0.00013824
0.00013824
0.00013824
0.00013824
0.00013824
0.000138214
9.15958e-05
6.68795e-05
6.32984e-05
6.22281e-05
6.1853e-05
6.18081e-05
6.19681e-05
6.22745e-05
6.26918e-05
6.31906e-05
6.37403e-05
6.4305e-05
6.48445e-05
6.53188e-05
6.5696e-05
6.59595e-05
6.61136e-05
6.61846e-05
6.62195e-05
6.62875e-05
6.64912e-05
6.70089e-05
6.82723e-05
7.21146e-05
9.4805e-05
0.000138185
0.00013824
0.00013824
0.000134008
7.70039e-05
6.90443e-05
6.66231e-05
6.55333e-05
6.49832e-05
6.47228e-05
6.46446e-05
6.46988e-05
6.48586e-05
6.51047e-05
6.5414e-05
6.57469e-05
6.60153e-05
6.60916e-05
6.58566e-05
6.54609e-05
6.50251e-05
6.46245e-05
6.42929e-05
6.40483e-05
6.3905e-05
6.38836e-05
6.40224e-05
6.44014e-05
6.52108e-05
6.70381e-05
7.28842e-05
0.000118157
0.00013824
0.00013824
8.7929e-05
7.19674e-05
6.79227e-05
6.62205e-05
6.53038e-05
6.47778e-05
6.45009e-05
6.44095e-05
6.44839e-05
6.47395e-05
6.52354e-05
6.61166e-05
6.78297e-05
7.2408e-05
9.89628e-05
0.000137897
8.59125e-05
7.00733e-05
6.65398e-05
6.49877e-05
6.40547e-05
6.33989e-05
6.28898e-05
6.24668e-05
6.21e-05
6.17767e-05
6.14945e-05
6.12588e-05
6.10813e-05
6.09815e-05
6.09914e-05
6.11693e-05
6.16385e-05
6.27435e-05
6.60824e-05
8.67693e-05
0.000138178
0.00013824
0.00013824
0.00013824
0.00013824
0.00013824
0.00013824
0.00013824
0.00013824
0.00013824
0.00013824
0.00013824
0.00013824
0.00013824
0.00013824
0.00013824
0.00013824
0.00013824
0.00013824
0.00013824
0.00013824
0.00013824
0.00013824
0.00013824
0.00013824
0.000130667
7.1238e-05
6.45382e-05
6.2695e-05
6.19854e-05
6.1734e-05
6.17306e-05
6.18843e-05
6.21456e-05
6.24803e-05
6.28595e-05
6.32551e-05
6.36391e-05
6.39867e-05
6.42795e-05
6.45105e-05
6.46871e-05
6.48328e-05
6.49893e-05
6.52231e-05
6.5648e-05
6.65013e-05
6.84644e-05
7.48598e-05
0.000125385
0.00013824
0.00013824
0.00013824
0.00013824
0.000118165
7.36128e-05
6.76092e-05
6.5662e-05
6.47568e-05
6.43099e-05
6.41211e-05
6.41177e-05
6.42692e-05
6.45609e-05
6.49785e-05
6.55035e-05
6.60116e-05
6.62836e-05
6.58354e-05
6.52207e-05
6.46237e-05
6.41395e-05
6.37841e-05
6.35642e-05
6.34873e-05
6.35768e-05
6.38888e-05
6.45568e-05
6.59735e-05
6.99645e-05
9.29447e-05
0.000138196
0.00013824
0.00013824
0.000137893
8.75235e-05
7.04896e-05
6.67482e-05
6.52196e-05
6.44343e-05
6.4047e-05
6.39209e-05
6.40175e-05
6.43605e-05
6.50558e-05
6.6372e-05
6.94449e-05
8.18061e-05
0.000137549
0.00013824
0.000127703
7.4099e-05
6.71937e-05
6.48746e-05
6.36683e-05
6.29033e-05
6.23598e-05
6.19454e-05
6.16154e-05
6.13489e-05
6.11385e-05
6.09867e-05
6.0905e-05
6.09173e-05
6.10686e-05
6.14528e-05
6.22955e-05
6.43411e-05
7.18169e-05
0.000134788
0.00013824
0.00013824
0.00013824
0.00013824
0.00013824
0.00013824
0.00013824
0.00013824
0.00013824
0.00013824
0.00013824
0.00013824
0.00013824
0.00013824
0.00013824
0.00013824
0.00013824
0.00013824
0.00013824
0.00013824
0.00013824
0.00013824
0.00013824
0.00013824
0.00013824
0.000138239
0.00010824
6.86278e-05
6.37763e-05
6.23542e-05
6.17886e-05
6.15843e-05
6.15759e-05
6.1688e-05
6.18777e-05
6.21155e-05
6.23774e-05
6.26433e-05
6.28972e-05
6.31298e-05
6.33406e-05
6.35405e-05
6.37539e-05
6.40235e-05
6.44241e-05
6.51049e-05
6.64577e-05
7.02157e-05
9.19498e-05
0.000138175
0.00013824
0.00013824
0.00013824
0.00013824
0.000138233
0.000101941
7.17335e-05
6.67452e-05
6.50372e-05
6.42749e-05
6.39256e-05
6.38604e-05
6.40345e-05
6.44471e-05
6.51084e-05
6.61402e-05
6.73734e-05
6.88178e-05
6.70911e-05
6.57939e-05
6.47486e-05
6.4045e-05
6.35929e-05
6.33641e-05
6.33484e-05
6.35799e-05
6.41659e-05
6.5391e-05
6.83101e-05
8.0028e-05
0.000137515
0.00013824
0.00013824
0.00013824
0.00013824
0.000137571
8.1984e-05
6.93902e-05
6.60545e-05
6.46676e-05
6.40726e-05
6.38843e-05
6.40243e-05
6.45372e-05
6.56861e-05
6.81076e-05
7.61461e-05
0.000134836
0.00013824
0.00013824
0.000138237
0.000104166
7.05488e-05
6.55049e-05
6.36758e-05
6.26874e-05
6.20536e-05
6.16133e-05
6.12952e-05
6.10677e-05
6.09185e-05
6.08479e-05
6.08705e-05
6.10224e-05
6.13773e-05
6.21314e-05
6.39077e-05
7.0088e-05
0.000125599
0.00013824
0.00013824
0.00013824
0.00013824
0.00013824
0.00013824
0.00013824
0.00013824
0.00013824
0.00013824
0.00013824
0.00013824
0.00013824
0.00013824
0.00013824
0.00013824
0.00013824
0.00013824
0.00013824
0.00013824
0.00013824
0.00013824
0.00013824
0.00013824
0.00013824
0.00013824
0.00013824
0.000138147
8.53234e-05
6.64396e-05
6.31729e-05
6.20658e-05
6.15898e-05
6.13959e-05
6.13574e-05
6.14148e-05
6.15333e-05
6.16897e-05
6.18669e-05
6.20541e-05
6.22472e-05
6.24507e-05
6.26796e-05
6.29637e-05
6.33558e-05
6.39575e-05
6.50001e-05
6.71898e-05
7.42791e-05
0.000131126
0.00013824
0.00013824
0.00013824
0.00013824
0.00013824
0.00013824
0.000138216
9.71178e-05
7.12961e-05
6.64614e-05
6.49486e-05
6.42609e-05
6.41028e-05
6.4363e-05
6.51196e-05
6.64492e-05
6.97354e-05
7.4258e-05
8.89302e-05
7.33858e-05
6.89475e-05
6.59949e-05
6.46486e-05
6.39124e-05
6.36153e-05
6.36699e-05
6.4149e-05
6.53809e-05
6.84344e-05
7.81647e-05
0.0001366
0.00013824
0.00013824
0.00013824
0.00013824
0.00013824
0.00013824
0.000137484
8.40492e-05
7.00049e-05
6.61104e-05
6.49858e-05
6.46358e-05
6.48963e-05
6.58628e-05
6.885e-05
7.65988e-05
0.000133802
0.00013824
0.00013824
0.00013824
0.00013824
0.000138035
8.43087e-05
6.78664e-05
6.43502e-05
6.28745e-05
6.2041e-05
6.15204e-05
6.11821e-05
6.09769e-05
6.08857e-05
6.09074e-05
6.10661e-05
6.14343e-05
6.21595e-05
6.38385e-05
6.96476e-05
0.00011813
0.00013824
0.00013824
0.00013824
0.00013824
0.00013824
0.00013824
0.00013824
0.00013824
0.00013824
0.00013824
0.00013824
0.00013824
0.00013824
0.00013824
0.00013824
0.00013824
0.00013824
0.00013824
0.00013824
0.00013824
0.00013824
0.00013824
0.00013824
0.00013824
0.00013824
0.00013824
0.00013824
0.00013824
0.00013824
0.000136739
7.4095e-05
6.50588e-05
6.27725e-05
6.18529e-05
6.14096e-05
6.11965e-05
6.11188e-05
6.11282e-05
6.1196e-05
6.13044e-05
6.14441e-05
6.16143e-05
6.18237e-05
6.20942e-05
6.24678e-05
6.30239e-05
6.39404e-05
6.57526e-05
7.11755e-05
0.000111505
0.00013824
0.00013824
0.00013824
0.00013824
0.00013824
0.00013824
0.00013824
0.00013824
0.000138221
0.000105812
7.24901e-05
6.77507e-05
6.57549e-05
6.5378e-05
6.5916e-05
6.82455e-05
7.25026e-05
9.8683e-05
0.00013407
0.000138153
0.000131937
9.18096e-05
7.15707e-05
6.71935e-05
6.53368e-05
6.48146e-05
6.49929e-05
6.61296e-05
7.02933e-05
8.65602e-05
0.000137152
0.00013824
0.00013824
0.00013824
0.00013824
0.00013824
0.00013824
0.00013824
0.00013824
0.000137976
0.000100622
7.22781e-05
6.89555e-05
6.76926e-05
6.86345e-05
7.15953e-05
9.09194e-05
0.000136447
0.00013824
0.00013824
0.00013824
0.00013824
0.00013824
0.00013824
0.000137079
7.70193e-05
6.67807e-05
6.38479e-05
6.2498e-05
6.17804e-05
6.13615e-05
6.11579e-05
6.1138e-05
6.12989e-05
6.16899e-05
6.25417e-05
6.42376e-05
7.00445e-05
0.000118924
0.00013824
0.00013824
0.00013824
0.00013824
0.00013824
0.00013824
0.00013824
0.00013824
0.00013824
0.00013824
0.00013824
0.00013824
0.00013824
0.00013824
0.00013824
0.00013824
0.00013824
0.00013824
0.00013824
0.00013824
0.00013824
0.00013824
0.00013824
0.00013824
0.00013824
0.00013824
0.00013824
0.00013824
0.00013824
0.00013824
0.00013824
0.000133398
7.16993e-05
6.46312e-05
6.26405e-05
6.17501e-05
6.12783e-05
6.10321e-05
6.09238e-05
6.09071e-05
6.09566e-05
6.10615e-05
6.12229e-05
6.14546e-05
6.17908e-05
6.2301e-05
6.31283e-05
6.4671e-05
6.87534e-05
9.18051e-05
0.0001382
0.00013824
0.00013824
0.00013824
0.00013824
0.00013824
0.00013824
0.00013824
0.00013824
0.00013824
0.000138238
0.000125678
8.46309e-05
7.18135e-05
7.07094e-05
7.22714e-05
8.95406e-05
0.000126976
0.00013823
0.00013824
0.00013824
0.00013824
0.000138199
0.000122069
8.11997e-05
7.11156e-05
6.97073e-05
7.03365e-05
7.43837e-05
0.000112616
0.00013812
0.00013824
0.00013824
0.00013824
0.00013824
0.00013824
0.00013824
0.00013824
0.00013824
0.00013824
0.00013824
0.000138234
0.000127034
9.86296e-05
8.44314e-05
9.47466e-05
0.00012247
0.000138191
0.00013824
0.00013824
0.00013824
0.00013824
0.00013824
0.00013824
0.00013824
0.00013824
0.000136782
7.87832e-05
6.75812e-05
6.40266e-05
6.27408e-05
6.20549e-05
6.18112e-05
6.19313e-05
6.2422e-05
6.33824e-05
6.63227e-05
7.25344e-05
0.000127763
0.00013824
0.00013824
0.00013824
0.00013824
0.00013824
0.00013824
0.00013824
0.00013824
0.00013824
0.00013824
0.00013824
0.00013824
0.00013824
0.00013824
0.00013824
0.00013824
0.00013824
0.00013824
0.00013824
0.00013824
0.00013824
0.00013824
0.00013824
0.00013824
0.00013824
0.00013824
0.00013824
0.00013824
0.00013824
0.00013824
0.00013824
0.00013824
0.00013824
0.00013179
7.17598e-05
6.49588e-05
6.28011e-05
6.17744e-05
6.12477e-05
6.09775e-05
6.08616e-05
6.08503e-05
6.09274e-05
6.10957e-05
6.13757e-05
6.18277e-05
6.25958e-05
6.40177e-05
6.73803e-05
8.16675e-05
0.000137906
0.00013824
0.00013824
0.00013824
0.00013824
0.00013824
0.00013824
0.00013824
0.00013824
0.00013824
0.00013824
0.00013824
0.00013824
0.000138059
0.000128109
0.000120032
0.000130538
0.000138176
0.00013824
0.00013824
0.00013824
0.00013824
0.00013824
0.00013824
0.00013824
0.000137871
0.000124444
0.000111273
0.000118964
0.000135861
0.00013824
0.00013824
0.00013824
0.00013824
0.00013824
0.00013824
0.00013824
0.00013824
0.00013824
0.00013824
0.00013824
0.00013824
0.00013824
0.00013824
0.00013823
0.000138027
0.000138216
0.00013824
0.00013824
0.00013824
0.00013824
0.00013824
0.00013824
0.00013824
0.00013824
0.00013824
0.00013824
0.00013824
0.000137725
9.47437e-05
6.99592e-05
6.61183e-05
6.40365e-05
6.35973e-05
6.42359e-05
6.63696e-05
6.96086e-05
9.49682e-05
0.000136279
0.00013824
0.00013824
0.00013824
0.00013824
0.00013824
0.00013824
0.00013824
0.00013824
0.00013824
0.00013824
0.00013824
0.00013824
0.00013824
0.00013824
0.00013824
0.00013824
0.00013824
0.00013824
0.00013824
0.00013824
0.00013824
0.00013824
0.00013824
0.00013824
0.00013824
0.00013824
0.00013824
0.00013824
0.00013824
0.00013824
0.00013824
0.00013824
0.00013824
0.00013824
0.00013824
0.000134419
7.55867e-05
6.64394e-05
6.32408e-05
6.20202e-05
6.14434e-05
6.11725e-05
6.10747e-05
6.11243e-05
6.13275e-05
6.17118e-05
6.24028e-05
6.38426e-05
6.74491e-05
8.07438e-05
0.000137635
0.00013824
0.00013824
0.00013824
0.00013824
0.00013824
0.00013824
0.00013824
0.00013824
0.00013824
0.00013824
0.00013824
0.00013824
0.00013824
0.00013824
0.00013824
0.00013824
0.00013824
0.00013824
0.00013824
0.00013824
0.00013824
0.00013824
0.00013824
0.00013824
0.00013824
0.00013824
0.00013824
0.00013824
0.00013824
0.00013824
0.00013824
0.00013824
0.00013824
0.00013824
0.00013824
0.00013824
0.00013824
0.00013824
0.00013824
0.00013824
0.00013824
0.00013824
0.00013824
0.00013824
0.00013824
0.00013824
0.00013824
0.00013824
0.00013824
0.00013824
0.00013824
0.00013824
0.00013824
0.00013824
0.00013824
0.00013824
0.00013824
0.00013824
0.00013824
0.000138227
0.000123474
8.86186e-05
7.15862e-05
7.01072e-05
7.41444e-05
9.64438e-05
0.000126959
0.000138231
0.00013824
0.00013824
0.00013824
0.00013824
0.00013824
0.00013824
0.00013824
0.00013824
0.00013824
0.00013824
0.00013824
0.00013824
0.00013824
0.00013824
0.00013824
0.00013824
0.00013824
0.00013824
0.00013824
0.00013824
0.00013824
0.00013824
0.00013824
0.00013824
0.00013824
0.00013824
0.00013824
0.00013824
0.00013824
0.00013824
0.00013824
0.00013824
0.00013824
0.00013824
0.00013824
0.00013824
0.00013824
0.000137473
9.2294e-05
6.87623e-05
6.43473e-05
6.28432e-05
6.22136e-05
6.19097e-05
6.19113e-05
6.22415e-05
6.29139e-05
6.42483e-05
6.88196e-05
9.01696e-05
0.000137894
0.00013824
0.00013824
0.00013824
0.00013824
0.00013824
0.00013824
0.00013824
0.00013824
0.00013824
0.00013824
0.00013824
0.00013824
0.00013824
0.00013824
0.00013824
0.00013824
0.00013824
0.00013824
0.00013824
0.00013824
0.00013824
0.00013824
0.00013824
0.00013824
0.00013824
0.00013824
0.00013824
0.00013824
0.00013824
0.00013824
0.00013824
0.00013824
0.00013824
0.00013824
0.00013824
0.00013824
0.00013824
0.00013824
0.00013824
0.00013824
0.00013824
0.00013824
0.00013824
0.00013824
0.00013824
0.00013824
0.00013824
0.00013824
0.00013824
0.00013824
0.00013824
0.00013824
0.00013824
0.00013824
0.00013824
0.00013824
0.00013824
0.00013824
0.00013824
0.00013824
0.00013824
0.00013824
0.000138193
0.000135144
0.0001325
0.000137079
0.000138232
0.00013824
0.00013824
0.00013824
0.00013824
0.00013824
0.00013824
0.00013824
0.00013824
0.00013824
0.00013824
0.00013824
0.00013824
0.00013824
0.00013824
0.00013824
0.00013824
0.00013824
0.00013824
0.00013824
0.00013824
0.00013824
0.00013824
0.00013824
0.00013824
0.00013824
0.00013824
0.00013824
0.00013824
0.00013824
0.00013824
0.00013824
0.00013824
0.00013824
0.00013824
0.00013824
0.00013824
0.00013824
0.00013824
0.00013824
0.00013824
0.000138223
0.000120237
7.50457e-05
6.81305e-05
6.59204e-05
6.45278e-05
6.43155e-05
6.53879e-05
6.75876e-05
7.15411e-05
0.0001134
0.000138205
0.00013824
0.00013824
0.00013824
0.00013824
0.00013824
0.00013824
0.00013824
0.00013824
0.00013824
0.00013824
0.00013824
0.00013824
0.00013824
0.00013824
0.00013824
0.00013824
0.00013824
0.00013824
0.00013824
0.00013824
0.00013824
0.00013824
0.00013824
0.00013824
0.00013824
0.00013824
0.00013824
0.00013824
0.00013824
0.00013824
0.00013824
0.00013824
0.00013824
0.00013824
0.00013824
0.00013824
0.00013824
0.00013824
0.00013824
0.00013824
0.00013824
0.00013824
0.00013824
0.00013824
0.00013824
0.00013824
0.00013824
0.00013824
0.00013824
0.00013824
0.00013824
0.00013824
0.00013824
0.00013824
0.00013824
0.00013824
0.00013824
0.00013824
0.00013824
0.00013824
0.00013824
0.00013824
0.00013824
0.00013824
0.00013824
0.00013824
0.00013824
0.00013824
0.00013824
0.00013824
0.00013824
0.00013824
0.00013824
0.00013824
0.00013824
0.00013824
0.00013824
0.00013824
0.00013824
0.00013824
0.00013824
0.00013824
0.00013824
0.00013824
0.00013824
0.00013824
0.00013824
0.00013824
0.00013824
0.00013824
0.00013824
0.00013824
0.00013824
0.00013824
0.00013824
0.00013824
0.00013824
0.00013824
0.00013824
0.00013824
0.00013824
0.00013824
0.00013824
0.00013824
0.00013824
0.00013824
0.00013824
0.00013824
0.00013824
0.00013824
0.000137436
0.000117516
9.17982e-05
7.69579e-05
7.46525e-05
8.39121e-05
0.000108584
0.000134446
0.00013824
0.00013824
0.00013824
0.00013824
0.00013824
0.00013824
0.00013824
0.00013824
0.00013824
0.00013824
0.00013824
0.00013824
0.00013824
0.00013824
0.00013824
0.00013824
0.00013824
0.00013824
0.00013824
0.00013824
0.00013824
0.00013824
0.00013824
0.00013824
0.00013824
0.00013824
0.00013824
0.00013824
0.00013824
0.00013824
0.00013824
0.00013824
0.00013824
0.00013824
0.00013824
0.00013824
0.00013824
0.00013824
0.00013824
0.00013824
0.00013824
0.00013824
0.00013824
0.00013824
0.00013824
0.00013824
0.00013824
0.00013824
0.00013824
0.00013824
0.00013824
0.00013824
0.00013824
0.00013824
0.00013824
0.00013824
0.00013824
0.00013824
0.00013824
0.00013824
0.00013824
0.00013824
0.00013824
0.00013824
0.00013824
0.00013824
0.00013824
0.00013824
0.00013824
0.00013824
0.00013824
0.00013824
0.00013824
0.00013824
0.00013824
0.00013824
0.00013824
0.00013824
0.00013824
0.00013824
0.00013824
0.00013824
0.00013824
0.00013824
0.00013824
0.00013824
0.00013824
0.00013824
0.00013824
0.00013824
0.00013824
0.00013824
0.00013824
0.00013824
0.00013824
0.00013824
0.00013824
0.00013824
0.00013824
0.00013824
0.00013824
0.00013824
0.00013824
0.00013824
0.00013824
0.00013824
0.00013824
0.00013824
0.00013824
0.00013824
0.00013824
0.00013824
0.00013824
0.00013824
0.000138218
0.000137685
0.000137202
0.00013812
0.000138239
0.00013824
0.00013824
0.00013824
0.00013824
0.00013824
0.00013824
0.00013824
0.00013824
0.00013824
0.00013824
0.00013824
0.00013824
0.00013824
0.00013824
0.00013824
0.00013824
0.00013824
0.00013824
0.00013824
0.00013824
0.00013824
0.00013824
0.00013824
0.00013824
0.00013824
0.00013824
0.00013824
0.00013824
0.00013824
0.00013824
0.00013824
0.00013824
0.00013824
0.00013824
0.00013824
0.00013824
0.00013824
0.00013824
0.00013824
0.00013824
0.00013824
0.00013824
0.00013824
0.00013824
0.00013824
0.00013824
0.00013824
0.00013824
0.00013824
0.00013824
0.00013824
0.00013824
0.00013824
0.00013824
0.00013824
0.00013824
0.00013824
0.00013824
0.00013824
0.00013824
0.00013824
0.00013824
0.00013824
0.00013824
0.00013824
0.00013824
0.00013824
0.00013824
0.00013824
0.00013824
0.00013824
0.00013824
0.00013824
0.00013824
0.00013824
0.00013824
0.00013824
0.00013824
0.00013824
0.00013824
0.00013824
0.00013824
0.00013824
0.00013824
0.00013824
0.00013824
0.00013824
0.00013824
0.00013824
0.00013824
0.00013824
0.00013824
0.00013824
0.00013824
0.00013824
0.00013824
0.00013824
0.00013824
0.00013824
0.00013824
0.00013824
0.00013824
0.00013824
0.00013824
0.00013824
0.00013824
0.00013824
0.00013824
0.00013824
0.00013824
0.00013824
0.00013824
0.00013824
0.00013824
0.00013824
0.00013824
0.00013824
0.00013824
0.00013824
0.00013824
0.00013824
0.00013824
0.00013824
0.00013824
0.00013824
0.00013824
0.00013824
0.00013824
0.00013824
0.00013824
0.00013824
0.00013824
0.00013824
0.00013824
0.00013824
0.00013824
0.00013824
0.00013824
0.00013824
0.00013824
0.00013824
0.00013824
0.00013824
0.00013824
0.00013824
0.00013824
0.00013824
0.00013824
0.00013824
0.00013824
0.00013824
0.00013824
0.00013824
0.00013824
0.00013824
0.00013824
0.00013824
0.00013824
0.00013824
0.00013824
0.00013824
0.00013824
0.00013824
0.00013824
0.00013824
0.00013824
0.00013824
0.00013824
0.00013824
0.00013824
0.00013824
0.00013824
0.00013824
0.00013824
0.00013824
0.00013824
0.00013824
0.00013824
0.00013824
0.00013824
0.00013824
0.00013824
0.00013824
0.00013824
0.00013824
0.00013824
0.00013824
0.00013824
0.00013824
0.00013824
0.00013824
0.00013824
0.00013824
0.00013824
0.00013824
0.00013824
0.00013824
0.00013824
0.00013824
0.00013824
0.00013824
0.00013824
0.00013824
0.00013824
0.00013824
0.00013824
0.00013824
0.00013824
0.00013824
0.00013824
0.00013824
0.00013824
0.00013824
0.00013824
0.00013824
0.00013824
0.00013824
0.00013824
0.00013824
0.00013824
0.00013824
0.00013824
0.00013824
0.00013824
0.00013824
0.00013824
0.00013824
0.00013824
0.00013824
0.00013824
0.00013824
0.00013824
0.00013824
0.00013824
0.00013824
0.00013824
0.00013824
0.00013824
0.00013824
0.00013824
0.00013824
0.00013824
0.00013824
0.00013824
0.00013824
0.00013824
0.00013824
0.00013824
0.00013824
0.00013824
0.00013824
0.00013824
0.00013824
0.00013824
0.00013824
0.00013824
0.00013824
0.00013824
0.00013824
0.00013824
0.00013824
0.00013824
0.00013824
0.00013824
0.00013824
0.00013824
0.00013824
0.00013824
0.00013824
0.00013824
0.00013824
0.00013824
0.00013824
0.00013824
0.00013824
0.00013824
0.00013824
0.00013824
0.00013824
0.00013824
0.00013824
0.00013824
0.00013824
0.00013824
0.00013824
0.00013824
0.00013824
0.00013824
0.00013824
0.00013824
0.00013824
0.00013824
0.00013824
0.00013824
0.00013824
0.00013824
0.00013824
0.00013824
0.00013824
0.00013824
0.00013824
0.00013824
0.00013824
0.00013824
0.00013824
0.00013824
0.00013824
0.00013824
0.00013824
0.00013824
0.00013824
0.00013824
0.00013824
0.00013824
0.00013824
0.00013824
0.00013824
0.00013824
0.00013824
0.00013824
0.00013824
0.00013824
0.00013824
0.00013824
0.00013824
0.00013824
0.00013824
0.00013824
0.00013824
0.00013824
0.00013824
0.00013824
0.00013824
0.00013824
0.00013824
0.00013824
0.00013824
0.00013824
0.00013824
0.00013824
0.00013824
0.00013824
0.00013824
0.00013824
0.00013824
0.00013824
0.00013824
0.00013824
0.00013824
0.00013824
0.00013824
0.00013824
0.00013824
0.00013824
0.00013824
0.00013824
0.00013824
0.00013824
0.00013824
0.00013824
0.00013824
0.00013824
0.00013824
0.00013824
0.00013824
0.00013824
0.00013824
0.00013824
0.00013824
0.00013824
0.00013824
0.00013824
0.00013824
0.00013824
0.00013824
0.00013824
0.00013824
0.00013824
0.00013824
0.00013824
0.00013824
0.00013824
0.00013824
0.00013824
0.00013824
0.00013824
0.00013824
0.00013824
0.00013824
0.00013824
0.00013824
0.00013824
0.00013824
0.00013824
0.00013824
0.00013824
0.00013824
0.00013824
0.00013824
0.00013824
0.00013824
0.00013824
0.00013824
0.00013824
0.00013824
0.00013824
0.00013824
0.00013824
0.00013824
0.00013824
0.00013824
0.00013824
0.00013824
0.00013824
0.00013824
0.00013824
0.00013824
0.00013824
0.00013824
0.00013824
0.00013824
0.00013824
0.00013824
0.00013824
0.00013824
0.00013824
0.00013824
0.00013824
0.00013824
0.00013824
0.00013824
0.00013824
0.00013824
0.00013824
0.00013824
0.00013824
0.00013824
0.00013824
0.00013824
0.00013824
0.00013824
0.00013824
0.00013824
0.00013824
0.00013824
0.00013824
0.00013824
0.00013824
0.00013824
0.00013824
0.00013824
0.00013824
0.00013824
0.00013824
0.00013824
0.00013824
0.00013824
0.00013824
0.00013824
0.00013824
0.00013824
0.00013824
0.00013824
0.00013824
0.00013824
0.00013824
0.00013824
0.00013824
0.00013824
0.00013824
0.00013824
0.00013824
0.00013824
0.00013824
0.00013824
0.00013824
0.00013824
0.00013824
0.00013824
0.00013824
0.00013824
0.00013824
0.00013824
0.00013824
0.00013824
0.00013824
0.00013824
0.00013824
0.00013824
0.00013824
0.00013824
0.00013824
0.00013824
0.00013824
0.00013824
0.00013824
0.00013824
0.00013824
0.00013824
0.00013824
0.00013824
0.00013824
0.00013824
0.00013824
0.00013824
0.00013824
0.00013824
0.00013824
0.00013824
0.00013824
0.00013824
0.00013824
0.00013824
0.00013824
0.00013824
0.00013824
0.00013824
0.00013824
0.00013824
0.00013824
0.00013824
0.00013824
0.00013824
0.00013824
0.00013824
0.00013824
0.00013824
0.00013824
0.00013824
0.00013824
0.00013824
0.00013824
0.00013824
0.00013824
0.00013824
0.00013824
0.00013824
0.00013824
0.00013824
0.00013824
0.00013824
0.00013824
0.00013824
0.00013824
0.00013824
0.00013824
0.00013824
0.00013824
0.00013824
0.00013824
0.00013824
0.00013824
0.00013824
0.00013824
0.00013824
0.00013824
0.00013824
0.00013824
0.00013824
0.00013824
0.00013824
0.00013824
0.00013824
0.00013824
0.00013824
0.00013824
0.00013824
0.00013824
0.00013824
0.00013824
0.00013824
0.00013824
0.00013824
0.00013824
0.00013824
0.00013824
0.00013824
0.00013824
0.00013824
0.00013824
0.00013824
0.00013824
0.00013824
0.00013824
0.00013824
0.00013824
0.00013824
0.00013824
0.00013824
0.00013824
0.00013824
0.00013824
0.00013824
0.00013824
0.00013824
0.00013824
0.00013824
0.00013824
0.00013824
0.00013824
0.00013824
0.00013824
0.00013824
0.00013824
0.00013824
0.00013824
0.00013824
0.00013824
0.00013824
0.00013824
0.00013824
0.00013824
0.00013824
0.00013824
0.00013824
0.00013824
0.00013824
0.00013824
0.00013824
0.00013824
0.00013824
0.00013824
0.00013824
0.00013824
0.00013824
0.00013824
0.00013824
0.00013824
0.00013824
0.00013824
0.00013824
0.00013824
0.00013824
0.00013824
0.00013824
0.00013824
0.00013824
0.00013824
0.00013824
0.00013824
0.00013824
0.00013824
0.00013824
0.00013824
0.00013824
0.00013824
0.00013824
0.00013824
0.00013824
0.00013824
0.00013824
0.00013824
0.00013824
0.00013824
0.00013824
0.00013824
0.00013824
0.00013824
0.00013824
0.00013824
0.00013824
0.00013824
0.00013824
0.00013824
0.00013824
0.00013824
0.00013824
0.00013824
0.00013824
0.00013824
0.00013824
0.00013824
0.00013824
0.00013824
0.00013824
0.00013824
0.00013824
0.00013824
0.00013824
0.00013824
0.00013824
0.00013824
0.00013824
0.00013824
0.00013824
0.00013824
0.00013824