/*--------------------------------*- C++ -*----------------------------------*\
| =========                 |                                                 |
| \\      /  F ield         | OpenFOAM: The Open Source CFD Toolbox           |
|  \\    /   O peration     | Version:  2406                                  |
|   \\  /    A nd           | Website:  www.openfoam.com                      |
|    \\/     M anipulation  |                                                 |
\*---------------------------------------------------------------------------*/
FoamFile
{
    version     2.0;
    format      ascii;
    arch        "LSB;label=32;scalar=64";
    class       volScalarField;
    location    "7.75";
    object      Da;
}
// * * * * * * * * * * * * * * * * * * * * * * * * * * * * * * * * * * * * * //

dimensions      [0 2 -1 0 0 0 0];

internalField   nonuniform List<scalar> 
14400
(
4.77027e-05
4.76724e-05
4.76271e-05
4.75822e-05
4.7546e-05
4.7521e-05
4.7506e-05
4.75002e-05
4.75038e-05
4.75197e-05
4.7552e-05
4.7605e-05
4.7678e-05
4.7759e-05
4.78161e-05
4.78005e-05
4.76817e-05
4.7497e-05
4.72853e-05
4.70621e-05
4.68255e-05
4.6568e-05
4.62842e-05
4.59753e-05
4.56497e-05
4.53204e-05
4.50021e-05
4.47079e-05
4.44481e-05
4.42303e-05
4.40608e-05
4.3947e-05
4.3901e-05
4.39467e-05
4.41408e-05
4.46507e-05
4.62455e-05
5.53092e-05
7.79625e-05
7.8e-05
7.8e-05
7.8e-05
7.8e-05
7.8e-05
7.8e-05
7.8e-05
7.8e-05
7.8e-05
7.8e-05
7.8e-05
7.8e-05
7.8e-05
7.8e-05
7.8e-05
7.8e-05
7.8e-05
7.8e-05
7.8e-05
7.8e-05
7.72757e-05
4.99013e-05
4.57446e-05
4.47048e-05
4.43463e-05
4.42473e-05
4.42939e-05
4.4446e-05
4.4689e-05
4.50178e-05
4.54298e-05
4.59176e-05
4.64619e-05
4.70263e-05
4.75594e-05
4.80071e-05
4.8328e-05
4.85017e-05
4.85301e-05
4.84344e-05
4.82512e-05
4.80288e-05
4.78235e-05
4.77013e-05
4.7756e-05
4.81868e-05
4.97376e-05
5.7423e-05
7.78931e-05
6.27693e-05
4.98712e-05
4.76635e-05
4.69375e-05
4.66345e-05
4.65233e-05
4.65197e-05
4.65821e-05
4.66847e-05
4.68088e-05
4.69394e-05
4.7063e-05
4.71672e-05
4.72401e-05
4.72704e-05
4.72496e-05
4.71752e-05
4.70519e-05
4.68895e-05
4.67008e-05
4.64989e-05
4.62974e-05
4.61097e-05
4.59496e-05
4.5833e-05
4.57798e-05
4.58212e-05
4.60165e-05
4.65107e-05
4.78017e-05
5.25936e-05
7.73735e-05
4.75701e-05
4.75128e-05
4.74315e-05
4.73533e-05
4.72911e-05
4.72479e-05
4.72226e-05
4.72136e-05
4.72213e-05
4.72485e-05
4.73002e-05
4.7382e-05
4.74965e-05
4.7634e-05
4.77554e-05
4.77779e-05
4.76187e-05
4.7376e-05
4.71195e-05
4.68696e-05
4.66219e-05
4.63658e-05
4.60932e-05
4.58029e-05
4.55003e-05
4.51959e-05
4.49018e-05
4.46297e-05
4.43892e-05
4.41882e-05
4.40335e-05
4.39335e-05
4.39019e-05
4.39654e-05
4.41873e-05
4.47639e-05
4.67119e-05
6.08747e-05
7.79974e-05
7.8e-05
7.8e-05
7.8e-05
7.8e-05
7.8e-05
7.8e-05
7.8e-05
7.8e-05
7.8e-05
7.8e-05
7.8e-05
7.8e-05
7.8e-05
7.8e-05
7.8e-05
7.8e-05
7.8e-05
7.8e-05
7.8e-05
7.8e-05
7.79125e-05
5.36888e-05
4.61934e-05
4.48078e-05
4.43791e-05
4.42514e-05
4.42786e-05
4.44126e-05
4.46351e-05
4.49388e-05
4.53192e-05
4.5768e-05
4.62671e-05
4.67841e-05
4.72738e-05
4.7688e-05
4.79884e-05
4.81551e-05
4.81895e-05
4.81113e-05
4.79554e-05
4.77675e-05
4.76012e-05
4.75211e-05
4.76234e-05
4.813e-05
4.99922e-05
6.10971e-05
7.79848e-05
6.84506e-05
5.03056e-05
4.77203e-05
4.68985e-05
4.65465e-05
4.64012e-05
4.637e-05
4.64085e-05
4.64906e-05
4.65983e-05
4.67172e-05
4.6835e-05
4.69392e-05
4.70164e-05
4.70525e-05
4.70359e-05
4.69627e-05
4.68395e-05
4.66798e-05
4.64983e-05
4.6309e-05
4.61246e-05
4.59573e-05
4.58199e-05
4.57271e-05
4.56992e-05
4.57698e-05
4.60072e-05
4.65962e-05
4.83365e-05
5.76358e-05
7.79572e-05
4.74152e-05
4.72882e-05
4.71263e-05
4.69822e-05
4.68724e-05
4.67976e-05
4.67545e-05
4.67401e-05
4.6754e-05
4.67993e-05
4.68829e-05
4.70151e-05
4.72078e-05
4.74657e-05
4.77546e-05
4.79144e-05
4.76035e-05
4.72048e-05
4.68486e-05
4.65459e-05
4.62771e-05
4.60223e-05
4.57676e-05
4.55072e-05
4.52422e-05
4.49786e-05
4.4725e-05
4.44906e-05
4.4284e-05
4.41131e-05
4.39858e-05
4.39124e-05
4.39099e-05
4.40116e-05
4.42969e-05
4.50202e-05
4.75602e-05
7.04203e-05
7.8e-05
7.8e-05
7.8e-05
7.8e-05
7.8e-05
7.8e-05
7.8e-05
7.8e-05
7.8e-05
7.8e-05
7.8e-05
7.8e-05
7.8e-05
7.8e-05
7.8e-05
7.8e-05
7.8e-05
7.8e-05
7.8e-05
7.8e-05
7.8e-05
7.7999e-05
6.2838e-05
4.70142e-05
4.50047e-05
4.44488e-05
4.42656e-05
4.42547e-05
4.43538e-05
4.45384e-05
4.4797e-05
4.51219e-05
4.55034e-05
4.59249e-05
4.63601e-05
4.67735e-05
4.71269e-05
4.73887e-05
4.75418e-05
4.75865e-05
4.75403e-05
4.7434e-05
4.73085e-05
4.7213e-05
4.72104e-05
4.74033e-05
4.80496e-05
5.04034e-05
6.77451e-05
7.79997e-05
7.58382e-05
5.14448e-05
4.79625e-05
4.6879e-05
4.64151e-05
4.62027e-05
4.61214e-05
4.61189e-05
4.61669e-05
4.62478e-05
4.63488e-05
4.64586e-05
4.65649e-05
4.66523e-05
4.67012e-05
4.6693e-05
4.66197e-05
4.64937e-05
4.63352e-05
4.61632e-05
4.59928e-05
4.58355e-05
4.57015e-05
4.56018e-05
4.55504e-05
4.55687e-05
4.56955e-05
4.60158e-05
4.67813e-05
4.92782e-05
6.80651e-05
7.79999e-05
4.7471e-05
4.71591e-05
4.68395e-05
4.65906e-05
4.64147e-05
4.62996e-05
4.62347e-05
4.62132e-05
4.62334e-05
4.62991e-05
4.64207e-05
4.66176e-05
4.69241e-05
4.7397e-05
4.8115e-05
4.89955e-05
4.7901e-05
4.71018e-05
4.65635e-05
4.61797e-05
4.588e-05
4.56232e-05
4.53862e-05
4.51574e-05
4.4933e-05
4.47148e-05
4.45075e-05
4.43177e-05
4.41526e-05
4.40202e-05
4.39296e-05
4.38944e-05
4.39374e-05
4.41065e-05
4.4527e-05
4.56851e-05
5.0962e-05
7.77246e-05
7.8e-05
7.8e-05
7.8e-05
7.8e-05
7.8e-05
7.8e-05
7.8e-05
7.8e-05
7.8e-05
7.8e-05
7.8e-05
7.8e-05
7.8e-05
7.8e-05
7.8e-05
7.8e-05
7.8e-05
7.8e-05
7.8e-05
7.8e-05
7.8e-05
7.8e-05
7.36438e-05
4.81939e-05
4.53638e-05
4.45854e-05
4.43066e-05
4.42355e-05
4.42841e-05
4.44173e-05
4.46179e-05
4.48745e-05
4.51758e-05
4.55068e-05
4.58469e-05
4.61704e-05
4.64502e-05
4.66637e-05
4.67985e-05
4.68552e-05
4.68482e-05
4.68028e-05
4.67543e-05
4.67482e-05
4.68501e-05
4.71836e-05
4.8091e-05
5.12049e-05
7.50768e-05
7.8e-05
7.79958e-05
6.23248e-05
4.90443e-05
4.7004e-05
4.63159e-05
4.59985e-05
4.58488e-05
4.5795e-05
4.5803e-05
4.58546e-05
4.59379e-05
4.60429e-05
4.61579e-05
4.62654e-05
4.6338e-05
4.63436e-05
4.62643e-05
4.61256e-05
4.59598e-05
4.57922e-05
4.56385e-05
4.55088e-05
4.54115e-05
4.53559e-05
4.53564e-05
4.54383e-05
4.56529e-05
4.61255e-05
4.7275e-05
5.14727e-05
7.71551e-05
7.8e-05
4.84487e-05
4.73843e-05
4.67084e-05
4.62879e-05
4.60218e-05
4.58573e-05
4.57671e-05
4.57373e-05
4.57635e-05
4.58507e-05
4.60151e-05
4.62923e-05
4.67652e-05
4.76567e-05
4.98542e-05
5.80867e-05
4.92772e-05
4.72276e-05
4.63549e-05
4.58526e-05
4.55085e-05
4.52421e-05
4.50164e-05
4.48134e-05
4.46246e-05
4.44477e-05
4.42845e-05
4.41391e-05
4.40176e-05
4.39278e-05
4.3881e-05
4.38951e-05
4.40039e-05
4.42859e-05
4.499e-05
4.74536e-05
6.93446e-05
7.8e-05
7.8e-05
7.8e-05
7.8e-05
7.8e-05
7.8e-05
7.8e-05
7.8e-05
7.8e-05
7.8e-05
7.8e-05
7.8e-05
7.8e-05
7.8e-05
7.8e-05
7.8e-05
7.8e-05
7.8e-05
7.8e-05
7.8e-05
7.8e-05
7.8e-05
7.8e-05
7.79877e-05
5.72445e-05
4.64509e-05
4.48771e-05
4.44058e-05
4.42409e-05
4.42217e-05
4.42931e-05
4.44293e-05
4.46145e-05
4.48358e-05
4.50796e-05
4.53299e-05
4.5569e-05
4.57792e-05
4.59461e-05
4.60626e-05
4.61305e-05
4.61614e-05
4.61763e-05
4.62058e-05
4.62951e-05
4.65232e-05
4.70806e-05
4.8776e-05
5.87724e-05
7.79751e-05
7.8e-05
7.8e-05
7.61122e-05
5.09313e-05
4.74193e-05
4.63504e-05
4.58691e-05
4.56261e-05
4.55111e-05
4.54767e-05
4.55008e-05
4.55716e-05
4.56805e-05
4.58173e-05
4.59645e-05
4.60831e-05
4.61168e-05
4.60129e-05
4.58379e-05
4.56452e-05
4.5468e-05
4.53212e-05
4.52129e-05
4.51494e-05
4.51396e-05
4.52007e-05
4.53679e-05
4.5725e-05
4.65316e-05
4.91113e-05
6.9076e-05
7.8e-05
7.8e-05
5.57241e-05
4.87067e-05
4.69235e-05
4.61721e-05
4.57673e-05
4.5535e-05
4.54126e-05
4.53722e-05
4.54051e-05
4.5518e-05
4.5737e-05
4.61261e-05
4.68825e-05
4.89026e-05
6.06004e-05
7.7845e-05
5.48365e-05
4.78726e-05
4.63141e-05
4.56286e-05
4.52163e-05
4.49265e-05
4.47014e-05
4.45143e-05
4.4352e-05
4.42088e-05
4.40837e-05
4.39792e-05
4.39003e-05
4.38558e-05
4.38597e-05
4.39377e-05
4.41441e-05
4.46302e-05
4.60943e-05
5.50956e-05
7.79703e-05
7.8e-05
7.8e-05
7.8e-05
7.8e-05
7.8e-05
7.8e-05
7.8e-05
7.8e-05
7.8e-05
7.8e-05
7.8e-05
7.8e-05
7.8e-05
7.8e-05
7.8e-05
7.8e-05
7.8e-05
7.8e-05
7.8e-05
7.8e-05
7.8e-05
7.8e-05
7.8e-05
7.8e-05
7.45824e-05
4.8376e-05
4.54236e-05
4.46112e-05
4.42985e-05
4.41882e-05
4.41873e-05
4.42559e-05
4.4372e-05
4.45206e-05
4.46888e-05
4.48642e-05
4.50343e-05
4.51883e-05
4.53178e-05
4.54199e-05
4.54979e-05
4.5562e-05
4.56308e-05
4.57337e-05
4.59209e-05
4.62974e-05
4.71639e-05
4.99873e-05
7.22919e-05
7.8e-05
7.8e-05
7.8e-05
7.8e-05
6.90829e-05
4.94347e-05
4.67848e-05
4.59249e-05
4.5525e-05
4.53276e-05
4.52441e-05
4.52427e-05
4.53098e-05
4.54387e-05
4.56233e-05
4.58552e-05
4.60794e-05
4.61993e-05
4.60016e-05
4.57301e-05
4.54664e-05
4.52523e-05
4.50952e-05
4.49979e-05
4.49637e-05
4.5003e-05
4.51406e-05
4.54352e-05
4.60598e-05
4.78181e-05
5.79175e-05
7.79799e-05
7.8e-05
7.8e-05
7.78431e-05
5.55374e-05
4.80514e-05
4.6403e-05
4.57287e-05
4.5382e-05
4.5211e-05
4.51552e-05
4.51979e-05
4.53493e-05
4.56561e-05
4.62367e-05
4.75911e-05
5.30242e-05
7.76884e-05
7.8e-05
7.33084e-05
4.96496e-05
4.66012e-05
4.5577e-05
4.50441e-05
4.47062e-05
4.4466e-05
4.42828e-05
4.41367e-05
4.40187e-05
4.39255e-05
4.38581e-05
4.38216e-05
4.38267e-05
4.38931e-05
4.40623e-05
4.44335e-05
4.53333e-05
4.86131e-05
7.64107e-05
7.8e-05
7.8e-05
7.8e-05
7.8e-05
7.8e-05
7.8e-05
7.8e-05
7.8e-05
7.8e-05
7.8e-05
7.8e-05
7.8e-05
7.8e-05
7.8e-05
7.8e-05
7.8e-05
7.8e-05
7.8e-05
7.8e-05
7.8e-05
7.8e-05
7.8e-05
7.8e-05
7.8e-05
7.8e-05
7.79997e-05
6.45957e-05
4.72204e-05
4.50861e-05
4.446e-05
4.42112e-05
4.41218e-05
4.41187e-05
4.41688e-05
4.42532e-05
4.43588e-05
4.44749e-05
4.45927e-05
4.47051e-05
4.4808e-05
4.49012e-05
4.49894e-05
4.50835e-05
4.52024e-05
4.53792e-05
4.56796e-05
4.62766e-05
4.79336e-05
5.7491e-05
7.79704e-05
7.8e-05
7.8e-05
7.8e-05
7.8e-05
7.79968e-05
6.18987e-05
4.86019e-05
4.64019e-05
4.56478e-05
4.5311e-05
4.51567e-05
4.51279e-05
4.52049e-05
4.53872e-05
4.56793e-05
4.61345e-05
4.66775e-05
4.73123e-05
4.65535e-05
4.59814e-05
4.55202e-05
4.52094e-05
4.50096e-05
4.49085e-05
4.49014e-05
4.50033e-05
4.52618e-05
4.58015e-05
4.70851e-05
5.22217e-05
7.76697e-05
7.8e-05
7.8e-05
7.8e-05
7.8e-05
7.76966e-05
5.30888e-05
4.75634e-05
4.60955e-05
4.54839e-05
4.52213e-05
4.51381e-05
4.51998e-05
4.54262e-05
4.59326e-05
4.69989e-05
5.05393e-05
7.6468e-05
7.8e-05
7.8e-05
7.79985e-05
6.28687e-05
4.80765e-05
4.58528e-05
4.50458e-05
4.46095e-05
4.43296e-05
4.4135e-05
4.39943e-05
4.38936e-05
4.38274e-05
4.3796e-05
4.38057e-05
4.38723e-05
4.40287e-05
4.43613e-05
4.51445e-05
4.78666e-05
7.22723e-05
7.8e-05
7.8e-05
7.8e-05
7.8e-05
7.8e-05
7.8e-05
7.8e-05
7.8e-05
7.8e-05
7.8e-05
7.8e-05
7.8e-05
7.8e-05
7.8e-05
7.8e-05
7.8e-05
7.8e-05
7.8e-05
7.8e-05
7.8e-05
7.8e-05
7.8e-05
7.8e-05
7.8e-05
7.8e-05
7.8e-05
7.8e-05
7.79559e-05
5.44704e-05
4.62502e-05
4.48185e-05
4.43321e-05
4.4123e-05
4.40382e-05
4.40218e-05
4.40477e-05
4.41005e-05
4.41698e-05
4.42484e-05
4.43312e-05
4.44167e-05
4.45066e-05
4.46077e-05
4.47331e-05
4.49061e-05
4.51717e-05
4.5632e-05
4.65986e-05
4.97271e-05
7.48227e-05
7.8e-05
7.8e-05
7.8e-05
7.8e-05
7.8e-05
7.8e-05
7.79891e-05
5.9757e-05
4.84073e-05
4.62755e-05
4.56071e-05
4.53037e-05
4.52339e-05
4.53488e-05
4.56826e-05
4.62699e-05
4.77171e-05
4.97059e-05
5.61307e-05
4.93264e-05
4.73686e-05
4.60689e-05
4.54743e-05
4.51497e-05
4.50185e-05
4.50424e-05
4.52533e-05
4.57966e-05
4.71384e-05
5.1399e-05
7.72523e-05
7.8e-05
7.8e-05
7.8e-05
7.8e-05
7.8e-05
7.8e-05
7.76561e-05
5.39843e-05
4.78344e-05
4.61199e-05
4.56234e-05
4.54686e-05
4.55837e-05
4.60103e-05
4.73237e-05
5.07248e-05
7.59982e-05
7.8e-05
7.8e-05
7.8e-05
7.8e-05
7.79057e-05
5.40856e-05
4.68869e-05
4.53408e-05
4.46906e-05
4.43229e-05
4.40929e-05
4.39433e-05
4.38525e-05
4.3812e-05
4.38214e-05
4.38912e-05
4.40531e-05
4.43725e-05
4.51134e-05
4.76725e-05
6.89478e-05
7.8e-05
7.8e-05
7.8e-05
7.8e-05
7.8e-05
7.8e-05
7.8e-05
7.8e-05
7.8e-05
7.8e-05
7.8e-05
7.8e-05
7.8e-05
7.8e-05
7.8e-05
7.8e-05
7.8e-05
7.8e-05
7.8e-05
7.8e-05
7.8e-05
7.8e-05
7.8e-05
7.8e-05
7.8e-05
7.8e-05
7.8e-05
7.8e-05
7.8e-05
7.72983e-05
4.95786e-05
4.56436e-05
4.46416e-05
4.42377e-05
4.40431e-05
4.39498e-05
4.3916e-05
4.39205e-05
4.39507e-05
4.39988e-05
4.40607e-05
4.41359e-05
4.42284e-05
4.43479e-05
4.45128e-05
4.47583e-05
4.51627e-05
4.59623e-05
4.83535e-05
6.61088e-05
7.79998e-05
7.8e-05
7.8e-05
7.8e-05
7.8e-05
7.8e-05
7.8e-05
7.8e-05
7.79912e-05
6.35886e-05
4.89344e-05
4.68387e-05
4.59619e-05
4.5796e-05
4.60328e-05
4.70573e-05
4.89394e-05
6.0432e-05
7.61229e-05
7.79603e-05
7.51726e-05
5.73936e-05
4.85265e-05
4.65922e-05
4.57773e-05
4.55472e-05
4.56254e-05
4.61243e-05
4.796e-05
5.50719e-05
7.7503e-05
7.8e-05
7.8e-05
7.8e-05
7.8e-05
7.8e-05
7.8e-05
7.8e-05
7.8e-05
7.78795e-05
6.12843e-05
4.88405e-05
4.73719e-05
4.68129e-05
4.72297e-05
4.85382e-05
5.69975e-05
7.71867e-05
7.8e-05
7.8e-05
7.8e-05
7.8e-05
7.8e-05
7.8e-05
7.74653e-05
5.08794e-05
4.64045e-05
4.51179e-05
4.45235e-05
4.42066e-05
4.40214e-05
4.39313e-05
4.39224e-05
4.39933e-05
4.41655e-05
4.45396e-05
4.52838e-05
4.78454e-05
6.92952e-05
7.8e-05
7.8e-05
7.8e-05
7.8e-05
7.8e-05
7.8e-05
7.8e-05
7.8e-05
7.8e-05
7.8e-05
7.8e-05
7.8e-05
7.8e-05
7.8e-05
7.8e-05
7.8e-05
7.8e-05
7.8e-05
7.8e-05
7.8e-05
7.8e-05
7.8e-05
7.8e-05
7.8e-05
7.8e-05
7.8e-05
7.8e-05
7.8e-05
7.8e-05
7.8e-05
7.8e-05
7.57643e-05
4.85589e-05
4.54568e-05
4.45827e-05
4.41921e-05
4.3985e-05
4.38769e-05
4.38294e-05
4.38223e-05
4.38443e-05
4.38907e-05
4.39621e-05
4.40644e-05
4.42128e-05
4.44381e-05
4.48029e-05
4.54827e-05
4.72787e-05
5.73858e-05
7.79817e-05
7.8e-05
7.8e-05
7.8e-05
7.8e-05
7.8e-05
7.8e-05
7.8e-05
7.8e-05
7.8e-05
7.7999e-05
7.23955e-05
5.42224e-05
4.86333e-05
4.81479e-05
4.88339e-05
5.63856e-05
7.29706e-05
7.79954e-05
7.8e-05
7.8e-05
7.8e-05
7.79809e-05
7.0788e-05
5.27111e-05
4.83256e-05
4.77049e-05
4.79817e-05
4.97435e-05
6.65813e-05
7.79448e-05
7.8e-05
7.8e-05
7.8e-05
7.8e-05
7.8e-05
7.8e-05
7.8e-05
7.8e-05
7.8e-05
7.8e-05
7.79971e-05
7.29936e-05
6.04091e-05
5.41418e-05
5.86933e-05
7.09687e-05
7.79774e-05
7.8e-05
7.8e-05
7.8e-05
7.8e-05
7.8e-05
7.8e-05
7.8e-05
7.8e-05
7.7326e-05
5.16296e-05
4.67569e-05
4.51965e-05
4.46286e-05
4.43255e-05
4.42178e-05
4.42703e-05
4.44872e-05
4.49106e-05
4.61976e-05
4.8899e-05
7.32323e-05
7.8e-05
7.8e-05
7.8e-05
7.8e-05
7.8e-05
7.8e-05
7.8e-05
7.8e-05
7.8e-05
7.8e-05
7.8e-05
7.8e-05
7.8e-05
7.8e-05
7.8e-05
7.8e-05
7.8e-05
7.8e-05
7.8e-05
7.8e-05
7.8e-05
7.8e-05
7.8e-05
7.8e-05
7.8e-05
7.8e-05
7.8e-05
7.8e-05
7.8e-05
7.8e-05
7.8e-05
7.8e-05
7.8e-05
7.50289e-05
4.85796e-05
4.55959e-05
4.46532e-05
4.42028e-05
4.39711e-05
4.38522e-05
4.38013e-05
4.37964e-05
4.38305e-05
4.3905e-05
4.40286e-05
4.42281e-05
4.4567e-05
4.5193e-05
4.66687e-05
5.29058e-05
7.78451e-05
7.8e-05
7.8e-05
7.8e-05
7.8e-05
7.8e-05
7.8e-05
7.8e-05
7.8e-05
7.8e-05
7.8e-05
7.8e-05
7.8e-05
7.79165e-05
7.34624e-05
6.98791e-05
7.45416e-05
7.79704e-05
7.8e-05
7.8e-05
7.8e-05
7.8e-05
7.8e-05
7.8e-05
7.8e-05
7.78299e-05
7.18336e-05
6.59964e-05
6.94008e-05
7.69154e-05
7.79999e-05
7.8e-05
7.8e-05
7.8e-05
7.8e-05
7.8e-05
7.8e-05
7.8e-05
7.8e-05
7.8e-05
7.8e-05
7.8e-05
7.8e-05
7.8e-05
7.79952e-05
7.79023e-05
7.79889e-05
7.8e-05
7.8e-05
7.8e-05
7.8e-05
7.8e-05
7.8e-05
7.8e-05
7.8e-05
7.8e-05
7.8e-05
7.8e-05
7.77601e-05
5.86306e-05
4.78096e-05
4.61099e-05
4.51939e-05
4.50012e-05
4.5278e-05
4.62205e-05
4.76524e-05
5.86793e-05
7.7081e-05
7.8e-05
7.8e-05
7.8e-05
7.8e-05
7.8e-05
7.8e-05
7.8e-05
7.8e-05
7.8e-05
7.8e-05
7.8e-05
7.8e-05
7.8e-05
7.8e-05
7.8e-05
7.8e-05
7.8e-05
7.8e-05
7.8e-05
7.8e-05
7.8e-05
7.8e-05
7.8e-05
7.8e-05
7.8e-05
7.8e-05
7.8e-05
7.8e-05
7.8e-05
7.8e-05
7.8e-05
7.8e-05
7.8e-05
7.8e-05
7.8e-05
7.62256e-05
5.01966e-05
4.6247e-05
4.48478e-05
4.43102e-05
4.40568e-05
4.39375e-05
4.38944e-05
4.39163e-05
4.40062e-05
4.4176e-05
4.44807e-05
4.51152e-05
4.66976e-05
5.24848e-05
7.77183e-05
7.8e-05
7.8e-05
7.8e-05
7.8e-05
7.8e-05
7.8e-05
7.8e-05
7.8e-05
7.8e-05
7.8e-05
7.8e-05
7.8e-05
7.8e-05
7.8e-05
7.8e-05
7.8e-05
7.8e-05
7.8e-05
7.8e-05
7.8e-05
7.8e-05
7.8e-05
7.8e-05
7.8e-05
7.8e-05
7.8e-05
7.8e-05
7.79998e-05
7.8e-05
7.8e-05
7.8e-05
7.8e-05
7.8e-05
7.8e-05
7.8e-05
7.8e-05
7.8e-05
7.8e-05
7.8e-05
7.8e-05
7.8e-05
7.8e-05
7.8e-05
7.8e-05
7.8e-05
7.8e-05
7.8e-05
7.8e-05
7.8e-05
7.8e-05
7.8e-05
7.8e-05
7.8e-05
7.8e-05
7.8e-05
7.8e-05
7.8e-05
7.8e-05
7.8e-05
7.79937e-05
7.13799e-05
5.5914e-05
4.84905e-05
4.78572e-05
4.95702e-05
5.9356e-05
7.2909e-05
7.79955e-05
7.8e-05
7.8e-05
7.8e-05
7.8e-05
7.8e-05
7.8e-05
7.8e-05
7.8e-05
7.8e-05
7.8e-05
7.8e-05
7.8e-05
7.8e-05
7.8e-05
7.8e-05
7.8e-05
7.8e-05
7.8e-05
7.8e-05
7.8e-05
7.8e-05
7.8e-05
7.8e-05
7.8e-05
7.8e-05
7.8e-05
7.8e-05
7.8e-05
7.8e-05
7.8e-05
7.8e-05
7.8e-05
7.8e-05
7.8e-05
7.8e-05
7.8e-05
7.8e-05
7.76356e-05
5.75042e-05
4.72761e-05
4.53282e-05
4.46723e-05
4.4395e-05
4.42605e-05
4.42613e-05
4.44074e-05
4.47048e-05
4.52921e-05
4.73041e-05
5.66109e-05
7.7838e-05
7.8e-05
7.8e-05
7.8e-05
7.8e-05
7.8e-05
7.8e-05
7.8e-05
7.8e-05
7.8e-05
7.8e-05
7.8e-05
7.8e-05
7.8e-05
7.8e-05
7.8e-05
7.8e-05
7.8e-05
7.8e-05
7.8e-05
7.8e-05
7.8e-05
7.8e-05
7.8e-05
7.8e-05
7.8e-05
7.8e-05
7.8e-05
7.8e-05
7.8e-05
7.8e-05
7.8e-05
7.8e-05
7.8e-05
7.8e-05
7.8e-05
7.8e-05
7.8e-05
7.8e-05
7.8e-05
7.8e-05
7.8e-05
7.8e-05
7.8e-05
7.8e-05
7.8e-05
7.8e-05
7.8e-05
7.8e-05
7.8e-05
7.8e-05
7.8e-05
7.8e-05
7.8e-05
7.8e-05
7.8e-05
7.8e-05
7.8e-05
7.8e-05
7.8e-05
7.8e-05
7.8e-05
7.8e-05
7.79779e-05
7.65655e-05
7.53676e-05
7.74521e-05
7.7996e-05
7.8e-05
7.8e-05
7.8e-05
7.8e-05
7.8e-05
7.8e-05
7.8e-05
7.8e-05
7.8e-05
7.8e-05
7.8e-05
7.8e-05
7.8e-05
7.8e-05
7.8e-05
7.8e-05
7.8e-05
7.8e-05
7.8e-05
7.8e-05
7.8e-05
7.8e-05
7.8e-05
7.8e-05
7.8e-05
7.8e-05
7.8e-05
7.8e-05
7.8e-05
7.8e-05
7.8e-05
7.8e-05
7.8e-05
7.8e-05
7.8e-05
7.8e-05
7.8e-05
7.8e-05
7.8e-05
7.8e-05
7.79918e-05
6.99009e-05
4.99553e-05
4.69985e-05
4.60214e-05
4.54049e-05
4.53119e-05
4.57855e-05
4.67607e-05
4.8493e-05
6.68688e-05
7.79834e-05
7.8e-05
7.8e-05
7.8e-05
7.8e-05
7.8e-05
7.8e-05
7.8e-05
7.8e-05
7.8e-05
7.8e-05
7.8e-05
7.8e-05
7.8e-05
7.8e-05
7.8e-05
7.8e-05
7.8e-05
7.8e-05
7.8e-05
7.8e-05
7.8e-05
7.8e-05
7.8e-05
7.8e-05
7.8e-05
7.8e-05
7.8e-05
7.8e-05
7.8e-05
7.8e-05
7.8e-05
7.8e-05
7.8e-05
7.8e-05
7.8e-05
7.8e-05
7.8e-05
7.8e-05
7.8e-05
7.8e-05
7.8e-05
7.8e-05
7.8e-05
7.8e-05
7.8e-05
7.8e-05
7.8e-05
7.8e-05
7.8e-05
7.8e-05
7.8e-05
7.8e-05
7.8e-05
7.8e-05
7.8e-05
7.8e-05
7.8e-05
7.8e-05
7.8e-05
7.8e-05
7.8e-05
7.8e-05
7.8e-05
7.8e-05
7.8e-05
7.8e-05
7.8e-05
7.8e-05
7.8e-05
7.8e-05
7.8e-05
7.8e-05
7.8e-05
7.8e-05
7.8e-05
7.8e-05
7.8e-05
7.8e-05
7.8e-05
7.8e-05
7.8e-05
7.8e-05
7.8e-05
7.8e-05
7.8e-05
7.8e-05
7.8e-05
7.8e-05
7.8e-05
7.8e-05
7.8e-05
7.8e-05
7.8e-05
7.8e-05
7.8e-05
7.8e-05
7.8e-05
7.8e-05
7.8e-05
7.8e-05
7.8e-05
7.8e-05
7.8e-05
7.8e-05
7.8e-05
7.8e-05
7.8e-05
7.8e-05
7.8e-05
7.8e-05
7.76166e-05
6.8699e-05
5.73062e-05
5.07857e-05
4.97902e-05
5.38373e-05
6.47472e-05
7.62563e-05
7.79999e-05
7.8e-05
7.8e-05
7.8e-05
7.8e-05
7.8e-05
7.8e-05
7.8e-05
7.8e-05
7.8e-05
7.8e-05
7.8e-05
7.8e-05
7.8e-05
7.8e-05
7.8e-05
7.8e-05
7.8e-05
7.8e-05
7.8e-05
7.8e-05
7.8e-05
7.8e-05
7.8e-05
7.8e-05
7.8e-05
7.8e-05
7.8e-05
7.8e-05
7.8e-05
7.8e-05
7.8e-05
7.8e-05
7.8e-05
7.8e-05
7.8e-05
7.8e-05
7.8e-05
7.8e-05
7.8e-05
7.8e-05
7.8e-05
7.8e-05
7.8e-05
7.8e-05
7.8e-05
7.8e-05
7.8e-05
7.8e-05
7.8e-05
7.8e-05
7.8e-05
7.8e-05
7.8e-05
7.8e-05
7.8e-05
7.8e-05
7.8e-05
7.8e-05
7.8e-05
7.8e-05
7.8e-05
7.8e-05
7.8e-05
7.8e-05
7.8e-05
7.8e-05
7.8e-05
7.8e-05
7.8e-05
7.8e-05
7.8e-05
7.8e-05
7.8e-05
7.8e-05
7.8e-05
7.8e-05
7.8e-05
7.8e-05
7.8e-05
7.8e-05
7.8e-05
7.8e-05
7.8e-05
7.8e-05
7.8e-05
7.8e-05
7.8e-05
7.8e-05
7.8e-05
7.8e-05
7.8e-05
7.8e-05
7.8e-05
7.8e-05
7.8e-05
7.8e-05
7.8e-05
7.8e-05
7.8e-05
7.8e-05
7.8e-05
7.8e-05
7.8e-05
7.8e-05
7.8e-05
7.8e-05
7.8e-05
7.8e-05
7.8e-05
7.8e-05
7.8e-05
7.8e-05
7.8e-05
7.79896e-05
7.77369e-05
7.75104e-05
7.79428e-05
7.79997e-05
7.8e-05
7.8e-05
7.8e-05
7.8e-05
7.8e-05
7.8e-05
7.8e-05
7.8e-05
7.8e-05
7.8e-05
7.8e-05
7.8e-05
7.8e-05
7.8e-05
7.8e-05
7.8e-05
7.8e-05
7.8e-05
7.8e-05
7.8e-05
7.8e-05
7.8e-05
7.8e-05
7.8e-05
7.8e-05
7.8e-05
7.8e-05
7.8e-05
7.8e-05
7.8e-05
7.8e-05
7.8e-05
7.8e-05
7.8e-05
7.8e-05
7.8e-05
7.8e-05
7.8e-05
7.8e-05
7.8e-05
7.8e-05
7.8e-05
7.8e-05
7.8e-05
7.8e-05
7.8e-05
7.8e-05
7.8e-05
7.8e-05
7.8e-05
7.8e-05
7.8e-05
7.8e-05
7.8e-05
7.8e-05
7.8e-05
7.8e-05
7.8e-05
7.8e-05
7.8e-05
7.8e-05
7.8e-05
7.8e-05
7.8e-05
7.8e-05
7.8e-05
7.8e-05
7.8e-05
7.8e-05
7.8e-05
7.8e-05
7.8e-05
7.8e-05
7.8e-05
7.8e-05
7.8e-05
7.8e-05
7.8e-05
7.8e-05
7.8e-05
7.8e-05
7.8e-05
7.8e-05
7.8e-05
7.8e-05
7.8e-05
7.8e-05
7.8e-05
7.8e-05
7.8e-05
7.8e-05
7.8e-05
7.8e-05
7.8e-05
7.8e-05
7.8e-05
7.8e-05
7.8e-05
7.8e-05
7.8e-05
7.8e-05
7.8e-05
7.8e-05
7.8e-05
7.8e-05
7.8e-05
7.8e-05
7.8e-05
7.8e-05
7.8e-05
7.8e-05
7.8e-05
7.8e-05
7.8e-05
7.8e-05
7.8e-05
7.8e-05
7.8e-05
7.8e-05
7.8e-05
7.8e-05
7.8e-05
7.8e-05
7.8e-05
7.8e-05
7.8e-05
7.8e-05
7.8e-05
7.8e-05
7.8e-05
7.8e-05
7.8e-05
7.8e-05
7.8e-05
7.8e-05
7.8e-05
7.8e-05
7.8e-05
7.8e-05
7.8e-05
7.8e-05
7.8e-05
7.8e-05
7.8e-05
7.8e-05
7.8e-05
7.8e-05
7.8e-05
7.8e-05
7.8e-05
7.8e-05
7.8e-05
7.8e-05
7.8e-05
7.8e-05
7.8e-05
7.8e-05
7.8e-05
7.8e-05
7.8e-05
7.8e-05
7.8e-05
7.8e-05
7.8e-05
7.8e-05
7.8e-05
7.8e-05
7.8e-05
7.8e-05
7.8e-05
7.8e-05
7.8e-05
7.8e-05
7.8e-05
7.8e-05
7.8e-05
7.8e-05
7.8e-05
7.8e-05
7.8e-05
7.8e-05
7.8e-05
7.8e-05
7.8e-05
7.8e-05
7.8e-05
7.8e-05
7.8e-05
7.8e-05
7.8e-05
7.8e-05
7.8e-05
7.8e-05
7.8e-05
7.8e-05
7.8e-05
7.8e-05
7.8e-05
7.8e-05
7.8e-05
7.8e-05
7.8e-05
7.8e-05
7.8e-05
7.8e-05
7.8e-05
7.8e-05
7.8e-05
7.8e-05
7.8e-05
7.8e-05
7.8e-05
7.8e-05
7.8e-05
7.8e-05
7.8e-05
7.8e-05
7.8e-05
7.8e-05
7.8e-05
7.8e-05
7.8e-05
7.8e-05
7.8e-05
7.8e-05
7.8e-05
7.8e-05
7.8e-05
7.8e-05
7.8e-05
7.8e-05
7.8e-05
7.8e-05
7.8e-05
7.8e-05
7.8e-05
7.8e-05
7.8e-05
7.8e-05
7.8e-05
7.8e-05
7.8e-05
7.8e-05
7.8e-05
7.8e-05
7.8e-05
7.8e-05
7.8e-05
7.8e-05
7.8e-05
7.8e-05
7.8e-05
7.8e-05
7.8e-05
7.8e-05
7.8e-05
7.8e-05
7.8e-05
7.8e-05
7.8e-05
7.8e-05
7.8e-05
7.8e-05
7.8e-05
7.8e-05
7.8e-05
7.8e-05
7.8e-05
7.8e-05
7.8e-05
7.8e-05
7.8e-05
7.8e-05
7.8e-05
7.8e-05
7.8e-05
7.8e-05
7.8e-05
7.8e-05
7.8e-05
7.8e-05
7.8e-05
7.8e-05
7.8e-05
7.8e-05
7.8e-05
7.8e-05
7.8e-05
7.8e-05
7.8e-05
7.8e-05
7.8e-05
7.8e-05
7.8e-05
7.8e-05
7.8e-05
7.8e-05
7.8e-05
7.8e-05
7.8e-05
7.8e-05
7.8e-05
7.8e-05
7.8e-05
7.8e-05
7.8e-05
7.8e-05
7.8e-05
7.8e-05
7.8e-05
7.8e-05
7.8e-05
7.8e-05
7.8e-05
7.8e-05
7.8e-05
7.8e-05
7.8e-05
7.8e-05
7.8e-05
7.8e-05
7.8e-05
7.8e-05
7.8e-05
7.8e-05
7.8e-05
7.8e-05
7.8e-05
7.8e-05
7.8e-05
7.8e-05
7.8e-05
7.8e-05
7.8e-05
7.8e-05
7.8e-05
7.8e-05
7.8e-05
7.8e-05
7.8e-05
7.8e-05
7.8e-05
7.8e-05
7.8e-05
7.8e-05
7.8e-05
7.8e-05
7.8e-05
7.8e-05
7.8e-05
7.8e-05
7.8e-05
7.8e-05
7.8e-05
7.8e-05
7.8e-05
7.8e-05
7.8e-05
7.8e-05
7.8e-05
7.8e-05
7.8e-05
7.8e-05
7.8e-05
7.8e-05
7.8e-05
7.8e-05
7.8e-05
7.8e-05
7.8e-05
7.8e-05
7.8e-05
7.8e-05
7.8e-05
7.8e-05
7.8e-05
7.8e-05
7.8e-05
7.8e-05
7.8e-05
7.8e-05
7.8e-05
7.8e-05
7.8e-05
7.8e-05
7.8e-05
7.8e-05
7.8e-05
7.8e-05
7.8e-05
7.8e-05
7.8e-05
7.8e-05
7.8e-05
7.8e-05
7.8e-05
7.8e-05
7.8e-05
7.8e-05
7.8e-05
7.8e-05
7.8e-05
7.8e-05
7.8e-05
7.8e-05
7.8e-05
7.8e-05
7.8e-05
7.8e-05
7.8e-05
7.8e-05
7.8e-05
7.8e-05
7.8e-05
7.8e-05
7.8e-05
7.8e-05
7.8e-05
7.8e-05
7.8e-05
7.8e-05
7.8e-05
7.8e-05
7.8e-05
7.8e-05
7.8e-05
7.8e-05
7.8e-05
7.8e-05
7.8e-05
7.8e-05
7.8e-05
7.8e-05
7.8e-05
7.8e-05
7.8e-05
7.8e-05
7.8e-05
7.8e-05
7.8e-05
7.8e-05
7.8e-05
7.8e-05
7.8e-05
7.8e-05
7.8e-05
7.8e-05
7.8e-05
7.8e-05
7.8e-05
7.8e-05
7.8e-05
7.8e-05
7.8e-05
7.8e-05
7.8e-05
7.8e-05
7.8e-05
7.8e-05
7.8e-05
7.8e-05
7.8e-05
7.8e-05
7.8e-05
7.8e-05
7.8e-05
7.8e-05
7.8e-05
7.8e-05
7.8e-05
7.8e-05
7.8e-05
7.8e-05
7.8e-05
7.8e-05
7.8e-05
7.8e-05
7.8e-05
7.8e-05
7.8e-05
7.8e-05
7.8e-05
7.8e-05
7.8e-05
7.8e-05
7.8e-05
7.8e-05
7.8e-05
7.8e-05
7.8e-05
7.8e-05
7.8e-05
7.8e-05
7.8e-05
7.8e-05
7.8e-05
7.8e-05
7.8e-05
7.8e-05
7.8e-05
7.8e-05
7.8e-05
7.8e-05
7.8e-05
7.8e-05
7.8e-05
7.8e-05
7.8e-05
7.8e-05
7.8e-05
7.8e-05
7.8e-05
7.8e-05
7.8e-05
7.8e-05
7.8e-05
7.8e-05
7.8e-05
7.8e-05
7.8e-05
7.8e-05
7.8e-05
7.8e-05
7.8e-05
7.8e-05
7.8e-05
7.8e-05
7.8e-05
7.8e-05
7.8e-05
7.8e-05
7.8e-05
7.8e-05
7.8e-05
7.8e-05
7.8e-05
7.8e-05
7.8e-05
7.8e-05
7.8e-05
7.8e-05
7.8e-05
7.8e-05
7.8e-05
7.8e-05
7.8e-05
7.8e-05
7.8e-05
7.8e-05
7.8e-05
7.8e-05
7.8e-05
7.8e-05
7.8e-05
7.8e-05
7.8e-05
7.8e-05
7.8e-05
7.8e-05
7.8e-05
7.8e-05
7.8e-05
7.8e-05
7.8e-05
7.8e-05
7.8e-05
7.8e-05
7.8e-05
7.8e-05
7.8e-05
7.8e-05
7.8e-05
7.8e-05
7.8e-05
7.8e-05
7.8e-05
7.8e-05
7.8e-05
7.8e-05
7.8e-05
7.8e-05
7.8e-05
7.8e-05
7.8e-05
7.8e-05
7.8e-05
7.8e-05
7.8e-05
7.8e-05
7.8e-05
7.8e-05
7.8e-05
7.8e-05
7.8e-05
7.8e-05
7.8e-05
7.8e-05
7.8e-05
7.8e-05
7.8e-05
7.8e-05
7.8e-05
7.8e-05
7.8e-05
7.8e-05
7.8e-05
7.8e-05
7.8e-05
7.8e-05
7.8e-05
7.8e-05
7.8e-05
7.8e-05
7.8e-05
7.8e-05
7.8e-05
7.8e-05
7.8e-05
7.8e-05
7.8e-05
7.8e-05
7.8e-05
7.8e-05
7.8e-05
7.8e-05
7.8e-05
7.8e-05
7.8e-05
7.8e-05
7.8e-05
7.8e-05
7.8e-05
7.8e-05
7.8e-05
7.8e-05
7.8e-05
7.8e-05
7.8e-05
7.8e-05
7.8e-05
7.8e-05
7.8e-05
7.8e-05
7.8e-05
7.8e-05
7.8e-05
7.8e-05
7.8e-05
7.8e-05
7.8e-05
7.8e-05
7.8e-05
7.8e-05
7.8e-05
7.8e-05
7.8e-05
7.8e-05
7.8e-05
7.8e-05
7.8e-05
7.8e-05
7.8e-05
7.8e-05
7.8e-05
7.8e-05
7.8e-05
7.8e-05
7.8e-05
7.8e-05
7.8e-05
7.8e-05
7.8e-05
7.8e-05
7.8e-05
7.8e-05
7.8e-05
7.8e-05
7.8e-05
7.8e-05
7.8e-05
7.8e-05
7.8e-05
7.8e-05
7.8e-05
7.8e-05
7.8e-05
7.8e-05
7.8e-05
7.8e-05
7.8e-05
7.8e-05
7.8e-05
7.8e-05
7.8e-05
7.8e-05
7.8e-05
7.8e-05
7.8e-05
7.8e-05
7.8e-05
7.8e-05
7.8e-05
7.8e-05
7.8e-05
7.8e-05
7.8e-05
7.8e-05
7.8e-05
7.8e-05
7.8e-05
7.8e-05
7.8e-05
7.8e-05
7.8e-05
7.8e-05
7.8e-05
7.8e-05
7.8e-05
7.8e-05
7.8e-05
7.8e-05
7.8e-05
7.8e-05
7.8e-05
7.8e-05
7.8e-05
7.8e-05
7.8e-05
7.8e-05
7.8e-05
7.8e-05
7.8e-05
7.8e-05
7.8e-05
7.8e-05
7.8e-05
7.8e-05
7.8e-05
7.8e-05
7.8e-05
7.8e-05
7.8e-05
7.8e-05
7.8e-05
7.8e-05
7.8e-05
7.8e-05
7.8e-05
7.8e-05
7.8e-05
7.8e-05
7.8e-05
7.8e-05
7.8e-05
7.8e-05
7.8e-05
7.8e-05
7.8e-05
7.8e-05
7.8e-05
7.8e-05
7.8e-05
7.8e-05
7.8e-05
7.8e-05
7.8e-05
7.8e-05
7.8e-05
7.8e-05
7.8e-05
7.8e-05
7.8e-05
7.8e-05
7.8e-05
7.8e-05
7.8e-05
7.8e-05
7.8e-05
7.8e-05
7.8e-05
7.8e-05
7.8e-05
7.8e-05
7.8e-05
7.8e-05
7.8e-05
7.8e-05
7.8e-05
7.8e-05
7.8e-05
7.8e-05
7.8e-05
7.8e-05
7.8e-05
7.8e-05
7.8e-05
7.8e-05
7.8e-05
7.8e-05
7.8e-05
7.8e-05
7.8e-05
7.8e-05
7.8e-05
7.8e-05
7.8e-05
7.8e-05
7.8e-05
7.8e-05
7.8e-05
7.8e-05
7.8e-05
7.8e-05
7.8e-05
7.8e-05
7.8e-05
7.8e-05
7.8e-05
7.8e-05
7.8e-05
7.8e-05
7.8e-05
7.8e-05
7.8e-05
7.8e-05
7.8e-05
7.8e-05
7.8e-05
7.8e-05
7.8e-05
7.8e-05
7.8e-05
7.8e-05
7.8e-05
7.8e-05
7.8e-05
7.8e-05
7.8e-05
7.8e-05
7.8e-05
7.8e-05
7.8e-05
7.8e-05
7.8e-05
7.8e-05
7.8e-05
7.8e-05
7.8e-05
7.8e-05
7.8e-05
7.8e-05
7.8e-05
7.8e-05
7.8e-05
7.8e-05
7.8e-05
7.8e-05
7.8e-05
7.8e-05
7.8e-05
7.8e-05
7.8e-05
7.8e-05
7.8e-05
7.8e-05
7.8e-05
7.8e-05
7.8e-05
7.8e-05
7.8e-05
7.8e-05
7.8e-05
7.8e-05
7.8e-05
7.8e-05
7.8e-05
7.8e-05
7.8e-05
7.8e-05
7.8e-05
7.8e-05
7.8e-05
7.8e-05
7.8e-05
7.8e-05
7.8e-05
7.8e-05
7.8e-05
7.8e-05
7.8e-05
7.8e-05
7.8e-05
7.8e-05
7.8e-05
7.8e-05
7.8e-05
7.8e-05
7.8e-05
7.8e-05
7.8e-05
7.8e-05
7.8e-05
7.8e-05
7.8e-05
7.8e-05
7.8e-05
7.8e-05
7.8e-05
7.8e-05
7.8e-05
7.8e-05
7.8e-05
7.8e-05
7.8e-05
7.8e-05
7.8e-05
7.8e-05
7.8e-05
7.8e-05
7.8e-05
7.8e-05
7.8e-05
7.8e-05
7.8e-05
7.8e-05
7.8e-05
7.8e-05
7.8e-05
7.8e-05
7.8e-05
7.8e-05
7.8e-05
7.8e-05
7.8e-05
7.8e-05
7.8e-05
7.8e-05
7.8e-05
7.8e-05
7.8e-05
7.8e-05
7.8e-05
7.8e-05
7.8e-05
7.8e-05
7.8e-05
7.8e-05
7.8e-05
7.8e-05
7.8e-05
7.8e-05
7.8e-05
7.8e-05
7.8e-05
7.8e-05
7.8e-05
7.8e-05
7.8e-05
7.8e-05
7.8e-05
7.8e-05
7.8e-05
7.8e-05
7.8e-05
7.8e-05
7.8e-05
7.8e-05
7.8e-05
7.8e-05
7.8e-05
7.8e-05
7.8e-05
7.8e-05
7.8e-05
7.8e-05
7.8e-05
7.8e-05
7.8e-05
7.8e-05
7.8e-05
7.8e-05
7.8e-05
7.8e-05
7.8e-05
7.8e-05
7.8e-05
7.8e-05
7.8e-05
7.8e-05
7.8e-05
7.8e-05
7.8e-05
7.8e-05
7.8e-05
7.8e-05
7.8e-05
7.8e-05
7.8e-05
7.8e-05
7.8e-05
7.8e-05
7.8e-05
7.8e-05
7.8e-05
7.8e-05
7.8e-05
7.8e-05
7.8e-05
7.8e-05
7.8e-05
7.8e-05
7.8e-05
7.8e-05
7.8e-05
7.8e-05
7.8e-05
7.8e-05
7.8e-05
7.8e-05
7.8e-05
7.8e-05
7.8e-05
7.8e-05
7.8e-05
7.8e-05
7.8e-05
7.8e-05
7.8e-05
7.8e-05
7.8e-05
7.8e-05
7.8e-05
7.8e-05
7.8e-05
7.8e-05
7.8e-05
7.8e-05
7.8e-05
7.8e-05
7.8e-05
7.8e-05
7.8e-05
7.8e-05
7.8e-05
7.8e-05
7.8e-05
7.8e-05
7.8e-05
7.8e-05
7.8e-05
7.8e-05
7.8e-05
7.8e-05
7.8e-05
7.8e-05
7.8e-05
7.8e-05
7.8e-05
7.8e-05
7.8e-05
7.8e-05
7.8e-05
7.8e-05
7.8e-05
7.8e-05
7.8e-05
7.8e-05
7.8e-05
7.8e-05
7.8e-05
7.8e-05
7.8e-05
7.8e-05
7.8e-05
7.8e-05
7.8e-05
7.8e-05
7.8e-05
7.8e-05
7.8e-05
7.8e-05
7.8e-05
7.8e-05
7.8e-05
7.8e-05
7.8e-05
7.8e-05
7.8e-05
7.8e-05
7.8e-05
7.8e-05
7.8e-05
7.8e-05
7.8e-05
7.8e-05
7.8e-05
7.8e-05
7.8e-05
7.8e-05
7.8e-05
7.8e-05
7.8e-05
7.8e-05
7.8e-05
7.8e-05
7.8e-05
7.8e-05
7.8e-05
7.8e-05
7.8e-05
7.8e-05
7.8e-05
7.8e-05
7.8e-05
7.8e-05
7.8e-05
7.8e-05
7.8e-05
7.8e-05
7.8e-05
7.8e-05
7.8e-05
7.8e-05
7.8e-05
7.8e-05
7.8e-05
7.8e-05
7.8e-05
7.8e-05
7.8e-05
7.8e-05
7.8e-05
7.8e-05
7.8e-05
7.8e-05
7.8e-05
7.8e-05
7.8e-05
7.8e-05
7.8e-05
7.8e-05
7.8e-05
7.8e-05
7.8e-05
7.8e-05
7.8e-05
7.8e-05
7.8e-05
7.8e-05
7.8e-05
7.8e-05
7.8e-05
7.8e-05
7.8e-05
7.8e-05
7.8e-05
7.8e-05
7.8e-05
7.8e-05
7.8e-05
7.8e-05
7.8e-05
7.8e-05
7.8e-05
7.8e-05
7.8e-05
7.8e-05
7.8e-05
7.8e-05
7.8e-05
7.8e-05
7.8e-05
7.8e-05
7.8e-05
7.8e-05
7.8e-05
7.8e-05
7.8e-05
7.8e-05
7.8e-05
7.8e-05
7.8e-05
7.8e-05
7.8e-05
7.8e-05
7.8e-05
7.8e-05
7.8e-05
7.8e-05
7.8e-05
7.8e-05
7.8e-05
7.8e-05
7.8e-05
7.8e-05
7.8e-05
7.8e-05
7.8e-05
7.8e-05
7.8e-05
7.8e-05
7.8e-05
7.8e-05
7.8e-05
7.8e-05
7.8e-05
7.8e-05
7.8e-05
7.8e-05
7.8e-05
7.8e-05
7.8e-05
7.8e-05
7.8e-05
7.8e-05
7.8e-05
7.8e-05
7.8e-05
7.8e-05
7.8e-05
7.8e-05
7.8e-05
7.8e-05
7.8e-05
7.8e-05
7.8e-05
7.8e-05
7.8e-05
7.8e-05
7.8e-05
7.8e-05
7.8e-05
7.8e-05
7.8e-05
7.8e-05
7.8e-05
7.8e-05
7.8e-05
7.8e-05
7.8e-05
7.8e-05
7.8e-05
7.8e-05
7.8e-05
7.8e-05
7.8e-05
7.8e-05
7.8e-05
7.8e-05
7.8e-05
7.8e-05
7.8e-05
7.8e-05
7.8e-05
7.8e-05
7.8e-05
7.8e-05
7.8e-05
7.8e-05
7.8e-05
7.8e-05
7.8e-05
7.8e-05
7.8e-05
7.8e-05
7.8e-05
7.8e-05
7.8e-05