/*--------------------------------*- C++ -*----------------------------------*\
| =========                 |                                                 |
| \\      /  F ield         | OpenFOAM: The Open Source CFD Toolbox           |
|  \\    /   O peration     | Version:  2406                                  |
|   \\  /    A nd           | Website:  www.openfoam.com                      |
|    \\/     M anipulation  |                                                 |
\*---------------------------------------------------------------------------*/
FoamFile
{
    version     2.0;
    format      ascii;
    arch        "LSB;label=32;scalar=64";
    class       volScalarField;
    location    "5.2";
    object      D;
}
// * * * * * * * * * * * * * * * * * * * * * * * * * * * * * * * * * * * * * //

dimensions      [0 2 -1 0 0 0 0];

internalField   nonuniform List<scalar> 
14400
(
6.21128e-05
6.18495e-05
6.14891e-05
6.11502e-05
6.08793e-05
6.06863e-05
6.05701e-05
6.05293e-05
6.05667e-05
6.06923e-05
6.09267e-05
6.13066e-05
6.18941e-05
6.27824e-05
6.40159e-05
6.49324e-05
6.35279e-05
6.20762e-05
6.10267e-05
6.02846e-05
5.97449e-05
5.934e-05
5.90292e-05
5.87887e-05
5.86049e-05
5.84711e-05
5.8386e-05
5.83534e-05
5.83828e-05
5.84931e-05
5.87198e-05
5.91348e-05
5.99106e-05
6.16032e-05
6.73354e-05
0.000124372
0.00013824
0.00013824
0.00013824
0.00013824
0.00013824
0.00013824
0.00013824
0.00013824
0.00013824
0.00013824
0.00013824
0.00013824
0.00013824
0.00013824
0.00013824
0.00013824
0.00013824
0.00013824
0.00013824
0.00013824
0.00013824
0.00013824
0.00013824
0.00013824
0.00013824
0.000138231
9.4986e-05
6.53416e-05
6.11287e-05
5.97892e-05
5.91726e-05
5.88544e-05
5.86955e-05
5.86347e-05
5.86396e-05
5.86908e-05
5.8775e-05
5.8883e-05
5.90085e-05
5.91477e-05
5.92998e-05
5.94683e-05
5.96619e-05
5.98971e-05
6.02033e-05
6.06332e-05
6.12908e-05
6.24224e-05
6.48076e-05
7.24216e-05
0.000133787
0.00013824
0.000137935
8.24319e-05
6.66743e-05
6.31623e-05
6.17758e-05
6.10557e-05
6.06413e-05
6.04001e-05
6.02708e-05
6.02196e-05
6.02246e-05
6.02682e-05
6.0333e-05
6.03984e-05
6.04422e-05
6.04446e-05
6.03982e-05
6.03128e-05
6.02088e-05
6.01085e-05
6.0031e-05
5.99925e-05
6.00087e-05
6.00995e-05
6.02951e-05
6.06502e-05
6.12781e-05
6.2467e-05
6.52301e-05
7.52295e-05
0.000136745
0.00013824
6.26084e-05
6.21738e-05
6.16688e-05
6.12422e-05
6.09222e-05
6.07026e-05
6.05727e-05
6.05265e-05
6.05654e-05
6.06998e-05
6.09535e-05
6.13734e-05
6.20523e-05
6.31904e-05
6.52569e-05
6.89223e-05
6.47978e-05
6.25263e-05
6.12127e-05
6.0371e-05
5.97884e-05
5.93633e-05
5.9043e-05
5.87989e-05
5.86151e-05
5.84842e-05
5.84046e-05
5.83803e-05
5.8422e-05
5.85506e-05
5.88068e-05
5.92772e-05
6.01809e-05
6.22744e-05
6.97205e-05
0.000135182
0.00013824
0.00013824
0.00013824
0.00013824
0.00013824
0.00013824
0.00013824
0.00013824
0.00013824
0.00013824
0.00013824
0.00013824
0.00013824
0.00013824
0.00013824
0.00013824
0.00013824
0.00013824
0.00013824
0.00013824
0.00013824
0.00013824
0.00013824
0.00013824
0.00013824
0.00013824
0.000109403
6.63733e-05
6.14189e-05
5.99312e-05
5.92552e-05
5.89047e-05
5.87252e-05
5.86497e-05
5.86434e-05
5.86854e-05
5.87622e-05
5.88643e-05
5.89854e-05
5.91217e-05
5.92731e-05
5.94431e-05
5.96413e-05
5.98852e-05
6.02065e-05
6.06637e-05
6.13788e-05
6.26706e-05
6.57747e-05
7.89581e-05
0.00013768
0.00013824
0.000138235
0.000101106
6.83275e-05
6.35785e-05
6.19626e-05
6.1159e-05
6.07039e-05
6.0441e-05
6.03008e-05
6.02469e-05
6.02563e-05
6.03113e-05
6.03936e-05
6.04805e-05
6.05434e-05
6.05537e-05
6.04991e-05
6.03946e-05
6.02702e-05
6.01534e-05
6.00658e-05
6.00237e-05
6.0043e-05
6.01443e-05
6.03605e-05
6.07545e-05
6.1466e-05
6.28963e-05
6.69355e-05
9.17459e-05
0.000138208
0.00013824
6.4201e-05
6.30219e-05
6.20921e-05
6.14544e-05
6.10274e-05
6.0752e-05
6.05939e-05
6.05372e-05
6.05797e-05
6.07327e-05
6.10269e-05
6.15299e-05
6.23995e-05
6.41107e-05
6.90385e-05
0.000102812
6.92873e-05
6.36626e-05
6.16319e-05
6.05631e-05
5.98884e-05
5.94203e-05
5.90794e-05
5.88268e-05
5.86425e-05
5.8517e-05
5.84484e-05
5.84414e-05
5.85087e-05
5.86767e-05
5.89987e-05
5.9598e-05
6.08523e-05
6.47642e-05
9.49182e-05
0.000138233
0.00013824
0.00013824
0.00013824
0.00013824
0.00013824
0.00013824
0.00013824
0.00013824
0.00013824
0.00013824
0.00013824
0.00013824
0.00013824
0.00013824
0.00013824
0.00013824
0.00013824
0.00013824
0.00013824
0.00013824
0.00013824
0.00013824
0.00013824
0.00013824
0.00013824
0.00013824
0.000130401
6.86816e-05
6.2174e-05
6.02742e-05
5.94448e-05
5.90186e-05
5.87936e-05
5.86869e-05
5.86573e-05
5.86811e-05
5.87432e-05
5.88338e-05
5.89465e-05
5.90778e-05
5.92281e-05
5.94018e-05
5.96097e-05
5.98719e-05
6.02248e-05
6.07386e-05
6.15699e-05
6.31824e-05
6.79271e-05
0.000101881
0.000138236
0.00013824
0.00013824
0.000128548
7.15318e-05
6.45842e-05
6.24144e-05
6.14053e-05
6.08544e-05
6.05418e-05
6.03776e-05
6.03178e-05
6.03372e-05
6.04184e-05
6.05433e-05
6.06847e-05
6.08005e-05
6.08338e-05
6.07545e-05
6.05973e-05
6.04203e-05
6.02637e-05
6.01521e-05
6.01015e-05
6.01271e-05
6.0251e-05
6.05127e-05
6.09935e-05
6.18934e-05
6.38499e-05
7.01698e-05
0.000122926
0.00013824
0.00013824
7.09852e-05
6.50815e-05
6.29298e-05
6.18574e-05
6.12395e-05
6.08708e-05
6.06665e-05
6.05931e-05
6.06429e-05
6.08291e-05
6.11943e-05
6.1844e-05
6.30532e-05
6.58358e-05
7.66604e-05
0.000137206
9.20608e-05
6.64307e-05
6.24149e-05
6.09109e-05
6.00754e-05
5.95329e-05
5.91555e-05
5.88869e-05
5.86999e-05
5.85819e-05
5.85303e-05
5.85512e-05
5.86619e-05
5.88992e-05
5.93418e-05
6.01867e-05
6.20921e-05
6.86978e-05
0.000130115
0.00013824
0.00013824
0.00013824
0.00013824
0.00013824
0.00013824
0.00013824
0.00013824
0.00013824
0.00013824
0.00013824
0.00013824
0.00013824
0.00013824
0.00013824
0.00013824
0.00013824
0.00013824
0.00013824
0.00013824
0.00013824
0.00013824
0.00013824
0.00013824
0.00013824
0.00013824
0.00013824
0.000138228
9.18579e-05
6.46987e-05
6.10037e-05
5.97993e-05
5.92246e-05
5.89184e-05
5.87593e-05
5.86924e-05
5.8688e-05
5.87284e-05
5.88024e-05
5.89035e-05
5.90286e-05
5.91787e-05
5.93596e-05
5.95843e-05
5.9877e-05
6.02831e-05
6.08942e-05
6.19306e-05
6.40972e-05
7.1003e-05
0.000128855
0.00013824
0.00013824
0.00013824
0.000138235
9.9886e-05
6.79674e-05
6.34336e-05
6.19015e-05
6.1153e-05
6.07455e-05
6.05374e-05
6.0467e-05
6.0505e-05
6.06364e-05
6.08491e-05
6.11146e-05
6.13725e-05
6.14753e-05
6.13215e-05
6.10215e-05
6.07242e-05
6.04844e-05
6.03262e-05
6.02592e-05
6.02953e-05
6.04596e-05
6.08051e-05
6.14548e-05
6.27851e-05
6.65694e-05
9.015e-05
0.000138206
0.00013824
0.00013824
0.000129601
7.15335e-05
6.47228e-05
6.26327e-05
6.16555e-05
6.11286e-05
6.08478e-05
6.07476e-05
6.08123e-05
6.10591e-05
6.15551e-05
6.25034e-05
6.45384e-05
7.10671e-05
0.000125605
0.00013824
0.000132152
7.11712e-05
6.38344e-05
6.15427e-05
6.04178e-05
5.97437e-05
5.93021e-05
5.90042e-05
5.88094e-05
5.87002e-05
5.8673e-05
5.87371e-05
5.89189e-05
5.92792e-05
5.99634e-05
6.14362e-05
6.61936e-05
0.00010631
0.00013824
0.00013824
0.00013824
0.00013824
0.00013824
0.00013824
0.00013824
0.00013824
0.00013824
0.00013824
0.00013824
0.00013824
0.00013824
0.00013824
0.00013824
0.00013824
0.00013824
0.00013824
0.00013824
0.00013824
0.00013824
0.00013824
0.00013824
0.00013824
0.00013824
0.00013824
0.00013824
0.00013824
0.00013824
0.000131608
6.90893e-05
6.23543e-05
6.043e-05
5.95795e-05
5.91333e-05
5.889e-05
5.87668e-05
5.87223e-05
5.87332e-05
5.87859e-05
5.8873e-05
5.89919e-05
5.91444e-05
5.93384e-05
5.95903e-05
5.99321e-05
6.04258e-05
6.12089e-05
6.2685e-05
6.68761e-05
9.58892e-05
0.00013823
0.00013824
0.00013824
0.00013824
0.00013824
0.000137667
7.79101e-05
6.57236e-05
6.2895e-05
6.17341e-05
6.11397e-05
6.08507e-05
6.07613e-05
6.08325e-05
6.10598e-05
6.14623e-05
6.20391e-05
6.27885e-05
6.3184e-05
6.27198e-05
6.19264e-05
6.13288e-05
6.09079e-05
6.0659e-05
6.05611e-05
6.06157e-05
6.08538e-05
6.13619e-05
6.23501e-05
6.46608e-05
7.31321e-05
0.000136093
0.00013824
0.00013824
0.00013824
0.00013824
0.000121958
7.06176e-05
6.44041e-05
6.25171e-05
6.16749e-05
6.1245e-05
6.10952e-05
6.11921e-05
6.15651e-05
6.23362e-05
6.40917e-05
6.96139e-05
0.000110016
0.00013824
0.00013824
0.00013824
0.000114133
6.86495e-05
6.29685e-05
6.10876e-05
6.01381e-05
5.95748e-05
5.92211e-05
5.90085e-05
5.89087e-05
5.89173e-05
5.90508e-05
5.93557e-05
5.99553e-05
6.11967e-05
6.46976e-05
8.55672e-05
0.000138195
0.00013824
0.00013824
0.00013824
0.00013824
0.00013824
0.00013824
0.00013824
0.00013824
0.00013824
0.00013824
0.00013824
0.00013824
0.00013824
0.00013824
0.00013824
0.00013824
0.00013824
0.00013824
0.00013824
0.00013824
0.00013824
0.00013824
0.00013824
0.00013824
0.00013824
0.00013824
0.00013824
0.00013824
0.00013824
0.00013824
0.000111616
6.68965e-05
6.17836e-05
6.0226e-05
5.9505e-05
5.9119e-05
5.89096e-05
5.88081e-05
5.87797e-05
5.88056e-05
5.88768e-05
5.89908e-05
5.91509e-05
5.93676e-05
5.96642e-05
6.00868e-05
6.07317e-05
6.18313e-05
6.41604e-05
7.20484e-05
0.000134977
0.00013824
0.00013824
0.00013824
0.00013824
0.00013824
0.00013824
0.00013548
7.32648e-05
6.53541e-05
6.30009e-05
6.19319e-05
6.14718e-05
6.13423e-05
6.14777e-05
6.1906e-05
6.28155e-05
6.43842e-05
6.80476e-05
7.04265e-05
6.78927e-05
6.41871e-05
6.26519e-05
6.17473e-05
6.13049e-05
6.11449e-05
6.12379e-05
6.16334e-05
6.25525e-05
6.44998e-05
7.12671e-05
0.000131394
0.00013824
0.00013824
0.00013824
0.00013824
0.00013824
0.00013824
0.00011803
7.05701e-05
6.46315e-05
6.2941e-05
6.21063e-05
6.18374e-05
6.20172e-05
6.27398e-05
6.42417e-05
6.9571e-05
0.000105678
0.000138238
0.00013824
0.00013824
0.00013824
0.000138235
9.81326e-05
6.73616e-05
6.25788e-05
6.09098e-05
6.00864e-05
5.96181e-05
5.9366e-05
5.92763e-05
5.93429e-05
5.96035e-05
6.01556e-05
6.13537e-05
6.44962e-05
7.84463e-05
0.000137981
0.00013824
0.00013824
0.00013824
0.00013824
0.00013824
0.00013824
0.00013824
0.00013824
0.00013824
0.00013824
0.00013824
0.00013824
0.00013824
0.00013824
0.00013824
0.00013824
0.00013824
0.00013824
0.00013824
0.00013824
0.00013824
0.00013824
0.00013824
0.00013824
0.00013824
0.00013824
0.00013824
0.00013824
0.00013824
0.00013824
0.00013824
0.000138229
9.25993e-05
6.55967e-05
6.15468e-05
6.01797e-05
5.95223e-05
5.917e-05
5.89832e-05
5.89e-05
5.88909e-05
5.89439e-05
5.90563e-05
5.92332e-05
5.94901e-05
5.98629e-05
6.04308e-05
6.13856e-05
6.3322e-05
6.94455e-05
0.000122078
0.00013824
0.00013824
0.00013824
0.00013824
0.00013824
0.00013824
0.00013824
0.00013824
0.000135165
7.57372e-05
6.69574e-05
6.37774e-05
6.285e-05
6.26069e-05
6.29059e-05
6.38621e-05
6.70981e-05
7.35866e-05
0.000118677
0.000135135
0.00011745
7.27708e-05
6.6791e-05
6.36775e-05
6.2718e-05
6.23924e-05
6.25956e-05
6.3428e-05
6.6126e-05
7.26078e-05
0.000131232
0.00013824
0.00013824
0.00013824
0.00013824
0.00013824
0.00013824
0.00013824
0.00013824
0.000125372
7.25675e-05
6.71856e-05
6.42542e-05
6.35783e-05
6.40418e-05
6.65536e-05
7.11069e-05
0.000115575
0.000138239
0.00013824
0.00013824
0.00013824
0.00013824
0.00013824
0.000138225
9.4609e-05
6.73921e-05
6.26757e-05
6.11375e-05
6.03811e-05
6.00374e-05
5.99589e-05
6.01388e-05
6.0706e-05
6.19197e-05
6.56917e-05
8.22654e-05
0.000137936
0.00013824
0.00013824
0.00013824
0.00013824
0.00013824
0.00013824
0.00013824
0.00013824
0.00013824
0.00013824
0.00013824
0.00013824
0.00013824
0.00013824
0.00013824
0.00013824
0.00013824
0.00013824
0.00013824
0.00013824
0.00013824
0.00013824
0.00013824
0.00013824
0.00013824
0.00013824
0.00013824
0.00013824
0.00013824
0.00013824
0.00013824
0.00013824
0.00013824
0.000138172
8.46002e-05
6.52663e-05
6.15981e-05
6.02763e-05
5.96463e-05
5.93164e-05
5.91484e-05
5.90882e-05
5.91181e-05
5.92352e-05
5.94476e-05
5.97789e-05
6.02935e-05
6.11608e-05
6.29263e-05
6.83036e-05
0.000108279
0.00013824
0.00013824
0.00013824
0.00013824
0.00013824
0.00013824
0.00013824
0.00013824
0.00013824
0.00013824
0.000137337
9.50502e-05
7.01169e-05
6.72517e-05
6.63566e-05
6.75385e-05
7.05655e-05
0.000100312
0.000136728
0.00013824
0.00013824
0.00013824
0.000136269
9.80404e-05
7.02652e-05
6.7235e-05
6.59901e-05
6.68286e-05
6.95357e-05
8.95516e-05
0.000135926
0.00013824
0.00013824
0.00013824
0.00013824
0.00013824
0.00013824
0.00013824
0.00013824
0.00013824
0.00013824
0.000135498
0.000101271
7.21998e-05
6.95489e-05
7.12528e-05
9.45033e-05
0.00013162
0.00013824
0.00013824
0.00013824
0.00013824
0.00013824
0.00013824
0.00013824
0.00013824
0.000138229
0.000104793
6.88345e-05
6.4014e-05
6.21042e-05
6.15039e-05
6.14438e-05
6.19151e-05
6.37666e-05
6.79802e-05
9.91636e-05
0.000138147
0.00013824
0.00013824
0.00013824
0.00013824
0.00013824
0.00013824
0.00013824
0.00013824
0.00013824
0.00013824
0.00013824
0.00013824
0.00013824
0.00013824
0.00013824
0.00013824
0.00013824
0.00013824
0.00013824
0.00013824
0.00013824
0.00013824
0.00013824
0.00013824
0.00013824
0.00013824
0.00013824
0.00013824
0.00013824
0.00013824
0.00013824
0.00013824
0.00013824
0.00013824
0.00013824
0.000138147
8.67741e-05
6.60282e-05
6.19487e-05
6.05863e-05
5.99625e-05
5.9637e-05
5.94842e-05
5.94787e-05
5.96138e-05
5.99061e-05
6.03939e-05
6.12231e-05
6.28951e-05
6.81374e-05
0.00010406
0.000138238
0.00013824
0.00013824
0.00013824
0.00013824
0.00013824
0.00013824
0.00013824
0.00013824
0.00013824
0.00013824
0.00013824
0.000138229
0.000126188
9.94254e-05
8.80638e-05
0.000103443
0.000129829
0.000138237
0.00013824
0.00013824
0.00013824
0.00013824
0.00013824
0.000138235
0.000128657
0.000101365
8.57374e-05
9.63804e-05
0.000123596
0.000138207
0.00013824
0.00013824
0.00013824
0.00013824
0.00013824
0.00013824
0.00013824
0.00013824
0.00013824
0.00013824
0.00013824
0.00013824
0.000138237
0.000135534
0.000127113
0.000134158
0.000138227
0.00013824
0.00013824
0.00013824
0.00013824
0.00013824
0.00013824
0.00013824
0.00013824
0.00013824
0.00013824
0.000138239
0.000125585
7.94047e-05
6.79811e-05
6.6374e-05
6.64058e-05
6.79463e-05
8.16308e-05
0.000124961
0.000138238
0.00013824
0.00013824
0.00013824
0.00013824
0.00013824
0.00013824
0.00013824
0.00013824
0.00013824
0.00013824
0.00013824
0.00013824
0.00013824
0.00013824
0.00013824
0.00013824
0.00013824
0.00013824
0.00013824
0.00013824
0.00013824
0.00013824
0.00013824
0.00013824
0.00013824
0.00013824
0.00013824
0.00013824
0.00013824
0.00013824
0.00013824
0.00013824
0.00013824
0.00013824
0.00013824
0.00013824
0.00013824
0.000138202
9.97841e-05
6.76965e-05
6.29063e-05
6.14106e-05
6.06752e-05
6.02829e-05
6.02037e-05
6.0392e-05
6.09103e-05
6.18354e-05
6.36769e-05
6.90575e-05
0.000111005
0.000138239
0.00013824
0.00013824
0.00013824
0.00013824
0.00013824
0.00013824
0.00013824
0.00013824
0.00013824
0.00013824
0.00013824
0.00013824
0.00013824
0.00013824
0.000138235
0.000138179
0.000138238
0.00013824
0.00013824
0.00013824
0.00013824
0.00013824
0.00013824
0.00013824
0.00013824
0.00013824
0.000138237
0.000138144
0.00013823
0.00013824
0.00013824
0.00013824
0.00013824
0.00013824
0.00013824
0.00013824
0.00013824
0.00013824
0.00013824
0.00013824
0.00013824
0.00013824
0.00013824
0.00013824
0.00013824
0.00013824
0.00013824
0.00013824
0.00013824
0.00013824
0.00013824
0.00013824
0.00013824
0.00013824
0.00013824
0.00013824
0.00013824
0.00013824
0.00013824
0.00013824
0.000138038
0.000124167
0.000107854
0.000110122
0.000126817
0.000138137
0.00013824
0.00013824
0.00013824
0.00013824
0.00013824
0.00013824
0.00013824
0.00013824
0.00013824
0.00013824
0.00013824
0.00013824
0.00013824
0.00013824
0.00013824
0.00013824
0.00013824
0.00013824
0.00013824
0.00013824
0.00013824
0.00013824
0.00013824
0.00013824
0.00013824
0.00013824
0.00013824
0.00013824
0.00013824
0.00013824
0.00013824
0.00013824
0.00013824
0.00013824
0.00013824
0.00013824
0.00013824
0.00013824
0.00013824
0.00013824
0.000138238
0.0001223
7.25536e-05
6.64022e-05
6.36478e-05
6.21487e-05
6.18579e-05
6.22167e-05
6.37642e-05
6.68745e-05
7.47976e-05
0.000126876
0.00013824
0.00013824
0.00013824
0.00013824
0.00013824
0.00013824
0.00013824
0.00013824
0.00013824
0.00013824
0.00013824
0.00013824
0.00013824
0.00013824
0.00013824
0.00013824
0.00013824
0.00013824
0.00013824
0.00013824
0.00013824
0.00013824
0.00013824
0.00013824
0.00013824
0.00013824
0.00013824
0.00013824
0.00013824
0.00013824
0.00013824
0.00013824
0.00013824
0.00013824
0.00013824
0.00013824
0.00013824
0.00013824
0.00013824
0.00013824
0.00013824
0.00013824
0.00013824
0.00013824
0.00013824
0.00013824
0.00013824
0.00013824
0.00013824
0.00013824
0.00013824
0.00013824
0.00013824
0.00013824
0.00013824
0.00013824
0.00013824
0.00013824
0.00013824
0.00013824
0.00013824
0.00013824
0.00013824
0.00013824
0.00013824
0.00013824
0.00013824
0.00013824
0.00013824
0.00013824
0.00013824
0.00013824
0.00013824
0.00013824
0.00013824
0.00013824
0.00013824
0.00013824
0.00013824
0.00013824
0.00013824
0.00013824
0.00013824
0.00013824
0.00013824
0.00013824
0.00013824
0.00013824
0.00013824
0.00013824
0.00013824
0.00013824
0.00013824
0.00013824
0.00013824
0.00013824
0.00013824
0.00013824
0.00013824
0.00013824
0.00013824
0.00013824
0.00013824
0.00013824
0.00013824
0.00013824
0.00013824
0.00013824
0.00013824
0.00013824
0.000137198
0.000112837
8.04302e-05
6.86624e-05
6.76467e-05
6.85814e-05
7.90885e-05
0.000113116
0.000137578
0.00013824
0.00013824
0.00013824
0.00013824
0.00013824
0.00013824
0.00013824
0.00013824
0.00013824
0.00013824
0.00013824
0.00013824
0.00013824
0.00013824
0.00013824
0.00013824
0.00013824
0.00013824
0.00013824
0.00013824
0.00013824
0.00013824
0.00013824
0.00013824
0.00013824
0.00013824
0.00013824
0.00013824
0.00013824
0.00013824
0.00013824
0.00013824
0.00013824
0.00013824
0.00013824
0.00013824
0.00013824
0.00013824
0.00013824
0.00013824
0.00013824
0.00013824
0.00013824
0.00013824
0.00013824
0.00013824
0.00013824
0.00013824
0.00013824
0.00013824
0.00013824
0.00013824
0.00013824
0.00013824
0.00013824
0.00013824
0.00013824
0.00013824
0.00013824
0.00013824
0.00013824
0.00013824
0.00013824
0.00013824
0.00013824
0.00013824
0.00013824
0.00013824
0.00013824
0.00013824
0.00013824
0.00013824
0.00013824
0.00013824
0.00013824
0.00013824
0.00013824
0.00013824
0.00013824
0.00013824
0.00013824
0.00013824
0.00013824
0.00013824
0.00013824
0.00013824
0.00013824
0.00013824
0.00013824
0.00013824
0.00013824
0.00013824
0.00013824
0.00013824
0.00013824
0.00013824
0.00013824
0.00013824
0.00013824
0.00013824
0.00013824
0.00013824
0.00013824
0.00013824
0.00013824
0.00013824
0.00013824
0.00013824
0.00013824
0.00013824
0.00013824
0.00013824
0.00013824
0.000138093
0.000132837
0.000127128
0.000131846
0.000138022
0.00013824
0.00013824
0.00013824
0.00013824
0.00013824
0.00013824
0.00013824
0.00013824
0.00013824
0.00013824
0.00013824
0.00013824
0.00013824
0.00013824
0.00013824
0.00013824
0.00013824
0.00013824
0.00013824
0.00013824
0.00013824
0.00013824
0.00013824
0.00013824
0.00013824
0.00013824
0.00013824
0.00013824
0.00013824
0.00013824
0.00013824
0.00013824
0.00013824
0.00013824
0.00013824
0.00013824
0.00013824
0.00013824
0.00013824
0.00013824
0.00013824
0.00013824
0.00013824
0.00013824
0.00013824
0.00013824
0.00013824
0.00013824
0.00013824
0.00013824
0.00013824
0.00013824
0.00013824
0.00013824
0.00013824
0.00013824
0.00013824
0.00013824
0.00013824
0.00013824
0.00013824
0.00013824
0.00013824
0.00013824
0.00013824
0.00013824
0.00013824
0.00013824
0.00013824
0.00013824
0.00013824
0.00013824
0.00013824
0.00013824
0.00013824
0.00013824
0.00013824
0.00013824
0.00013824
0.00013824
0.00013824
0.00013824
0.00013824
0.00013824
0.00013824
0.00013824
0.00013824
0.00013824
0.00013824
0.00013824
0.00013824
0.00013824
0.00013824
0.00013824
0.00013824
0.00013824
0.00013824
0.00013824
0.00013824
0.00013824
0.00013824
0.00013824
0.00013824
0.00013824
0.00013824
0.00013824
0.00013824
0.00013824
0.00013824
0.00013824
0.00013824
0.00013824
0.00013824
0.00013824
0.00013824
0.00013824
0.00013824
0.00013824
0.00013824
0.00013824
0.00013824
0.00013824
0.00013824
0.00013824
0.00013824
0.00013824
0.00013824
0.00013824
0.00013824
0.00013824
0.00013824
0.00013824
0.00013824
0.00013824
0.00013824
0.00013824
0.00013824
0.00013824
0.00013824
0.00013824
0.00013824
0.00013824
0.00013824
0.00013824
0.00013824
0.00013824
0.00013824
0.00013824
0.00013824
0.00013824
0.00013824
0.00013824
0.00013824
0.00013824
0.00013824
0.00013824
0.00013824
0.00013824
0.00013824
0.00013824
0.00013824
0.00013824
0.00013824
0.00013824
0.00013824
0.00013824
0.00013824
0.00013824
0.00013824
0.00013824
0.00013824
0.00013824
0.00013824
0.00013824
0.00013824
0.00013824
0.00013824
0.00013824
0.00013824
0.00013824
0.00013824
0.00013824
0.00013824
0.00013824
0.00013824
0.00013824
0.00013824
0.00013824
0.00013824
0.00013824
0.00013824
0.00013824
0.00013824
0.00013824
0.00013824
0.00013824
0.00013824
0.00013824
0.00013824
0.00013824
0.00013824
0.00013824
0.00013824
0.00013824
0.00013824
0.00013824
0.00013824
0.00013824
0.00013824
0.00013824
0.00013824
0.00013824
0.00013824
0.00013824
0.00013824
0.00013824
0.00013824
0.00013824
0.00013824
0.00013824
0.00013824
0.00013824
0.00013824
0.00013824
0.00013824
0.00013824
0.00013824
0.00013824
0.00013824
0.00013824
0.00013824
0.00013824
0.00013824
0.00013824
0.00013824
0.00013824
0.00013824
0.00013824
0.00013824
0.00013824
0.00013824
0.00013824
0.00013824
0.00013824
0.00013824
0.00013824
0.00013824
0.00013824
0.00013824
0.00013824
0.00013824
0.00013824
0.00013824
0.00013824
0.00013824
0.00013824
0.00013824
0.00013824
0.00013824
0.00013824
0.00013824
0.00013824
0.00013824
0.00013824
0.00013824
0.00013824
0.00013824
0.00013824
0.00013824
0.00013824
0.00013824
0.00013824
0.00013824
0.00013824
0.00013824
0.00013824
0.00013824
0.00013824
0.00013824
0.00013824
0.00013824
0.00013824
0.00013824
0.00013824
0.00013824
0.00013824
0.00013824
0.00013824
0.00013824
0.00013824
0.00013824
0.00013824
0.00013824
0.00013824
0.00013824
0.00013824
0.00013824
0.00013824
0.00013824
0.00013824
0.00013824
0.00013824
0.00013824
0.00013824
0.00013824
0.00013824
0.00013824
0.00013824
0.00013824
0.00013824
0.00013824
0.00013824
0.00013824
0.00013824
0.00013824
0.00013824
0.00013824
0.00013824
0.00013824
0.00013824
0.00013824
0.00013824
0.00013824
0.00013824
0.00013824
0.00013824
0.00013824
0.00013824
0.00013824
0.00013824
0.00013824
0.00013824
0.00013824
0.00013824
0.00013824
0.00013824
0.00013824
0.00013824
0.00013824
0.00013824
0.00013824
0.00013824
0.00013824
0.00013824
0.00013824
0.00013824
0.00013824
0.00013824
0.00013824
0.00013824
0.00013824
0.00013824
0.00013824
0.00013824
0.00013824
0.00013824
0.00013824
0.00013824
0.00013824
0.00013824
0.00013824
0.00013824
0.00013824
0.00013824
0.00013824
0.00013824
0.00013824
0.00013824
0.00013824
0.00013824
0.00013824
0.00013824
0.00013824
0.00013824
0.00013824
0.00013824
0.00013824
0.00013824
0.00013824
0.00013824
0.00013824
0.00013824
0.00013824
0.00013824
0.00013824
0.00013824
0.00013824
0.00013824
0.00013824
0.00013824
0.00013824
0.00013824
0.00013824
0.00013824
0.00013824
0.00013824
0.00013824
0.00013824
0.00013824
0.00013824
0.00013824
0.00013824
0.00013824
0.00013824
0.00013824
0.00013824
0.00013824
0.00013824
0.00013824
0.00013824
0.00013824
0.00013824
0.00013824
0.00013824
0.00013824
0.00013824
0.00013824
0.00013824
0.00013824
0.00013824
0.00013824
0.00013824
0.00013824
0.00013824
0.00013824
0.00013824
0.00013824
0.00013824
0.00013824
0.00013824
0.00013824
0.00013824
0.00013824
0.00013824
0.00013824
0.00013824
0.00013824
0.00013824
0.00013824
0.00013824
0.00013824
0.00013824
0.00013824
0.00013824
0.00013824
0.00013824
0.00013824
0.00013824
0.00013824
0.00013824
0.00013824
0.00013824
0.00013824
0.00013824
0.00013824
0.00013824
0.00013824
0.00013824
0.00013824
0.00013824
0.00013824
0.00013824
0.00013824
0.00013824
0.00013824
0.00013824
0.00013824
0.00013824
0.00013824
0.00013824
0.00013824
0.00013824
0.00013824
0.00013824
0.00013824
0.00013824
0.00013824
0.00013824
0.00013824
0.00013824
0.00013824
0.00013824
0.00013824
0.00013824
0.00013824
0.00013824
0.00013824
0.00013824
0.00013824
0.00013824
0.00013824
0.00013824
0.00013824
0.00013824
0.00013824
0.00013824
0.00013824
0.00013824
0.00013824
0.00013824
0.00013824
0.00013824
0.00013824
0.00013824
0.00013824
0.00013824
0.00013824
0.00013824
0.00013824
0.00013824
0.00013824
0.00013824
0.00013824
0.00013824
0.00013824
0.00013824
0.00013824
0.00013824
0.00013824
0.00013824
0.00013824
0.00013824
0.00013824
0.00013824
0.00013824
0.00013824
0.00013824
0.00013824
0.00013824
0.00013824
0.00013824
0.00013824
0.00013824
0.00013824
0.00013824
0.00013824
0.00013824
0.00013824
0.00013824
0.00013824
0.00013824
0.00013824
0.00013824
0.00013824
0.00013824
0.00013824
0.00013824
0.00013824
0.00013824
0.00013824
0.00013824
0.00013824
0.00013824
0.00013824
0.00013824
0.00013824
0.00013824
0.00013824
0.00013824
0.00013824
0.00013824
0.00013824
0.00013824
0.00013824
0.00013824
0.00013824
0.00013824
0.00013824
0.00013824
0.00013824
0.00013824
0.00013824
0.00013824
0.00013824
0.00013824
0.00013824
0.00013824
0.00013824
0.00013824
0.00013824
0.00013824
0.00013824
0.00013824
0.00013824
0.00013824
0.00013824
0.00013824
0.00013824
0.00013824
0.00013824
0.00013824
0.00013824
0.00013824
0.00013824
0.00013824
0.00013824
0.00013824
0.00013824
0.00013824
0.00013824
0.00013824
0.00013824
0.00013824
0.00013824
0.00013824
0.00013824
0.00013824
0.00013824
0.00013824
0.00013824
0.00013824
0.00013824
0.00013824
0.00013824
0.00013824
0.00013824
0.00013824
0.00013824
0.00013824
0.00013824
0.00013824
0.00013824
0.00013824
0.00013824
0.00013824
0.00013824
0.00013824
0.00013824
0.00013824
0.00013824
0.00013824
0.00013824
0.00013824
0.00013824
0.00013824
0.00013824
0.00013824
0.00013824
0.00013824
0.00013824
0.00013824
0.00013824
0.00013824
0.00013824
0.00013824
0.00013824
0.00013824
0.00013824
0.00013824
0.00013824
0.00013824
0.00013824
0.00013824
0.00013824
0.00013824
0.00013824
0.00013824
0.00013824
0.00013824
0.00013824
0.00013824
0.00013824
0.00013824
0.00013824
0.00013824
0.00013824
0.00013824
0.00013824
0.00013824
0.00013824
0.00013824
0.00013824
0.00013824
0.00013824
0.00013824
0.00013824
0.00013824
0.00013824
0.00013824
0.00013824
0.00013824
0.00013824
0.00013824
0.00013824
0.00013824
0.00013824
0.00013824
0.00013824
0.00013824
0.00013824
0.00013824
0.00013824
0.00013824
0.00013824
0.00013824
0.00013824
0.00013824
0.00013824
0.00013824
0.00013824
0.00013824
0.00013824
0.00013824
0.00013824
0.00013824
0.00013824
0.00013824
0.00013824
0.00013824
0.00013824
0.00013824
0.00013824
0.00013824
0.00013824
0.00013824
0.00013824
0.00013824
0.00013824
0.00013824
0.00013824
0.00013824
0.00013824
0.00013824
0.00013824
0.00013824
0.00013824
0.00013824
0.00013824
0.00013824
0.00013824
0.00013824
0.00013824
0.00013824
0.00013824
0.00013824
0.00013824
0.00013824
0.00013824
0.00013824
0.00013824
0.00013824
0.00013824
0.00013824
0.00013824
0.00013824
0.00013824
0.00013824
0.00013824
0.00013824
0.00013824
0.00013824
0.00013824
0.00013824
0.00013824
0.00013824
0.00013824
0.00013824
0.00013824
0.00013824
0.00013824
0.00013824
0.00013824
0.00013824
0.00013824
0.00013824
0.00013824
0.00013824
0.00013824
0.00013824
0.00013824
0.00013824
0.00013824
0.00013824
0.00013824
0.00013824
0.00013824
0.00013824
0.00013824
0.00013824
0.00013824
0.00013824
0.00013824
0.00013824
0.00013824
0.00013824
0.00013824
0.00013824
0.00013824
0.00013824
0.00013824
0.00013824
0.00013824
0.00013824
0.00013824
0.00013824
0.00013824
0.00013824
0.00013824
0.00013824
0.00013824
0.00013824
0.00013824
0.00013824
0.00013824
0.00013824
0.00013824
0.00013824
0.00013824
0.00013824
0.00013824
0.00013824
0.00013824
0.00013824
0.00013824
0.00013824
0.00013824
0.00013824
0.00013824
0.00013824
0.00013824
0.00013824
0.00013824
0.00013824
0.00013824
0.00013824
0.00013824
0.00013824
0.00013824
0.00013824
0.00013824
0.00013824
0.00013824
0.00013824
0.00013824
0.00013824
0.00013824
0.00013824
0.00013824
0.00013824
0.00013824
0.00013824
0.00013824
0.00013824
0.00013824
0.00013824
0.00013824
0.00013824
0.00013824
0.00013824
0.00013824
0.00013824
0.00013824
0.00013824
0.00013824
0.00013824
0.00013824
0.00013824
0.00013824
0.00013824
0.00013824
0.00013824
0.00013824
0.00013824
0.00013824
0.00013824
0.00013824
0.00013824
0.00013824
0.00013824
0.00013824
0.00013824
0.00013824
0.00013824
0.00013824
0.00013824
0.00013824
0.00013824
0.00013824
0.00013824
0.00013824
0.00013824
0.00013824
0.00013824
0.00013824
0.00013824
0.00013824
0.00013824
0.00013824
0.00013824
0.00013824
0.00013824
0.00013824
0.00013824
0.00013824
0.00013824
0.00013824
0.00013824
0.00013824
0.00013824
0.00013824
0.00013824
0.00013824
0.00013824
0.00013824
0.00013824
0.00013824
0.00013824
0.00013824
0.00013824
0.00013824
0.00013824
0.00013824
0.00013824
0.00013824
0.00013824
0.00013824
0.00013824
0.00013824
0.00013824
0.00013824
0.00013824
0.00013824
0.00013824
0.00013824
0.00013824
0.00013824
0.00013824
0.00013824
0.00013824
0.00013824
0.00013824
0.00013824
0.00013824
0.00013824
0.00013824
0.00013824
0.00013824
0.00013824
0.00013824
0.00013824
0.00013824
0.00013824
0.00013824
0.00013824
0.00013824
0.00013824
0.00013824
0.00013824
0.00013824
0.00013824
0.00013824
0.00013824
0.00013824
0.00013824
0.00013824
0.00013824
0.00013824
0.00013824
0.00013824
0.00013824
0.00013824
0.00013824
0.00013824
0.00013824
0.00013824
0.00013824
0.00013824
0.00013824
0.00013824
0.00013824
0.00013824
0.00013824
0.00013824
0.00013824
0.00013824
0.00013824
0.00013824
0.00013824
0.00013824
0.00013824
0.00013824
0.00013824
0.00013824
0.00013824
0.00013824
0.00013824
0.00013824
0.00013824
0.00013824
0.00013824
0.00013824
0.00013824
0.00013824
0.00013824
0.00013824
0.00013824
0.00013824
0.00013824
0.00013824
0.00013824
0.00013824
0.00013824
0.00013824
0.00013824
0.00013824
0.00013824
0.00013824
0.00013824
0.00013824
0.00013824
0.00013824
0.00013824
0.00013824
0.00013824
0.00013824
0.00013824
0.00013824
0.00013824
0.00013824
0.00013824
0.00013824
0.00013824
0.00013824
0.00013824
0.00013824
0.00013824
0.00013824
0.00013824
0.00013824
0.00013824
0.00013824
0.00013824
0.00013824
0.00013824
0.00013824
0.00013824
0.00013824
0.00013824
0.00013824
0.00013824
0.00013824
0.00013824
0.00013824
0.00013824
0.00013824
0.00013824
0.00013824
0.00013824
0.00013824
0.00013824
0.00013824
0.00013824
0.00013824
0.00013824
0.00013824
0.00013824
0.00013824
0.00013824
0.00013824
0.00013824
0.00013824
0.00013824
0.00013824
0.00013824
0.00013824