/*--------------------------------*- C++ -*----------------------------------*\
| =========                 |                                                 |
| \\      /  F ield         | OpenFOAM: The Open Source CFD Toolbox           |
|  \\    /   O peration     | Version:  2406                                  |
|   \\  /    A nd           | Website:  www.openfoam.com                      |
|    \\/     M anipulation  |                                                 |
\*---------------------------------------------------------------------------*/
FoamFile
{
    version     2.0;
    format      ascii;
    arch        "LSB;label=32;scalar=64";
    class       volScalarField;
    location    "5.55";
    object      C;
}
// * * * * * * * * * * * * * * * * * * * * * * * * * * * * * * * * * * * * * //

dimensions      [1 -3 0 0 0 0 0];

internalField   nonuniform List<scalar> 
14400
(
0.288338
0.286311
0.282926
0.279026
0.275377
0.272575
0.271045
0.271048
0.272704
0.27599
0.280741
0.286619
0.293074
0.299282
0.304082
0.306015
0.303783
0.298717
0.292413
0.286194
0.281055
0.277724
0.276749
0.278564
0.283536
0.292004
0.304296
0.320749
0.341719
0.367581
0.398725
0.435528
0.478289
0.527012
0.580366
0.628118
0.661126
0.68519
0.706206
0.724507
0.740351
0.753937
0.765424
0.774933
0.78256
0.788379
0.792444
0.794795
0.795456
0.794437
0.791736
0.787336
0.78121
0.773312
0.763584
0.751946
0.738298
0.722513
0.704431
0.68385
0.660513
0.633743
0.593489
0.538259
0.485292
0.437655
0.395888
0.359861
0.329232
0.303603
0.282584
0.265818
0.25299
0.243835
0.238134
0.235712
0.236438
0.240212
0.246966
0.256647
0.269205
0.284569
0.302605
0.323042
0.345308
0.367897
0.383945
0.390109
0.389517
0.380038
0.363966
0.346831
0.330595
0.316047
0.303539
0.293205
0.285041
0.278939
0.2747
0.272049
0.270649
0.270126
0.270125
0.270383
0.270812
0.271547
0.272894
0.275252
0.279035
0.284629
0.292362
0.302493
0.315202
0.330579
0.348597
0.369039
0.391319
0.413794
0.429371
0.435287
0.299134
0.296432
0.292176
0.287473
0.283183
0.279923
0.278113
0.278007
0.27972
0.283234
0.288394
0.294889
0.302209
0.309568
0.31576
0.318889
0.315519
0.308993
0.301429
0.294236
0.288375
0.284523
0.283189
0.284777
0.289637
0.298096
0.310473
0.327102
0.348334
0.37454
0.406102
0.443386
0.486665
0.535889
0.589559
0.634368
0.664605
0.688237
0.70892
0.726964
0.742607
0.756038
0.767401
0.776815
0.784368
0.790132
0.794159
0.796486
0.797136
0.796119
0.793433
0.789063
0.782981
0.775143
0.765493
0.753956
0.740435
0.72481
0.70693
0.686605
0.663597
0.637564
0.600249
0.547228
0.493594
0.445217
0.402828
0.366276
0.335202
0.309201
0.287876
0.270867
0.257861
0.248588
0.242831
0.240416
0.241212
0.245122
0.252079
0.262035
0.274946
0.290746
0.309307
0.33035
0.353211
0.37594
0.390885
0.396545
0.396407
0.389036
0.373357
0.355551
0.338729
0.323726
0.310887
0.300344
0.292091
0.28602
0.281929
0.279524
0.278437
0.278238
0.27849
0.278842
0.279166
0.27964
0.280661
0.282705
0.286244
0.291693
0.299395
0.309615
0.322533
0.338236
0.356692
0.377672
0.400482
0.422541
0.435895
0.440999
0.321419
0.316978
0.310779
0.304407
0.298828
0.294661
0.292301
0.291981
0.293805
0.297759
0.303708
0.311383
0.32035
0.329926
0.338941
0.34495
0.338913
0.329354
0.319321
0.310259
0.303016
0.298164
0.296135
0.297283
0.301928
0.310374
0.322928
0.339912
0.361669
0.388562
0.420958
0.45919
0.503446
0.553355
0.606005
0.644841
0.671441
0.694234
0.714274
0.731821
0.747078
0.760204
0.771329
0.780556
0.787966
0.793622
0.797573
0.799853
0.800482
0.799471
0.796816
0.792503
0.786506
0.778786
0.76929
0.757949
0.744676
0.729362
0.711873
0.692044
0.669672
0.644508
0.61219
0.564498
0.509878
0.460267
0.416743
0.379186
0.347241
0.320499
0.298563
0.281071
0.267706
0.258198
0.252329
0.249928
0.250864
0.255045
0.262408
0.272912
0.286519
0.303174
0.322757
0.34499
0.369075
0.391293
0.403529
0.408667
0.409118
0.404575
0.391178
0.37271
0.354953
0.339123
0.32565
0.314698
0.306276
0.300279
0.2965
0.294622
0.294216
0.294743
0.295586
0.296167
0.296236
0.296105
0.296394
0.297757
0.300772
0.305911
0.313542
0.323935
0.337261
0.353594
0.37287
0.3948
0.418426
0.437953
0.447541
0.451795
0.35609
0.348127
0.338719
0.329812
0.322339
0.316854
0.313699
0.313071
0.315057
0.319639
0.326701
0.336002
0.347171
0.359593
0.371742
0.376544
0.371996
0.358991
0.345714
0.334127
0.324984
0.318736
0.315725
0.316248
0.320589
0.329029
0.341856
0.359379
0.381927
0.409849
0.443485
0.483109
0.528801
0.579739
0.626098
0.657202
0.681398
0.702985
0.72212
0.738969
0.753678
0.766372
0.777156
0.786114
0.793317
0.798818
0.802659
0.80487
0.805469
0.804465
0.801855
0.797626
0.791755
0.784205
0.774932
0.763874
0.750957
0.736088
0.719156
0.700028
0.678541
0.654494
0.626876
0.587192
0.533522
0.48276
0.437751
0.398767
0.365545
0.337705
0.314857
0.296639
0.282733
0.272872
0.266836
0.264455
0.265601
0.270188
0.278157
0.289473
0.304105
0.321998
0.343012
0.366762
0.39198
0.411501
0.420727
0.425475
0.426487
0.423937
0.415586
0.398011
0.379276
0.362333
0.347956
0.336414
0.327748
0.321879
0.318611
0.3176
0.318346
0.320169
0.322144
0.3232
0.322744
0.32146
0.320446
0.320659
0.322812
0.327445
0.334952
0.345592
0.359509
0.376744
0.397111
0.419969
0.442972
0.456693
0.463432
0.466846
0.395781
0.388165
0.375367
0.363465
0.353684
0.346566
0.342424
0.341419
0.343612
0.348983
0.357408
0.368607
0.382128
0.396907
0.407126
0.408397
0.406876
0.39604
0.379964
0.365656
0.354319
0.346395
0.342174
0.341918
0.345886
0.354338
0.367544
0.385793
0.409397
0.438678
0.473921
0.515217
0.562065
0.611334
0.646502
0.671506
0.693964
0.714186
0.732252
0.748256
0.762293
0.774451
0.784807
0.793428
0.800369
0.805673
0.809374
0.811498
0.81206
0.811066
0.808514
0.804392
0.79868
0.791349
0.782359
0.771659
0.75919
0.744877
0.728636
0.710369
0.689969
0.667322
0.642344
0.611272
0.564926
0.512931
0.466097
0.425301
0.390418
0.361129
0.337068
0.317881
0.303253
0.292917
0.286656
0.284302
0.28573
0.290857
0.299629
0.312012
0.327976
0.347454
0.370231
0.395568
0.420384
0.434407
0.44168
0.446019
0.447417
0.446023
0.442035
0.430727
0.411641
0.393451
0.37795
0.365669
0.356691
0.351011
0.348481
0.348736
0.35122
0.355146
0.359173
0.361226
0.359676
0.356325
0.353203
0.351687
0.352579
0.35648
0.363802
0.374757
0.389419
0.40779
0.429427
0.452781
0.469188
0.477311
0.482602
0.48531
0.432187
0.429297
0.418902
0.40484
0.392734
0.383832
0.378591
0.377173
0.379617
0.385897
0.395867
0.408988
0.424194
0.437311
0.441548
0.441774
0.440999
0.436283
0.421153
0.404673
0.39112
0.381374
0.375775
0.374617
0.378158
0.386655
0.400356
0.419517
0.444424
0.475359
0.512538
0.555709
0.602986
0.63997
0.665571
0.688099
0.708767
0.727544
0.744445
0.759509
0.772787
0.784331
0.794195
0.802423
0.809057
0.81413
0.817668
0.819689
0.820207
0.819225
0.816742
0.812748
0.807226
0.800152
0.791494
0.781214
0.769265
0.755595
0.740142
0.722845
0.703642
0.682483
0.659349
0.634194
0.599712
0.550128
0.501942
0.45913
0.422245
0.391172
0.365604
0.345205
0.32967
0.318736
0.312191
0.309869
0.311649
0.31745
0.327216
0.340904
0.358471
0.379817
0.404585
0.431215
0.45016
0.45926
0.465549
0.469503
0.471137
0.470583
0.468094
0.463168
0.45097
0.432302
0.415653
0.4026
0.393242
0.387791
0.38624
0.388174
0.392961
0.399921
0.407125
0.411095
0.407455
0.400954
0.394786
0.390988
0.390207
0.393136
0.400225
0.411564
0.427001
0.446532
0.468564
0.485275
0.494283
0.50021
0.504353
0.506482
0.466735
0.466428
0.462831
0.452626
0.439129
0.428547
0.422238
0.420432
0.423146
0.430357
0.441948
0.456336
0.469327
0.474963
0.47585
0.476153
0.475801
0.474769
0.46778
0.45096
0.435515
0.423965
0.416875
0.414717
0.417788
0.426375
0.440699
0.460943
0.487342
0.520072
0.55918
0.60284
0.638854
0.664335
0.686131
0.706552
0.72546
0.742779
0.758476
0.772549
0.785013
0.795893
0.805217
0.813012
0.819307
0.824122
0.827477
0.829384
0.829853
0.828886
0.826481
0.822631
0.817323
0.810537
0.802252
0.792438
0.781064
0.768094
0.753492
0.737227
0.719271
0.699619
0.678292
0.655357
0.630168
0.594034
0.545578
0.500649
0.461463
0.428305
0.400955
0.379105
0.362476
0.35082
0.343929
0.341642
0.343842
0.350447
0.361389
0.376589
0.395933
0.419189
0.445358
0.467835
0.479218
0.486363
0.491752
0.495308
0.497046
0.497077
0.49561
0.492949
0.488085
0.477244
0.460498
0.447144
0.437325
0.432073
0.431735
0.435639
0.442669
0.452561
0.458034
0.459855
0.458524
0.453542
0.444335
0.438329
0.435555
0.437287
0.444156
0.455975
0.471751
0.491506
0.506109
0.51462
0.520293
0.524891
0.52812
0.529783
0.501588
0.501509
0.501428
0.498581
0.491153
0.479937
0.47306
0.471024
0.473947
0.481671
0.4943
0.504006
0.508991
0.509961
0.51073
0.511187
0.511273
0.510983
0.510217
0.502927
0.487216
0.474375
0.465766
0.462562
0.465118
0.473861
0.488955
0.510391
0.538319
0.572485
0.612083
0.644451
0.668188
0.688544
0.708065
0.726518
0.743743
0.759635
0.774131
0.787198
0.798824
0.809011
0.817766
0.825103
0.831035
0.835575
0.838733
0.840518
0.840934
0.839985
0.837666
0.833973
0.828897
0.822423
0.814538
0.805222
0.794457
0.782224
0.768507
0.753297
0.736598
0.71843
0.698843
0.677924
0.655798
0.630895
0.595399
0.549843
0.508386
0.47299
0.443653
0.420131
0.402229
0.389729
0.38243
0.380175
0.382854
0.390386
0.402674
0.419532
0.440621
0.465189
0.489203
0.502175
0.509304
0.515223
0.519788
0.522931
0.524662
0.525068
0.524319
0.522661
0.520414
0.516892
0.509068
0.498205
0.488015
0.482888
0.483852
0.489472
0.495194
0.498791
0.499759
0.499689
0.500486
0.500109
0.497191
0.492202
0.487574
0.488075
0.494746
0.507023
0.520815
0.531601
0.538142
0.543007
0.547379
0.550942
0.553452
0.554748
0.536522
0.536592
0.536801
0.537301
0.536588
0.533147
0.529101
0.527334
0.530215
0.535909
0.541103
0.543749
0.544357
0.545142
0.545921
0.546593
0.547119
0.54752
0.547877
0.548034
0.542727
0.531926
0.522286
0.518246
0.520217
0.529214
0.545276
0.567763
0.596627
0.629843
0.65671
0.677095
0.695501
0.713587
0.731066
0.747712
0.763359
0.777887
0.791214
0.803287
0.814074
0.823559
0.831735
0.838599
0.844156
0.848409
0.851362
0.853019
0.853382
0.852452
0.850225
0.846699
0.841867
0.835721
0.828254
0.819455
0.809318
0.797838
0.785014
0.770858
0.755392
0.738659
0.720727
0.701698
0.68171
0.660952
0.637509
0.604852
0.562797
0.525529
0.494207
0.468835
0.449505
0.436059
0.428291
0.426054
0.429244
0.437796
0.45156
0.470087
0.49227
0.515231
0.528316
0.534848
0.540597
0.545436
0.549246
0.551967
0.553601
0.554214
0.553938
0.552962
0.551532
0.549945
0.548338
0.544299
0.539621
0.536399
0.535827
0.536783
0.537309
0.536041
0.535403
0.535445
0.536209
0.537687
0.539788
0.540076
0.540191
0.542157
0.547176
0.553956
0.56032
0.564299
0.568127
0.571887
0.575276
0.578044
0.579998
0.581009
0.571385
0.571534
0.571881
0.572523
0.573604
0.575162
0.575302
0.575521
0.576938
0.578597
0.578685
0.578932
0.579529
0.580328
0.581221
0.582145
0.583091
0.584099
0.58527
0.586777
0.588772
0.587331
0.58403
0.580621
0.582008
0.591402
0.608522
0.630732
0.653828
0.67431
0.690684
0.706844
0.723134
0.739239
0.7549
0.769906
0.784094
0.79734
0.809551
0.820662
0.830627
0.839418
0.847013
0.853403
0.85858
0.862542
0.865287
0.866815
0.867124
0.866214
0.864084
0.86073
0.85615
0.850341
0.8433
0.835027
0.825523
0.814794
0.802855
0.789729
0.775454
0.760087
0.743709
0.726429
0.708392
0.689785
0.670838
0.650186
0.622066
0.585384
0.552863
0.525574
0.504778
0.490353
0.482065
0.47981
0.483463
0.493
0.508194
0.527645
0.54644
0.557806
0.563231
0.568267
0.572799
0.576676
0.579793
0.58209
0.583561
0.584251
0.584255
0.583715
0.582809
0.581739
0.580712
0.57994
0.57918
0.577772
0.575954
0.573727
0.571952
0.570851
0.570365
0.57048
0.571214
0.572581
0.574627
0.577476
0.580891
0.584025
0.587096
0.589648
0.592207
0.59513
0.59818
0.601138
0.603794
0.60596
0.607489
0.608279
0.6061
0.606279
0.606665
0.607306
0.608252
0.609502
0.610941
0.612195
0.612741
0.612946
0.613253
0.613762
0.614498
0.615421
0.616487
0.617676
0.619001
0.620516
0.622326
0.624596
0.627568
0.631599
0.635124
0.638197
0.643697
0.653299
0.66645
0.681104
0.695167
0.708258
0.722132
0.736462
0.750952
0.765336
0.779387
0.792918
0.805772
0.817827
0.828987
0.839182
0.848356
0.85647
0.863498
0.869419
0.87422
0.877892
0.88043
0.881828
0.882085
0.881198
0.879166
0.875988
0.871663
0.866193
0.85958
0.85183
0.842952
0.832961
0.821882
0.809748
0.796608
0.782526
0.767591
0.751916
0.735645
0.718956
0.702065
0.685231
0.668105
0.6456
0.618244
0.589754
0.568043
0.552834
0.543994
0.541655
0.545487
0.555368
0.570828
0.582988
0.590818
0.594571
0.598434
0.602191
0.605655
0.608678
0.61116
0.61304
0.614302
0.614973
0.615118
0.614835
0.614248
0.613491
0.612684
0.611901
0.611057
0.609973
0.608552
0.607073
0.605848
0.605048
0.604723
0.604896
0.605584
0.606797
0.608543
0.610805
0.613433
0.616145
0.618631
0.62099
0.623363
0.625836
0.628323
0.630693
0.632801
0.634512
0.635718
0.636341
0.640634
0.640817
0.641195
0.641785
0.642594
0.643591
0.644678
0.645674
0.646413
0.647002
0.64762
0.648366
0.649281
0.65037
0.651632
0.653072
0.65472
0.656637
0.658921
0.661712
0.665197
0.669604
0.675158
0.682169
0.690126
0.698748
0.707987
0.717926
0.728914
0.740711
0.753124
0.765922
0.778874
0.791764
0.804397
0.816605
0.828248
0.839208
0.849391
0.858722
0.867143
0.87461
0.881089
0.886555
0.890989
0.894377
0.896711
0.897983
0.89819
0.897327
0.895394
0.892392
0.888321
0.883187
0.876996
0.86976
0.861493
0.852217
0.841964
0.830774
0.818702
0.805819
0.792214
0.778
0.763316
0.748329
0.733235
0.718267
0.703687
0.689776
0.673786
0.655611
0.637123
0.621997
0.612617
0.610102
0.613185
0.618704
0.624022
0.627066
0.628797
0.631125
0.633741
0.63641
0.63895
0.641222
0.643128
0.644607
0.645635
0.646221
0.646408
0.646259
0.645859
0.645292
0.644633
0.643921
0.643134
0.642221
0.641188
0.640165
0.639319
0.63877
0.638585
0.638798
0.639429
0.640481
0.641943
0.643769
0.645854
0.648046
0.650203
0.652317
0.65442
0.656526
0.658584
0.66051
0.662204
0.66357
0.66453
0.665024
0.674986
0.675161
0.675513
0.676046
0.676749
0.67759
0.678506
0.679408
0.680237
0.681028
0.68186
0.6828
0.683888
0.685148
0.686597
0.688258
0.69017
0.692393
0.69501
0.698135
0.701902
0.706461
0.711943
0.718428
0.725765
0.733788
0.742449
0.751783
0.761849
0.772546
0.78373
0.795228
0.80686
0.818449
0.829831
0.840859
0.851407
0.861366
0.870646
0.879172
0.886885
0.893738
0.899694
0.904722
0.908802
0.911917
0.914054
0.915204
0.915363
0.914526
0.912692
0.909863
0.906043
0.901238
0.895459
0.88872
0.881042
0.872451
0.862983
0.852683
0.841609
0.829833
0.817446
0.804555
0.791291
0.777807
0.764281
0.750913
0.737929
0.725574
0.714114
0.703638
0.692347
0.681868
0.673946
0.669522
0.667951
0.667262
0.665808
0.665519
0.666146
0.66739
0.668996
0.670759
0.672513
0.674132
0.675523
0.676625
0.677408
0.67787
0.678032
0.677936
0.677635
0.677185
0.676636
0.676017
0.675334
0.67459
0.673814
0.673082
0.672492
0.672128
0.672047
0.672283
0.672852
0.673756
0.674977
0.676473
0.678171
0.67998
0.681819
0.683655
0.685475
0.687263
0.688978
0.690558
0.691934
0.693036
0.693807
0.694203
0.709163
0.709326
0.709651
0.710135
0.710765
0.711515
0.712346
0.713216
0.7141
0.715012
0.715993
0.717085
0.718324
0.719737
0.72135
0.723194
0.72531
0.727753
0.730592
0.733915
0.737817
0.742396
0.747725
0.753835
0.760669
0.768151
0.776236
0.78491
0.794154
0.803894
0.814021
0.824401
0.834889
0.84534
0.855617
0.865594
0.875155
0.884204
0.892654
0.900435
0.907488
0.913764
0.919225
0.923839
0.927581
0.930434
0.932383
0.933418
0.933532
0.932721
0.930985
0.928326
0.924749
0.920263
0.914881
0.90862
0.901504
0.893562
0.884833
0.875365
0.865216
0.854459
0.84318
0.831482
0.819486
0.807329
0.795168
0.783176
0.771542
0.760461
0.750131
0.740718
0.732385
0.725175
0.71891
0.713531
0.70914
0.706002
0.704027
0.703053
0.70288
0.703293
0.704095
0.705115
0.706211
0.70727
0.708207
0.708962
0.709503
0.709818
0.709914
0.709817
0.70956
0.709179
0.708708
0.708175
0.707597
0.706992
0.706394
0.705855
0.705439
0.705203
0.705192
0.705433
0.705941
0.706714
0.707737
0.708974
0.710376
0.711883
0.713439
0.715008
0.716563
0.718074
0.719506
0.720811
0.721937
0.722833
0.723458
0.723778
0.743176
0.743329
0.743631
0.744079
0.74466
0.745358
0.746149
0.747011
0.747934
0.748927
0.750014
0.751223
0.752584
0.754125
0.755872
0.757859
0.760124
0.762715
0.76569
0.769114
0.773056
0.777578
0.782727
0.788518
0.794926
0.801911
0.809435
0.817465
0.825961
0.834857
0.844061
0.853465
0.862954
0.872406
0.881705
0.890742
0.899416
0.907639
0.915331
0.922426
0.928867
0.934605
0.939602
0.943826
0.94725
0.949856
0.951627
0.952552
0.952625
0.951842
0.950201
0.947706
0.944364
0.940184
0.935181
0.929375
0.922791
0.91546
0.907423
0.898727
0.889432
0.879607
0.869333
0.858708
0.84784
0.836854
0.825885
0.815082
0.8046
0.794599
0.785229
0.776623
0.768882
0.762045
0.756077
0.750968
0.746763
0.743534
0.741243
0.739787
0.739027
0.738807
0.738976
0.739395
0.739946
0.74053
0.741071
0.741514
0.741824
0.741983
0.741991
0.741859
0.741608
0.741261
0.740844
0.740378
0.739885
0.739388
0.738915
0.738507
0.738206
0.738054
0.738084
0.738317
0.738764
0.739423
0.740281
0.741311
0.742477
0.743736
0.745047
0.746376
0.747692
0.748965
0.750161
0.751243
0.752169
0.752903
0.753412
0.753673
0.777037
0.777181
0.777467
0.777889
0.77844
0.779108
0.77988
0.780744
0.781698
0.782749
0.783913
0.78521
0.786666
0.788305
0.790155
0.792245
0.794612
0.797294
0.800339
0.803796
0.807714
0.812135
0.817088
0.822582
0.828606
0.835131
0.842127
0.849555
0.85737
0.86551
0.873899
0.882446
0.891055
0.899624
0.908055
0.916253
0.92413
0.931604
0.938606
0.945072
0.950948
0.956188
0.960753
0.964612
0.967738
0.970111
0.971715
0.972539
0.972575
0.971819
0.970271
0.967934
0.964816
0.960928
0.956285
0.950908
0.944824
0.938065
0.930671
0.92269
0.914178
0.905202
0.895839
0.886176
0.876314
0.866361
0.856436
0.846665
0.837179
0.828105
0.819565
0.811662
0.804475
0.798046
0.792385
0.7875
0.783409
0.780127
0.777624
0.775826
0.774634
0.773933
0.773606
0.773544
0.773647
0.773833
0.774034
0.774199
0.774295
0.7743
0.774207
0.774021
0.773751
0.773414
0.773027
0.772609
0.772179
0.771758
0.771372
0.77105
0.770825
0.770724
0.770773
0.770987
0.771375
0.771934
0.772653
0.773513
0.774484
0.775537
0.776638
0.777757
0.778865
0.779933
0.780932
0.781829
0.782594
0.783198
0.783615
0.783829
0.810754
0.810892
0.811165
0.811571
0.812103
0.812754
0.813517
0.814388
0.815366
0.816458
0.817677
0.819039
0.820564
0.822275
0.824197
0.826356
0.828783
0.831511
0.834577
0.838017
0.841868
0.846158
0.850907
0.856118
0.861783
0.867882
0.874386
0.881257
0.888452
0.895915
0.903578
0.911366
0.919195
0.926981
0.934639
0.942086
0.949244
0.956043
0.962416
0.968307
0.973665
0.978445
0.98261
0.98613
0.988979
0.991136
0.992584
0.993314
0.993317
0.992588
0.99113
0.988944
0.986039
0.982426
0.978123
0.973149
0.967533
0.961305
0.954507
0.947182
0.939387
0.931184
0.922643
0.913845
0.904879
0.89584
0.886833
0.877965
0.869345
0.861078
0.853263
0.845985
0.83931
0.833279
0.827917
0.823237
0.819246
0.815943
0.813299
0.811259
0.80975
0.808684
0.807972
0.807526
0.807266
0.80712
0.807032
0.806955
0.806856
0.806714
0.806518
0.806265
0.805962
0.805616
0.805241
0.804851
0.804463
0.804094
0.803764
0.803498
0.803317
0.803244
0.803296
0.803484
0.803815
0.804285
0.804886
0.805601
0.806411
0.807289
0.80821
0.809148
0.810077
0.81097
0.811803
0.812548
0.813181
0.813679
0.814022
0.814197
0.844334
0.844467
0.844731
0.845126
0.845646
0.846287
0.847047
0.847924
0.84892
0.850041
0.851298
0.852704
0.854277
0.856035
0.858002
0.860199
0.862652
0.865389
0.868439
0.871828
0.875584
0.879724
0.884262
0.889199
0.894528
0.900229
0.906276
0.912637
0.919268
0.92612
0.933134
0.940243
0.947379
0.954466
0.961433
0.968207
0.974719
0.980906
0.98671
0.992076
0.996958
1.00132
1.00511
1.00832
1.01091
1.01287
1.01417
1.01482
1.01479
1.01409
1.01271
1.01067
1.00797
1.00462
1.00063
0.996033
0.990852
0.985117
0.978867
0.972146
0.965005
0.957503
0.949704
0.941682
0.933515
0.925288
0.917091
0.909017
0.901156
0.893598
0.886425
0.879706
0.873499
0.867844
0.862767
0.858283
0.854397
0.8511
0.848369
0.846162
0.844421
0.843082
0.842072
0.841323
0.840769
0.840351
0.840019
0.839732
0.83946
0.839182
0.838884
0.838561
0.838214
0.837848
0.83747
0.837093
0.836727
0.836389
0.836094
0.83586
0.835703
0.83564
0.835682
0.835839
0.836114
0.836504
0.837003
0.837596
0.838268
0.838999
0.839766
0.840549
0.841324
0.842068
0.842761
0.84338
0.843903
0.844314
0.844597
0.844741
0.87778
0.87791
0.878169
0.878555
0.879067
0.879703
0.880461
0.881342
0.882349
0.883488
0.884768
0.886202
0.887803
0.889588
0.891575
0.893785
0.896238
0.898956
0.901961
0.905274
0.908913
0.912892
0.917218
0.92189
0.926899
0.932228
0.937854
0.943745
0.949863
0.956163
0.962592
0.969095
0.975609
0.982072
0.98842
0.994589
1.00052
1.00615
1.01144
1.01633
1.02078
1.02475
1.02821
1.03112
1.03348
1.03525
1.03642
1.03699
1.03693
1.03626
1.03497
1.03306
1.03055
1.02744
1.02375
1.0195
1.01472
1.00944
1.0037
0.99753
0.990985
0.984119
0.976989
0.969663
0.96221
0.954706
0.947228
0.939855
0.932665
0.925735
0.919131
0.912915
0.907136
0.901831
0.897025
0.892732
0.888957
0.885691
0.882916
0.880597
0.878692
0.877149
0.875912
0.874926
0.874137
0.873495
0.87296
0.872494
0.872071
0.871669
0.871275
0.870882
0.870486
0.870091
0.8697
0.869321
0.868965
0.868641
0.868363
0.868144
0.867995
0.867929
0.867954
0.868077
0.868298
0.868616
0.869025
0.869513
0.870067
0.870671
0.871308
0.871957
0.872601
0.873219
0.873793
0.874305
0.874739
0.875078
0.875311
0.87543
0.911097
0.911224
0.911478
0.911859
0.912365
0.912995
0.913751
0.914633
0.915645
0.916794
0.918086
0.919533
0.921145
0.922938
0.924927
0.927128
0.929558
0.932234
0.935174
0.938393
0.941904
0.945714
0.949828
0.954243
0.958949
0.963931
0.969167
0.974626
0.980276
0.986075
0.991978
0.997935
1.00389
1.00979
1.01558
1.02121
1.02662
1.03175
1.03657
1.04102
1.04507
1.04869
1.05184
1.05449
1.05663
1.05823
1.05928
1.05978
1.0597
1.05905
1.05784
1.05606
1.05372
1.05084
1.04742
1.0435
1.0391
1.03424
1.02895
1.02329
1.01729
1.011
1.00447
0.997771
0.990958
0.984098
0.977259
0.970509
0.963916
0.957543
0.95145
0.945688
0.9403
0.935319
0.930769
0.926664
0.923007
0.919793
0.917006
0.91462
0.912601
0.91091
0.909501
0.908331
0.907356
0.906534
0.905831
0.905214
0.90466
0.904148
0.903666
0.903204
0.902759
0.902329
0.901917
0.901528
0.901169
0.900848
0.900574
0.900357
0.900205
0.900127
0.900129
0.900215
0.900385
0.900638
0.900967
0.901363
0.901816
0.902312
0.902836
0.903371
0.903903
0.904413
0.904888
0.90531
0.905668
0.905947
0.906139
0.906237
0.944286
0.944411
0.944661
0.945037
0.945537
0.946163
0.946914
0.947794
0.948806
0.949956
0.95125
0.952697
0.954307
0.956093
0.958067
0.960242
0.962631
0.96525
0.968109
0.971221
0.974594
0.978232
0.982137
0.986305
0.990724
0.995381
1.00025
1.00532
1.01054
1.01588
1.02131
1.02677
1.03223
1.03763
1.04292
1.04805
1.05298
1.05766
1.06206
1.06612
1.06981
1.0731
1.07597
1.07838
1.08032
1.08176
1.0827
1.08313
1.08304
1.08242
1.08127
1.07961
1.07744
1.07477
1.07161
1.06799
1.06393
1.05945
1.05459
1.04939
1.04388
1.03811
1.03213
1.02599
1.01975
1.01347
1.0072
1.00101
0.994945
0.989072
0.983438
0.978086
0.973056
0.968377
0.964069
0.960146
0.956614
0.953467
0.950694
0.948275
0.946183
0.944387
0.942852
0.941542
0.940421
0.939455
0.938614
0.937872
0.937206
0.936599
0.936036
0.93551
0.935015
0.934548
0.934111
0.933705
0.933335
0.933007
0.932728
0.932504
0.932341
0.932245
0.93222
0.932269
0.93239
0.932583
0.932841
0.933158
0.933522
0.933925
0.934351
0.934789
0.935225
0.935644
0.936034
0.936381
0.936674
0.936904
0.937061
0.937141
0.97735
0.977473
0.97772
0.97809
0.978585
0.979204
0.979949
0.980824
0.98183
0.982973
0.98426
0.985697
0.987294
0.98906
0.991005
0.993141
0.995477
0.998024
1.00079
1.00379
1.00702
1.01048
1.01418
1.01811
1.02226
1.02662
1.03115
1.03585
1.04068
1.04561
1.0506
1.05562
1.06062
1.06556
1.0704
1.07509
1.0796
1.08387
1.08788
1.09158
1.09494
1.09794
1.10055
1.10274
1.10449
1.1058
1.10664
1.10701
1.1069
1.1063
1.10523
1.10368
1.10166
1.09918
1.09626
1.09292
1.08917
1.08504
1.08057
1.07579
1.07073
1.06543
1.05994
1.05431
1.04859
1.04282
1.03707
1.03137
1.02579
1.02036
1.01514
1.01016
1.00546
1.00106
0.996983
0.993239
0.989835
0.986767
0.984028
0.981603
0.979469
0.977604
0.975978
0.974563
0.97333
0.972251
0.9713
0.970454
0.969694
0.969004
0.968371
0.967786
0.967243
0.966739
0.966272
0.965845
0.965459
0.965119
0.964827
0.964589
0.964409
0.964291
0.964238
0.964249
0.964325
0.964463
0.964658
0.964903
0.965191
0.965512
0.965856
0.96621
0.966564
0.966905
0.967222
0.967506
0.967745
0.967932
0.968061
0.968126
1.01029
1.01041
1.01065
1.01102
1.01151
1.01212
1.01286
1.01372
1.01472
1.01585
1.01712
1.01854
1.02011
1.02185
1.02375
1.02584
1.02811
1.03058
1.03325
1.03612
1.03921
1.0425
1.046
1.0497
1.0536
1.05766
1.06189
1.06625
1.07072
1.07527
1.07987
1.08449
1.08908
1.09361
1.09804
1.10233
1.10644
1.11034
1.114
1.11738
1.12044
1.12317
1.12554
1.12753
1.12912
1.1303
1.13105
1.13136
1.13124
1.13067
1.12966
1.12821
1.12633
1.12404
1.12134
1.11825
1.11479
1.11099
1.10687
1.10247
1.09781
1.09294
1.0879
1.08273
1.07747
1.07217
1.06687
1.06162
1.05647
1.05145
1.0466
1.04197
1.03756
1.03342
1.02956
1.02599
1.02272
1.01974
1.01705
1.01464
1.01249
1.01058
1.00889
1.0074
1.00609
1.00492
1.00388
1.00295
1.00211
1.00135
1.00066
1.00002
0.999431
0.998891
0.998395
0.997944
0.997539
0.99718
0.996872
0.996616
0.996416
0.996274
0.99619
0.996165
0.996197
0.996285
0.996423
0.996606
0.996827
0.997078
0.997349
0.997631
0.997914
0.998189
0.998445
0.998674
0.998868
0.999019
0.999124
0.999177
1.04311
1.04323
1.04347
1.04383
1.04431
1.04491
1.04563
1.04649
1.04747
1.04858
1.04983
1.05123
1.05277
1.05446
1.05632
1.05835
1.06055
1.06293
1.06549
1.06824
1.07118
1.07431
1.07762
1.0811
1.08475
1.08856
1.09249
1.09654
1.10068
1.10489
1.10913
1.11338
1.11759
1.12175
1.12581
1.12973
1.1335
1.13706
1.1404
1.14348
1.14628
1.14877
1.15092
1.15273
1.15417
1.15522
1.15589
1.15616
1.15602
1.15548
1.15453
1.15318
1.15143
1.1493
1.1468
1.14394
1.14075
1.13724
1.13345
1.12939
1.12511
1.12063
1.11599
1.11124
1.10639
1.10151
1.09663
1.09178
1.08702
1.08236
1.07786
1.07353
1.06941
1.06551
1.06185
1.05845
1.05531
1.05242
1.04979
1.04741
1.04526
1.04334
1.04161
1.04007
1.03869
1.03746
1.03635
1.03535
1.03445
1.03363
1.03288
1.0322
1.03157
1.031
1.03047
1.03
1.02957
1.02919
1.02886
1.02859
1.02837
1.0282
1.02808
1.02802
1.02802
1.02806
1.02814
1.02827
1.02843
1.02862
1.02883
1.02905
1.02927
1.02949
1.02969
1.02988
1.03003
1.03015
1.03024
1.03028
1.07581
1.07593
1.07616
1.07651
1.07698
1.07757
1.07829
1.07912
1.08009
1.08118
1.0824
1.08376
1.08527
1.08692
1.08872
1.09069
1.09281
1.0951
1.09755
1.10018
1.10297
1.10594
1.10906
1.11234
1.11576
1.11931
1.12298
1.12674
1.13058
1.13447
1.13838
1.14229
1.14617
1.14999
1.15371
1.15731
1.16075
1.16401
1.16706
1.16987
1.17242
1.17469
1.17665
1.17829
1.17959
1.18054
1.18113
1.18136
1.18121
1.18069
1.1798
1.17853
1.17691
1.17493
1.17262
1.16997
1.16703
1.16379
1.16029
1.15655
1.1526
1.14848
1.14421
1.13982
1.13536
1.13085
1.12634
1.12186
1.11745
1.11313
1.10893
1.10489
1.10102
1.09735
1.09389
1.09065
1.08763
1.08485
1.08229
1.07995
1.07782
1.07589
1.07415
1.07257
1.07115
1.06987
1.06871
1.06766
1.06671
1.06584
1.06505
1.06433
1.06366
1.06306
1.0625
1.062
1.06155
1.06115
1.0608
1.06051
1.06026
1.06007
1.05992
1.05983
1.05978
1.05978
1.05982
1.0599
1.06001
1.06015
1.0603
1.06047
1.06064
1.06081
1.06097
1.06111
1.06123
1.06133
1.06139
1.06143
1.10839
1.10851
1.10874
1.10908
1.10954
1.11012
1.11082
1.11163
1.11257
1.11364
1.11483
1.11616
1.11762
1.11922
1.12097
1.12286
1.1249
1.1271
1.12944
1.13195
1.1346
1.1374
1.14035
1.14343
1.14663
1.14995
1.15337
1.15687
1.16043
1.16403
1.16764
1.17124
1.17481
1.17832
1.18173
1.18503
1.18819
1.19117
1.19396
1.19653
1.19885
1.20092
1.2027
1.20419
1.20536
1.20622
1.20674
1.20693
1.20677
1.20627
1.20543
1.20425
1.20274
1.20091
1.19876
1.19632
1.19359
1.1906
1.18737
1.18392
1.18028
1.17647
1.17253
1.16848
1.16436
1.1602
1.15603
1.15188
1.14778
1.14377
1.13986
1.13607
1.13245
1.12899
1.12571
1.12262
1.11973
1.11705
1.11456
1.11228
1.11018
1.10826
1.10651
1.10492
1.10347
1.10216
1.10096
1.09988
1.09888
1.09798
1.09715
1.09639
1.09569
1.09506
1.09448
1.09396
1.09349
1.09306
1.09269
1.09237
1.0921
1.09188
1.09171
1.09159
1.09151
1.09147
1.09147
1.0915
1.09157
1.09165
1.09176
1.09188
1.09201
1.09213
1.09225
1.09236
1.09246
1.09253
1.09258
1.09261
1.14086
1.14097
1.14119
1.14153
1.14198
1.14254
1.14322
1.14402
1.14494
1.14597
1.14713
1.14842
1.14984
1.15138
1.15307
1.15489
1.15684
1.15894
1.16118
1.16356
1.16607
1.16872
1.1715
1.17439
1.1774
1.1805
1.18368
1.18693
1.19023
1.19356
1.1969
1.20023
1.20352
1.20674
1.20988
1.2129
1.2158
1.21853
1.22108
1.22342
1.22554
1.22743
1.22905
1.2304
1.23146
1.23223
1.23269
1.23284
1.23268
1.2322
1.23141
1.23031
1.2289
1.22719
1.2252
1.22294
1.22041
1.21765
1.21466
1.21148
1.20811
1.2046
1.20096
1.19722
1.19341
1.18956
1.1857
1.18185
1.17804
1.1743
1.17065
1.16711
1.1637
1.16044
1.15733
1.15439
1.15163
1.14905
1.14664
1.14441
1.14235
1.14046
1.13872
1.13712
1.13566
1.13433
1.13311
1.13199
1.13097
1.13003
1.12917
1.12839
1.12767
1.12701
1.12641
1.12586
1.12537
1.12492
1.12453
1.12419
1.1239
1.12365
1.12345
1.1233
1.12319
1.12311
1.12308
1.12307
1.1231
1.12314
1.12321
1.12329
1.12337
1.12346
1.12355
1.12363
1.1237
1.12375
1.12379
1.12381
1.17321
1.17332
1.17354
1.17387
1.17431
1.17486
1.17552
1.17629
1.17718
1.17818
1.17931
1.18055
1.18192
1.18341
1.18503
1.18677
1.18865
1.19065
1.19278
1.19504
1.19742
1.19992
1.20253
1.20525
1.20806
1.21096
1.21392
1.21695
1.22001
1.2231
1.22618
1.22925
1.23228
1.23525
1.23813
1.24091
1.24356
1.24606
1.2484
1.25054
1.25248
1.25419
1.25567
1.25689
1.25785
1.25854
1.25895
1.25907
1.2589
1.25844
1.2577
1.25666
1.25535
1.25377
1.25192
1.24982
1.24748
1.24492
1.24216
1.23921
1.2361
1.23285
1.22949
1.22603
1.2225
1.21893
1.21535
1.21177
1.20823
1.20474
1.20133
1.19801
1.19481
1.19173
1.18879
1.18599
1.18335
1.18087
1.17855
1.17638
1.17437
1.1725
1.17078
1.16919
1.16773
1.16639
1.16515
1.16401
1.16297
1.16201
1.16113
1.16032
1.15958
1.1589
1.15827
1.15771
1.15719
1.15673
1.15632
1.15596
1.15565
1.15538
1.15515
1.15497
1.15483
1.15472
1.15465
1.15461
1.1546
1.15461
1.15464
1.15469
1.15474
1.1548
1.15485
1.15491
1.15496
1.155
1.15502
1.15504
1.20546
1.20557
1.20578
1.2061
1.20652
1.20705