/*--------------------------------*- C++ -*----------------------------------*\
| =========                 |                                                 |
| \\      /  F ield         | OpenFOAM: The Open Source CFD Toolbox           |
|  \\    /   O peration     | Version:  2406                                  |
|   \\  /    A nd           | Website:  www.openfoam.com                      |
|    \\/     M anipulation  |                                                 |
\*---------------------------------------------------------------------------*/
FoamFile
{
    version     2.0;
    format      ascii;
    arch        "LSB;label=32;scalar=64";
    class       volScalarField;
    location    "5.55";
    object      C_0;
}
// * * * * * * * * * * * * * * * * * * * * * * * * * * * * * * * * * * * * * //

dimensions      [1 -3 0 0 0 0 0];

internalField   nonuniform List<scalar> 
14400
(
0.288594
0.286562
0.283169
0.279261
0.275604
0.272798
0.271266
0.271271
0.272931
0.276227
0.28099
0.286884
0.293359
0.299588
0.304409
0.306357
0.304122
0.299045
0.292727
0.286497
0.281348
0.278012
0.277036
0.278854
0.283834
0.292313
0.304623
0.321098
0.342096
0.367992
0.399176
0.436025
0.478839
0.527618
0.581026
0.628703
0.661632
0.685685
0.706692
0.724985
0.740822
0.754404
0.765885
0.77539
0.783014
0.78883
0.792893
0.795243
0.795902
0.794882
0.792181
0.787782
0.781656
0.77376
0.764033
0.752397
0.738752
0.722971
0.704893
0.684317
0.660987
0.634244
0.594057
0.538859
0.485849
0.438157
0.396337
0.360263
0.329593
0.303929
0.28288
0.266089
0.253242
0.244072
0.238359
0.235931
0.236654
0.24043
0.247189
0.256879
0.26945
0.284831
0.302886
0.323346
0.345635
0.368245
0.384296
0.390455
0.389864
0.380387
0.3643
0.347141
0.330882
0.316314
0.303789
0.293442
0.285269
0.279159
0.274917
0.272265
0.270865
0.270343
0.270343
0.270601
0.271031
0.271765
0.273111
0.275469
0.279255
0.284853
0.292593
0.302734
0.315456
0.330851
0.348889
0.369354
0.391656
0.414147
0.429719
0.435628
0.299405
0.296695
0.292428
0.287716
0.283418
0.280152
0.27834
0.278236
0.279954
0.283477
0.28865
0.295161
0.302502
0.309884
0.316101
0.319255
0.315875
0.309332
0.301753
0.294547
0.288676
0.284819
0.283482
0.285073
0.289941
0.298412
0.310807
0.327458
0.348719
0.374959
0.406561
0.443891
0.487221
0.536496
0.590205
0.634938
0.665109
0.688731
0.709405
0.727441
0.743078
0.756503
0.767862
0.777271
0.784822
0.790583
0.794607
0.796933
0.797581
0.796564
0.793878
0.789508
0.783426
0.77559
0.765942
0.754407
0.740888
0.725267
0.707391
0.687072
0.664069
0.638048
0.600807
0.547852
0.494163
0.445727
0.403285
0.366685
0.33557
0.309532
0.288178
0.271144
0.258118
0.24883
0.243062
0.240641
0.241434
0.245345
0.252308
0.262274
0.275198
0.291014
0.309595
0.330662
0.353547
0.376294
0.391232
0.396889
0.396751
0.389385
0.373699
0.355868
0.339022
0.323999
0.311143
0.300586
0.292324
0.286248
0.282153
0.279747
0.27866
0.278463
0.278717
0.27907
0.279394
0.279867
0.280886
0.28293
0.28647
0.291923
0.299632
0.309861
0.322792
0.338513
0.35699
0.377995
0.40083
0.422895
0.436237
0.441338
0.32172
0.317265
0.311051
0.304665
0.299076
0.294902
0.292539
0.292221
0.29405
0.298013
0.303976
0.311669
0.320657
0.330257
0.339299
0.345327
0.339291
0.329713
0.319663
0.310586
0.303331
0.298473
0.296442
0.297593
0.302245
0.310703
0.323275
0.340282
0.362068
0.388996
0.421433
0.459712
0.504019
0.553974
0.606629
0.645384
0.671941
0.694725
0.714756
0.732296
0.747547
0.760668
0.771789
0.781011
0.788418
0.794072
0.798021
0.800299
0.800927
0.799915
0.797259
0.792947
0.786951
0.779232
0.769738
0.758399
0.745128
0.729817
0.712333
0.692509
0.670142
0.644983
0.612725
0.565112
0.510452
0.460789
0.417213
0.379608
0.347621
0.320843
0.298877
0.28136
0.267974
0.258451
0.252572
0.250164
0.251098
0.25528
0.262649
0.273163
0.286784
0.303456
0.32306
0.345317
0.369429
0.391648
0.403871
0.409009
0.409458
0.404917
0.391528
0.373038
0.355258
0.339407
0.325917
0.314953
0.306521
0.300518
0.296737
0.29486
0.294455
0.294986
0.295833
0.296415
0.296484
0.29635
0.296635
0.297997
0.301011
0.306153
0.313791
0.324193
0.337532
0.353882
0.373179
0.395133
0.418781
0.438297
0.447876
0.45213
0.356437
0.348447
0.339016
0.330092
0.322607
0.317113
0.313954
0.313328
0.315318
0.319911
0.326987
0.336306
0.347497
0.359942
0.37211
0.376905
0.372379
0.359371
0.346078
0.334476
0.325321
0.319066
0.316052
0.316578
0.320926
0.329378
0.342223
0.359769
0.382347
0.410305
0.443983
0.483655
0.529402
0.580395
0.626675
0.657706
0.681893
0.703471
0.722598
0.739441
0.754144
0.766834
0.777613
0.786568
0.793767
0.799266
0.803105
0.805314
0.805913
0.804908
0.802298
0.798069
0.792198
0.78465
0.775378
0.764322
0.751407
0.736542
0.719614
0.700489
0.679007
0.654966
0.627384
0.587781
0.53411
0.483303
0.438243
0.39921
0.365945
0.338068
0.315189
0.296946
0.283019
0.273142
0.267095
0.264708
0.265852
0.270441
0.278417
0.289743
0.304389
0.3223
0.343335
0.367108
0.392344
0.411848
0.421067
0.425814
0.426825
0.424273
0.415933
0.398355
0.379597
0.362633
0.34824
0.336687
0.328012
0.322138
0.318868
0.317859
0.31861
0.32044
0.322422
0.32348
0.323023
0.321732
0.320711
0.32092
0.323071
0.327706
0.335218
0.345867
0.359797
0.377049
0.397436
0.420316
0.443323
0.457025
0.463762
0.467176
0.396111
0.38851
0.375692
0.363771
0.353975
0.346848
0.342701
0.341696
0.343895
0.349277
0.357718
0.368937
0.382481
0.39728
0.407484
0.408748
0.407243
0.396442
0.380356
0.366033
0.354684
0.346752
0.342528
0.342275
0.34625
0.354714
0.367939
0.386212
0.409845
0.439162
0.474447
0.51579
0.562681
0.611937
0.647025
0.672002
0.694452
0.714667
0.732726
0.748724
0.762756
0.774909
0.785262
0.793879
0.800817
0.806118
0.809818
0.811941
0.812502
0.811507
0.808954
0.804833
0.799122
0.791791
0.782802
0.772105
0.759638
0.745328
0.729091
0.710828
0.690431
0.66779
0.642816
0.611809
0.565553
0.513508
0.466617
0.42577
0.390843
0.361517
0.337425
0.318212
0.303563
0.293211
0.286938
0.284577
0.286004
0.291134
0.299913
0.312308
0.328287
0.347784
0.370581
0.395938
0.420748
0.434748
0.442019
0.446356
0.447752
0.446357
0.442371
0.43108
0.411981
0.393772
0.378257
0.365964
0.356978
0.351294
0.348763
0.349023
0.351515
0.355452
0.359494
0.36155
0.359998
0.356632
0.353498
0.351975
0.352864
0.356765
0.364091
0.375054
0.389728
0.408116
0.429773
0.453142
0.469525
0.477637
0.482927
0.485636
0.432487
0.429618
0.419251
0.405174
0.393053
0.384141
0.378894
0.377476
0.379926
0.386218
0.396205
0.409348
0.424573
0.437667
0.441891
0.442123
0.441351
0.436665
0.421572
0.405082
0.391519
0.381765
0.376163
0.375006
0.378555
0.387065
0.400785
0.419971
0.444908
0.475879
0.513101
0.556318
0.60362
0.640517
0.666066
0.688586
0.709248
0.728019
0.744914
0.759973
0.773245
0.784786
0.794646
0.802871
0.809503
0.814573
0.818109
0.820129
0.820646
0.819664
0.81718
0.813186
0.807665
0.800591
0.791935
0.781657
0.769711
0.756042
0.740593
0.723299
0.7041
0.682946
0.659816
0.634674
0.600269
0.550727
0.502492
0.45963
0.422702
0.391592
0.365993
0.345567
0.330009
0.319059
0.312502
0.310173
0.311952
0.317757
0.327531
0.341233
0.358816
0.380181
0.404967
0.431604
0.450513
0.4596
0.465887
0.469839
0.471471
0.470914
0.468423
0.46351
0.45133
0.432646
0.415986
0.402923
0.393558
0.388103
0.386553
0.388492
0.393291
0.400263
0.407499
0.411467
0.40783
0.401299
0.395117
0.391307
0.390522
0.393449
0.400542
0.411888
0.427335
0.446881
0.468933
0.485615
0.494603
0.50053
0.504675
0.506804
0.467036
0.466729
0.463156
0.452984
0.439474
0.428888
0.42257
0.420763
0.423484
0.430708
0.442315
0.456724
0.469683
0.4753
0.476193
0.476502
0.476154
0.475129
0.468181
0.451393
0.435952
0.424396
0.417302
0.415146
0.418226
0.426827
0.44117
0.461439
0.487869
0.520632
0.559784
0.603485
0.639407
0.664823
0.686614
0.70703
0.725933
0.743247
0.758939
0.773007
0.785467
0.796344
0.805664
0.813457
0.819749
0.824562
0.827915
0.829821
0.830289
0.829322
0.826917
0.823067
0.817759
0.810974
0.80269
0.792878
0.781505
0.768538
0.753939
0.737676
0.719725
0.700076
0.678753
0.655823
0.630671
0.594621
0.546151
0.501182
0.461956
0.428763
0.401382
0.379504
0.362852
0.351178
0.344275
0.341981
0.34418
0.35079
0.361742
0.376957
0.39632
0.419595
0.445776
0.468204
0.479558
0.486702
0.492089
0.495643
0.497378
0.497406
0.495937
0.493273
0.488425
0.477603
0.460859
0.447496
0.437673
0.432417
0.432081
0.435987
0.443031
0.452916
0.458371
0.460187
0.458861
0.4539
0.444697
0.438679
0.435902
0.437631
0.444504
0.456327
0.472107
0.491872
0.506447
0.514934
0.520609
0.525207
0.528437
0.530101
0.501892
0.501813
0.501732
0.498911
0.49151
0.480311
0.47342
0.471384
0.474311
0.482051
0.494683
0.504361
0.509325
0.510299
0.511073
0.511536
0.511627
0.511345
0.510596
0.50335
0.48769
0.474851
0.466234
0.463036
0.465604
0.474362
0.489475
0.510935
0.538896
0.573078
0.612712
0.644998
0.668667
0.68902
0.708537
0.726987
0.744208
0.760095
0.774587
0.78765
0.799273
0.809457
0.81821
0.825544
0.831474
0.836011
0.839168
0.840952
0.841368
0.840417
0.838099
0.834406
0.82933
0.822857
0.814972
0.805658
0.794895
0.782664
0.768949
0.753742
0.737046
0.718881
0.699298
0.678383
0.656261
0.631417
0.596004
0.550416
0.508921
0.473496
0.444127
0.420576
0.402648
0.390129
0.382816
0.380554
0.383232
0.390771
0.403069
0.419945
0.441053
0.465629
0.489585
0.502518
0.509645
0.515561
0.520124
0.523265
0.524992
0.525396
0.524644
0.522982
0.520732
0.517224
0.509414
0.498576
0.488393
0.483256
0.484226
0.489832
0.495527
0.499105
0.500052
0.499979
0.500779
0.500425
0.497525
0.492567
0.48795
0.488441
0.495123
0.507398
0.521164
0.531931
0.53845
0.543317
0.547691
0.551254
0.553765
0.555061
0.536827
0.536897
0.537106
0.537607
0.536915
0.533493
0.529472
0.527716
0.530594
0.53627
0.54145
0.544077
0.54469
0.54548
0.546265
0.546942
0.547474
0.547881
0.548246
0.548428
0.543165
0.53244
0.522789
0.518767
0.520757
0.52977
0.545846
0.568351
0.597259
0.630429
0.657237
0.677563
0.695968
0.714052
0.731529
0.748172
0.763816
0.77834
0.791664
0.803734
0.814518
0.824001
0.832173
0.839036
0.844591
0.848842
0.851794
0.85345
0.853812
0.852881
0.850654
0.847128
0.842296
0.836151
0.828685
0.819888
0.809752
0.798273
0.785452
0.771298
0.755835
0.739104
0.721175
0.702149
0.682164
0.66141
0.63803
0.605452
0.56337
0.52609
0.494736
0.469333
0.449975
0.436506
0.428724
0.426479
0.429668
0.438227
0.452001
0.470547
0.49274
0.515628
0.528666
0.535192
0.540938
0.545774
0.549581
0.552299
0.55393
0.554541
0.554261
0.553281
0.551848
0.550256
0.548653
0.544626
0.539956
0.536735
0.536156
0.537099
0.537606
0.536331
0.535694
0.535736
0.5365
0.537977
0.540087
0.540394
0.540521
0.542495
0.547512
0.554283
0.560634
0.564602
0.568431
0.572193
0.575584
0.578352
0.580307
0.581318
0.571691
0.57184
0.572187
0.57283
0.573911
0.575475
0.575635
0.575864
0.577279
0.578926
0.579007
0.57926
0.579862
0.580666
0.581564
0.582494
0.583446
0.58446
0.585638
0.587153
0.589166
0.587775
0.58453
0.58118
0.582595
0.592006
0.609129
0.63132
0.654359
0.674795
0.691139
0.707299
0.723589
0.739693
0.755352
0.770357
0.784542
0.797786
0.809994
0.821102
0.831066
0.839854
0.847447
0.853835
0.859011
0.862971
0.865715
0.867242
0.86755
0.86664
0.86451
0.861156
0.856576
0.850768
0.843728
0.835455
0.825952
0.815225
0.803288
0.790163
0.775891
0.760526
0.74415
0.726872
0.708838
0.690233
0.671288
0.650692
0.622633
0.586005
0.553449
0.526132
0.5053
0.490852
0.482549
0.480285
0.483936
0.493483
0.508676
0.528143
0.546852
0.558166
0.563581
0.568612
0.57314
0.577014
0.580128
0.582422
0.583889
0.584576
0.584577
0.584033
0.583123
0.582049
0.581017
0.580237
0.579476
0.578071
0.576244
0.574015
0.572243
0.571142
0.570655
0.57077
0.571504
0.572871
0.574916
0.577762
0.58118
0.584323
0.587389
0.589938
0.592502
0.595429
0.598481
0.601441
0.604098
0.606265
0.607794
0.608585
0.606407
0.606586
0.606973
0.607614
0.60856
0.609811
0.611249
0.612504
0.613053
0.613264
0.613577
0.61409
0.614831
0.615759
0.61683
0.618024
0.619355
0.620876
0.622692
0.624969
0.627949
0.631988
0.635558
0.638662
0.644181
0.653794
0.66694
0.681573
0.695601
0.708697
0.722574
0.736906
0.751396
0.76578
0.779831
0.79336
0.806212
0.818265
0.829424
0.839616
0.848788
0.856901
0.863927
0.869846
0.874646
0.878317
0.880853
0.882251
0.882507
0.88162
0.879588
0.876409
0.872085
0.866615
0.860003
0.852253
0.843376
0.833387
0.82231
0.810177
0.797039
0.782959
0.768026
0.752352
0.736083
0.719395
0.702505
0.685671
0.668576
0.646123
0.618851
0.590366
0.568612
0.553386
0.544534
0.542181
0.546004
0.555903
0.571319
0.583411
0.591185
0.594927
0.598784
0.602537
0.605996
0.609015
0.611493
0.61337
0.614629
0.615296
0.615438
0.615152
0.614561
0.613799
0.612988
0.6122
0.611353
0.610265
0.608843
0.607363
0.606139
0.605339
0.605014
0.605186
0.605874
0.607086
0.608831
0.611092
0.61372
0.616431
0.61892
0.621281
0.623657
0.626132
0.628621
0.630993
0.633102
0.634814
0.63602
0.636643
0.640942
0.641126
0.641504
0.642094
0.642904
0.643901
0.644989
0.645986
0.646729
0.647321
0.647944
0.648694
0.649613
0.650708
0.651974
0.653419
0.655072
0.656995
0.659285
0.662082
0.665573
0.669986
0.675544
0.682557
0.690523
0.699151
0.708393
0.718339
0.729336
0.741138
0.753555
0.766355
0.779309
0.792199
0.804832
0.817039
0.828681
0.839639
0.849821
0.859151
0.86757
0.875036
0.881513
0.886978
0.89141
0.894798
0.897131
0.898402
0.898608
0.897745
0.895812
0.892809
0.888739
0.883605
0.877415
0.870179
0.861913
0.852639
0.842387
0.831198
0.819127
0.806245
0.792641
0.778429
0.763746
0.748759
0.733666
0.718696
0.704114
0.690203
0.674263
0.656137
0.637697
0.622587
0.613207
0.610669
0.613708
0.619167
0.62444
0.627436
0.629159
0.63148
0.634091
0.636755
0.63929
0.641558
0.64346
0.644936
0.64596
0.646543
0.646726
0.646574
0.64617
0.6456
0.644937
0.644221
0.64343
0.642515
0.64148
0.640457
0.63961
0.63906
0.638875
0.639088
0.639718
0.64077
0.642231
0.644056
0.646142
0.648333
0.650492
0.652608
0.654713
0.65682
0.65888
0.660807
0.662502
0.663869
0.664829
0.665324
0.675295
0.67547
0.675823
0.676356
0.677059
0.677902
0.678818
0.679723
0.680554
0.681348
0.682184
0.683128
0.68422
0.685485
0.686938
0.688604
0.690521
0.692749
0.695372
0.698502
0.702275
0.706838
0.712325
0.718814
0.726155
0.734183
0.742849
0.75219
0.762262
0.772964
0.784151
0.795652
0.807285
0.818875
0.830257
0.841285
0.851833
0.861791
0.871069
0.879594
0.887307
0.894158
0.900112
0.90514
0.909219
0.912333
0.914469
0.915619
0.915777
0.914939
0.913105
0.910276
0.906456
0.901652
0.895873
0.889135
0.881457
0.872867
0.8634
0.853101
0.842027
0.830253
0.817866
0.804976
0.791713
0.778229
0.764702
0.751334
0.738348
0.72599
0.714526
0.704063
0.692807
0.682347
0.674427
0.669988
0.668389
0.667654
0.666182
0.665885
0.666507
0.667744
0.669345
0.671102
0.672852
0.674467
0.675854
0.676953
0.677732
0.67819
0.678349
0.67825
0.677946
0.677493
0.67694
0.676317
0.675632
0.674886
0.674107
0.673374
0.672783
0.672418
0.672337
0.672572
0.673141
0.674045
0.675265
0.67676
0.678458
0.680268
0.682108
0.683945
0.685767
0.687556
0.689272
0.690853
0.692229
0.693332
0.694103
0.6945
0.709472
0.709636
0.709962
0.710446
0.711076
0.711827
0.71266
0.713532
0.714418
0.715333
0.716317
0.717413
0.718655
0.720072
0.72169
0.723539
0.725659
0.728106
0.730951
0.734278
0.738186
0.742768
0.748103
0.754217
0.761055
0.768541
0.776631
0.78531
0.794559
0.804304
0.814434
0.824816
0.835306
0.845758
0.856036
0.866012
0.875573
0.884621
0.893071
0.900851
0.907903
0.914178
0.919638
0.924251
0.927993
0.930845
0.932794
0.933828
0.933941
0.93313
0.931394
0.928735
0.925158
0.920672
0.91529
0.90903
0.901914
0.893973
0.885245
0.875777
0.865629
0.854872
0.843594
0.831896
0.8199
0.807743
0.795581
0.783588
0.771952
0.760869
0.750536
0.74112
0.732781
0.725567
0.719297
0.713914
0.709519
0.706379
0.704396
0.703416
0.703237
0.703645
0.704442
0.705457
0.706548
0.707603
0.708536
0.709288
0.709826
0.710137
0.710231
0.71013
0.709869
0.709485
0.709012
0.708475
0.707895
0.707288
0.706688
0.706148
0.705731
0.705494
0.705482
0.705722
0.70623
0.707002
0.708024
0.709262
0.710664
0.712171
0.713728
0.715297
0.716853
0.718365
0.719798
0.721104
0.72223
0.723127
0.723752
0.724072
0.743486
0.743639
0.743942
0.74439
0.744973
0.745671
0.746463
0.747327
0.748253
0.749249
0.750338
0.751551
0.752916
0.75446
0.756211
0.758202
0.760471
0.763067
0.766046
0.769474
0.773421
0.777947
0.7831
0.788895
0.795307
0.802296
0.809825
0.817859
0.826359
0.835258
0.844466
0.853873
0.863363
0.872816
0.882116
0.891154
0.899828
0.90805
0.915742
0.922836
0.929276
0.935014
0.94001
0.944233
0.947657
0.950262
0.952032
0.952957
0.95303
0.952246
0.950605
0.94811
0.944768
0.940588
0.935586
0.92978
0.923196
0.915866
0.907829
0.899134
0.889839
0.880014
0.869741
0.859116
0.848248
0.83726
0.82629
0.815486
0.805003
0.795
0.785627
0.777017
0.769272
0.762431
0.756459
0.751345
0.747136
0.743904
0.741608
0.740147
0.739381
0.739157
0.73932
0.739735
0.740282
0.740862
0.741399
0.741839
0.742145
0.742301
0.742306
0.742171
0.741916
0.741567
0.741147
0.740678
0.740183
0.739683
0.739209
0.738799
0.738497
0.738345
0.738374
0.738606
0.739052
0.739711
0.740568
0.741598
0.742764
0.744023
0.745335
0.746664
0.747981
0.749255
0.750452
0.751534
0.752461
0.753195
0.753704
0.753965
0.777347
0.777492
0.777778
0.778201
0.778753
0.779422
0.780195
0.781061
0.782017
0.78307
0.784237
0.785537
0.786996
0.788639
0.790492
0.792586
0.794956
0.797643
0.800692
0.804153
0.808075
0.8125
0.817457
0.822955
0.828983
0.835512
0.842511
0.849943
0.857761
0.865905
0.874297
0.882846
0.891457
0.900028
0.908459
0.916658
0.924534
0.932009
0.939011
0.945476
0.951352
0.956591
0.961156
0.965014
0.96814
0.970512
0.972116
0.97294
0.972975
0.972219
0.970671
0.968334
0.965216
0.961327
0.956685
0.951308
0.945225
0.938466
0.931072
0.923091
0.914579
0.905603
0.89624
0.886577
0.876715
0.866761
0.856835
0.847063
0.837575
0.828499
0.819956
0.81205
0.804859
0.798427
0.792762
0.787872
0.783778
0.780492
0.777984
0.776182
0.774985
0.774279
0.773948
0.773881
0.773981
0.774163
0.77436
0.774522
0.774614
0.774616
0.774521
0.774331
0.774059
0.773719
0.773329
0.772908
0.772476
0.772053
0.771666
0.771343
0.771115
0.771014
0.771062
0.771276
0.771663
0.772221
0.77294
0.773799
0.774771
0.775823
0.776924
0.778044
0.779152
0.780221
0.78122
0.782118
0.782884
0.783488
0.783905
0.784119
0.811065
0.811202
0.811476
0.811882
0.812415
0.813068
0.813832
0.814705
0.815685
0.816779
0.818
0.819365
0.820894
0.822608
0.824533
0.826695
0.829125
0.831857
0.834927
0.838371
0.842226
0.84652
0.851271
0.856487
0.862156
0.868258
0.874765
0.88164
0.888838
0.896304
0.90397
0.911759
0.91959
0.927378
0.935036
0.942484
0.949643
0.956441
0.962815
0.968706
0.974063
0.978842
0.983008
0.986527
0.989376
0.991532
0.99298
0.99371
0.993712
0.992984
0.991525
0.989339
0.986433
0.982821
0.978517
0.973544
0.967928
0.961701
0.954902
0.947578
0.939783
0.931579
0.923038
0.914239
0.905273
0.896234
0.887225
0.878356
0.869733
0.861465
0.853648
0.846367
0.839688
0.833654
0.828288
0.823604
0.81961
0.816303
0.813655
0.811611
0.810097
0.809027
0.808312
0.807862
0.807597
0.807448
0.807357
0.807276
0.807174
0.807029
0.80683
0.806575
0.806268
0.80592
0.805543
0.80515
0.80476
0.804389
0.804058
0.80379
0.803608
0.803534
0.803584
0.803772
0.804101
0.804571
0.805171
0.805887
0.806696
0.807575
0.808496
0.809434
0.810363
0.811257
0.81209
0.812835
0.813469
0.813967
0.81431
0.814485
0.844644
0.844777
0.845042
0.845437
0.845958
0.846601
0.847362
0.848241
0.849238
0.850361
0.85162
0.853029
0.854605
0.856366
0.858335
0.860536
0.862992
0.865733
0.868786
0.872179
0.875938
0.880082
0.884623
0.889564
0.894895
0.9006
0.90665
0.913014
0.919648
0.926503
0.933518
0.94063
0.947767
0.954856
0.961824
0.968598
0.975111
0.981299
0.987102
0.992469
0.997351
1.00171
1.00551
1.00871
1.0113
1.01326
1.01456
1.01521
1.01518
1.01448
1.01311
1.01106
1.00836
1.00501
1.00102
0.996423
0.991242
0.985507
0.979257
0.972536
0.965395
0.957892
0.950093
0.94207
0.933903
0.925675
0.917477
0.909401
0.901539
0.893979
0.886803
0.880082
0.873872
0.868214
0.863133
0.858646
0.854756
0.851456
0.848721
0.84651
0.844765
0.843422
0.842409
0.841656
0.841098
0.840677
0.840341
0.840051
0.839776
0.839495
0.839195
0.838869
0.83852
0.838151
0.837771
0.837391
0.837023
0.836683
0.836387
0.836151
0.835993
0.835928
0.83597
0.836126
0.8364
0.83679
0.837288
0.837881
0.838553
0.839283
0.840051
0.840833
0.841608
0.842353
0.843046
0.843665
0.844189
0.8446
0.844883
0.845027
0.87809
0.87822
0.878479
0.878866
0.879379
0.880016
0.880775
0.881657
0.882666
0.883808
0.88509
0.886526
0.88813
0.889917
0.891907
0.89412
0.896576
0.899297
0.902305
0.905621
0.909264
0.913246
0.917575
0.92225
0.927262
0.932594
0.938223
0.944117
0.950237
0.95654
0.962971
0.969476
0.975992
0.982456
0.988805
0.994975
1.00091
1.00654
1.01183
1.01672
1.02116
1.02513
1.02859
1.03151
1.03387
1.03564
1.03681
1.03737
1.03732
1.03665
1.03535
1.03345
1.03093
1.02782
1.02413
1.01989
1.01511
1.00983
1.00408
0.997914
0.991369
0.984502
0.977373
0.970046
0.962592
0.955087
0.947607
0.940233
0.933042
0.926109
0.919503
0.913285
0.907503
0.902195
0.897386
0.89309
0.889311
0.886042
0.883264
0.880942
0.879033
0.877486
0.876246
0.875256
0.874463
0.873819
0.87328
0.872812
0.872385
0.871981
0.871584
0.871188
0.87079
0.870392
0.869999
0.869618
0.86926
0.868935
0.868655
0.868434
0.868284
0.868217
0.868241
0.868363
0.868583
0.868901
0.869309
0.869797
0.870351
0.870955
0.871591
0.87224
0.872884
0.873502
0.874077
0.874589
0.875022
0.875362
0.875595
0.875714
0.911406
0.911534
0.911788
0.912169
0.912676
0.913308
0.914065
0.914948
0.915962
0.917112
0.918407
0.919855
0.92147
0.923266
0.925257
0.927461
0.929893
0.932573
0.935516
0.938737
0.942251
0.946064
0.950181
0.954599
0.959308
0.964293
0.969531
0.974993
0.980645
0.986447
0.992352
0.99831
1.00427
1.01017
1.01596
1.02159
1.027
1.03213
1.03695
1.0414
1.04546
1.04907
1.05222
1.05488
1.05701
1.05861
1.05967
1.06016
1.06008
1.05944
1.05822
1.05644
1.0541
1.05122
1.0478
1.04388
1.03948
1.03462
1.02933
1.02367
1.01767
1.01137
1.00485
0.998148
0.991334
0.984473
0.977632
0.970881
0.964286
0.957912
0.951816
0.946052
0.940662
0.935678
0.931125
0.927017
0.923357
0.92014
0.917349
0.91496
0.912938
0.911243
0.909832
0.908658
0.90768
0.906855
0.906149
0.905529
0.904972
0.904458
0.903973
0.903509
0.903061
0.902629
0.902215
0.901824
0.901463
0.90114
0.900865
0.900646
0.900493
0.900414
0.900415
0.9005
0.900669
0.900921
0.90125
0.901646
0.902099
0.902594
0.903117
0.903653
0.904184
0.904695
0.90517
0.905592
0.90595
0.906229
0.906421
0.906519
0.944595
0.94472
0.944971
0.945347
0.945848
0.946474
0.947227
0.948108
0.949122
0.950273
0.951569
0.953018
0.954631
0.956418
0.958395
0.960572
0.962964
0.965585
0.968447
0.971562
0.974937
0.978579
0.982486
0.986656
0.991079
0.995738
1.00061
1.00568
1.0109
1.01625
1.02168
1.02714
1.0326
1.038
1.04329
1.04842
1.05336
1.05804
1.06243
1.06649
1.07019
1.07348
1.07634
1.07876
1.08069
1.08214
1.08308
1.08351
1.08341
1.08279
1.08165
1.07999
1.07782
1.07514
1.07199
1.06836
1.0643
1.05982
1.05496
1.04976
1.04425
1.03848
1.0325
1.02636
1.02012
1.01384
1.00757
1.00137
0.99531
0.989435
0.983799
0.978445
0.973413
0.968731
0.96442
0.960495
0.956959
0.95381
0.951034
0.948611
0.946517
0.944718
0.94318
0.941866
0.940742
0.939774
0.93893
0.938185
0.937516
0.936906
0.936342
0.935813
0.935316
0.934847
0.934407
0.933999
0.933628
0.933298
0.933017
0.932792
0.932627
0.93253
0.932505
0.932552
0.932673
0.932865
0.933123
0.933439
0.933803
0.934205
0.934632
0.93507
0.935505
0.935925
0.936314
0.936661
0.936955
0.937184
0.937342
0.937422
0.977658
0.977781
0.978028
0.978399
0.978895
0.979515
0.980261
0.981136
0.982144
0.983289
0.984577
0.986017
0.987616
0.989383
0.991331
0.993468
0.995807
0.998357
1.00113
1.00413
1.00736
1.01083
1.01453
1.01846
1.02261
1.02697
1.03151
1.03621
1.04104
1.04597
1.05097
1.05599
1.06099
1.06593
1.07077
1.07546
1.07997
1.08424
1.08825
1.09195
1.09531
1.09831
1.10092
1.10311
1.10487
1.10617
1.10701
1.10738
1.10727
1.10667
1.1056
1.10405
1.10203
1.09955
1.09663
1.09329
1.08954
1.08541
1.08094
1.07616
1.0711
1.0658
1.06031
1.05468
1.04896
1.04319
1.03743
1.03173
1.02615
1.02072
1.0155
1.01052
1.00581
1.00141
0.99733
0.993583
0.990176
0.987106
0.984364
0.981935
0.979799
0.977931
0.976302
0.974885
0.973649
0.972567
0.971613
0.970765
0.970002
0.969309
0.968674
0.968087
0.967541
0.967035
0.966567
0.966138
0.965751
0.965408
0.965115
0.964876
0.964695
0.964576
0.964521
0.964531
0.964607
0.964744
0.964938
0.965183
0.965471
0.965792
0.966135
0.966489
0.966842
0.967183
0.967501
0.967784
0.968024
0.968211
0.968339
0.968405
1.0106
1.01072
1.01096
1.01133
1.01182
1.01243
1.01317
1.01403
1.01503
1.01616
1.01744
1.01886
1.02043
1.02217
1.02408
1.02616
1.02844
1.03091
1.03358
1.03646
1.03954
1.04284
1.04634
1.05005
1.05394
1.05801
1.06224
1.0666
1.07108
1.07563
1.08023
1.08485
1.08944
1.09397
1.0984
1.10269
1.10681
1.11071
1.11436
1.11774
1.12081
1.12354
1.12591
1.1279
1.12949
1.13066
1.13141
1.13173
1.1316
1.13103
1.13002
1.12858
1.1267
1.1244
1.1217
1.11861
1.11515
1.11135
1.10723
1.10283
1.09817
1.09331
1.08827
1.08309
1.07783
1.07253
1.06723
1.06198
1.05682
1.0518
1.04695
1.04231
1.03791
1.03377
1.02991
1.02633
1.02306
1.02007
1.01738
1.01497
1.01281
1.0109
1.00921
1.00772
1.0064
1.00523
1.00419
1.00326
1.00242
1.00165
1.00096
1.00032
0.999728
0.999186
0.998688
0.998236
0.997828
0.997469
0.997159
0.996902
0.9967
0.996557
0.996472
0.996446
0.996478
0.996565
0.996702
0.996885
0.997106
0.997356
0.997627
0.997908
0.998192
0.998466
0.998722
0.998951
0.999145
0.999296
0.9994
0.999453
1.04341
1.04353
1.04377
1.04413
1.04461
1.04522
1.04594
1.0468
1.04778
1.04889
1.05015
1.05154
1.05308
1.05478
1.05664
1.05867
1.06087
1.06326
1.06582
1.06858
1.07152
1.07465
1.07796
1.08144
1.0851
1.0889
1.09284
1.09689
1.10103
1.10524
1.10948
1.11373
1.11795
1.12211
1.12616
1.13009
1.13386
1.13742
1.14076
1.14384
1.14664
1.14913
1.15128
1.15309
1.15453
1.15559
1.15625
1.15652
1.15638
1.15584
1.15489
1.15354
1.15179
1.14966
1.14716
1.1443
1.14111
1.1376
1.13381
1.12975
1.12547
1.12099
1.11635
1.11159
1.10675
1.10187
1.09698
1.09213
1.08736
1.08271
1.0782
1.07387
1.06975
1.06585
1.06219
1.05879
1.05564
1.05275
1.05012
1.04774
1.04559
1.04366
1.04193
1.04038
1.039
1.03777
1.03666
1.03566
1.03476
1.03393
1.03318
1.0325
1.03187
1.03129
1.03077
1.03029
1.02986
1.02948
1.02915
1.02887
1.02865
1.02848
1.02836
1.0283
1.02829
1.02834
1.02842
1.02855
1.02871
1.0289
1.02911
1.02933
1.02955
1.02977
1.02997
1.03015
1.03031
1.03043
1.03051
1.03056
1.07611
1.07623
1.07647
1.07682
1.07729
1.07788
1.07859
1.07943
1.08039
1.08149
1.08271
1.08408
1.08558
1.08724
1.08904
1.09101
1.09313
1.09542
1.09788
1.10051
1.1033
1.10627
1.10939
1.11267
1.1161
1.11965
1.12332
1.12709
1.13093
1.13482
1.13873
1.14264
1.14652
1.15034
1.15406
1.15766
1.16111
1.16437
1.16742
1.17023
1.17278
1.17505
1.17701
1.17865
1.17995
1.1809
1.18149
1.18171
1.18157
1.18105
1.18015
1.17889
1.17727
1.17529
1.17297
1.17033
1.16738
1.16414
1.16064
1.1569
1.15296
1.14883
1.14456
1.14017
1.13571
1.1312
1.12669
1.12221
1.11779
1.11347
1.10927
1.10523
1.10136
1.09769
1.09422
1.09098
1.08796
1.08518
1.08261
1.08027
1.07814
1.07621
1.07446
1.07288
1.07146
1.07018
1.06902
1.06797
1.06701
1.06614
1.06535
1.06462
1.06396
1.06335
1.06279
1.06229
1.06184
1.06144
1.06109
1.06079
1.06054
1.06035
1.0602
1.06011
1.06006
1.06006
1.0601
1.06018
1.06029
1.06042
1.06058
1.06074
1.06091
1.06108
1.06124
1.06138
1.0615
1.0616
1.06167
1.0617
1.10869
1.10881
1.10904
1.10938
1.10985
1.11042
1.11112
1.11194
1.11288
1.11395
1.11514
1.11647
1.11793
1.11954
1.12128
1.12318
1.12522
1.12742
1.12977
1.13227
1.13493
1.13773
1.14068
1.14376
1.14697
1.15029
1.15371
1.15721
1.16077
1.16437
1.16798
1.17159
1.17516
1.17867
1.18208
1.18538
1.18854
1.19152
1.19431
1.19688
1.1992
1.20127
1.20305
1.20454
1.20572
1.20657
1.20709
1.20728
1.20712
1.20663
1.20579
1.20461
1.20309
1.20126
1.19911
1.19667
1.19394
1.19095
1.18772
1.18427
1.18062
1.17682
1.17288
1.16883
1.16471
1.16055
1.15637
1.15222
1.14812
1.1441
1.14019
1.13641
1.13278
1.12932
1.12604
1.12295
1.12006
1.11737
1.11488
1.11259
1.11049
1.10857
1.10682
1.10523
1.10378
1.10246
1.10127
1.10018
1.09918
1.09827
1.09744
1.09668
1.09599
1.09535
1.09477
1.09424
1.09377
1.09335
1.09298
1.09265
1.09238
1.09216
1.09199
1.09186
1.09178
1.09174
1.09174
1.09178
1.09184
1.09193
1.09203
1.09215
1.09228
1.0924
1.09252
1.09263
1.09273
1.0928
1.09285
1.09288
1.14116
1.14127
1.1415
1.14183
1.14228
1.14285
1.14353
1.14433
1.14524
1.14628
1.14744
1.14873
1.15015
1.1517
1.15338
1.1552
1.15716
1.15926
1.1615
1.16388
1.1664
1.16905
1.17182
1.17472
1.17773
1.18083
1.18401
1.18727
1.19057
1.1939
1.19724
1.20057
1.20386
1.20708
1.21022
1.21325
1.21614
1.21887
1.22142
1.22377
1.22589
1.22777
1.22939
1.23074
1.23181
1.23257
1.23304
1.23319
1.23303
1.23255
1.23176
1.23065
1.22925
1.22754
1.22555
1.22328
1.22076
1.21799
1.21501
1.21182
1.20846
1.20494
1.2013
1.19756
1.19375
1.1899
1.18604
1.18218
1.17838
1.17463
1.17098
1.16744
1.16403
1.16076
1.15766
1.15472
1.15195
1.14937
1.14696
1.14473
1.14267
1.14077
1.13903
1.13743
1.13597
1.13463
1.13341
1.13229
1.13127
1.13033
1.12947
1.12868
1.12796
1.12729
1.12669
1.12614
1.12565
1.12521
1.12481
1.12447
1.12418
1.12393
1.12373
1.12357
1.12346
1.12339
1.12335
1.12334
1.12337
1.12341
1.12348
1.12356
1.12364
1.12373
1.12382
1.1239
1.12397
1.12402
1.12406
1.12408
1.17351
1.17362
1.17384
1.17417
1.17461
1.17516
1.17582
1.17659
1.17748
1.17849
1.17961
1.18086
1.18223
1.18372
1.18534
1.18708
1.18896
1.19096
1.1931
1.19536
1.19774
1.20024
1.20285
1.20557
1.20839
1.21128
1.21425
1.21728
1.22034
1.22343
1.22652
1.22959
1.23262
1.23559
1.23847
1.24125
1.2439
1.2464
1.24874
1.25088
1.25282
1.25453
1.25601
1.25723
1.25819
1.25888
1.25929
1.25941
1.25924
1.25879
1.25804
1.25701
1.25569
1.25411
1.25226
1.25016
1.24782
1.24526
1.2425
1.23955
1.23644
1.23319
1.22982
1.22636
1.22284
1.21927
1.21568
1.2121
1.20856
1.20507
1.20166
1.19834
1.19513
1.19205
1.18911
1.18631
1.18367
1.18119
1.17886
1.17669
1.17468
1.17281
1.17109
1.1695
1.16803
1.16669
1.16545
1.16431
1.16326
1.1623
1.16142
1.16061
1.15986
1.15918
1.15856
1.15799
1.15748
1.15701
1.1566
1.15624
1.15592
1.15565
1.15543
1.15524
1.1551
1.15499
1.15492
1.15488
1.15487
1.15488
1.15491
1.15495
1.15501
1.15506
1.15512
1.15518
1.15522
1.15526
1.15529
1.15531
1.20576
1.20586
1.20608
1.20639
1.20682