/*--------------------------------*- C++ -*----------------------------------*\
| =========                 |                                                 |
| \\      /  F ield         | OpenFOAM: The Open Source CFD Toolbox           |
|  \\    /   O peration     | Version:  2406                                  |
|   \\  /    A nd           | Website:  www.openfoam.com                      |
|    \\/     M anipulation  |                                                 |
\*---------------------------------------------------------------------------*/
FoamFile
{
    version     2.0;
    format      ascii;
    arch        "LSB;label=32;scalar=64";
    class       volScalarField;
    location    "5.55";
    object      D;
}
// * * * * * * * * * * * * * * * * * * * * * * * * * * * * * * * * * * * * * //

dimensions      [0 2 -1 0 0 0 0];

internalField   nonuniform List<scalar> 
14400
(
6.2464e-05
6.22838e-05
6.20205e-05
6.17572e-05
6.15365e-05
6.13748e-05
6.12768e-05
6.12448e-05
6.12829e-05
6.13995e-05
6.16093e-05
6.19349e-05
6.24045e-05
6.30323e-05
6.37237e-05
6.40172e-05
6.32613e-05
6.22802e-05
6.1445e-05
6.07913e-05
6.02816e-05
5.98777e-05
5.95522e-05
5.9287e-05
5.90718e-05
5.89016e-05
5.87757e-05
5.86982e-05
5.86778e-05
5.87311e-05
5.88879e-05
5.9207e-05
5.9824e-05
6.11497e-05
6.52217e-05
9.2456e-05
0.000138225
0.00013824
0.00013824
0.00013824
0.00013824
0.00013824
0.00013824
0.00013824
0.00013824
0.00013824
0.00013824
0.00013824
0.00013824
0.00013824
0.00013824
0.00013824
0.00013824
0.00013824
0.00013824
0.00013824
0.00013824
0.00013824
0.00013824
0.00013824
0.00013824
0.000134611
7.00537e-05
6.27991e-05
6.072e-05
5.98316e-05
5.93919e-05
5.91777e-05
5.90975e-05
5.91054e-05
5.91745e-05
5.92868e-05
5.94289e-05
5.95901e-05
5.97619e-05
5.99382e-05
6.01162e-05
6.02976e-05
6.049e-05
6.07095e-05
6.09842e-05
6.13632e-05
6.19379e-05
6.29119e-05
6.49024e-05
7.11789e-05
0.000124181
0.00013824
0.000135378
7.4724e-05
6.60729e-05
6.34297e-05
6.2231e-05
6.1582e-05
6.12081e-05
6.09959e-05
6.08886e-05
6.08533e-05
6.08681e-05
6.09152e-05
6.09774e-05
6.10357e-05
6.10702e-05
6.10646e-05
6.10128e-05
6.0923e-05
6.0813e-05
6.07026e-05
6.06095e-05
6.05497e-05
6.05388e-05
6.05961e-05
6.07494e-05
6.10465e-05
6.15794e-05
6.25625e-05
6.46578e-05
7.12759e-05
0.000128742
0.00013824
6.28159e-05
6.25251e-05
6.2154e-05
6.1816e-05
6.15492e-05
6.13605e-05
6.12482e-05
6.12108e-05
6.1251e-05
6.13777e-05
6.16092e-05
6.19774e-05
6.25355e-05
6.33659e-05
6.45419e-05
6.566e-05
6.40619e-05
6.26189e-05
6.15899e-05
6.08523e-05
6.03041e-05
5.98821e-05
5.95486e-05
5.92812e-05
5.90672e-05
5.89005e-05
5.87804e-05
5.87106e-05
5.87007e-05
5.87683e-05
5.89461e-05
5.92995e-05
5.99814e-05
6.1473e-05
6.63924e-05
0.000108536
0.00013824
0.00013824
0.00013824
0.00013824
0.00013824
0.00013824
0.00013824
0.00013824
0.00013824
0.00013824
0.00013824
0.00013824
0.00013824
0.00013824
0.00013824
0.00013824
0.00013824
0.00013824
0.00013824
0.00013824
0.00013824
0.00013824
0.00013824
0.00013824
0.00013824
0.000137909
7.79813e-05
6.38651e-05
6.10037e-05
5.99522e-05
5.94536e-05
5.92091e-05
5.91094e-05
5.91027e-05
5.91597e-05
5.92615e-05
5.93943e-05
5.95475e-05
5.97127e-05
5.98844e-05
6.00603e-05
6.02426e-05
6.04398e-05
6.06687e-05
6.09596e-05
6.13659e-05
6.19918e-05
6.30803e-05
6.53934e-05
7.27721e-05
0.000132824
0.00013824
0.000138134
8.76288e-05
6.75997e-05
6.38102e-05
6.23809e-05
6.16517e-05
6.12405e-05
6.10088e-05
6.08916e-05
6.08536e-05
6.08719e-05
6.09287e-05
6.1006e-05
6.10827e-05
6.11336e-05
6.11346e-05
6.10763e-05
6.0971e-05
6.0844e-05
6.07202e-05
6.06192e-05
6.05573e-05
6.05504e-05
6.06183e-05
6.07914e-05
6.1124e-05
6.17288e-05
6.28957e-05
6.56936e-05
7.67236e-05
0.000137221
0.00013824
6.3913e-05
6.31756e-05
6.24883e-05
6.19676e-05
6.15984e-05
6.1353e-05
6.12113e-05
6.1163e-05
6.12077e-05
6.13554e-05
6.16314e-05
6.20869e-05
6.28299e-05
6.41264e-05
6.68665e-05
7.51921e-05
6.65037e-05
6.34311e-05
6.19149e-05
6.09916e-05
6.03618e-05
5.99017e-05
5.9551e-05
5.9278e-05
5.90656e-05
5.89057e-05
5.87967e-05
5.87426e-05
5.87541e-05
5.88523e-05
5.90768e-05
5.95107e-05
6.03598e-05
6.23075e-05
6.89846e-05
0.00013113
0.00013824
0.00013824
0.00013824
0.00013824
0.00013824
0.00013824
0.00013824
0.00013824
0.00013824
0.00013824
0.00013824
0.00013824
0.00013824
0.00013824
0.00013824
0.00013824
0.00013824
0.00013824
0.00013824
0.00013824
0.00013824
0.00013824
0.00013824
0.00013824
0.00013824
0.000138238
0.00010313
6.608e-05
6.15723e-05
6.02048e-05
5.95876e-05
5.92805e-05
5.91406e-05
5.91043e-05
5.91375e-05
5.92189e-05
5.93339e-05
5.94718e-05
5.96249e-05
5.97884e-05
5.99609e-05
6.01459e-05
6.03531e-05
6.06015e-05
6.09253e-05
6.13882e-05
6.21249e-05
6.35031e-05
6.71138e-05
8.61438e-05
0.000138116
0.00013824
0.00013824
0.000118207
7.06097e-05
6.46304e-05
6.2722e-05
6.18202e-05
6.13285e-05
6.10546e-05
6.09165e-05
6.08729e-05
6.08995e-05
6.09786e-05
6.1092e-05
6.1215e-05
6.13102e-05
6.133e-05
6.12523e-05
6.1104e-05
6.09335e-05
6.07768e-05
6.06567e-05
6.05893e-05
6.059e-05
6.06801e-05
6.08954e-05
6.13056e-05
6.2069e-05
6.36701e-05
6.86755e-05
0.000108051
0.000138239
0.00013824
6.82381e-05
6.48146e-05
6.31971e-05
6.22887e-05
6.17336e-05
6.13932e-05
6.12041e-05
6.11389e-05
6.11915e-05
6.13743e-05
6.17249e-05
6.23294e-05
6.34002e-05
6.56229e-05
7.26683e-05
0.000129287
7.4064e-05
6.51373e-05
6.25188e-05
6.1252e-05
6.04822e-05
5.99577e-05
5.95772e-05
5.92931e-05
5.90812e-05
5.89303e-05
5.88376e-05
5.88078e-05
5.88541e-05
5.90039e-05
5.93126e-05
5.99063e-05
6.11709e-05
6.51679e-05
9.69288e-05
0.000138236
0.00013824
0.00013824
0.00013824
0.00013824
0.00013824
0.00013824
0.00013824
0.00013824
0.00013824
0.00013824
0.00013824
0.00013824
0.00013824
0.00013824
0.00013824
0.00013824
0.00013824
0.00013824
0.00013824
0.00013824
0.00013824
0.00013824
0.00013824
0.00013824
0.00013824
0.00013824
0.000130954
6.93171e-05
6.2596e-05
6.06598e-05
5.98265e-05
5.94111e-05
5.92053e-05
5.91227e-05
5.912e-05
5.91717e-05
5.92616e-05
5.93787e-05
5.95158e-05
5.9669e-05
5.98385e-05
6.00293e-05
6.02532e-05
6.05329e-05
6.09097e-05
6.14644e-05
6.23814e-05
6.42278e-05
6.99769e-05
0.000116865
0.00013824
0.00013824
0.00013824
0.000137982
8.22722e-05
6.6659e-05
6.34342e-05
6.21695e-05
6.15256e-05
6.11763e-05
6.10017e-05
6.09487e-05
6.09911e-05
6.11125e-05
6.12985e-05
6.15247e-05
6.17348e-05
6.18073e-05
6.16727e-05
6.14114e-05
6.11417e-05
6.09174e-05
6.07594e-05
6.06795e-05
6.0692e-05
6.08199e-05
6.111e-05
6.16651e-05
6.27409e-05
6.52234e-05
7.42855e-05
0.000136343
0.00013824
0.00013824
0.000105008
7.0073e-05
6.47641e-05
6.29475e-05
6.20467e-05
6.15485e-05
6.12848e-05
6.11944e-05
6.12609e-05
6.15024e-05
6.19824e-05
6.28668e-05
6.4675e-05
7.01071e-05
0.000110767
0.000138239
0.000118433
6.96725e-05
6.37115e-05
6.17333e-05
6.07183e-05
6.00871e-05
5.96564e-05
5.93513e-05
5.91365e-05
5.89958e-05
5.8925e-05
5.89301e-05
5.90298e-05
5.92642e-05
5.9721e-05
6.0618e-05
6.27047e-05
7.03171e-05
0.000135406
0.00013824
0.00013824
0.00013824
0.00013824
0.00013824
0.00013824
0.00013824
0.00013824
0.00013824
0.00013824
0.00013824
0.00013824
0.00013824
0.00013824
0.00013824
0.00013824
0.00013824
0.00013824
0.00013824
0.00013824
0.00013824
0.00013824
0.00013824
0.00013824
0.00013824
0.00013824
0.00013824
0.000138238
0.00010133
6.58708e-05
6.15757e-05
6.02472e-05
5.96388e-05
5.93287e-05
5.91784e-05
5.9126e-05
5.91385e-05
5.91967e-05
5.92887e-05
5.94075e-05
5.95504e-05
5.97191e-05
5.99208e-05
6.01711e-05
6.04989e-05
6.09588e-05
6.16657e-05
6.29129e-05
6.57955e-05
7.76143e-05
0.000137511
0.00013824
0.00013824
0.00013824
0.00013824
0.000131214
7.21016e-05
6.50233e-05
6.28974e-05
6.19439e-05
6.14545e-05
6.12144e-05
6.1145e-05
6.12166e-05
6.14174e-05
6.17515e-05
6.22258e-05
6.28055e-05
6.30817e-05
6.27246e-05
6.21006e-05
6.15894e-05
6.12248e-05
6.09927e-05
6.0887e-05
6.09176e-05
6.11107e-05
6.15381e-05
6.24002e-05
6.43183e-05
7.06235e-05
0.000124238
0.00013824
0.00013824
0.00013824
0.000138236
0.000102402
6.94807e-05
6.4446e-05
6.27396e-05
6.1943e-05
6.15488e-05
6.14169e-05
6.15091e-05
6.18582e-05
6.25954e-05
6.41325e-05
6.83174e-05
9.16571e-05
0.000138206
0.00013824
0.000138206
9.01968e-05
6.66528e-05
6.26792e-05
6.11762e-05
6.03555e-05
5.9836e-05
5.94914e-05
5.92661e-05
5.91358e-05
5.90945e-05
5.91513e-05
5.93364e-05
5.97191e-05
6.0483e-05
6.22073e-05
6.81002e-05
0.000123254
0.00013824
0.00013824
0.00013824
0.00013824
0.00013824
0.00013824
0.00013824
0.00013824
0.00013824
0.00013824
0.00013824
0.00013824
0.00013824
0.00013824
0.00013824
0.00013824
0.00013824
0.00013824
0.00013824
0.00013824
0.00013824
0.00013824
0.00013824
0.00013824
0.00013824
0.00013824
0.00013824
0.00013824
0.00013824
0.000137325
7.34009e-05
6.33675e-05
6.09933e-05
6.00347e-05
5.95548e-05
5.93036e-05
5.91824e-05
5.91439e-05
5.91631e-05
5.92262e-05
5.93257e-05
5.94597e-05
5.9632e-05
5.98533e-05
6.0145e-05
6.0548e-05
6.11452e-05
6.21327e-05
6.41268e-05
7.03954e-05
0.000123173
0.00013824
0.00013824
0.00013824
0.00013824
0.00013824
0.00013824
0.000120428
7.08051e-05
6.46801e-05
6.28595e-05
6.20608e-05
6.16849e-05
6.15794e-05
6.17109e-05
6.20749e-05
6.2751e-05
6.39566e-05
6.64502e-05
6.81835e-05
6.62457e-05
6.37905e-05
6.25604e-05
6.18726e-05
6.1484e-05
6.13212e-05
6.13862e-05
6.17085e-05
6.24212e-05
6.41159e-05
6.96464e-05
0.000110822
0.00013824
0.00013824
0.00013824
0.00013824
0.00013824
0.000138229
9.7788e-05
6.9306e-05
6.44324e-05
6.2876e-05
6.21925e-05
6.19793e-05
6.21241e-05
6.27088e-05
6.41256e-05
6.8097e-05
8.58278e-05
0.000138099
0.00013824
0.00013824
0.00013824
0.000137139
7.48874e-05
6.47807e-05
6.21134e-05
6.09013e-05
6.02039e-05
5.97807e-05
5.95289e-05
5.94086e-05
5.94104e-05
5.95511e-05
5.98911e-05
6.05729e-05
6.21592e-05
6.74611e-05
0.000110878
0.00013824
0.00013824
0.00013824
0.00013824
0.00013824
0.00013824
0.00013824
0.00013824
0.00013824
0.00013824
0.00013824
0.00013824
0.00013824
0.00013824
0.00013824
0.00013824
0.00013824
0.00013824
0.00013824
0.00013824
0.00013824
0.00013824
0.00013824
0.00013824
0.00013824
0.00013824
0.00013824
0.00013824
0.00013824
0.00013824
0.00013824
0.000129673
6.90083e-05
6.26158e-05
6.07812e-05
5.99714e-05
5.95542e-05
5.93305e-05
5.92219e-05
5.91915e-05
5.92206e-05
5.93e-05
5.94283e-05
5.96118e-05
5.98669e-05
6.02259e-05
6.07547e-05
6.16017e-05
6.32136e-05
6.77886e-05
9.87694e-05
0.000138234
0.00013824
0.00013824
0.00013824
0.00013824
0.00013824
0.00013824
0.00013824
0.00011815
7.10338e-05
6.52248e-05
6.34954e-05
6.27399e-05
6.25235e-05
6.28223e-05
6.36211e-05
6.54008e-05
6.996e-05
9.13709e-05
0.000115968
8.95169e-05
6.96335e-05
6.50541e-05
6.33732e-05
6.25584e-05
6.22322e-05
6.23934e-05
6.30687e-05
6.45467e-05
7.00113e-05
0.000109521
0.000138239
0.00013824
0.00013824
0.00013824
0.00013824
0.00013824
0.00013824
0.00013823
0.000104856
7.04737e-05
6.55e-05
6.38056e-05
6.3383e-05
6.36631e-05
6.49703e-05
6.95628e-05
9.3728e-05
0.000138115
0.00013824
0.00013824
0.00013824
0.00013824
0.00013824
0.000134793
7.21686e-05
6.45335e-05
6.21291e-05
6.09621e-05
6.03617e-05
6.00441e-05
5.99332e-05
6.00124e-05
6.03176e-05
6.10261e-05
6.24975e-05
6.7791e-05
0.000109143
0.00013824
0.00013824
0.00013824
0.00013824
0.00013824
0.00013824
0.00013824
0.00013824
0.00013824
0.00013824
0.00013824
0.00013824
0.00013824
0.00013824
0.00013824
0.00013824
0.00013824
0.00013824
0.00013824
0.00013824
0.00013824
0.00013824
0.00013824
0.00013824
0.00013824
0.00013824
0.00013824
0.00013824
0.00013824
0.00013824
0.00013824
0.00013824
0.00013824
0.000119352
6.82293e-05
6.24749e-05
6.07876e-05
6.00436e-05
5.96444e-05
5.94268e-05
5.93263e-05
5.93124e-05
5.93703e-05
5.94979e-05
5.97056e-05
6.00207e-05
6.04983e-05
6.12642e-05
6.26482e-05
6.60447e-05
8.24304e-05
0.000138068
0.00013824
0.00013824
0.00013824
0.00013824
0.00013824
0.00013824
0.00013824
0.00013824
0.00013824
0.000127625
7.49498e-05
6.84113e-05
6.56798e-05
6.4863e-05
6.60297e-05
6.89157e-05
7.74764e-05
0.00012479
0.000138216
0.00013824
0.000138205
0.000123027
7.5592e-05
6.84766e-05
6.55422e-05
6.44094e-05
6.50445e-05
6.76166e-05
7.23136e-05
0.000121547
0.00013824
0.00013824
0.00013824
0.00013824
0.00013824
0.00013824
0.00013824
0.00013824
0.00013824
0.000138238
0.000124096
7.8142e-05
6.95307e-05
6.82853e-05
6.91459e-05
7.4162e-05
0.000117241
0.000138222
0.00013824
0.00013824
0.00013824
0.00013824
0.00013824
0.00013824
0.00013824
0.000135082
7.5151e-05
6.6053e-05
6.27528e-05
6.16484e-05
6.11271e-05
6.10295e-05
6.1314e-05
6.20572e-05
6.43346e-05
6.92736e-05
0.000118746
0.00013824
0.00013824
0.00013824
0.00013824
0.00013824
0.00013824
0.00013824
0.00013824
0.00013824
0.00013824
0.00013824
0.00013824
0.00013824
0.00013824
0.00013824
0.00013824
0.00013824
0.00013824
0.00013824
0.00013824
0.00013824
0.00013824
0.00013824
0.00013824
0.00013824
0.00013824
0.00013824
0.00013824
0.00013824
0.00013824
0.00013824
0.00013824
0.00013824
0.00013824
0.00013824
0.000116342
6.83302e-05
6.26794e-05
6.10766e-05
6.0289e-05
5.98637e-05
5.96461e-05
5.95699e-05
5.96024e-05
5.97375e-05
5.99941e-05
6.04265e-05
6.11478e-05
6.2493e-05
6.55817e-05
7.71388e-05
0.000137552
0.00013824
0.00013824
0.00013824
0.00013824
0.00013824
0.00013824
0.00013824
0.00013824
0.00013824
0.00013824
0.00013824
0.000136984
0.000109787
7.99511e-05
7.31263e-05
8.33652e-05
0.000114695
0.000137648
0.00013824
0.00013824
0.00013824
0.00013824
0.00013824
0.000137283
0.000112305
8.04767e-05
7.17956e-05
7.6494e-05
0.000104652
0.000135076
0.00013824
0.00013824
0.00013824
0.00013824
0.00013824
0.00013824
0.00013824
0.00013824
0.00013824
0.00013824
0.00013824
0.00013824
0.000137747
0.000122043
0.000108805
0.000119163
0.000136715
0.00013824
0.00013824
0.00013824
0.00013824
0.00013824
0.00013824
0.00013824
0.00013824
0.00013824
0.00013824
0.000137468
9.49824e-05
6.89995e-05
6.57374e-05
6.40512e-05
6.40199e-05
6.54293e-05
6.8017e-05
8.58361e-05
0.000132446
0.00013824
0.00013824
0.00013824
0.00013824
0.00013824
0.00013824
0.00013824
0.00013824
0.00013824
0.00013824
0.00013824
0.00013824
0.00013824
0.00013824
0.00013824
0.00013824
0.00013824
0.00013824
0.00013824
0.00013824
0.00013824
0.00013824
0.00013824
0.00013824
0.00013824
0.00013824
0.00013824
0.00013824
0.00013824
0.00013824
0.00013824
0.00013824
0.00013824
0.00013824
0.00013824
0.00013824
0.00013824
0.000122615
6.94642e-05
6.40078e-05
6.17841e-05
6.07987e-05
6.03272e-05
6.01416e-05
6.01377e-05
6.02968e-05
6.06592e-05
6.13734e-05
6.27617e-05
6.65128e-05
8.03555e-05
0.000137502
0.00013824
0.00013824
0.00013824
0.00013824
0.00013824
0.00013824
0.00013824
0.00013824
0.00013824
0.00013824
0.00013824
0.00013824
0.00013824
0.000138239
0.000137873
0.000135751
0.00013807
0.00013824
0.00013824
0.00013824
0.00013824
0.00013824
0.00013824
0.00013824
0.00013824
0.00013824
0.000137939
0.000134406
0.000137455
0.000138238
0.00013824
0.00013824
0.00013824
0.00013824
0.00013824
0.00013824
0.00013824
0.00013824
0.00013824
0.00013824
0.00013824
0.00013824
0.00013824
0.00013824
0.00013824
0.000138239
0.00013824
0.00013824
0.00013824
0.00013824
0.00013824
0.00013824
0.00013824
0.00013824
0.00013824
0.00013824
0.00013824
0.00013824
0.00013824
0.000138232
0.00012587
9.56176e-05
7.77227e-05
7.85854e-05
9.5864e-05
0.000123868
0.000138197
0.00013824
0.00013824
0.00013824
0.00013824
0.00013824
0.00013824
0.00013824
0.00013824
0.00013824
0.00013824
0.00013824
0.00013824
0.00013824
0.00013824
0.00013824
0.00013824
0.00013824
0.00013824
0.00013824
0.00013824
0.00013824
0.00013824
0.00013824
0.00013824
0.00013824
0.00013824
0.00013824
0.00013824
0.00013824
0.00013824
0.00013824
0.00013824
0.00013824
0.00013824
0.00013824
0.00013824
0.00013824
0.00013824
0.00013824
0.00013307
8.09226e-05
6.69752e-05
6.3246e-05
6.19274e-05
6.14838e-05
6.14026e-05
6.16344e-05
6.2279e-05
6.40472e-05
6.85602e-05
9.58178e-05
0.000138016
0.00013824
0.00013824
0.00013824
0.00013824
0.00013824
0.00013824
0.00013824
0.00013824
0.00013824
0.00013824
0.00013824
0.00013824
0.00013824
0.00013824
0.00013824
0.00013824
0.00013824
0.00013824
0.00013824
0.00013824
0.00013824
0.00013824
0.00013824
0.00013824
0.00013824
0.00013824
0.00013824
0.00013824
0.00013824
0.00013824
0.00013824
0.00013824
0.00013824
0.00013824
0.00013824
0.00013824
0.00013824
0.00013824
0.00013824
0.00013824
0.00013824
0.00013824
0.00013824
0.00013824
0.00013824
0.00013824
0.00013824
0.00013824
0.00013824
0.00013824
0.00013824
0.00013824
0.00013824
0.00013824
0.00013824
0.00013824
0.00013824
0.00013824
0.00013824
0.00013824
0.00013824
0.00013824
0.000138232
0.000137856
0.000137941
0.000138233
0.00013824
0.00013824
0.00013824
0.00013824
0.00013824
0.00013824
0.00013824
0.00013824
0.00013824
0.00013824
0.00013824
0.00013824
0.00013824
0.00013824
0.00013824
0.00013824
0.00013824
0.00013824
0.00013824
0.00013824
0.00013824
0.00013824
0.00013824
0.00013824
0.00013824
0.00013824
0.00013824
0.00013824
0.00013824
0.00013824
0.00013824
0.00013824
0.00013824
0.00013824
0.00013824
0.00013824
0.00013824
0.00013824
0.00013824
0.00013824
0.00013824
0.00013824
0.000138113
0.000115618
7.41496e-05
6.7513e-05
6.60475e-05
6.55784e-05
6.62009e-05
6.79972e-05
7.76197e-05
0.000122336
0.000138233
0.00013824
0.00013824
0.00013824
0.00013824
0.00013824
0.00013824
0.00013824
0.00013824
0.00013824
0.00013824
0.00013824
0.00013824
0.00013824
0.00013824
0.00013824
0.00013824
0.00013824
0.00013824
0.00013824
0.00013824
0.00013824
0.00013824
0.00013824
0.00013824
0.00013824
0.00013824
0.00013824
0.00013824
0.00013824
0.00013824
0.00013824
0.00013824
0.00013824
0.00013824
0.00013824
0.00013824
0.00013824
0.00013824
0.00013824
0.00013824
0.00013824
0.00013824
0.00013824
0.00013824
0.00013824
0.00013824
0.00013824
0.00013824
0.00013824
0.00013824
0.00013824
0.00013824
0.00013824
0.00013824
0.00013824
0.00013824
0.00013824
0.00013824
0.00013824
0.00013824
0.00013824
0.00013824
0.00013824
0.00013824
0.00013824
0.00013824
0.00013824
0.00013824
0.00013824
0.00013824
0.00013824
0.00013824
0.00013824
0.00013824
0.00013824
0.00013824
0.00013824
0.00013824
0.00013824
0.00013824
0.00013824
0.00013824
0.00013824
0.00013824
0.00013824
0.00013824
0.00013824
0.00013824
0.00013824
0.00013824
0.00013824
0.00013824
0.00013824
0.00013824
0.00013824
0.00013824
0.00013824
0.00013824
0.00013824
0.00013824
0.00013824
0.00013824
0.00013824
0.00013824
0.00013824
0.00013824
0.00013824
0.00013824
0.00013824
0.00013824
0.00013824
0.000137534
0.000121547
0.000103171
9.57414e-05
0.000103147
0.000122721
0.000137908
0.00013824
0.00013824
0.00013824
0.00013824
0.00013824
0.00013824
0.00013824
0.00013824
0.00013824
0.00013824
0.00013824
0.00013824
0.00013824
0.00013824
0.00013824
0.00013824
0.00013824
0.00013824
0.00013824
0.00013824
0.00013824
0.00013824
0.00013824
0.00013824
0.00013824
0.00013824
0.00013824
0.00013824
0.00013824
0.00013824
0.00013824
0.00013824
0.00013824
0.00013824
0.00013824
0.00013824
0.00013824
0.00013824
0.00013824
0.00013824
0.00013824
0.00013824
0.00013824
0.00013824
0.00013824
0.00013824
0.00013824
0.00013824
0.00013824
0.00013824
0.00013824
0.00013824
0.00013824
0.00013824
0.00013824
0.00013824
0.00013824
0.00013824
0.00013824
0.00013824
0.00013824
0.00013824
0.00013824
0.00013824
0.00013824
0.00013824
0.00013824
0.00013824
0.00013824
0.00013824
0.00013824
0.00013824
0.00013824
0.00013824
0.00013824
0.00013824
0.00013824
0.00013824
0.00013824
0.00013824
0.00013824
0.00013824
0.00013824
0.00013824
0.00013824
0.00013824
0.00013824
0.00013824
0.00013824
0.00013824
0.00013824
0.00013824
0.00013824
0.00013824
0.00013824
0.00013824
0.00013824
0.00013824
0.00013824
0.00013824
0.00013824
0.00013824
0.00013824
0.00013824
0.00013824
0.00013824
0.00013824
0.00013824
0.00013824
0.00013824
0.00013824
0.00013824
0.00013824
0.00013824
0.00013824
0.000138239
0.000138232
0.000138238
0.00013824
0.00013824
0.00013824
0.00013824
0.00013824
0.00013824
0.00013824
0.00013824
0.00013824
0.00013824
0.00013824
0.00013824
0.00013824
0.00013824
0.00013824
0.00013824
0.00013824
0.00013824
0.00013824
0.00013824
0.00013824
0.00013824
0.00013824
0.00013824
0.00013824
0.00013824
0.00013824
0.00013824
0.00013824
0.00013824
0.00013824
0.00013824
0.00013824
0.00013824
0.00013824
0.00013824
0.00013824
0.00013824
0.00013824
0.00013824
0.00013824
0.00013824
0.00013824
0.00013824
0.00013824
0.00013824
0.00013824
0.00013824
0.00013824
0.00013824
0.00013824
0.00013824
0.00013824
0.00013824
0.00013824
0.00013824
0.00013824
0.00013824
0.00013824
0.00013824
0.00013824
0.00013824
0.00013824
0.00013824
0.00013824
0.00013824
0.00013824
0.00013824
0.00013824
0.00013824
0.00013824
0.00013824
0.00013824
0.00013824
0.00013824
0.00013824
0.00013824
0.00013824
0.00013824
0.00013824
0.00013824
0.00013824
0.00013824
0.00013824
0.00013824
0.00013824
0.00013824
0.00013824
0.00013824
0.00013824
0.00013824
0.00013824
0.00013824
0.00013824
0.00013824
0.00013824
0.00013824
0.00013824
0.00013824
0.00013824
0.00013824
0.00013824
0.00013824
0.00013824
0.00013824
0.00013824
0.00013824
0.00013824
0.00013824
0.00013824
0.00013824
0.00013824
0.00013824
0.00013824
0.00013824
0.00013824
0.00013824
0.00013824
0.00013824
0.00013824
0.00013824
0.00013824
0.00013824
0.00013824
0.00013824
0.00013824
0.00013824
0.00013824
0.00013824
0.00013824
0.00013824
0.00013824
0.00013824
0.00013824
0.00013824
0.00013824
0.00013824
0.00013824
0.00013824
0.00013824
0.00013824
0.00013824
0.00013824
0.00013824
0.00013824
0.00013824
0.00013824
0.00013824
0.00013824
0.00013824
0.00013824
0.00013824
0.00013824
0.00013824
0.00013824
0.00013824
0.00013824
0.00013824
0.00013824
0.00013824
0.00013824
0.00013824
0.00013824
0.00013824
0.00013824
0.00013824
0.00013824
0.00013824
0.00013824
0.00013824
0.00013824
0.00013824
0.00013824
0.00013824
0.00013824
0.00013824
0.00013824
0.00013824
0.00013824
0.00013824
0.00013824
0.00013824
0.00013824
0.00013824
0.00013824
0.00013824
0.00013824
0.00013824
0.00013824
0.00013824
0.00013824
0.00013824
0.00013824
0.00013824
0.00013824
0.00013824
0.00013824
0.00013824
0.00013824
0.00013824
0.00013824
0.00013824
0.00013824
0.00013824
0.00013824
0.00013824
0.00013824
0.00013824
0.00013824
0.00013824
0.00013824
0.00013824
0.00013824
0.00013824
0.00013824
0.00013824
0.00013824
0.00013824
0.00013824
0.00013824
0.00013824
0.00013824
0.00013824
0.00013824
0.00013824
0.00013824
0.00013824
0.00013824
0.00013824
0.00013824
0.00013824
0.00013824
0.00013824
0.00013824
0.00013824
0.00013824
0.00013824
0.00013824
0.00013824
0.00013824
0.00013824
0.00013824
0.00013824
0.00013824
0.00013824
0.00013824
0.00013824
0.00013824
0.00013824
0.00013824
0.00013824
0.00013824
0.00013824
0.00013824
0.00013824
0.00013824
0.00013824
0.00013824
0.00013824
0.00013824
0.00013824
0.00013824
0.00013824
0.00013824
0.00013824
0.00013824
0.00013824
0.00013824
0.00013824
0.00013824
0.00013824
0.00013824
0.00013824
0.00013824
0.00013824
0.00013824
0.00013824
0.00013824
0.00013824
0.00013824
0.00013824
0.00013824
0.00013824
0.00013824
0.00013824
0.00013824
0.00013824
0.00013824
0.00013824
0.00013824
0.00013824
0.00013824
0.00013824
0.00013824
0.00013824
0.00013824
0.00013824
0.00013824
0.00013824
0.00013824
0.00013824
0.00013824
0.00013824
0.00013824
0.00013824
0.00013824
0.00013824
0.00013824
0.00013824
0.00013824
0.00013824
0.00013824
0.00013824
0.00013824
0.00013824
0.00013824
0.00013824
0.00013824
0.00013824
0.00013824
0.00013824
0.00013824
0.00013824
0.00013824
0.00013824
0.00013824
0.00013824
0.00013824
0.00013824
0.00013824
0.00013824
0.00013824
0.00013824
0.00013824
0.00013824
0.00013824
0.00013824
0.00013824
0.00013824
0.00013824
0.00013824
0.00013824
0.00013824
0.00013824
0.00013824
0.00013824
0.00013824
0.00013824
0.00013824
0.00013824
0.00013824
0.00013824
0.00013824
0.00013824
0.00013824
0.00013824
0.00013824
0.00013824
0.00013824
0.00013824
0.00013824
0.00013824
0.00013824
0.00013824
0.00013824
0.00013824
0.00013824
0.00013824
0.00013824
0.00013824
0.00013824
0.00013824
0.00013824
0.00013824
0.00013824
0.00013824
0.00013824
0.00013824
0.00013824
0.00013824
0.00013824
0.00013824
0.00013824
0.00013824
0.00013824
0.00013824
0.00013824
0.00013824
0.00013824
0.00013824
0.00013824
0.00013824
0.00013824
0.00013824
0.00013824
0.00013824
0.00013824
0.00013824
0.00013824
0.00013824
0.00013824
0.00013824
0.00013824
0.00013824
0.00013824
0.00013824
0.00013824
0.00013824
0.00013824
0.00013824
0.00013824
0.00013824
0.00013824
0.00013824
0.00013824
0.00013824
0.00013824
0.00013824
0.00013824
0.00013824
0.00013824
0.00013824
0.00013824
0.00013824
0.00013824
0.00013824
0.00013824
0.00013824
0.00013824
0.00013824
0.00013824
0.00013824
0.00013824
0.00013824
0.00013824
0.00013824
0.00013824
0.00013824
0.00013824
0.00013824
0.00013824
0.00013824
0.00013824
0.00013824
0.00013824
0.00013824
0.00013824
0.00013824
0.00013824
0.00013824
0.00013824
0.00013824
0.00013824
0.00013824
0.00013824
0.00013824
0.00013824
0.00013824
0.00013824
0.00013824
0.00013824
0.00013824
0.00013824
0.00013824
0.00013824
0.00013824
0.00013824
0.00013824
0.00013824
0.00013824
0.00013824
0.00013824
0.00013824
0.00013824
0.00013824
0.00013824
0.00013824
0.00013824
0.00013824
0.00013824
0.00013824
0.00013824
0.00013824
0.00013824
0.00013824
0.00013824
0.00013824
0.00013824
0.00013824
0.00013824
0.00013824
0.00013824
0.00013824
0.00013824
0.00013824
0.00013824
0.00013824
0.00013824
0.00013824
0.00013824
0.00013824
0.00013824
0.00013824
0.00013824
0.00013824
0.00013824
0.00013824
0.00013824
0.00013824
0.00013824
0.00013824
0.00013824
0.00013824
0.00013824
0.00013824
0.00013824
0.00013824
0.00013824
0.00013824
0.00013824
0.00013824
0.00013824
0.00013824
0.00013824
0.00013824
0.00013824
0.00013824
0.00013824
0.00013824
0.00013824
0.00013824
0.00013824
0.00013824
0.00013824
0.00013824
0.00013824
0.00013824
0.00013824
0.00013824
0.00013824
0.00013824
0.00013824
0.00013824
0.00013824
0.00013824
0.00013824
0.00013824
0.00013824
0.00013824
0.00013824
0.00013824
0.00013824
0.00013824
0.00013824
0.00013824
0.00013824
0.00013824
0.00013824
0.00013824
0.00013824
0.00013824
0.00013824
0.00013824
0.00013824
0.00013824
0.00013824
0.00013824
0.00013824
0.00013824
0.00013824
0.00013824
0.00013824
0.00013824
0.00013824
0.00013824
0.00013824
0.00013824
0.00013824
0.00013824
0.00013824
0.00013824
0.00013824
0.00013824
0.00013824
0.00013824
0.00013824
0.00013824
0.00013824
0.00013824
0.00013824
0.00013824
0.00013824
0.00013824
0.00013824
0.00013824
0.00013824
0.00013824
0.00013824
0.00013824
0.00013824
0.00013824
0.00013824
0.00013824
0.00013824
0.00013824
0.00013824
0.00013824
0.00013824
0.00013824
0.00013824
0.00013824
0.00013824
0.00013824
0.00013824
0.00013824
0.00013824
0.00013824
0.00013824
0.00013824
0.00013824
0.00013824
0.00013824
0.00013824
0.00013824
0.00013824
0.00013824
0.00013824
0.00013824
0.00013824
0.00013824
0.00013824
0.00013824
0.00013824
0.00013824
0.00013824
0.00013824
0.00013824
0.00013824
0.00013824
0.00013824
0.00013824
0.00013824
0.00013824
0.00013824
0.00013824
0.00013824
0.00013824
0.00013824
0.00013824
0.00013824
0.00013824
0.00013824
0.00013824
0.00013824
0.00013824
0.00013824
0.00013824
0.00013824
0.00013824
0.00013824
0.00013824
0.00013824
0.00013824
0.00013824
0.00013824
0.00013824
0.00013824
0.00013824
0.00013824
0.00013824
0.00013824
0.00013824
0.00013824
0.00013824
0.00013824
0.00013824
0.00013824
0.00013824
0.00013824
0.00013824
0.00013824
0.00013824
0.00013824
0.00013824
0.00013824
0.00013824
0.00013824
0.00013824
0.00013824
0.00013824
0.00013824
0.00013824
0.00013824
0.00013824
0.00013824
0.00013824
0.00013824
0.00013824
0.00013824
0.00013824
0.00013824
0.00013824
0.00013824
0.00013824
0.00013824
0.00013824
0.00013824
0.00013824
0.00013824
0.00013824
0.00013824
0.00013824
0.00013824
0.00013824
0.00013824
0.00013824
0.00013824
0.00013824
0.00013824
0.00013824
0.00013824
0.00013824
0.00013824
0.00013824
0.00013824
0.00013824
0.00013824
0.00013824
0.00013824
0.00013824
0.00013824
0.00013824
0.00013824
0.00013824
0.00013824
0.00013824
0.00013824
0.00013824
0.00013824
0.00013824
0.00013824
0.00013824
0.00013824
0.00013824
0.00013824
0.00013824
0.00013824
0.00013824
0.00013824
0.00013824
0.00013824
0.00013824
0.00013824
0.00013824
0.00013824
0.00013824
0.00013824
0.00013824
0.00013824
0.00013824
0.00013824
0.00013824
0.00013824
0.00013824
0.00013824
0.00013824
0.00013824
0.00013824
0.00013824
0.00013824
0.00013824
0.00013824
0.00013824
0.00013824
0.00013824
0.00013824
0.00013824
0.00013824
0.00013824
0.00013824
0.00013824
0.00013824
0.00013824
0.00013824
0.00013824
0.00013824
0.00013824
0.00013824
0.00013824
0.00013824
0.00013824
0.00013824
0.00013824
0.00013824
0.00013824
0.00013824
0.00013824
0.00013824
0.00013824
0.00013824
0.00013824
0.00013824
0.00013824
0.00013824
0.00013824
0.00013824
0.00013824
0.00013824
0.00013824
0.00013824
0.00013824
0.00013824
0.00013824
0.00013824
0.00013824
0.00013824
0.00013824
0.00013824
0.00013824
0.00013824
0.00013824
0.00013824
0.00013824
0.00013824
0.00013824
0.00013824
0.00013824
0.00013824
0.00013824
0.00013824
0.00013824
0.00013824
0.00013824
0.00013824
0.00013824
0.00013824
0.00013824
0.00013824
0.00013824
0.00013824
0.00013824
0.00013824
0.00013824
0.00013824
0.00013824
0.00013824
0.00013824
0.00013824
0.00013824
0.00013824
0.00013824
0.00013824
0.00013824
0.00013824
0.00013824
0.00013824
0.00013824
0.00013824
0.00013824
0.00013824
0.00013824
0.00013824
0.00013824
0.00013824
0.00013824
0.00013824
0.00013824
0.00013824
0.00013824
0.00013824
0.00013824
0.00013824
0.00013824
0.00013824
0.00013824
0.00013824
0.00013824
0.00013824
0.00013824
0.00013824
0.00013824
0.00013824
0.00013824
0.00013824
0.00013824
0.00013824
0.00013824
0.00013824
0.00013824
0.00013824
0.00013824
0.00013824
0.00013824
0.00013824
0.00013824
0.00013824
0.00013824
0.00013824
0.00013824
0.00013824
0.00013824
0.00013824
0.00013824
0.00013824
0.00013824
0.00013824
0.00013824
0.00013824
0.00013824
0.00013824
0.00013824
0.00013824
0.00013824
0.00013824
0.00013824
0.00013824
0.00013824
0.00013824
0.00013824
0.00013824
0.00013824
0.00013824
0.00013824
0.00013824
0.00013824
0.00013824
0.00013824
0.00013824
0.00013824
0.00013824
0.00013824
0.00013824
0.00013824
0.00013824
0.00013824
0.00013824
0.00013824
0.00013824
0.00013824
0.00013824
0.00013824
0.00013824
0.00013824
0.00013824
0.00013824