/*--------------------------------*- C++ -*----------------------------------*\
| =========                 |                                                 |
| \\      /  F ield         | OpenFOAM: The Open Source CFD Toolbox           |
|  \\    /   O peration     | Version:  2406                                  |
|   \\  /    A nd           | Website:  www.openfoam.com                      |
|    \\/     M anipulation  |                                                 |
\*---------------------------------------------------------------------------*/
FoamFile
{
    version     2.0;
    format      ascii;
    arch        "LSB;label=32;scalar=64";
    class       volScalarField;
    location    "3.85";
    object      D;
}
// * * * * * * * * * * * * * * * * * * * * * * * * * * * * * * * * * * * * * //

dimensions      [0 2 -1 0 0 0 0];

internalField   nonuniform List<scalar> 
14400
(
7.29333e-05
6.37009e-05
6.10027e-05
5.98085e-05
5.91575e-05
5.87783e-05
5.85689e-05
5.84873e-05
5.85201e-05
5.86751e-05
5.89857e-05
5.95335e-05
6.05258e-05
6.2634e-05
6.9331e-05
0.000131409
0.000105143
6.60121e-05
6.10356e-05
5.93878e-05
5.85525e-05
5.80501e-05
5.77282e-05
5.7524e-05
5.74086e-05
5.73705e-05
5.74103e-05
5.75411e-05
5.77951e-05
5.82441e-05
5.90657e-05
6.08376e-05
6.67264e-05
0.000128336
0.00013824
0.00013824
0.00013824
0.00013824
0.00013824
0.00013824
0.00013824
0.00013824
0.00013824
0.00013824
0.00013824
0.00013824
0.00013824
0.00013824
0.00013824
0.00013824
0.00013824
0.00013824
0.00013824
0.00013824
0.00013824
0.00013824
0.00013824
0.00013824
0.00013824
0.00013824
0.00013824
0.00013824
0.00013824
0.000138235
9.5236e-05
6.41551e-05
5.998e-05
5.86343e-05
5.79799e-05
5.76052e-05
5.73784e-05
5.72432e-05
5.71715e-05
5.71485e-05
5.71666e-05
5.72233e-05
5.73203e-05
5.74644e-05
5.76697e-05
5.79626e-05
5.8395e-05
5.9081e-05
6.03326e-05
6.3401e-05
7.69445e-05
0.000137838
0.00013824
0.00013824
0.00013824
0.000138117
8.30428e-05
6.46394e-05
6.11199e-05
5.98169e-05
5.91636e-05
5.88052e-05
5.862e-05
5.85565e-05
5.85908e-05
5.87104e-05
5.89046e-05
5.91503e-05
5.93875e-05
5.94979e-05
5.93759e-05
5.91278e-05
5.88727e-05
5.86702e-05
5.85426e-05
5.84999e-05
5.85541e-05
5.87282e-05
5.90724e-05
5.97049e-05
6.09683e-05
6.43531e-05
8.15519e-05
0.000138079
0.00013824
0.00013824
9.37872e-05
6.56393e-05
6.14865e-05
6.00356e-05
5.92991e-05
5.88817e-05
5.86549e-05
5.85682e-05
5.8606e-05
5.87778e-05
5.91251e-05
5.97543e-05
6.09752e-05
6.41388e-05
8.0494e-05
0.000138061
0.000123798
6.76587e-05
6.15542e-05
5.96307e-05
5.86965e-05
5.81493e-05
5.78049e-05
5.75896e-05
5.74704e-05
5.74343e-05
5.74821e-05
5.76292e-05
5.79144e-05
5.84307e-05
5.94348e-05
6.19605e-05
7.35601e-05
0.000137749
0.00013824
0.00013824
0.00013824
0.00013824
0.00013824
0.00013824
0.00013824
0.00013824
0.00013824
0.00013824
0.00013824
0.00013824
0.00013824
0.00013824
0.00013824
0.00013824
0.00013824
0.00013824
0.00013824
0.00013824
0.00013824
0.00013824
0.00013824
0.00013824
0.00013824
0.00013824
0.00013824
0.00013824
0.00013824
0.00013824
0.000113717
6.54144e-05
6.03447e-05
5.88187e-05
5.80938e-05
5.76834e-05
5.74361e-05
5.72883e-05
5.72087e-05
5.7181e-05
5.71968e-05
5.72535e-05
5.73529e-05
5.75024e-05
5.77172e-05
5.80267e-05
5.84896e-05
5.92414e-05
6.06899e-05
6.48769e-05
9.39616e-05
0.00013823
0.00013824
0.00013824
0.00013824
0.00013824
0.000108285
6.65931e-05
6.16308e-05
6.00703e-05
5.93272e-05
5.89283e-05
5.87252e-05
5.86589e-05
5.87042e-05
5.88526e-05
5.91024e-05
5.94475e-05
5.98363e-05
6.0074e-05
5.98244e-05
5.94243e-05
5.90702e-05
5.88124e-05
5.86564e-05
5.86029e-05
5.86602e-05
5.88523e-05
5.9237e-05
5.99588e-05
6.14791e-05
6.63235e-05
0.00010694
0.000138239
0.00013824
0.00013824
0.000127131
6.92406e-05
6.26065e-05
6.05728e-05
5.96267e-05
5.91163e-05
5.88481e-05
5.87491e-05
5.87981e-05
5.90089e-05
5.94422e-05
6.02655e-05
6.20477e-05
6.78832e-05
0.000119405
0.00013824
0.000138073
7.93533e-05
6.33352e-05
6.02524e-05
5.90326e-05
5.83724e-05
5.79743e-05
5.77332e-05
5.76051e-05
5.75731e-05
5.76385e-05
5.78218e-05
5.81773e-05
5.88501e-05
6.0325e-05
6.53077e-05
0.000112785
0.00013824
0.00013824
0.00013824
0.00013824
0.00013824
0.00013824
0.00013824
0.00013824
0.00013824
0.00013824
0.00013824
0.00013824
0.00013824
0.00013824
0.00013824
0.00013824
0.00013824
0.00013824
0.00013824
0.00013824
0.00013824
0.00013824
0.00013824
0.00013824
0.00013824
0.00013824
0.00013824
0.00013824
0.00013824
0.00013824
0.00013824
0.000135522
6.87831e-05
6.13535e-05
5.92737e-05
5.83548e-05
5.78564e-05
5.7562e-05
5.73863e-05
5.72896e-05
5.72516e-05
5.72627e-05
5.73196e-05
5.74244e-05
5.75857e-05
5.78216e-05
5.8168e-05
5.87e-05
5.96015e-05
6.14756e-05
6.75292e-05
0.000122789
0.00013824
0.00013824
0.00013824
0.00013824
0.00013824
0.000135819
7.10571e-05
6.29624e-05
6.06991e-05
5.97126e-05
5.92094e-05
5.89613e-05
5.88864e-05
5.89563e-05
5.91717e-05
5.95599e-05
6.01924e-05
6.11717e-05
6.22484e-05
6.11592e-05
6.01679e-05
5.95271e-05
5.91319e-05
5.89093e-05
5.88317e-05
5.88977e-05
5.9135e-05
5.96233e-05
6.05853e-05
6.27881e-05
7.05818e-05
0.000135391
0.00013824
0.00013824
0.00013824
0.000138238
0.000101186
6.64531e-05
6.18136e-05
6.02806e-05
5.95559e-05
5.92013e-05
5.90773e-05
5.91481e-05
5.9437e-05
6.00563e-05
6.13548e-05
6.50924e-05
8.91612e-05
0.000138216
0.00013824
0.00013824
0.000126417
6.79653e-05
6.16188e-05
5.96938e-05
5.87839e-05
5.82755e-05
5.79841e-05
5.78388e-05
5.7814e-05
5.79123e-05
5.81649e-05
5.86573e-05
5.96608e-05
6.24066e-05
7.7615e-05
0.000138078
0.00013824
0.00013824
0.00013824
0.00013824
0.00013824
0.00013824
0.00013824
0.00013824
0.00013824
0.00013824
0.00013824
0.00013824
0.00013824
0.00013824
0.00013824
0.00013824
0.00013824
0.00013824
0.00013824
0.00013824
0.00013824
0.00013824
0.00013824
0.00013824
0.00013824
0.00013824
0.00013824
0.00013824
0.00013824
0.00013824
0.00013824
0.00013824
0.000110877
6.51517e-05
6.03092e-05
5.88484e-05
5.81628e-05
5.77796e-05
5.75539e-05
5.7427e-05
5.73716e-05
5.73748e-05
5.74325e-05
5.75471e-05
5.77296e-05
5.80036e-05
5.84189e-05
5.90879e-05
6.03333e-05
6.36744e-05
8.39247e-05
0.000138183
0.00013824
0.00013824
0.00013824
0.00013824
0.00013824
0.00013824
0.000121962
6.81713e-05
6.22572e-05
6.05042e-05
5.97458e-05
5.93952e-05
5.92988e-05
5.94147e-05
5.97674e-05
6.04624e-05
6.19365e-05
6.59153e-05
7.5563e-05
6.59025e-05
6.19107e-05
6.04294e-05
5.97285e-05
5.93692e-05
5.92459e-05
5.93336e-05
5.96732e-05
6.0416e-05
6.21397e-05
6.79652e-05
0.000121016
0.00013824
0.00013824
0.00013824
0.00013824
0.00013824
0.000138164
8.41566e-05
6.52806e-05
6.16845e-05
6.03877e-05
5.98433e-05
5.96648e-05
5.97825e-05
6.02416e-05
6.13375e-05
6.40721e-05
7.54964e-05
0.000137707
0.00013824
0.00013824
0.00013824
0.00013824
0.000106133
6.6174e-05
6.11642e-05
5.9555e-05
5.87995e-05
5.8407e-05
5.82286e-05
5.82172e-05
5.83796e-05
5.87787e-05
5.95706e-05
6.14116e-05
6.8203e-05
0.000134489
0.00013824
0.00013824
0.00013824
0.00013824
0.00013824
0.00013824
0.00013824
0.00013824
0.00013824
0.00013824
0.00013824
0.00013824
0.00013824
0.00013824
0.00013824
0.00013824
0.00013824
0.00013824
0.00013824
0.00013824
0.00013824
0.00013824
0.00013824
0.00013824
0.00013824
0.00013824
0.00013824
0.00013824
0.00013824
0.00013824
0.00013824
0.00013824
0.00013824
0.000138156
8.04928e-05
6.27368e-05
5.97599e-05
5.86864e-05
5.81389e-05
5.78247e-05
5.76467e-05
5.75623e-05
5.75529e-05
5.76126e-05
5.77449e-05
5.79644e-05
5.83065e-05
5.88514e-05
5.98009e-05
6.18221e-05
6.86403e-05
0.000132003
0.00013824
0.00013824
0.00013824
0.00013824
0.00013824
0.00013824
0.00013824
0.00013824
0.000108863
6.75595e-05
6.23141e-05
6.0814e-05
6.01995e-05
6.00471e-05
6.02592e-05
6.09487e-05
6.24623e-05
6.77889e-05
0.000108687
0.000137986
0.000108873
6.77715e-05
6.24318e-05
6.09132e-05
6.02164e-05
5.99965e-05
6.01398e-05
6.07427e-05
6.22235e-05
6.74083e-05
0.000108031
0.00013824
0.00013824
0.00013824
0.00013824
0.00013824
0.00013824
0.00013824
0.000138083
8.33783e-05
6.60439e-05
6.22357e-05
6.11669e-05
6.0827e-05
6.10852e-05
6.20243e-05
6.51972e-05
7.6125e-05
0.000137319
0.00013824
0.00013824
0.00013824
0.00013824
0.00013824
0.000138235
9.62358e-05
6.58374e-05
6.12426e-05
5.97856e-05
5.91595e-05
5.89114e-05
5.8928e-05
5.92361e-05
6.0054e-05
6.18126e-05
6.78177e-05
0.000130162
0.00013824
0.00013824
0.00013824
0.00013824
0.00013824
0.00013824
0.00013824
0.00013824
0.00013824
0.00013824
0.00013824
0.00013824
0.00013824
0.00013824
0.00013824
0.00013824
0.00013824
0.00013824
0.00013824
0.00013824
0.00013824
0.00013824
0.00013824
0.00013824
0.00013824
0.00013824
0.00013824
0.00013824
0.00013824
0.00013824
0.00013824
0.00013824
0.00013824
0.00013824
0.00013824
0.000136491
6.95315e-05
6.17059e-05
5.96623e-05
5.8762e-05
5.82718e-05
5.80002e-05
5.78643e-05
5.78335e-05
5.78983e-05
5.80637e-05
5.83519e-05
5.88251e-05
5.96525e-05
6.13988e-05
6.70829e-05
0.000118296
0.00013824
0.00013824
0.00013824
0.00013824
0.00013824
0.00013824
0.00013824
0.00013824
0.00013824
0.00013824
0.00011117
6.85558e-05
6.3579e-05
6.19393e-05
6.16128e-05
6.2092e-05
6.42061e-05
6.92848e-05
0.000119789
0.00013824
0.00013824
0.00013824
0.000120062
6.92727e-05
6.41919e-05
6.20549e-05
6.15656e-05
6.18812e-05
6.35063e-05
6.84474e-05
0.000110664
0.000138239
0.00013824
0.00013824
0.00013824
0.00013824
0.00013824
0.00013824
0.00013824
0.00013824
0.000138154
9.92113e-05
6.85119e-05
6.51703e-05
6.38529e-05
6.49586e-05
6.80468e-05
9.25661e-05
0.000137813
0.00013824
0.00013824
0.00013824
0.00013824
0.00013824
0.00013824
0.00013824
0.000138235
0.000101838
6.6964e-05
6.21373e-05
6.07556e-05
6.03195e-05
6.04103e-05
6.11345e-05
6.40986e-05
7.13413e-05
0.000132709
0.00013824
0.00013824
0.00013824
0.00013824
0.00013824
0.00013824
0.00013824
0.00013824
0.00013824
0.00013824
0.00013824
0.00013824
0.00013824
0.00013824
0.00013824
0.00013824
0.00013824
0.00013824
0.00013824
0.00013824
0.00013824
0.00013824
0.00013824
0.00013824
0.00013824
0.00013824
0.00013824
0.00013824
0.00013824
0.00013824
0.00013824
0.00013824
0.00013824
0.00013824
0.00013824
0.00013824
0.00013824
0.000134208
6.87437e-05
6.21074e-05
6.00398e-05
5.90787e-05
5.86058e-05
5.83628e-05
5.82902e-05
5.83673e-05
5.86041e-05
5.90384e-05
5.98075e-05
6.14259e-05
6.67503e-05
0.000109781
0.00013824
0.00013824
0.00013824
0.00013824
0.00013824
0.00013824
0.00013824
0.00013824
0.00013824
0.00013824
0.00013824
0.00013824
0.000126716
7.72281e-05
6.76793e-05
6.65774e-05
6.8138e-05
8.39242e-05
0.000131915
0.00013824
0.00013824
0.00013824
0.00013824
0.00013824
0.000132076
8.42319e-05
6.81174e-05
6.65412e-05
6.76246e-05
7.71464e-05
0.000126549
0.00013824
0.00013824
0.00013824
0.00013824
0.00013824
0.00013824
0.00013824
0.00013824
0.00013824
0.00013824
0.00013824
0.000138237
0.000126038
9.36901e-05
7.77364e-05
9.13048e-05
0.000123236
0.000138229
0.00013824
0.00013824
0.00013824
0.00013824
0.00013824
0.00013824
0.00013824
0.00013824
0.00013824
0.000138239
0.000121773
7.17806e-05
6.60566e-05
6.47425e-05
6.52303e-05
6.76017e-05
9.82694e-05
0.00013737
0.00013824
0.00013824
0.00013824
0.00013824
0.00013824
0.00013824
0.00013824
0.00013824
0.00013824
0.00013824
0.00013824
0.00013824
0.00013824
0.00013824
0.00013824
0.00013824
0.00013824
0.00013824
0.00013824
0.00013824
0.00013824
0.00013824
0.00013824
0.00013824
0.00013824
0.00013824
0.00013824
0.00013824
0.00013824
0.00013824
0.00013824
0.00013824
0.00013824
0.00013824
0.00013824
0.00013824
0.00013824
0.00013824
0.00013824
0.000135391
7.35559e-05
6.40201e-05
6.08568e-05
5.98218e-05
5.92736e-05
5.90977e-05
5.92081e-05
5.96447e-05
6.04961e-05
6.22202e-05
6.75579e-05
0.000113571
0.00013824
0.00013824
0.00013824
0.00013824
0.00013824
0.00013824
0.00013824
0.00013824
0.00013824
0.00013824
0.00013824
0.00013824
0.00013824
0.00013824
0.00013793
0.000121747
0.000108514
0.000124709
0.000138172
0.00013824
0.00013824
0.00013824
0.00013824
0.00013824
0.00013824
0.00013824
0.000138178
0.000124918
0.000108735
0.000121847
0.000137931
0.00013824
0.00013824
0.00013824
0.00013824
0.00013824
0.00013824
0.00013824
0.00013824
0.00013824
0.00013824
0.00013824
0.00013824
0.00013824
0.00013824
0.000138229
0.000137896
0.000138222
0.00013824
0.00013824
0.00013824
0.00013824
0.00013824
0.00013824
0.00013824
0.00013824
0.00013824
0.00013824
0.00013824
0.00013824
0.00013824
0.000137281
0.000116904
9.95995e-05
0.000108574
0.000130873
0.000138238
0.00013824
0.00013824
0.00013824
0.00013824
0.00013824
0.00013824
0.00013824
0.00013824
0.00013824
0.00013824
0.00013824
0.00013824
0.00013824
0.00013824
0.00013824
0.00013824
0.00013824
0.00013824
0.00013824
0.00013824
0.00013824
0.00013824
0.00013824
0.00013824
0.00013824
0.00013824
0.00013824
0.00013824
0.00013824
0.00013824
0.00013824
0.00013824
0.00013824
0.00013824
0.00013824
0.00013824
0.00013824
0.00013824
0.00013824
0.00013824
0.00013824
0.000137795
9.60733e-05
6.69805e-05
6.35217e-05
6.13526e-05
6.08203e-05
6.10367e-05
6.23783e-05
6.53877e-05
7.28254e-05
0.000127518
0.00013824
0.00013824
0.00013824
0.00013824
0.00013824
0.00013824
0.00013824
0.00013824
0.00013824
0.00013824
0.00013824
0.00013824
0.00013824
0.00013824
0.00013824
0.00013824
0.00013824
0.00013824
0.00013824
0.00013824
0.00013824
0.00013824
0.00013824
0.00013824
0.00013824
0.00013824
0.00013824
0.00013824
0.00013824
0.00013824
0.00013824
0.00013824
0.00013824
0.00013824
0.00013824
0.00013824
0.00013824
0.00013824
0.00013824
0.00013824
0.00013824
0.00013824
0.00013824
0.00013824
0.00013824
0.00013824
0.00013824
0.00013824
0.00013824
0.00013824
0.00013824
0.00013824
0.00013824
0.00013824
0.00013824
0.00013824
0.00013824
0.00013824
0.00013824
0.00013824
0.00013824
0.00013824
0.00013824
0.00013824
0.000138238
0.00013824
0.00013824
0.00013824
0.00013824
0.00013824
0.00013824
0.00013824
0.00013824
0.00013824
0.00013824
0.00013824
0.00013824
0.00013824
0.00013824
0.00013824
0.00013824
0.00013824
0.00013824
0.00013824
0.00013824
0.00013824
0.00013824
0.00013824
0.00013824
0.00013824
0.00013824
0.00013824
0.00013824
0.00013824
0.00013824
0.00013824
0.00013824
0.00013824
0.00013824
0.00013824
0.00013824
0.00013824
0.00013824
0.00013824
0.00013824
0.00013824
0.00013824
0.00013824
0.00013824
0.00013824
0.000138237
0.000126487
9.15474e-05
6.89136e-05
6.66377e-05
6.72034e-05
7.63286e-05
0.000111529
0.000137577
0.00013824
0.00013824
0.00013824
0.00013824
0.00013824
0.00013824
0.00013824
0.00013824
0.00013824
0.00013824
0.00013824
0.00013824
0.00013824
0.00013824
0.00013824
0.00013824
0.00013824
0.00013824
0.00013824
0.00013824
0.00013824
0.00013824
0.00013824
0.00013824
0.00013824
0.00013824
0.00013824
0.00013824
0.00013824
0.00013824
0.00013824
0.00013824
0.00013824
0.00013824
0.00013824
0.00013824
0.00013824
0.00013824
0.00013824
0.00013824
0.00013824
0.00013824
0.00013824
0.00013824
0.00013824
0.00013824
0.00013824
0.00013824
0.00013824
0.00013824
0.00013824
0.00013824
0.00013824
0.00013824
0.00013824
0.00013824
0.00013824
0.00013824
0.00013824
0.00013824
0.00013824
0.00013824
0.00013824
0.00013824
0.00013824
0.00013824
0.00013824
0.00013824
0.00013824
0.00013824
0.00013824
0.00013824
0.00013824
0.00013824
0.00013824
0.00013824
0.00013824
0.00013824
0.00013824
0.00013824
0.00013824
0.00013824
0.00013824
0.00013824
0.00013824
0.00013824
0.00013824
0.00013824
0.00013824
0.00013824
0.00013824
0.00013824
0.00013824
0.00013824
0.00013824
0.00013824
0.00013824
0.00013824
0.00013824
0.00013824
0.00013824
0.00013824
0.00013824
0.00013824
0.00013824
0.00013824
0.00013824
0.00013824
0.00013824
0.00013824
0.00013824
0.00013824
0.00013824
0.000138231
0.000135906
0.000128501
0.000131359
0.000137975
0.00013824
0.00013824
0.00013824
0.00013824
0.00013824
0.00013824
0.00013824
0.00013824
0.00013824
0.00013824
0.00013824
0.00013824
0.00013824
0.00013824
0.00013824
0.00013824
0.00013824
0.00013824
0.00013824
0.00013824
0.00013824
0.00013824
0.00013824
0.00013824
0.00013824
0.00013824
0.00013824
0.00013824
0.00013824
0.00013824
0.00013824
0.00013824
0.00013824
0.00013824
0.00013824
0.00013824
0.00013824
0.00013824
0.00013824
0.00013824
0.00013824
0.00013824
0.00013824
0.00013824
0.00013824
0.00013824
0.00013824
0.00013824
0.00013824
0.00013824
0.00013824
0.00013824
0.00013824
0.00013824
0.00013824
0.00013824
0.00013824
0.00013824
0.00013824
0.00013824
0.00013824
0.00013824
0.00013824
0.00013824
0.00013824
0.00013824
0.00013824
0.00013824
0.00013824
0.00013824
0.00013824
0.00013824
0.00013824
0.00013824
0.00013824
0.00013824
0.00013824
0.00013824
0.00013824
0.00013824
0.00013824
0.00013824
0.00013824
0.00013824
0.00013824
0.00013824
0.00013824
0.00013824
0.00013824
0.00013824
0.00013824
0.00013824
0.00013824
0.00013824
0.00013824
0.00013824
0.00013824
0.00013824
0.00013824
0.00013824
0.00013824
0.00013824
0.00013824
0.00013824
0.00013824
0.00013824
0.00013824
0.00013824
0.00013824
0.00013824
0.00013824
0.00013824
0.00013824
0.00013824
0.00013824
0.00013824
0.00013824
0.00013824
0.00013824
0.00013824
0.00013824
0.00013824
0.00013824
0.00013824
0.00013824
0.00013824
0.00013824
0.00013824
0.00013824
0.00013824
0.00013824
0.00013824
0.00013824
0.00013824
0.00013824
0.00013824
0.00013824
0.00013824
0.00013824
0.00013824
0.00013824
0.00013824
0.00013824
0.00013824
0.00013824
0.00013824
0.00013824
0.00013824
0.00013824
0.00013824
0.00013824
0.00013824
0.00013824
0.00013824
0.00013824
0.00013824
0.00013824
0.00013824
0.00013824
0.00013824
0.00013824
0.00013824
0.00013824
0.00013824
0.00013824
0.00013824
0.00013824
0.00013824
0.00013824
0.00013824
0.00013824
0.00013824
0.00013824
0.00013824
0.00013824
0.00013824
0.00013824
0.00013824
0.00013824
0.00013824
0.00013824
0.00013824
0.00013824
0.00013824
0.00013824
0.00013824
0.00013824
0.00013824
0.00013824
0.00013824
0.00013824
0.00013824
0.00013824
0.00013824
0.00013824
0.00013824
0.00013824
0.00013824
0.00013824
0.00013824
0.00013824
0.00013824
0.00013824
0.00013824
0.00013824
0.00013824
0.00013824
0.00013824
0.00013824
0.00013824
0.00013824
0.00013824
0.00013824
0.00013824
0.00013824
0.00013824
0.00013824
0.00013824
0.00013824
0.00013824
0.00013824
0.00013824
0.00013824
0.00013824
0.00013824
0.00013824
0.00013824
0.00013824
0.00013824
0.00013824
0.00013824
0.00013824
0.00013824
0.00013824
0.00013824
0.00013824
0.00013824
0.00013824
0.00013824
0.00013824
0.00013824
0.00013824
0.00013824
0.00013824
0.00013824
0.00013824
0.00013824
0.00013824
0.00013824
0.00013824
0.00013824
0.00013824
0.00013824
0.00013824
0.00013824
0.00013824
0.00013824
0.00013824
0.00013824
0.00013824
0.00013824
0.00013824
0.00013824
0.00013824
0.00013824
0.00013824
0.00013824
0.00013824
0.00013824
0.00013824
0.00013824
0.00013824
0.00013824
0.00013824
0.00013824
0.00013824
0.00013824
0.00013824
0.00013824
0.00013824
0.00013824
0.00013824
0.00013824
0.00013824
0.00013824
0.00013824
0.00013824
0.00013824
0.00013824
0.00013824
0.00013824
0.00013824
0.00013824
0.00013824
0.00013824
0.00013824
0.00013824
0.00013824
0.00013824
0.00013824
0.00013824
0.00013824
0.00013824
0.00013824
0.00013824
0.00013824
0.00013824
0.00013824
0.00013824
0.00013824
0.00013824
0.00013824
0.00013824
0.00013824
0.00013824
0.00013824
0.00013824
0.00013824
0.00013824
0.00013824
0.00013824
0.00013824
0.00013824
0.00013824
0.00013824
0.00013824
0.00013824
0.00013824
0.00013824
0.00013824
0.00013824
0.00013824
0.00013824
0.00013824
0.00013824
0.00013824
0.00013824
0.00013824
0.00013824
0.00013824
0.00013824
0.00013824
0.00013824
0.00013824
0.00013824
0.00013824
0.00013824
0.00013824
0.00013824
0.00013824
0.00013824
0.00013824
0.00013824
0.00013824
0.00013824
0.00013824
0.00013824
0.00013824
0.00013824
0.00013824
0.00013824
0.00013824
0.00013824
0.00013824
0.00013824
0.00013824
0.00013824
0.00013824
0.00013824
0.00013824
0.00013824
0.00013824
0.00013824
0.00013824
0.00013824
0.00013824
0.00013824
0.00013824
0.00013824
0.00013824
0.00013824
0.00013824
0.00013824
0.00013824
0.00013824
0.00013824
0.00013824
0.00013824
0.00013824
0.00013824
0.00013824
0.00013824
0.00013824
0.00013824
0.00013824
0.00013824
0.00013824
0.00013824
0.00013824
0.00013824
0.00013824
0.00013824
0.00013824
0.00013824
0.00013824
0.00013824
0.00013824
0.00013824
0.00013824
0.00013824
0.00013824
0.00013824
0.00013824
0.00013824
0.00013824
0.00013824
0.00013824
0.00013824
0.00013824
0.00013824
0.00013824
0.00013824
0.00013824
0.00013824
0.00013824
0.00013824
0.00013824
0.00013824
0.00013824
0.00013824
0.00013824
0.00013824
0.00013824
0.00013824
0.00013824
0.00013824
0.00013824
0.00013824
0.00013824
0.00013824
0.00013824
0.00013824
0.00013824
0.00013824
0.00013824
0.00013824
0.00013824
0.00013824
0.00013824
0.00013824
0.00013824
0.00013824
0.00013824
0.00013824
0.00013824
0.00013824
0.00013824
0.00013824
0.00013824
0.00013824
0.00013824
0.00013824
0.00013824
0.00013824
0.00013824
0.00013824
0.00013824
0.00013824
0.00013824
0.00013824
0.00013824
0.00013824
0.00013824
0.00013824
0.00013824
0.00013824
0.00013824
0.00013824
0.00013824
0.00013824
0.00013824
0.00013824
0.00013824
0.00013824
0.00013824
0.00013824
0.00013824
0.00013824
0.00013824
0.00013824
0.00013824
0.00013824
0.00013824
0.00013824
0.00013824
0.00013824
0.00013824
0.00013824
0.00013824
0.00013824
0.00013824
0.00013824
0.00013824
0.00013824
0.00013824
0.00013824
0.00013824
0.00013824
0.00013824
0.00013824
0.00013824
0.00013824
0.00013824
0.00013824
0.00013824
0.00013824
0.00013824
0.00013824
0.00013824
0.00013824
0.00013824
0.00013824
0.00013824
0.00013824
0.00013824
0.00013824
0.00013824
0.00013824
0.00013824
0.00013824
0.00013824
0.00013824
0.00013824
0.00013824
0.00013824
0.00013824
0.00013824
0.00013824
0.00013824
0.00013824
0.00013824
0.00013824
0.00013824
0.00013824
0.00013824
0.00013824
0.00013824
0.00013824
0.00013824
0.00013824
0.00013824
0.00013824
0.00013824
0.00013824
0.00013824
0.00013824
0.00013824
0.00013824
0.00013824
0.00013824
0.00013824
0.00013824
0.00013824
0.00013824
0.00013824
0.00013824
0.00013824
0.00013824
0.00013824
0.00013824
0.00013824
0.00013824
0.00013824
0.00013824
0.00013824
0.00013824
0.00013824
0.00013824
0.00013824
0.00013824
0.00013824
0.00013824
0.00013824
0.00013824
0.00013824
0.00013824
0.00013824
0.00013824
0.00013824
0.00013824
0.00013824
0.00013824
0.00013824
0.00013824
0.00013824
0.00013824
0.00013824
0.00013824
0.00013824
0.00013824
0.00013824
0.00013824
0.00013824
0.00013824
0.00013824
0.00013824
0.00013824
0.00013824
0.00013824
0.00013824
0.00013824
0.00013824
0.00013824
0.00013824
0.00013824
0.00013824
0.00013824
0.00013824
0.00013824
0.00013824
0.00013824
0.00013824
0.00013824
0.00013824
0.00013824
0.00013824
0.00013824
0.00013824
0.00013824
0.00013824
0.00013824
0.00013824
0.00013824
0.00013824
0.00013824
0.00013824
0.00013824
0.00013824
0.00013824
0.00013824
0.00013824
0.00013824
0.00013824
0.00013824
0.00013824
0.00013824
0.00013824
0.00013824
0.00013824
0.00013824
0.00013824
0.00013824
0.00013824
0.00013824
0.00013824
0.00013824
0.00013824
0.00013824
0.00013824
0.00013824
0.00013824
0.00013824
0.00013824
0.00013824
0.00013824
0.00013824
0.00013824
0.00013824
0.00013824
0.00013824
0.00013824
0.00013824
0.00013824
0.00013824
0.00013824
0.00013824
0.00013824
0.00013824
0.00013824
0.00013824
0.00013824
0.00013824
0.00013824
0.00013824
0.00013824
0.00013824
0.00013824
0.00013824
0.00013824
0.00013824
0.00013824
0.00013824
0.00013824
0.00013824
0.00013824
0.00013824
0.00013824
0.00013824
0.00013824
0.00013824
0.00013824
0.00013824
0.00013824
0.00013824
0.00013824
0.00013824
0.00013824
0.00013824
0.00013824
0.00013824
0.00013824
0.00013824
0.00013824
0.00013824
0.00013824
0.00013824
0.00013824
0.00013824
0.00013824
0.00013824
0.00013824
0.00013824
0.00013824
0.00013824
0.00013824
0.00013824
0.00013824
0.00013824
0.00013824
0.00013824
0.00013824
0.00013824
0.00013824
0.00013824
0.00013824
0.00013824
0.00013824
0.00013824
0.00013824
0.00013824
0.00013824
0.00013824
0.00013824
0.00013824
0.00013824
0.00013824
0.00013824
0.00013824
0.00013824
0.00013824
0.00013824
0.00013824
0.00013824
0.00013824
0.00013824
0.00013824
0.00013824
0.00013824
0.00013824
0.00013824
0.00013824
0.00013824
0.00013824
0.00013824
0.00013824
0.00013824
0.00013824
0.00013824
0.00013824
0.00013824
0.00013824
0.00013824
0.00013824
0.00013824
0.00013824
0.00013824
0.00013824
0.00013824
0.00013824
0.00013824
0.00013824
0.00013824
0.00013824
0.00013824
0.00013824
0.00013824
0.00013824
0.00013824
0.00013824
0.00013824
0.00013824
0.00013824
0.00013824
0.00013824
0.00013824
0.00013824
0.00013824
0.00013824
0.00013824
0.00013824
0.00013824
0.00013824
0.00013824
0.00013824
0.00013824
0.00013824
0.00013824
0.00013824
0.00013824
0.00013824
0.00013824
0.00013824
0.00013824
0.00013824
0.00013824
0.00013824
0.00013824
0.00013824
0.00013824
0.00013824
0.00013824
0.00013824
0.00013824
0.00013824
0.00013824
0.00013824
0.00013824
0.00013824
0.00013824
0.00013824
0.00013824
0.00013824
0.00013824
0.00013824
0.00013824
0.00013824
0.00013824
0.00013824
0.00013824
0.00013824
0.00013824
0.00013824
0.00013824
0.00013824
0.00013824
0.00013824
0.00013824
0.00013824
0.00013824
0.00013824
0.00013824
0.00013824
0.00013824
0.00013824
0.00013824
0.00013824
0.00013824
0.00013824
0.00013824
0.00013824
0.00013824
0.00013824
0.00013824
0.00013824
0.00013824
0.00013824
0.00013824
0.00013824
0.00013824
0.00013824
0.00013824
0.00013824
0.00013824
0.00013824
0.00013824
0.00013824
0.00013824
0.00013824
0.00013824
0.00013824
0.00013824
0.00013824
0.00013824
0.00013824
0.00013824
0.00013824
0.00013824
0.00013824
0.00013824
0.00013824
0.00013824
0.00013824
0.00013824
0.00013824
0.00013824
0.00013824
0.00013824
0.00013824
0.00013824
0.00013824
0.00013824
0.00013824
0.00013824
0.00013824
0.00013824
0.00013824
0.00013824
0.00013824
0.00013824
0.00013824
0.00013824
0.00013824
0.00013824
0.00013824
0.00013824
0.00013824
0.00013824
0.00013824
0.00013824
0.00013824
0.00013824
0.00013824
0.00013824
0.00013824
0.00013824
0.00013824
0.00013824
0.00013824
0.00013824
0.00013824
0.00013824
0.00013824
0.00013824
0.00013824
0.00013824
0.00013824
0.00013824
0.00013824
0.00013824
0.00013824
0.00013824
0.00013824
0.00013824
0.00013824
0.00013824
0.00013824
0.00013824
0.00013824
0.00013824
0.00013824
0.00013824
0.00013824
0.00013824
0.00013824
0.00013824
0.00013824
0.00013824
0.00013824
0.00013824
0.00013824
0.00013824
0.00013824
0.00013824
0.00013824
0.00013824
0.00013824
0.00013824
0.00013824
0.00013824
0.00013824
0.00013824
0.00013824
0.00013824
0.00013824
0.00013824
0.00013824
0.00013824
0.00013824
0.00013824
0.00013824
0.00013824
0.00013824
0.00013824
0.00013824
0.00013824
0.00013824
0.00013824
0.00013824
0.00013824
0.00013824
0.00013824
0.00013824
0.00013824
0.00013824
0.00013824
0.00013824
0.00013824
0.00013824
0.00013824
0.00013824
0.00013824
0.00013824
0.00013824
0.00013824
0.00013824
0.00013824
0.00013824
0.00013824
0.00013824
0.00013824
0.00013824
0.00013824
0.00013824
0.00013824
0.00013824
0.00013824
0.00013824
0.00013824
0.00013824
0.00013824
0.00013824
0.00013824
0.00013824
0.00013824
0.00013824
0.00013824
0.00013824
0.00013824
0.00013824
0.00013824
0.00013824
0.00013824
0.00013824
0.00013824
0.00013824
0.00013824
0.00013824
0.00013824
0.00013824
0.00013824
0.00013824
0.00013824
0.00013824
0.00013824
0.00013824
0.00013824
0.00013824
0.00013824
0.00013824
0.00013824
0.00013824
0.00013824
0.00013824
0.00013824
0.00013824
0.00013824
0.00013824
0.00013824
0.00013824
0.00013824
0.00013824
0.00013824
0.00013824
0.00013824
0.00013824
0.00013824
0.00013824
0.00013824
0.00013824
0.00013824
0.00013824
0.00013824
0.00013824
0.00013824
0.00013824
0.00013824
0.00013824
0.00013824
0.00013824
0.00013824
0.00013824
0.00013824
0.00013824
0.00013824
0.00013824
0.00013824
0.00013824
0.00013824
0.00013824
0.00013824
0.00013824
0.00013824
0.00013824
0.00013824
0.00013824
0.00013824
0.00013824
0.00013824
0.00013824
0.00013824
0.00013824
0.00013824
0.00013824
0.00013824
0.00013824
0.00013824
0.00013824
0.00013824
0.00013824
0.00013824
0.00013824
0.00013824
0.00013824
0.00013824
0.00013824
0.00013824
0.00013824
0.00013824
0.00013824
0.00013824
0.00013824
0.00013824
0.00013824
0.00013824
0.00013824
0.00013824
0.00013824
0.00013824
0.00013824
0.00013824
0.00013824
0.00013824
0.00013824
0.00013824
0.00013824
0.00013824
0.00013824
0.00013824
0.00013824
0.00013824
0.00013824
0.00013824
0.00013824
0.00013824
0.00013824
0.00013824
0.00013824
0.00013824
0.00013824
0.00013824
0.00013824
0.00013824
0.00013824
0.00013824
0.00013824
0.00013824
0.00013824
0.00013824
0.00013824
0.00013824
0.00013824
0.00013824
0.00013824
0.00013824
0.00013824
0.00013824
0.00013824
0.00013824
0.00013824
0.00013824
0.00013824
0.00013824
0.00013824
0.00013824
0.00013824
0.00013824
0.00013824
0.00013824
0.00013824
0.00013824
0.00013824
0.00013824
0.00013824
0.00013824
0.00013824
0.00013824
0.00013824
0.00013824
0.00013824
0.00013824
0.00013824
0.00013824
0.00013824
0.00013824
0.00013824
0.00013824
0.00013824
0.00013824
0.00013824
0.00013824
0.00013824
0.00013824
0.00013824
0.00013824
0.00013824
0.00013824
0.00013824
0.00013824
0.00013824
0.00013824
0.00013824
0.00013824
0.00013824
0.00013824
0.00013824
0.00013824
0.00013824
0.00013824
0.00013824
0.00013824
0.00013824
0.00013824
0.00013824
0.00013824
0.00013824
0.00013824
0.00013824
0.00013824
0.00013824
0.00013824
0.00013824
0.00013824
0.00013824
0.00013824
0.00013824
0.00013824
0.00013824
0.00013824
0.00013824
0.00013824
0.00013824
0.00013824
0.00013824
0.00013824
0.00013824
0.00013824
0.00013824
0.00013824
0.00013824
0.00013824
0.00013824
0.00013824
0.00013824
0.00013824
0.00013824
0.00013824
0.00013824
0.00013824
0.00013824
0.00013824
0.00013824
0.00013824
0.00013824
0.00013824
0.00013824
0.00013824
0.00013824
0.00013824
0.00013824
0.00013824
0.00013824
0.00013824
0.00013824
0.00013824
0.00013824
0.00013824
0.00013824
0.00013824
0.00013824
0.00013824
0.00013824
0.00013824
0.00013824
0.00013824
0.00013824
0.00013824
0.00013824
0.00013824
0.00013824
0.00013824
0.00013824
0.00013824
0.00013824
0.00013824
0.00013824
0.00013824
0.00013824
0.00013824
0.00013824
0.00013824
0.00013824
0.00013824
0.00013824
0.00013824
0.00013824
0.00013824
0.00013824
0.00013824
0.00013824
0.00013824
0.00013824
0.00013824
0.00013824
0.00013824
0.00013824
0.00013824
0.00013824
0.00013824
0.00013824
0.00013824