/*--------------------------------*- C++ -*----------------------------------*\
| =========                 |                                                 |
| \\      /  F ield         | OpenFOAM: The Open Source CFD Toolbox           |
|  \\    /   O peration     | Version:  2406                                  |
|   \\  /    A nd           | Website:  www.openfoam.com                      |
|    \\/     M anipulation  |                                                 |
\*---------------------------------------------------------------------------*/
FoamFile
{
    version     2.0;
    format      ascii;
    arch        "LSB;label=32;scalar=64";
    class       volScalarField;
    location    "5.8";
    object      C_0;
}
// * * * * * * * * * * * * * * * * * * * * * * * * * * * * * * * * * * * * * //

dimensions      [1 -3 0 0 0 0 0];

internalField   nonuniform List<scalar> 
14400
(
0.276722
0.274926
0.271896
0.268373
0.265046
0.262461
0.261012
0.260942
0.262361
0.265242
0.269423
0.274579
0.280186
0.285477
0.289413
0.290773
0.288651
0.284039
0.278284
0.272567
0.2678
0.264674
0.263715
0.265343
0.269917
0.277765
0.289205
0.30456
0.32417
0.348397
0.377613
0.412185
0.452409
0.49834
0.549192
0.600677
0.637598
0.662248
0.683669
0.702314
0.718451
0.732287
0.743985
0.753671
0.761445
0.767382
0.77154
0.773959
0.774663
0.773665
0.770961
0.766536
0.76036
0.752388
0.742559
0.730792
0.716984
0.701003
0.682684
0.661815
0.63813
0.609279
0.566192
0.511217
0.460211
0.41494
0.375485
0.341567
0.3128
0.288779
0.269124
0.253489
0.241574
0.233124
0.227929
0.225822
0.226674
0.230393
0.236911
0.24618
0.258154
0.272764
0.289887
0.309275
0.330416
0.351959
0.367806
0.374186
0.373551
0.36407
0.348742
0.332703
0.317537
0.303923
0.292185
0.282454
0.274737
0.268936
0.264873
0.262292
0.260884
0.260309
0.26025
0.260474
0.26091
0.261676
0.26305
0.26539
0.269078
0.274471
0.281875
0.291534
0.303616
0.318208
0.335288
0.354671
0.375865
0.397493
0.413159
0.419387
0.286842
0.284475
0.28068
0.276433
0.272517
0.269508
0.267797
0.267626
0.2691
0.272197
0.276768
0.282509
0.288931
0.295279
0.30042
0.302667
0.299646
0.293759
0.286857
0.280229
0.274777
0.27115
0.269841
0.271247
0.275709
0.283544
0.295063
0.310585
0.330445
0.355003
0.38463
0.419694
0.460506
0.50716
0.558793
0.607562
0.641289
0.665373
0.686444
0.704822
0.720751
0.734425
0.745996
0.755583
0.763281
0.769162
0.773279
0.775673
0.776366
0.77537
0.772682
0.768287
0.762155
0.754245
0.744497
0.732834
0.719157
0.703342
0.685233
0.664631
0.64128
0.613979
0.573421
0.519135
0.467826
0.422023
0.382037
0.347638
0.318452
0.294075
0.274127
0.258259
0.246171
0.237607
0.232358
0.230256
0.231175
0.235024
0.241738
0.251272
0.263586
0.278617
0.296244
0.316209
0.337925
0.359771
0.374889
0.380709
0.380597
0.372967
0.357731
0.341089
0.325372
0.311319
0.299255
0.289314
0.281501
0.27572
0.271785
0.269423
0.268293
0.268002
0.268162
0.268469
0.268812
0.269354
0.270441
0.272504
0.275975
0.281243
0.288628
0.298382
0.310671
0.32558
0.343079
0.362961
0.38462
0.406129
0.419973
0.425229
0.307708
0.303893
0.298385
0.292621
0.287514
0.283657
0.281431
0.281059
0.282639
0.286155
0.291477
0.298347
0.306345
0.314802
0.322579
0.327442
0.32185
0.313144
0.303927
0.295525
0.288747
0.284151
0.282163
0.283136
0.287381
0.295196
0.306878
0.322735
0.343095
0.368311
0.398745
0.434749
0.476589
0.52423
0.576291
0.619381
0.648289
0.671506
0.691913
0.709778
0.725307
0.738667
0.749991
0.759385
0.766934
0.772704
0.776743
0.779087
0.779759
0.778767
0.77611
0.771773
0.76573
0.75794
0.74835
0.736889
0.723468
0.707975
0.690274
0.670196
0.647533
0.62202
0.586509
0.535352
0.483204
0.436273
0.395225
0.359874
0.329856
0.304771
0.284235
0.267902
0.255468
0.246677
0.241319
0.239229
0.240282
0.24439
0.251494
0.261557
0.274545
0.290406
0.309027
0.330137
0.353011
0.374959
0.38776
0.392933
0.393426
0.388779
0.375167
0.357701
0.341037
0.326166
0.313473
0.303118
0.295121
0.28939
0.28573
0.283841
0.283318
0.283666
0.284334
0.28484
0.28496
0.28498
0.285427
0.286885
0.289889
0.294885
0.302223
0.312159
0.324855
0.340382
0.358689
0.379526
0.402074
0.421854
0.431976
0.436237
0.340262
0.333498
0.325094
0.316983
0.310103
0.305003
0.302024
0.301361
0.303095
0.307208
0.313589
0.322019
0.332165
0.343463
0.354581
0.359553
0.354114
0.341627
0.329218
0.318372
0.309746
0.30378
0.300823
0.301174
0.305111
0.312907
0.324841
0.341207
0.362319
0.388514
0.420137
0.457495
0.500711
0.549163
0.598788
0.633634
0.658456
0.680448
0.699925
0.717068
0.732032
0.744945
0.755916
0.765033
0.772367
0.777976
0.781901
0.784174
0.784814
0.78383
0.781218
0.776966
0.77105
0.763436
0.754074
0.742904
0.729849
0.714816
0.697693
0.678346
0.656619
0.632333
0.602848
0.559006
0.506108
0.457732
0.415197
0.378463
0.347214
0.32107
0.299655
0.282623
0.26967
0.260538
0.255019
0.252947
0.254201
0.258698
0.266385
0.277231
0.291213
0.308287
0.328333
0.351035
0.375369
0.39544
0.405037
0.409823
0.410897
0.408425
0.399554
0.382259
0.364559
0.348577
0.334978
0.324023
0.315761
0.310126
0.306924
0.305824
0.306338
0.307825
0.309452
0.310378
0.31003
0.309071
0.308378
0.308805
0.31103
0.315575
0.322821
0.333017
0.346305
0.362714
0.382109
0.404004
0.42661
0.441205
0.448088
0.451506
0.380721
0.372311
0.360403
0.349389
0.340306
0.333644
0.329724
0.3287
0.330629
0.335487
0.34316
0.353407
0.365882
0.379726
0.390602
0.392284
0.389811
0.377493
0.362181
0.348651
0.337845
0.330204
0.326038
0.325605
0.329158
0.336949
0.349236
0.36629
0.388405
0.415892
0.449054
0.488135
0.533087
0.582246
0.621693
0.6485
0.671341
0.691905
0.710271
0.726539
0.740806
0.753165
0.763694
0.772462
0.779526
0.784931
0.788712
0.790894
0.791494
0.790519
0.787966
0.783823
0.77807
0.770678
0.761606
0.750803
0.738208
0.723748
0.707336
0.688877
0.668264
0.645391
0.620118
0.585663
0.535929
0.486478
0.442188
0.403684
0.370822
0.343277
0.320691
0.302726
0.289079
0.279492
0.273757
0.271712
0.273238
0.278253
0.286712
0.298588
0.313863
0.332487
0.354289
0.378693
0.403482
0.418588
0.426018
0.430424
0.431898
0.430585
0.426419
0.414339
0.395953
0.37868
0.363941
0.352221
0.343622
0.338142
0.335617
0.335694
0.337799
0.341154
0.344467
0.34632
0.344951
0.342288
0.339735
0.338584
0.339645
0.343525
0.350618
0.361148
0.375186
0.392691
0.413312
0.43589
0.453445
0.462214
0.46749
0.470192
0.418486
0.414569
0.402801
0.389406
0.378062
0.369656
0.364679
0.363257
0.365428
0.371148
0.380277
0.392367
0.406774
0.42085
0.425733
0.425679
0.424703
0.418431
0.402269
0.386322
0.373196
0.363666
0.358102
0.356752
0.359861
0.367672
0.380423
0.398353
0.421714
0.450771
0.485707
0.526543
0.572353
0.614109
0.642711
0.66554
0.686505
0.705561
0.722716
0.738009
0.75149
0.763214
0.773234
0.781597
0.788344
0.793509
0.797121
0.799197
0.79975
0.798786
0.796302
0.792289
0.78673
0.7796
0.770868
0.760495
0.748434
0.73463
0.719027
0.70156
0.682169
0.660806
0.637446
0.610997
0.572625
0.522759
0.476506
0.435893
0.401063
0.371784
0.347741
0.328609
0.314091
0.303934
0.29793
0.29592
0.297787
0.303451
0.312866
0.326004
0.342842
0.3633
0.3871
0.413109
0.433711
0.443541
0.449915
0.453958
0.455687
0.455234
0.45286
0.44731
0.434165
0.416354
0.400433
0.387882
0.378871
0.373603
0.371991
0.373687
0.377978
0.384156
0.390009
0.393845
0.390334
0.385125
0.379781
0.376455
0.375919
0.378906
0.385787
0.396718
0.411596
0.430215
0.451313
0.469486
0.47949
0.485353
0.489465
0.49158
0.452923
0.452607
0.447855
0.435997
0.423153
0.412993
0.406982
0.405172
0.407626
0.41426
0.424942
0.438397
0.452828
0.459312
0.459973
0.459992
0.459338
0.457781
0.448719
0.43139
0.415988
0.404449
0.397367
0.394989
0.397605
0.405476
0.418818
0.437813
0.462632
0.49348
0.530173
0.571845
0.612967
0.641863
0.663818
0.684446
0.703577
0.721116
0.737023
0.75129
0.76393
0.774968
0.78443
0.792346
0.798743
0.803643
0.807064
0.809022
0.809524
0.808573
0.806168
0.802302
0.79696
0.790125
0.781772
0.771875
0.7604
0.747314
0.73258
0.716166
0.698048
0.678218
0.656697
0.633544
0.605814
0.5654
0.518175
0.475411
0.438362
0.407054
0.38128
0.360753
0.34519
0.334344
0.328015
0.32605
0.32833
0.334772
0.34532
0.359928
0.378539
0.400941
0.426337
0.450667
0.463453
0.470662
0.476144
0.479806
0.481656
0.481806
0.480468
0.477951
0.472262
0.460418
0.444121
0.431018
0.4215
0.416484
0.415974
0.419707
0.426364
0.435915
0.442444
0.444503
0.442882
0.43673
0.428058
0.422334
0.419798
0.42172
0.428339
0.439738
0.455292
0.474285
0.490397
0.500097
0.505698
0.510241
0.513436
0.515084
0.487665
0.487569
0.487426
0.483332
0.47439
0.463084
0.456468
0.454336
0.457092
0.464399
0.476276
0.487484
0.493451
0.494307
0.494809
0.494977
0.494745
0.494084
0.492033
0.482596
0.466105
0.452728
0.444181
0.440687
0.442769
0.450753
0.464828
0.485075
0.51144
0.544141
0.581683
0.618922
0.646168
0.666611
0.686245
0.704847
0.72224
0.738304
0.75297
0.766198
0.777973
0.788296
0.797173
0.804616
0.810639
0.815254
0.818472
0.820302
0.820749
0.819815
0.817497
0.813789
0.808683
0.802166
0.794221
0.784832
0.773979
0.761645
0.747813
0.732476
0.715638
0.697322
0.67758
0.656502
0.634238
0.606219
0.566067
0.522328
0.48312
0.449576
0.421842
0.399708
0.382929
0.371274
0.364561
0.36265
0.365416
0.372761
0.384608
0.400847
0.421357
0.445601
0.471192
0.486095
0.49346
0.499504
0.504195
0.507465
0.509325
0.509865
0.509257
0.507749
0.505657
0.501343
0.492764
0.480844
0.47089
0.466238
0.466736
0.472558
0.479567
0.484057
0.486098
0.486217
0.486768
0.485267
0.481394
0.475071
0.470521
0.471504
0.477737
0.489421
0.50429
0.516155
0.523848
0.528651
0.532963
0.536477
0.538956
0.540236
0.522502
0.522557
0.522733
0.523181
0.521348
0.516933
0.511673
0.509339
0.512361
0.518847
0.52485
0.528489
0.528919
0.529461
0.529977
0.530365
0.530578
0.530631
0.530602
0.529171
0.521776
0.508042
0.498721
0.494047
0.495581
0.503747
0.518689
0.540347
0.567783
0.601406
0.631894
0.655545
0.674002
0.692144
0.709705
0.726459
0.742231
0.756892
0.770354
0.782558
0.79347
0.80307
0.811349
0.818306
0.823942
0.828262
0.831268
0.832966
0.833356
0.83244
0.830214
0.826675
0.821818
0.815634
0.808115
0.799253
0.78904
0.777472
0.764551
0.750288
0.734706
0.717852
0.699797
0.680647
0.660554
0.639711
0.612944
0.575687
0.535497
0.499744
0.469949
0.446045
0.427905
0.415318
0.408154
0.406306
0.40963
0.417984
0.431263
0.449138
0.471383
0.496214
0.511469
0.518738
0.524693
0.529701
0.533665
0.536534
0.538313
0.539073
0.538947
0.53813
0.536871
0.535474
0.533445
0.528868
0.523848
0.520536
0.52041
0.521892
0.523222
0.522579
0.521898
0.521955
0.522702
0.524223
0.525571
0.525066
0.524656
0.526119
0.531221
0.538516
0.545579
0.550275
0.554007
0.557694
0.561024
0.563748
0.565673
0.566669
0.557286
0.557423
0.557747
0.558361
0.559425
0.560366
0.559688
0.55951
0.560964
0.563059
0.563731
0.563724
0.564084
0.56464
0.565275
0.565925
0.566574
0.567258
0.568079
0.569212
0.569819
0.566314
0.560045
0.554411
0.555712
0.564151
0.579794
0.602677
0.628338
0.651141
0.669674
0.685824
0.702122
0.718257
0.733971
0.749053
0.763332
0.776678
0.788995
0.800211
0.810278
0.819164
0.826848
0.833316
0.838562
0.842582
0.845374
0.846937
0.847271
0.846374
0.844244
0.84088
0.836278
0.830436
0.823352
0.815024
0.805455
0.794653
0.782632
0.769417
0.755048
0.739584
0.723108
0.705735
0.687615
0.668935
0.649914
0.626057
0.594165
0.557426
0.525939
0.500245
0.480683
0.467036
0.459333
0.457566
0.461513
0.470893
0.485645
0.504512
0.526709
0.540304
0.546818
0.552119
0.556873
0.560943
0.564232
0.566691
0.568319
0.569165
0.569329
0.568954
0.568224
0.56735
0.566553
0.566075
0.565125
0.563564
0.562237
0.560329
0.558474
0.557374
0.556879
0.557001
0.557741
0.559132
0.561198
0.564137
0.567115
0.569773
0.57306
0.576084
0.578476
0.581258
0.584209
0.587094
0.589693
0.591818
0.59332
0.594097
0.591933
0.592102
0.59247
0.593087
0.594008
0.59523
0.596721
0.597906
0.598283
0.598201
0.598273
0.598549
0.599054
0.59974
0.600559
0.601486
0.602532
0.60375
0.605245
0.607183
0.609809
0.613303
0.614719
0.616327
0.620603
0.629381
0.642899
0.658728
0.674338
0.68791
0.701668
0.715939
0.730403
0.744791
0.758871
0.772449
0.785366
0.797495
0.808736
0.819013
0.828268
0.836461
0.843562
0.849549
0.854408
0.85813
0.860708
0.862137
0.862415
0.86154
0.859509
0.856322
0.85198
0.846482
0.839832
0.832036
0.823104
0.813053
0.801906
0.7897
0.776484
0.762326
0.747317
0.731571
0.715237
0.698492
0.68155
0.664661
0.645137
0.619901
0.589143
0.56228
0.541574
0.526734
0.51836
0.516715
0.521334
0.531344
0.547075
0.562901
0.573174
0.577874
0.58203
0.586047
0.589738
0.592964
0.595629
0.597681
0.599108
0.599941
0.600248
0.600132
0.59972
0.599148
0.598544
0.597975
0.597319
0.596413
0.59502
0.59358
0.592354
0.591561
0.591244
0.591429
0.592131
0.593364
0.595134
0.597432
0.600071
0.602822
0.60521
0.607453
0.609707
0.612073
0.614476
0.616779
0.618836
0.62051
0.621691
0.622302
0.626409
0.626583
0.626944
0.627509
0.628289
0.629252
0.630308
0.63122
0.631813
0.6322
0.632611
0.633144
0.633842
0.634708
0.635735
0.636929
0.638319
0.639965
0.641966
0.644467
0.647662
0.6518
0.657225
0.663827
0.67074
0.679146
0.688875
0.698727
0.709302
0.720878
0.733149
0.745859
0.758763
0.771633
0.784271
0.796505
0.808188
0.8192
0.829442
0.838836
0.847321
0.854851
0.861389
0.866909
0.871391
0.874822
0.87719
0.878489
0.878714
0.877861
0.87593
0.872921
0.868836
0.863679
0.857458
0.850183
0.841872
0.832547
0.82224
0.810993
0.798863
0.785921
0.77226
0.757996
0.743269
0.728247
0.713129
0.698146
0.683573
0.668733
0.650283
0.629596
0.609449
0.59352
0.584372
0.582834
0.587943
0.596365
0.604066
0.609608
0.611832
0.614481
0.617381
0.620302
0.623068
0.625545
0.627639
0.629294
0.630491
0.631242
0.631592
0.631608
0.631375
0.63098
0.630499
0.629961
0.629331
0.628549
0.627589
0.626617
0.6258
0.625273
0.625107
0.625339
0.625989
0.627061
0.628541
0.630386
0.632478
0.634664
0.636768
0.638806
0.640826
0.642852
0.644842
0.646712
0.648362
0.649696
0.650634
0.651118
0.660712
0.660878
0.661212
0.661718
0.662386
0.663183
0.664039
0.66485
0.665549
0.666176
0.666827
0.667575
0.668462
0.669513
0.670744
0.672176
0.67385
0.675824
0.678188
0.681056
0.684572
0.688897
0.694182
0.700445
0.707611
0.715403
0.723771
0.732861
0.742658
0.753152
0.764189
0.775587
0.787154
0.798707
0.810077
0.821112
0.831682
0.841674
0.850995
0.859567
0.867329
0.874231
0.880234
0.885307
0.889427
0.892576
0.894742
0.895915
0.896089
0.895261
0.893429
0.890595
0.886763
0.88194
0.876137
0.869368
0.861654
0.853024
0.843514
0.83317
0.822052
0.810234
0.797808
0.784884
0.771596
0.758098
0.744571
0.73122
0.71828
0.706012
0.694719
0.682711
0.670184
0.659097
0.651256
0.647472
0.647085
0.648201
0.648333
0.648357
0.649304
0.650838
0.652709
0.654712
0.656687
0.658508
0.660087
0.661367
0.662319
0.662945
0.663268
0.663332
0.66319
0.6629
0.662509
0.66204
0.661494
0.660864
0.66017
0.6595
0.658955
0.658625
0.658572
0.658833
0.659424
0.660348
0.661585
0.663092
0.664792
0.666588
0.668392
0.670176
0.671938
0.673667
0.675329
0.676864
0.678203
0.679278
0.68003
0.680417
0.69485
0.695003
0.69531
0.695764
0.696354
0.697053
0.697816
0.698593
0.699358
0.700127
0.700947
0.701865
0.70292
0.704139
0.70555
0.707183
0.709079
0.711296
0.713905
0.716997
0.720673
0.725035
0.730162
0.736069
0.742709
0.749978
0.757832
0.766286
0.775319
0.784882
0.79487
0.805145
0.81556
0.825965
0.836216
0.846185
0.855753
0.86482
0.873296
0.88111
0.888198
0.894511
0.900008
0.904657
0.908432
0.911313
0.913286
0.91434
0.914467
0.913664
0.91193
0.909268
0.905682
0.901182
0.895781
0.889496
0.882353
0.874382
0.865621
0.856121
0.845941
0.835155
0.823852
0.812137
0.800133
0.787979
0.775837
0.763884
0.752316
0.74134
0.731163
0.721946
0.713971
0.706991
0.700901
0.695796
0.69159
0.688509
0.686795
0.68609
0.686187
0.68686
0.687905
0.689152
0.690459
0.691714
0.692836
0.693766
0.694474
0.69495
0.695204
0.695261
0.695155
0.694922
0.694595
0.694197
0.693741
0.693242
0.692729
0.692257
0.691894
0.691701
0.691724
0.691995
0.692527
0.693321
0.694359
0.695606
0.697008
0.698504
0.700036
0.701569
0.703082
0.704551
0.705942
0.707211
0.708308
0.709182
0.709791
0.710104
0.728833
0.728976
0.729259
0.729676
0.730215
0.730857
0.731577
0.73235
0.733163
0.734027
0.734968
0.73602
0.737212
0.738573
0.740134
0.741926
0.743989
0.746374
0.749139
0.752353
0.756087
0.760408
0.765362
0.77096
0.777178
0.783968
0.791293
0.799132
0.807449
0.816187
0.825262
0.834565
0.843977
0.853374
0.862639
0.871657
0.880326
0.888555
0.896261
0.903377
0.909842
0.915607
0.920631
0.924882
0.928331
0.930959
0.93275
0.933691
0.933775
0.932999
0.93136
0.928864
0.925515
0.921325
0.916308
0.910484
0.90388
0.896528
0.888468
0.879751
0.870436
0.860594
0.850309
0.83968
0.828818
0.817849
0.806913
0.796162
0.785759
0.775867
0.766645
0.758225
0.750725
0.744112
0.738356
0.73344
0.729406
0.726329
0.724247
0.723021
0.722496
0.722508
0.7229
0.723531
0.724281
0.725055
0.725775
0.726388
0.726861
0.727177
0.727337
0.727353
0.727245
0.727037
0.726753
0.726411
0.726031
0.725633
0.725245
0.724906
0.724664
0.724559
0.724629
0.724895
0.725369
0.72605
0.726924
0.727964
0.729131
0.730383
0.731678
0.732983
0.73427
0.735512
0.736678
0.737732
0.738635
0.739352
0.739848
0.740103
0.762675
0.762808
0.763073
0.763464
0.763972
0.764585
0.765286
0.766065
0.766917
0.767849
0.76888
0.770033
0.771334
0.772809
0.774486
0.776397
0.778578
0.781071
0.783924
0.787188
0.790915
0.795148
0.799917
0.805231
0.811075
0.817422
0.824241
0.8315
0.839157
0.847157
0.855426
0.863875
0.872406
0.880917
0.889307
0.897478
0.905341
0.912812
0.919818
0.926294
0.932185
0.937443
0.942028
0.945907
0.949052
0.951443
0.953062
0.953899
0.953944
0.953194
0.951649
0.949311
0.946189
0.942294
0.937641
0.932253
0.926155
0.919382
0.911973
0.903979
0.895457
0.886474
0.877111
0.867455
0.85761
0.847685
0.837803
0.828094
0.818691
0.809726
0.801323
0.793586
0.78659
0.780355
0.774884
0.770181
0.766264
0.763155
0.760843
0.75925
0.758268
0.757777
0.757655
0.75779
0.758082
0.758448
0.758821
0.759151
0.759404
0.759561
0.759615
0.759569
0.759436
0.75923
0.758967
0.758664
0.75834
0.758014
0.757711
0.75746
0.757294
0.757245
0.757336
0.757587
0.758004
0.758587
0.759324
0.760194
0.76117
0.76222
0.763311
0.764414
0.765502
0.766549
0.767525
0.768403
0.769151
0.76974
0.770148
0.770356
0.796382
0.796509
0.796762
0.797136
0.797626
0.798222
0.798918
0.799707
0.80059
0.801573
0.80267
0.803899
0.805282
0.806842
0.808605
0.810598
0.812855
0.815409
0.818298
0.821562
0.825236
0.829352
0.833928
0.838971
0.84447
0.850405
0.856749
0.863469
0.870522
0.877858
0.88541
0.893104
0.900856
0.908582
0.916194
0.923609
0.930746
0.937533
0.943904
0.949797
0.955162
0.959953
0.964131
0.967665
0.970527
0.972697
0.974158
0.974898
0.974908
0.974185
0.972729
0.970544
0.967637
0.96402
0.959711
0.95473
0.949106
0.94287
0.936064
0.928735
0.920938
0.912737
0.904204
0.895422
0.88648
0.877478
0.868521
0.859719
0.851184
0.843023
0.835335
0.828205
0.821693
0.815834
0.810645
0.806136
0.802315
0.799184
0.796719
0.794867
0.79355
0.792676
0.792153
0.791891
0.791808
0.791834
0.79191
0.79199
0.792043
0.792047
0.791991
0.791874
0.7917
0.791478
0.79122
0.79094
0.790651
0.790373
0.790124
0.789929
0.789809
0.789789
0.789885
0.790112
0.790473
0.790969
0.791589
0.792319
0.793136
0.794015
0.794932
0.795861
0.796777
0.797655
0.798472
0.799203
0.799824
0.800311
0.800647
0.800819
0.829962
0.830085
0.83033
0.830693
0.831172
0.831761
0.832456
0.833256
0.834163
0.835182
0.836327
0.837611
0.839053
0.840672
0.842492
0.844537
0.846834
0.849411
0.852298
0.855524
0.859116
0.863095
0.867473
0.872254
0.877428
0.882979
0.888881
0.895104
0.901607
0.908342
0.915252
0.922273
0.929333
0.93636
0.943278
0.950016
0.956502
0.962672
0.968466
0.973829
0.978712
0.983075
0.986879
0.990094
0.992695
0.994661
0.995975
0.996626
0.996605
0.995909
0.994539
0.992498
0.989794
0.986439
0.982451
0.977852
0.972667
0.96693
0.960679
0.953959
0.946823
0.93933
0.931547
0.923547
0.915411
0.907227
0.899084
0.891078
0.883302
0.875845
0.86879
0.862205
0.856144
0.850644
0.845725
0.841402
0.837677
0.834545
0.831984
0.829951
0.828387
0.827224
0.82639
0.825813
0.825426
0.82517
0.824994
0.824857
0.824731
0.824592
0.824429
0.824235
0.824012
0.823763
0.823496
0.823222
0.822952
0.822702
0.822485
0.82232
0.822225
0.822215
0.822304
0.822501
0.822809
0.823227
0.823746
0.824356
0.825038
0.825774
0.826542
0.82732
0.828088
0.828823
0.829506
0.830114
0.830629
0.831033
0.831311
0.831452
0.863419
0.863539
0.863778
0.864135
0.864607
0.865192
0.865889
0.866698
0.867622
0.868668
0.869844
0.871165
0.872645
0.874302
0.876155
0.878224
0.880533
0.883103
0.885958
0.889121
0.892609
0.896439
0.900617
0.905143
0.910009
0.915201
0.920693
0.926458
0.932458
0.93865
0.944984
0.951402
0.957844
0.964246
0.970544
0.976674
0.982575
0.988188
0.993459
0.998339
1.00278
1.00675
1.01022
1.01314
1.0155
1.01728
1.01846
1.01902
1.01898
1.01831
1.01702
1.01511
1.0126
1.00949
1.0058
1.00156
0.99678
0.991503
0.985761
0.979599
0.973065
0.966214
0.959106
0.951807
0.944391
0.936933
0.929512
0.922208
0.915101
0.908267
0.901774
0.895681
0.890035
0.884871
0.880211
0.876068
0.872446
0.869336
0.86672
0.864564
0.862823
0.861444
0.860371
0.859545
0.858913
0.858425
0.858038
0.857716
0.857431
0.857162
0.856897
0.856626
0.856348
0.856065
0.855779
0.8555
0.855235
0.854996
0.854794
0.854643
0.854556
0.854543
0.854616
0.854779
0.855035
0.855382
0.855814
0.85632
0.856887
0.8575
0.85814
0.85879
0.859431
0.860044
0.860613
0.861119
0.861546
0.861881
0.86211
0.862227
0.896756
0.896874
0.897109
0.897462
0.89793
0.898512
0.89921
0.900025
0.90096
0.902022
0.903218
0.90456
0.906061
0.907736
0.909601
0.911672
0.913969
0.916509
0.919311
0.922391
0.925762
0.929434
0.933411
0.937691
0.942266
0.947121
0.952234
0.957577
0.963118
0.968818
0.97463
0.980507
0.986394
0.992236
0.997977
1.00356
1.00893
1.01404
1.01884
1.02329
1.02733
1.03094
1.03409
1.03674
1.03888
1.04049
1.04155
1.04204
1.04197
1.04133
1.04012
1.03834
1.036
1.03312
1.02971
1.0258
1.02139
1.01654
1.01126
1.00561
0.999625
0.993354
0.986855
0.980186
0.973413
0.966602
0.959821
0.953141
0.946628
0.940347
0.934358
0.92871
0.923445
0.918594
0.91418
0.910215
0.906701
0.903634
0.900996
0.898762
0.896897
0.895359
0.894104
0.893084
0.892257
0.891579
0.891016
0.890536
0.890114
0.889729
0.889369
0.889025
0.888691
0.888368
0.888057
0.887763
0.887492
0.887252
0.887052
0.886902
0.886811
0.886787
0.886836
0.886964
0.88717
0.887452
0.887806
0.888223
0.888691
0.889198
0.889729
0.890268
0.890801
0.891311
0.891783
0.892203
0.892556
0.892833
0.893023
0.89312
0.929975
0.930091
0.930324
0.930672
0.931137
0.931717
0.932415
0.933232
0.934171
0.93524
0.936445
0.937796
0.939304
0.94098
0.942839
0.944895
0.947162
0.949655
0.952387
0.95537
0.958614
0.962124
0.965902
0.969945
0.974244
0.978783
0.983543
0.988499
0.99362
0.998872
1.00421
1.0096
1.01499
1.02033
1.02557
1.03066
1.03556
1.04021
1.04458
1.04863
1.05231
1.0556
1.05846
1.06087
1.0628
1.06425
1.0652
1.06562
1.06553
1.06492
1.06378
1.06212
1.05995
1.05728
1.05413
1.05052
1.04646
1.04199
1.03715
1.03196
1.02647
1.02072
1.01477
1.00867
1.00247
0.99624
0.99003
0.983905
0.977922
0.972137
0.9666
0.961355
0.95644
0.951881
0.9477
0.943909
0.940511
0.937502
0.934869
0.932592
0.930644
0.928992
0.9276
0.926431
0.925449
0.92462
0.923912
0.923299
0.922759
0.922272
0.921827
0.921412
0.921024
0.920659
0.920318
0.920003
0.919718
0.919468
0.919261
0.919102
0.918999
0.918956
0.918979
0.919069
0.919228
0.919452
0.919737
0.920075
0.920457
0.920872
0.921309
0.921754
0.922194
0.922615
0.923005
0.923352
0.923644
0.923872
0.924029
0.924108
0.963078
0.963193
0.963422
0.963768
0.964228
0.964805
0.9655
0.966315
0.967254
0.968323
0.969527
0.970876
0.972377
0.974042
0.975882
0.977907
0.98013
0.982561
0.985211
0.988088
0.991199
0.994546
0.998129
1.00194
1.00598
1.01022
1.01466
1.01926
1.02399
1.02884
1.03375
1.0387
1.04363
1.04852
1.05331
1.05796
1.06242
1.06667
1.07065
1.07433
1.07769
1.08067
1.08327
1.08546
1.08721
1.08852
1.08936
1.08973
1.08962
1.08903
1.08796
1.08641
1.0844
1.08193
1.07902
1.07568
1.07194
1.06783
1.06337
1.05861
1.05357
1.0483
1.04284
1.03725
1.03157
1.02585
1.02016
1.01453
1.00902
1.00368
0.99855
0.993672
0.989077
0.98479
0.980831
0.977209
0.973931
0.970993
0.968386
0.966093
0.964095
0.962364
0.960873
0.959591
0.958489
0.957539
0.956713
0.95599
0.955349
0.954774
0.954252
0.953774
0.953333
0.952926
0.952552
0.952212
0.951908
0.951643
0.951421
0.951247
0.951126
0.951061
0.951054
0.951108
0.951221
0.951391
0.951613
0.951882
0.952189
0.952526
0.952881
0.953244
0.953604
0.95395
0.95427
0.954555
0.954795
0.954983
0.955112
0.955177
0.996065
0.996179
0.996406
0.996747
0.997203
0.997775
0.998465
0.999274
1.00021
1.00127
1.00247
1.0038
1.00529
1.00693
1.00874
1.01072
1.01289
1.01525
1.01781
1.02057
1.02355
1.02673
1.03012
1.03372
1.03751
1.04148
1.0456
1.04987
1.05426
1.05873
1.06325
1.0678
1.07233
1.0768
1.08118
1.08543
1.08951
1.09338
1.09702
1.10037
1.10342
1.10614
1.1085
1.11049
1.11207
1.11325
1.114
1.11431
1.11419
1.11362
1.11262
1.11118
1.1093
1.10701
1.10432
1.10124
1.09779
1.09401
1.08991
1.08552
1.0809
1.07606
1.07105
1.06592
1.0607
1.05545
1.05021
1.04503
1.03995
1.03501
1.03025
1.02571
1.02141
1.01737
1.01362
1.01017
1.00701
1.00415
1.00159
0.999301
0.997278
0.995497
0.993936
0.992571
0.991378
0.990332
0.989413
0.988599
0.987874
0.987223
0.986634
0.986098
0.985608
0.985161
0.984753
0.984386
0.984058
0.983773
0.983533
0.98334
0.983197
0.983106
0.983069
0.983086
0.983156
0.983277
0.983443
0.983651
0.983892
0.98416
0.984445
0.984738
0.98503
0.985311
0.985571
0.985804
0.985999
0.986152
0.986258
0.986311
1.02894
1.02905
1.02928
1.02961
1.03006
1.03063
1.03131
1.03211
1.03303
1.03408
1.03526
1.03658
1.03804
1.03965
1.04142
1.04335
1.04545
1.04774
1.0502
1.05285
1.05569
1.05871
1.06192
1.0653
1.06886
1.07257
1.07641
1.08038
1.08444
1.08857
1.09274
1.09692
1.10108
1.10518
1.10919
1.11308
1.11681
1.12034
1.12365
1.12671
1.12949
1.13197
1.13411
1.13591
1.13735
1.1384
1.13907
1.13933
1.1392
1.13866
1.13771
1.13637
1.13463
1.1325
1.13001
1.12717
1.12399
1.1205
1.11672
1.11269
1.10843
1.10399
1.09938
1.09466
1.08987
1.08504
1.08021
1.07543
1.07073
1.06616
1.06173
1.0575
1.05347
1.04967
1.04612
1.04283
1.03979
1.03702
1.03451
1.03225
1.03022
1.02841
1.0268
1.02538
1.02412
1.023
1.02201
1.02112
1.02032
1.01961
1.01896
1.01837
1.01784
1.01735
1.01691
1.01652
1.01617
1.01586
1.0156
1.01538
1.01522
1.0151
1.01503
1.01501
1.01504
1.01512
1.01523
1.01539
1.01557
1.01578
1.016
1.01623
1.01647
1.01669
1.0169
1.01709
1.01725
1.01737
1.01746
1.0175
1.0617
1.06181
1.06203
1.06236
1.06281
1.06336
1.06403
1.06482
1.06573
1.06676
1.06792
1.06921
1.07064
1.07222
1.07394
1.07581
1.07784
1.08004
1.0824
1.08494
1.08764
1.0905
1.09353
1.09672
1.10005
1.10352
1.1071
1.11078
1.11455
1.11836
1.12221
1.12606
1.12988
1.13365
1.13732
1.14088
1.14429
1.14752
1.15055
1.15334
1.15587
1.15812
1.16007
1.1617
1.163
1.16394
1.16453
1.16476
1.16461
1.16409
1.1632
1.16195
1.16033
1.15836
1.15606
1.15343
1.1505
1.14728
1.1438
1.14008
1.13616
1.13207
1.12783
1.12349
1.11907
1.11462
1.11016
1.10575
1.1014
1.09715
1.09303
1.08908
1.0853
1.08172
1.07836
1.07522
1.07231
1.06963
1.06718
1.06495
1.06294
1.06112
1.05949
1.05803
1.05672
1.05554
1.05449
1.05355
1.0527
1.05193
1.05123
1.0506
1.05002
1.0495
1.04903
1.04861
1.04823
1.0479
1.04761
1.04738
1.04718
1.04704
1.04694
1.04689
1.04688
1.04691
1.04699
1.04709
1.04722
1.04738
1.04755
1.04773
1.04791
1.04809
1.04825
1.0484
1.04853
1.04863
1.04869
1.04873
1.09435
1.09446
1.09468
1.095
1.09544
1.09598
1.09664
1.09742
1.09831
1.09932
1.10045
1.10171
1.1031
1.10463
1.1063
1.10811
1.11007
1.11218
1.11444
1.11685
1.11942
1.12213
1.12499
1.12799
1.13111
1.13435
1.13769
1.14111
1.1446
1.14813
1.15168
1.15523
1.15875
1.1622
1.16558
1.16884
1.17196
1.17491
1.17767
1.18022
1.18253
1.18458
1.18635
1.18782
1.18899
1.18984
1.19037
1.19055
1.1904
1.1899
1.18907
1.18789
1.18639
1.18456
1.18243
1.18
1.17729
1.17431
1.1711
1.16768
1.16407
1.16029
1.15639
1.15238
1.14831
1.1442
1.14008
1.13599
1.13196
1.12801
1.12418
1.12048
1.11693
1.11356
1.11038
1.10739
1.1046
1.10202
1.09963
1.09745
1.09546
1.09365
1.092
1.09052
1.08918
1.08796
1.08687
1.08588
1.08499
1.08417
1.08344
1.08277
1.08216
1.0816
1.0811
1.08065
1.08025
1.07989
1.07959
1.07932
1.07911
1.07893
1.07881
1.07872
1.07868
1.07868
1.07871
1.07877
1.07885
1.07896
1.07909
1.07922
1.07936
1.07949
1.07962
1.07974
1.07984
1.07991
1.07997
1.07999
1.1269
1.127
1.12721
1.12753
1.12796
1.12849
1.12914
1.12989
1.13076
1.13175
1.13285
1.13408
1.13543
1.13691
1.13852
1.14026
1.14214
1.14416
1.14632
1.14862
1.15105
1.15362
1.15632
1.15913
1.16206
1.16508
1.1682
1.17138
1.17461
1.17788
1.18116
1.18443
1.18767
1.19085
1.19394
1.19693
1.19979
1.20249
1.20501
1.20734
1.20944
1.21131
1.21292
1.21426
1.21531
1.21607
1.21653
1.21669
1.21652
1.21605
1.21526
1.21417
1.21277
1.21107
1.20909
1.20684
1.20434
1.20159
1.19863
1.19547
1.19213
1.18865
1.18505
1.18135
1.17758
1.17378
1.16997
1.16618
1.16244
1.15876
1.15518
1.15172
1.14839
1.14521
1.1422
1.13935
1.13668
1.1342
1.13189
1.12976
1.1278
1.126
1.12436
1.12287
1.12151
1.12027
1.11914
1.11812
1.11719
1.11634
1.11557
1.11487
1.11423
1.11365
1.11312
1.11265
1.11222
1.11184
1.11151
1.11122
1.11098
1.11079
1.11063
1.11052
1.11044
1.1104
1.11039
1.11042
1.11046
1.11053
1.11061
1.11071
1.11081
1.11091
1.111
1.11109
1.11117
1.11123
1.11127
1.11129
1.15933
1.15944
1.15964
1.15996
1.16037
1.16089
1.16152
1.16225
1.1631
1.16406
1.16513
1.16632
1.16762
1.16905
1.1706
1.17228
1.17408
1.17601
1.17807
1.18025
1.18256
1.18498
1.18752
1.19016
1.1929
1.19573
1.19863
1.20159
1.20459
1.20762
1.21065
1.21366
1.21665
1.21957
1.22241
1.22516
1.22777
1.23025
1.23256
1.23468
1.2366
1.2383
1.23976
1.24097
1.24192
1.24261
1.24301
1.24313
1.24297
1.24251
1.24177
1.24074
1.23944
1.23787
1.23603
1.23394
1.23162
1.22909
1.22635
1.22343
1.22035
1.21713
1.2138
1.21038
1.2069
1.20338
1.19984
1.19633
1.19284
1.18942
1.18608
1.18283
1.1797
1.1767
1.17385
1.17114
1.16859
1.1662
1.16397
1.16189
1.15997
1.1582
1.15657
1.15508
1.15371
1.15246
1.15132
1.15027
1.14931
1.14844
1.14764
1.14691
1.14625
1.14564
1.14509
1.14459
1.14414
1.14374
1.14339
1.14308
1.14282
1.14259
1.14241
1.14227
1.14216
1.14209
1.14205
1.14204
1.14205
1.14208
1.14213
1.14219
1.14226
1.14233
1.14239
1.14246
1.14251
1.14255
1.14259
1.1426
1.19167
1.19177
1.19197
1.19227