/*--------------------------------*- C++ -*----------------------------------*\
| =========                 |                                                 |
| \\      /  F ield         | OpenFOAM: The Open Source CFD Toolbox           |
|  \\    /   O peration     | Version:  2406                                  |
|   \\  /    A nd           | Website:  www.openfoam.com                      |
|    \\/     M anipulation  |                                                 |
\*---------------------------------------------------------------------------*/
FoamFile
{
    version     2.0;
    format      ascii;
    arch        "LSB;label=32;scalar=64";
    class       volScalarField;
    location    "5.8";
    object      C_0_0;
}
// * * * * * * * * * * * * * * * * * * * * * * * * * * * * * * * * * * * * * //

dimensions      [1 -3 0 0 0 0 0];

internalField   nonuniform List<scalar> 
14400
(
0.276941
0.275141
0.272105
0.268575
0.265241
0.262652
0.261202
0.261134
0.262556
0.265446
0.269637
0.274806
0.280429
0.285737
0.289688
0.291057
0.288933
0.284314
0.278549
0.272823
0.26805
0.264921
0.263962
0.265594
0.270177
0.278038
0.289495
0.304873
0.324511
0.34877
0.378025
0.412641
0.452914
0.498897
0.549792
0.601213
0.638059
0.662692
0.684104
0.702743
0.718874
0.732705
0.744399
0.754082
0.761853
0.767788
0.771944
0.774362
0.775066
0.774067
0.771363
0.766938
0.760764
0.752794
0.742967
0.731203
0.717398
0.701421
0.683107
0.662244
0.638567
0.609767
0.566736
0.511735
0.460688
0.415372
0.375875
0.341917
0.313114
0.289063
0.269381
0.253724
0.241791
0.233328
0.228122
0.226009
0.226858
0.230578
0.2371
0.246377
0.258362
0.272986
0.290127
0.309536
0.330698
0.352263
0.368115
0.374492
0.373858
0.364375
0.349031
0.332972
0.317785
0.304153
0.2924
0.282658
0.274932
0.269125
0.265058
0.262476
0.261068
0.260494
0.260436
0.260661
0.261097
0.261863
0.263236
0.265576
0.269267
0.274663
0.282074
0.291742
0.303837
0.318444
0.335542
0.354945
0.376161
0.397807
0.413473
0.419694
0.287075
0.284701
0.280898
0.276643
0.27272
0.269705
0.267993
0.267823
0.269301
0.272407
0.276988
0.282744
0.289182
0.295548
0.300708
0.302969
0.299943
0.294045
0.287131
0.280493
0.275033
0.271403
0.270094
0.271504
0.275975
0.283823
0.29536
0.310904
0.330793
0.355383
0.385049
0.420157
0.461016
0.507721
0.559399
0.608087
0.641741
0.665815
0.686879
0.705249
0.721173
0.734843
0.74641
0.755994
0.763689
0.769567
0.773683
0.776075
0.776768
0.775771
0.773083
0.768689
0.762559
0.75465
0.744904
0.733244
0.71957
0.703759
0.685655
0.665059
0.641715
0.614452
0.573957
0.519667
0.468316
0.422466
0.382435
0.347995
0.318773
0.294365
0.27439
0.2585
0.246394
0.237816
0.232557
0.230449
0.231365
0.235214
0.241932
0.251475
0.2638
0.278845
0.296491
0.316477
0.338215
0.360079
0.375197
0.381013
0.380902
0.373276
0.358028
0.341364
0.325626
0.311555
0.299476
0.289523
0.281702
0.275915
0.271976
0.269614
0.268484
0.268196
0.268358
0.268665
0.269008
0.269548
0.270634
0.272697
0.27617
0.281441
0.288833
0.298595
0.310897
0.325821
0.343339
0.363242
0.384923
0.406446
0.420282
0.425534
0.307968
0.304141
0.298621
0.292845
0.287729
0.283866
0.281637
0.281266
0.282851
0.286376
0.29171
0.298595
0.306611
0.315089
0.322891
0.32778
0.322173
0.31345
0.304217
0.295803
0.289017
0.284416
0.282428
0.283405
0.287659
0.295487
0.307187
0.323067
0.343456
0.368706
0.399179
0.435227
0.477112
0.524796
0.576875
0.61988
0.648736
0.671945
0.692345
0.710203
0.725727
0.739083
0.750403
0.759794
0.767341
0.773108
0.777146
0.779489
0.78016
0.779168
0.776511
0.772174
0.766132
0.758344
0.748756
0.737297
0.723879
0.70839
0.690694
0.670621
0.647965
0.622462
0.587019
0.535921
0.483719
0.436735
0.395639
0.360246
0.330191
0.305073
0.28451
0.268154
0.255702
0.246897
0.241529
0.239432
0.240482
0.244591
0.2517
0.26177
0.27477
0.290647
0.309286
0.330418
0.353315
0.375272
0.388064
0.393236
0.393728
0.389084
0.375472
0.357987
0.341302
0.326413
0.313704
0.303338
0.295333
0.289596
0.285934
0.284045
0.283524
0.283876
0.284547
0.285055
0.285174
0.285191
0.285634
0.287091
0.290095
0.295094
0.302439
0.312384
0.325092
0.340635
0.358961
0.379819
0.402388
0.422167
0.432277
0.436538
0.340562
0.333777
0.325354
0.317228
0.310336
0.305229
0.302247
0.301585
0.303323
0.307445
0.313839
0.322285
0.332451
0.343772
0.354914
0.359884
0.354461
0.341957
0.32953
0.31867
0.310034
0.304063
0.301106
0.30146
0.305406
0.313216
0.325169
0.341559
0.362701
0.388932
0.420595
0.457997
0.501257
0.549746
0.599327
0.634099
0.658899
0.680883
0.700354
0.717491
0.73245
0.745359
0.756326
0.76544
0.772772
0.778379
0.782303
0.784574
0.785214
0.784229
0.781617
0.777366
0.771451
0.763838
0.754478
0.74331
0.730258
0.715229
0.69811
0.678768
0.657045
0.632764
0.60332
0.559563
0.50664
0.458216
0.415633
0.378855
0.347568
0.321391
0.299948
0.282892
0.26992
0.260774
0.255244
0.253166
0.254418
0.258916
0.266607
0.277462
0.291456
0.308546
0.328611
0.351333
0.375686
0.395751
0.405339
0.410125
0.411198
0.408724
0.399863
0.38256
0.364841
0.34884
0.335226
0.324258
0.315989
0.310349
0.307146
0.306047
0.306566
0.308059
0.309693
0.310622
0.310271
0.309307
0.308607
0.30903
0.311253
0.315801
0.323052
0.333258
0.346558
0.362984
0.382398
0.404312
0.426927
0.441504
0.448384
0.451802
0.381007
0.372614
0.360689
0.349659
0.340562
0.333891
0.329966
0.328943
0.330878
0.335745
0.343432
0.353697
0.366192
0.380056
0.39092
0.392592
0.390142
0.377847
0.362518
0.348973
0.338157
0.330511
0.326344
0.325916
0.329478
0.337282
0.349588
0.366668
0.388815
0.41634
0.449545
0.488671
0.533661
0.582829
0.622184
0.648944
0.671778
0.692335
0.710696
0.726958
0.741221
0.753576
0.764102
0.772867
0.779929
0.785332
0.789111
0.791293
0.791892
0.790916
0.788363
0.784221
0.778469
0.771078
0.762008
0.751208
0.738615
0.724158
0.707749
0.689294
0.668685
0.645817
0.620553
0.586168
0.536487
0.486991
0.442653
0.404104
0.371202
0.343623
0.321008
0.303018
0.289351
0.27975
0.274004
0.271953
0.273475
0.278492
0.286956
0.298841
0.314129
0.33277
0.354591
0.379015
0.403809
0.418895
0.42632
0.430725
0.432198
0.430883
0.426722
0.414657
0.396256
0.378964
0.364209
0.352477
0.34387
0.338386
0.335861
0.335942
0.338054
0.34142
0.344746
0.346605
0.345231
0.342555
0.339991
0.338833
0.33989
0.343771
0.35087
0.361408
0.37546
0.392983
0.413625
0.436218
0.45375
0.462505
0.467781
0.470484
0.418747
0.414851
0.403109
0.389703
0.378344
0.369927
0.364945
0.363524
0.3657
0.371431
0.380576
0.392684
0.407105
0.421167
0.426037
0.425989
0.425018
0.418779
0.402627
0.38667
0.373535
0.364001
0.358438
0.357092
0.36021
0.368035
0.380806
0.398762
0.422157
0.451256
0.48624
0.527124
0.572964
0.614613
0.643149
0.665975
0.686934
0.705985
0.723135
0.738423
0.751901
0.763622
0.773639
0.781999
0.788744
0.793908
0.797518
0.799593
0.800146
0.799182
0.796698
0.792685
0.787127
0.779998
0.771268
0.760897
0.748837
0.735037
0.719436
0.701972
0.682586
0.661226
0.63787
0.611455
0.573168
0.523295
0.477005
0.436348
0.401477
0.372161
0.348087
0.328929
0.314392
0.304219
0.298204
0.296187
0.298052
0.303717
0.313137
0.326284
0.343135
0.363611
0.387432
0.413459
0.434031
0.443845
0.450218
0.454259
0.455985
0.455531
0.453154
0.447616
0.434491
0.416663
0.400725
0.388163
0.379143
0.373872
0.372261
0.373962
0.378262
0.384458
0.390333
0.394179
0.390657
0.385428
0.380066
0.376732
0.37619
0.379176
0.386062
0.397004
0.411894
0.430533
0.451649
0.469791
0.479775
0.485639
0.489752
0.491868
0.453187
0.452872
0.448142
0.436319
0.423462
0.41329
0.407275
0.405466
0.407925
0.414569
0.42527
0.43874
0.453148
0.459616
0.46028
0.460304
0.459657
0.458116
0.449095
0.431766
0.416358
0.404819
0.397738
0.395364
0.397988
0.405874
0.419237
0.438259
0.463113
0.494006
0.530752
0.572459
0.613469
0.642293
0.664246
0.684871
0.703998
0.721534
0.737437
0.7517
0.764337
0.775372
0.784832
0.792746
0.79914
0.804038
0.807459
0.809416
0.809917
0.808966
0.806561
0.802695
0.797354
0.79052
0.782169
0.772273
0.760801
0.747716
0.732985
0.716574
0.698459
0.678632
0.657114
0.633964
0.606293
0.565975
0.51872
0.475911
0.438817
0.407469
0.381662
0.361108
0.345524
0.334662
0.328322
0.32635
0.328627
0.33507
0.345624
0.360241
0.378863
0.401281
0.426695
0.451002
0.463759
0.470966
0.476447
0.480106
0.481954
0.482101
0.480761
0.47824
0.472569
0.460747
0.444434
0.431327
0.4218
0.416778
0.416273
0.420011
0.426673
0.436241
0.442747
0.4448
0.443186
0.437059
0.428369
0.42264
0.420096
0.422015
0.42864
0.440052
0.455612
0.474623
0.490701
0.500376
0.505979
0.510523
0.51372
0.515368
0.487931
0.487836
0.487695
0.483626
0.474718
0.463403
0.456788
0.45466
0.457419
0.464731
0.476629
0.487804
0.493755
0.494609
0.495117
0.495291
0.495065
0.494412
0.492392
0.483
0.466507
0.453139
0.444593
0.441103
0.443192
0.451191
0.465289
0.485562
0.511958
0.544705
0.582291
0.619416
0.64659
0.667031
0.686664
0.705264
0.722654
0.738716
0.753378
0.766603
0.778376
0.788696
0.797571
0.805012
0.811033
0.815647
0.818864
0.820693
0.82114
0.820205
0.817887
0.81418
0.809074
0.802558
0.794614
0.785227
0.774376
0.762043
0.748213
0.732879
0.716043
0.69773
0.67799
0.656914
0.634651
0.606699
0.566653
0.522877
0.48362
0.450032
0.422265
0.400103
0.383303
0.371632
0.364908
0.362988
0.365751
0.373098
0.38495
0.401197
0.421714
0.445966
0.47155
0.486413
0.493769
0.49981
0.504497
0.507765
0.509622
0.51016
0.509549
0.508037
0.505942
0.501646
0.493084
0.481184
0.471212
0.466554
0.467059
0.472889
0.479875
0.484346
0.486366
0.486479
0.487038
0.485559
0.481706
0.475408
0.470842
0.47182
0.47806
0.489765
0.504615
0.516455
0.524124
0.528928
0.53324
0.536756
0.539235
0.540516
0.522771
0.522826
0.523003
0.523453
0.521644
0.517251
0.512015
0.509692
0.512711
0.519182
0.525167
0.528786
0.529217
0.529764
0.530286
0.530679
0.530899
0.530959
0.530938
0.529543
0.522193
0.508495
0.499176
0.494508
0.496043
0.504225
0.519196
0.540874
0.568326
0.601986
0.63238
0.655959
0.674414
0.692555
0.710115
0.726868
0.742638
0.757296
0.770756
0.782958
0.793868
0.803465
0.811743
0.818698
0.824333
0.828651
0.831657
0.833354
0.833744
0.832827
0.830601
0.827063
0.822206
0.816022
0.808504
0.799643
0.789432
0.777866
0.764947
0.750685
0.735106
0.718254
0.7002
0.681052
0.66096
0.640118
0.613422
0.576272
0.536041
0.500243
0.470418
0.446486
0.428325
0.415722
0.408547
0.40669
0.410009
0.418364
0.43165
0.449531
0.471771
0.496598
0.511809
0.519054
0.525004
0.530008
0.533968
0.536833
0.538609
0.539366
0.539238
0.538418
0.537155
0.535755
0.533738
0.529171
0.52416
0.52085
0.520713
0.522185
0.5235
0.52284
0.522161
0.522216
0.522964
0.524485
0.525852
0.525361
0.524963
0.526438
0.531537
0.53882
0.545866
0.550545
0.554279
0.557968
0.561299
0.564024
0.56595
0.566945
0.557557
0.557694
0.558018
0.558634
0.559698
0.560657
0.559993
0.559822
0.561275
0.563363
0.56402
0.564018
0.564383
0.564944
0.565584
0.566239
0.566894
0.567585
0.568413
0.569554
0.570195
0.566729
0.560524
0.554914
0.556201
0.564658
0.580346
0.603235
0.628857
0.651607
0.670079
0.686228
0.702526
0.71866
0.734374
0.749454
0.763732
0.777077
0.789391
0.800606
0.810671
0.819555
0.827237
0.833704
0.838949
0.842968
0.845759
0.847321
0.847654
0.846757
0.844628
0.841264
0.836663
0.830821
0.823738
0.815411
0.805843
0.795042
0.783023
0.769809
0.755442
0.739979
0.723505
0.706134
0.688014
0.669335
0.650315
0.626531
0.594733
0.557959
0.526458
0.500735
0.481154
0.467494
0.45978
0.458002
0.46194
0.471317
0.486082
0.504951
0.527106
0.540658
0.54714
0.552435
0.557184
0.561249
0.564535
0.566991
0.568615
0.569458
0.569618
0.56924
0.568507
0.567629
0.566828
0.566346
0.565405
0.563847
0.562509
0.56059
0.558736
0.557635
0.557141
0.557263
0.558003
0.559393
0.561459
0.564397
0.567391
0.570056
0.573339
0.576348
0.578742
0.581526
0.584479
0.587365
0.589965
0.592091
0.593593
0.594371
0.592205
0.592375
0.592743
0.593361
0.594282
0.595505
0.596995
0.598181
0.598561
0.598485
0.598562
0.598843
0.599353
0.600044
0.600868
0.6018
0.602852
0.604076
0.605577
0.607522
0.610154
0.613667
0.615123
0.61676
0.621071
0.629869
0.643376
0.65918
0.674762
0.688305
0.702064
0.716335
0.7308
0.745187
0.759266
0.772843
0.785759
0.797887
0.809127
0.819402
0.828656
0.836848
0.843947
0.849933
0.854791
0.858512
0.861089
0.862518
0.862796
0.86192
0.859889
0.856703
0.85236
0.846863
0.840214
0.832419
0.823488
0.813437
0.802292
0.790087
0.776873
0.762716
0.747707
0.731963
0.71563
0.698886
0.681944
0.665058
0.645598
0.620426
0.589718
0.562814
0.542096
0.527251
0.518866
0.517208
0.521808
0.531804
0.547551
0.563301
0.573531
0.578201
0.582351
0.586363
0.590049
0.59327
0.595931
0.597979
0.599403
0.600233
0.600537
0.600418
0.600002
0.599427
0.598818
0.598246
0.597586
0.596676
0.595283
0.593842
0.592616
0.591823
0.591506
0.59169
0.592392
0.593625
0.595394
0.597692
0.60033
0.60308
0.60547
0.607716
0.609972
0.61234
0.614744
0.617048
0.619106
0.620781
0.621962
0.622573
0.626683
0.626857
0.627218
0.627784
0.628564
0.629529
0.630585
0.631498
0.632094
0.632486
0.632901
0.633438
0.634141
0.635011
0.636043
0.637242
0.638637
0.640289
0.642296
0.644802
0.648003
0.652148
0.657575
0.664196
0.671139
0.67955
0.689261
0.699103
0.709684
0.721264
0.733536
0.746247
0.759151
0.772022
0.78466
0.796893
0.808575
0.819586
0.829827
0.83922
0.847704
0.855232
0.861769
0.867288
0.87177
0.8752
0.877567
0.878866
0.87909
0.878238
0.876307
0.873297
0.869212
0.864056
0.857835
0.850562
0.842252
0.832928
0.822621
0.811375
0.799246
0.786305
0.772645
0.758382
0.743655
0.728634
0.713516
0.698535
0.683963
0.669159
0.650755
0.630126
0.610007
0.594089
0.584928
0.583377
0.58845
0.596817
0.604464
0.609956
0.612164
0.614807
0.6177
0.620617
0.623378
0.62585
0.62794
0.629592
0.630785
0.631533
0.631879
0.631892
0.631656
0.631258
0.630773
0.630232
0.629599
0.628815
0.627854
0.62688
0.626062
0.625535
0.625369
0.625601
0.62625
0.627321
0.628802
0.630646
0.632738
0.634923
0.637028
0.639068
0.641089
0.643117
0.645108
0.646978
0.648629
0.649964
0.650902
0.651386
0.660987
0.661153
0.661488
0.661994
0.662663
0.66346
0.664318
0.665131
0.665833
0.666463
0.667118
0.667869
0.668761
0.669816
0.671051
0.672488
0.674167
0.676146
0.678515
0.681388
0.68491
0.68924
0.69453
0.700798
0.707966
0.715762
0.724137
0.73323
0.743032
0.753529
0.764568
0.775967
0.787535
0.799089
0.810458
0.821493
0.832063
0.842054
0.851374
0.859946
0.867707
0.874608
0.88061
0.885682
0.889801
0.89295
0.895115
0.896288
0.896462
0.895634
0.893802
0.890968
0.887136
0.882313
0.87651
0.869742
0.862029
0.8534
0.84389
0.833547
0.822429
0.810612
0.798187
0.785264
0.771976
0.758478
0.744951
0.731601
0.718661
0.706391
0.695096
0.683127
0.670623
0.659546
0.651702
0.647904
0.647497
0.648583
0.648674
0.648692
0.649632
0.651162
0.653027
0.655025
0.656995
0.658812
0.660388
0.661663
0.662612
0.663235
0.663555
0.663615
0.663471
0.663178
0.662783
0.662312
0.661763
0.66113
0.660435
0.659764
0.659218
0.658888
0.658834
0.659094
0.659685
0.660608
0.661845
0.663352
0.665051
0.666848
0.668652
0.670437
0.6722
0.673931
0.675593
0.677129
0.678468
0.679544
0.680296
0.680683
0.695125
0.695279
0.695586
0.696041
0.696632
0.697331
0.698096
0.698876
0.699643
0.700414
0.701238
0.70216
0.703218
0.704441
0.705856
0.707493
0.709394
0.711615
0.714229
0.717326
0.721007
0.725374
0.730505
0.736416
0.74306
0.750333
0.758191
0.766649
0.775685
0.785251
0.795241
0.805519
0.815934
0.826339
0.836591
0.84656
0.856128
0.865194
0.87367
0.881483
0.888571
0.894883
0.90038
0.905028
0.908802
0.911683
0.913655
0.914709
0.914836
0.914033
0.912299
0.909636
0.906051
0.901551
0.89615
0.889866
0.882723
0.874752
0.865993
0.856493
0.846313
0.835528
0.824225
0.812511
0.800506
0.788352
0.77621
0.764256
0.752687
0.741709
0.73153
0.722307
0.714325
0.707343
0.701252
0.696139
0.691928
0.688846
0.687129
0.68642
0.686512
0.68718
0.68822
0.689463
0.690765
0.692017
0.693135
0.694062
0.694766
0.695239
0.69549
0.695544
0.695434
0.695199
0.694869
0.694468
0.69401
0.693509
0.692994
0.692521
0.692157
0.691963
0.691986
0.692256
0.692788
0.693581
0.694619
0.695865
0.697267
0.698763
0.700296
0.70183
0.703343
0.704813
0.706205
0.707475
0.708572
0.709446
0.710055
0.710368
0.72911
0.729253
0.729536
0.729953
0.730494
0.731137
0.731858
0.732633
0.733448
0.734315
0.735259
0.736314
0.737509
0.738875
0.740439
0.742235
0.744302
0.746691
0.749461
0.752679
0.756418
0.760743
0.765701
0.771303
0.777524
0.784318
0.791647
0.799489
0.807809
0.81655
0.825627
0.834931
0.844344
0.853743
0.863007
0.872026
0.880695
0.888924
0.89663
0.903745
0.910209
0.915974
0.920998
0.925248
0.928697
0.931325
0.933115
0.934055
0.93414
0.933363
0.931725
0.929228
0.925879
0.921689
0.916673
0.910849
0.904246
0.896894
0.888835
0.880117
0.870802
0.860961
0.850676
0.840047
0.829185
0.818215
0.807279
0.796528
0.786123
0.776229
0.767004
0.75858
0.751074
0.744458
0.738697
0.733778
0.729741
0.726662
0.724576
0.723346
0.722817
0.722825
0.723212
0.723839
0.724586
0.725356
0.726072
0.726682
0.727152
0.727465
0.727622
0.727635
0.727524
0.727314
0.727026
0.726683
0.7263
0.7259
0.72551
0.72517
0.724926
0.724821
0.72489
0.725155
0.725629
0.72631
0.727183
0.728223
0.72939
0.730642
0.731938
0.733242
0.73453
0.735772
0.736939
0.737993
0.738897
0.739614
0.740111
0.740365
0.762952
0.763086
0.763351
0.763743
0.764252
0.764865
0.765568
0.766348
0.767202
0.768137
0.769171
0.770327
0.771631
0.773109
0.77479
0.776704
0.778889
0.781386
0.784243
0.787511
0.791242
0.795479
0.800252
0.805569
0.811417
0.817767
0.824589
0.831851
0.839511
0.847514
0.855784
0.864235
0.872768
0.88128
0.88967
0.897842
0.905704
0.913175
0.920181
0.926657
0.932548
0.937806
0.94239
0.946268
0.949413
0.951804
0.953423
0.954259
0.954304
0.953554
0.952009
0.949672
0.946549
0.942654
0.938002
0.932613
0.926516
0.919743
0.912335
0.90434
0.895818
0.886836
0.877472
0.867817
0.857971
0.848046
0.838163
0.828453
0.819048
0.810081
0.801675
0.793934
0.786935
0.780696
0.775222
0.770515
0.766595
0.763483
0.761168
0.759571
0.758586
0.758091
0.757965
0.758096
0.758384
0.758747
0.759116
0.759443
0.759693
0.759847
0.759898
0.75985
0.759714
0.759505
0.75924
0.758935
0.758609
0.758281
0.757976
0.757724
0.757557
0.757506
0.757597
0.757847
0.758263
0.758846
0.759582
0.760453
0.761429
0.762478
0.76357
0.764673
0.765761
0.766808
0.767785
0.768663
0.769411
0.770001
0.770409
0.770617
0.796659
0.796787
0.79704
0.797415
0.797905
0.798503
0.7992
0.799991
0.800875
0.80186
0.80296
0.804192
0.805578
0.807141
0.808907
0.810904
0.813164
0.815721
0.818615
0.821882
0.82556
0.829679
0.834259
0.839305
0.844807
0.850745
0.857092
0.863815
0.870871
0.878208
0.885762
0.893458
0.901212
0.908938
0.916551
0.923966
0.931104
0.937891
0.944262
0.950155
0.95552
0.96031
0.964488
0.968022
0.970884
0.973054
0.974514
0.975254
0.975264
0.974541
0.973085
0.9709
0.967993
0.964376
0.960067
0.955086
0.949462
0.943227
0.936421
0.929091
0.921294
0.913093
0.90456
0.895777
0.886836
0.877833
0.868875
0.860072
0.851534
0.843371
0.835681
0.828548
0.822033
0.816171
0.810978
0.806466
0.802642
0.799508
0.79704
0.795185
0.793864
0.792987
0.79246
0.792195
0.792109
0.792131
0.792203
0.792281
0.79233
0.792331
0.792273
0.792153
0.791977
0.791753
0.791492
0.79121
0.790919
0.790639
0.790389
0.790192
0.790071
0.79005
0.790145
0.790371
0.790732
0.791227
0.791847
0.792576
0.793393
0.794273
0.79519
0.796118
0.797034
0.797913
0.798731
0.799462
0.800082
0.80057
0.800906
0.801078
0.83024
0.830363
0.830608
0.830972
0.831451
0.832041
0.832738
0.833539
0.834448
0.83547
0.836617
0.837903
0.839347
0.84097
0.842793
0.844841
0.847141
0.849721
0.852611
0.855841
0.859436
0.863418
0.8678
0.872583
0.877761
0.883314
0.889219
0.895444
0.90195
0.908687
0.915599
0.922621
0.929683
0.936711
0.94363
0.950368
0.956855
0.963025
0.968819
0.974182
0.979065
0.983427
0.987231
0.990447
0.993048
0.995013
0.996327
0.996977
0.996957
0.996261
0.99489
0.992849
0.990145
0.986791
0.982803
0.978203
0.973018
0.967281
0.96103
0.95431
0.947174
0.939681
0.931897
0.923897
0.915761
0.907576
0.899432
0.891425
0.883647
0.876188
0.86913
0.862543
0.856479
0.850976
0.846055
0.841728
0.838
0.834865
0.832301
0.830265
0.828698
0.827532
0.826695
0.826114
0.825724
0.825465
0.825285
0.825146
0.825017
0.824875
0.824709
0.824513
0.824287
0.824036
0.823767
0.823491
0.82322
0.822967
0.822749
0.822583
0.822487
0.822476
0.822564
0.82276
0.823067
0.823484
0.824004
0.824613
0.825295
0.82603
0.826798
0.827576
0.828344
0.82908
0.829763
0.830371
0.830886
0.83129
0.831568
0.831709
0.863697
0.863817
0.864056
0.864414
0.864887
0.865473
0.866171
0.866981
0.867907
0.868954
0.870133
0.871456
0.872939
0.874598
0.876454
0.878526
0.880837
0.88341
0.886269
0.889434
0.892926
0.896759
0.900939
0.905469
0.910338
0.915532
0.921027
0.926794
0.932796
0.93899
0.945325
0.951745
0.958188
0.964591
0.97089
0.977021
0.982922
0.988535
0.993807
0.998687
1.00313
1.0071
1.01056
1.01349
1.01585
1.01762
1.0188
1.01937
1.01932
1.01866
1.01737
1.01546
1.01295
1.00984
1.00615
1.0019
0.997127
0.991849
0.986108
0.979946
0.973412
0.96656
0.959451
0.952152
0.944735
0.937276
0.929854
0.922549
0.915441
0.908604
0.902109
0.896014
0.890366
0.885199
0.880536
0.87639
0.872765
0.869653
0.867034
0.864875
0.863131
0.861749
0.860673
0.859844
0.859209
0.858718
0.858327
0.858002
0.857715
0.857444
0.857176
0.856903
0.856623
0.856337
0.85605
0.855768
0.855501
0.85526
0.855057
0.854905
0.854816
0.854803
0.854874
0.855037
0.855292
0.855639
0.85607
0.856576
0.857143
0.857755
0.858395
0.859045
0.859686
0.8603
0.860868
0.861374
0.861802
0.862136
0.862366
0.862483
0.897033
0.897151
0.897387
0.89774
0.898209
0.898792
0.899492
0.900307
0.901244
0.902307
0.903506
0.90485
0.906354
0.908031
0.909898
0.911972
0.914272
0.916815
0.919619
0.922702
0.926076
0.92975
0.93373
0.938013
0.94259
0.947447
0.952563
0.957908
0.963452
0.969153
0.974967
0.980845
0.986733
0.992576
0.998318
1.0039
1.00928
1.01439
1.01919
1.02363
1.02767
1.03129
1.03443
1.03709
1.03923
1.04083
1.04189
1.04238
1.04231
1.04167
1.04046
1.03868
1.03635
1.03347
1.03006
1.02614
1.02174
1.01688
1.01161
1.00595
0.999966
0.993695
0.987195
0.980526
0.973752
0.96694
0.960158
0.953476
0.946962
0.94068
0.934688
0.929038
0.92377
0.918917
0.914501
0.910533
0.907017
0.903947
0.901306
0.89907
0.897202
0.895661
0.894402
0.89338
0.89255
0.89187
0.891304
0.890821
0.890396
0.890009
0.889647
0.8893
0.888964
0.888639
0.888326
0.88803
0.887757
0.887516
0.887315
0.887163
0.887071
0.887045
0.887094
0.887221
0.887426
0.887708
0.888062
0.888478
0.888946
0.889452
0.889983
0.890522
0.891055
0.891565
0.892037
0.892456
0.89281
0.893087
0.893277
0.893374
0.930252
0.930368
0.930601
0.93095
0.931415
0.931997
0.932695
0.933513
0.934455
0.935525
0.936732
0.938085
0.939594
0.941273
0.943135
0.945193
0.947462
0.949957
0.952692
0.955678
0.958924
0.962437
0.966218
0.970263
0.974564
0.979105
0.983868
0.988826
0.993949
0.999202
1.00454
1.00993
1.01532
1.02066
1.0259
1.031
1.0359
1.04055
1.04492
1.04897
1.05265
1.05593
1.0588
1.06121
1.06314
1.06459
1.06553
1.06596
1.06587
1.06526
1.06412
1.06246
1.06029
1.05762
1.05447
1.05085
1.0468
1.04233
1.03748
1.0323
1.0268
1.02106
1.01511
1.00901
1.00281
0.996573
0.990362
0.984235
0.978251
0.972464
0.966925
0.961679
0.956761
0.9522
0.948017
0.944223
0.940822
0.937811
0.935175
0.932896
0.930945
0.92929
0.927896
0.926724
0.92574
0.924908
0.924198
0.923582
0.923039
0.92255
0.922102
0.921686
0.921295
0.920929
0.920585
0.920268
0.919982
0.919731
0.919522
0.919362
0.919258
0.919214
0.919236
0.919325
0.919483
0.919707
0.919991
0.920328
0.92071
0.921125
0.921562
0.922006
0.922446
0.922867
0.923257
0.923604
0.923896
0.924125
0.924281
0.924361
0.963353
0.963469
0.963699
0.964044
0.964506
0.965084
0.965779
0.966596
0.967536
0.968606
0.969813
0.971163
0.972666
0.974333
0.976175
0.978202
0.980427
0.982861
0.985513
0.988393
0.991506
0.994855
0.998441
1.00226
1.0063
1.01054
1.01498
1.01958
1.02432
1.02916
1.03408
1.03902
1.04396
1.04885
1.05364
1.05829
1.06276
1.067
1.07098
1.07467
1.07802
1.08101
1.08361
1.08579
1.08755
1.08885
1.08969
1.09006
1.08995
1.08936
1.08829
1.08675
1.08473
1.08226
1.07935
1.07601
1.07227
1.06816
1.0637
1.05894
1.0539
1.04863
1.04317
1.03758
1.0319
1.02618
1.02048
1.01485
1.00934
1.004
0.998871
0.993991
0.989394
0.985105
0.981143
0.977519
0.974239
0.971298
0.968689
0.966394
0.964393
0.962659
0.961166
0.959881
0.958777
0.957824
0.956996
0.956271
0.955628
0.95505
0.954526
0.954046
0.953603
0.953194
0.952819
0.952477
0.952171
0.951904
0.951681
0.951506
0.951383
0.951317
0.95131
0.951362
0.951475
0.951644
0.951866
0.952134
0.952441
0.952777
0.953133
0.953496
0.953856
0.954201
0.954521
0.954806
0.955046
0.955234
0.955362
0.955428
0.99634
0.996454
0.996681
0.997023
0.99748
0.998052
0.998743
0.999554
1.00049
1.00155
1.00275
1.00409
1.00557
1.00722
1.00903
1.01101
1.01318
1.01555
1.01811
1.02087
1.02385
1.02704
1.03043
1.03403
1.03782
1.04179
1.04592
1.05019
1.05458
1.05905
1.06358
1.06812
1.07265
1.07713
1.08151
1.08576
1.08984
1.09371
1.09734
1.1007
1.10375
1.10647
1.10883
1.11082
1.1124
1.11358
1.11433
1.11464
1.11452
1.11395
1.11295
1.1115
1.10963
1.10734
1.10465
1.10157
1.09812
1.09434
1.09023
1.08585
1.08122
1.07638
1.07137
1.06624
1.06102
1.05577
1.05053
1.04535
1.04027
1.03533
1.03057
1.02602
1.02172
1.01768
1.01393
1.01047
1.00731
1.00446
1.00189
0.999598
0.997572
0.995789
0.994226
0.992858
0.991663
0.990615
0.989693
0.988877
0.98815
0.987497
0.986906
0.986368
0.985876
0.985427
0.985018
0.984649
0.98432
0.984033
0.983791
0.983597
0.983453
0.983361
0.983324
0.98334
0.983409
0.983529
0.983695
0.983902
0.984143
0.98441
0.984695
0.984988
0.985279
0.98556
0.985821
0.986053
0.986249
0.986402
0.986507
0.98656
1.02921
1.02933
1.02955
1.02989
1.03034
1.0309
1.03159
1.03239
1.03331
1.03436
1.03554
1.03686
1.03833
1.03994
1.04171
1.04364
1.04575
1.04803
1.0505
1.05315
1.05599
1.05901
1.06222
1.06561
1.06917
1.07288
1.07672
1.08069
1.08475
1.08888
1.09306
1.09724
1.1014
1.1055
1.10951
1.1134
1.11713
1.12067
1.12398
1.12704
1.12982
1.13229
1.13444
1.13624
1.13767
1.13873
1.13939
1.13966
1.13952
1.13898
1.13804
1.13669
1.13495
1.13283
1.13034
1.12749
1.12431
1.12082
1.11705
1.11301
1.10876
1.10431
1.0997
1.09498
1.09019
1.08535
1.08053
1.07575
1.07105
1.06647
1.06205
1.05781
1.05378
1.04998
1.04642
1.04313
1.04009
1.03732
1.03481
1.03254
1.03051
1.0287
1.02709
1.02566
1.0244
1.02328
1.02228
1.0214
1.0206
1.01988
1.01923
1.01864
1.01811
1.01762
1.01718
1.01678
1.01643
1.01612
1.01585
1.01564
1.01547
1.01535
1.01528
1.01526
1.01529
1.01537
1.01548
1.01564
1.01582
1.01603
1.01625
1.01648
1.01671
1.01694
1.01715
1.01734
1.01749
1.01762
1.0177
1.01775
1.06197
1.06208
1.06231
1.06264
1.06308
1.06364
1.06431
1.0651
1.06601
1.06704
1.0682
1.0695
1.07093
1.0725
1.07422
1.0761
1.07813
1.08033
1.0827
1.08523
1.08793
1.0908
1.09383
1.09702
1.10036
1.10382
1.10741
1.11109
1.11486
1.11868
1.12253
1.12638
1.1302
1.13396
1.13764
1.1412
1.14461
1.14784
1.15087
1.15366
1.15619
1.15844
1.16039
1.16202
1.16332
1.16426
1.16485
1.16508
1.16493
1.16441
1.16353
1.16227
1.16065
1.15869
1.15638
1.15375
1.15081
1.1476
1.14412
1.1404
1.13648
1.13239
1.12815
1.1238
1.11939
1.11493
1.11048
1.10606
1.10171
1.09746
1.09334
1.08938
1.08561
1.08203
1.07866
1.07552
1.07261
1.06993
1.06748
1.06524
1.06323
1.06141
1.05977
1.05831
1.057
1.05582
1.05477
1.05382
1.05297
1.0522
1.0515
1.05087
1.05029
1.04977
1.04929
1.04887
1.04849
1.04816
1.04787
1.04763
1.04744
1.04729
1.04719
1.04714
1.04713
1.04716
1.04723
1.04734
1.04747
1.04762
1.0478
1.04797
1.04816
1.04833
1.0485
1.04865
1.04877
1.04887
1.04894
1.04898
1.09462
1.09473
1.09495
1.09528
1.09571
1.09626
1.09692
1.09769
1.09858
1.09959
1.10073
1.10199
1.10338
1.10491
1.10658
1.1084
1.11036
1.11247
1.11473
1.11715
1.11971
1.12243
1.12529
1.12829
1.13141
1.13465
1.13799
1.14142
1.14491
1.14844
1.15199
1.15554
1.15906
1.16252
1.16589
1.16915
1.17227
1.17523
1.17799
1.18053
1.18284
1.18489
1.18666
1.18814
1.18931
1.19016
1.19068
1.19087
1.19071
1.19022
1.18938
1.18821
1.1867
1.18488
1.18274
1.18031
1.1776
1.17463
1.17142
1.16799
1.16438
1.16061
1.1567
1.15269
1.14862
1.14451
1.14039
1.1363
1.13227
1.12832
1.12448
1.12078
1.11723
1.11386
1.11067
1.10768
1.10489
1.10231
1.09992
1.09774
1.09574
1.09393
1.09228
1.0908
1.08945
1.08824
1.08714
1.08615
1.08526
1.08444
1.0837
1.08303
1.08242
1.08186
1.08136
1.08091
1.08051
1.08015
1.07984
1.07958
1.07936
1.07919
1.07906
1.07897
1.07893
1.07892
1.07895
1.07901
1.0791
1.07921
1.07933
1.07947
1.0796
1.07974
1.07987
1.07998
1.08008
1.08016
1.08021
1.08024
1.12717
1.12727
1.12748
1.1278
1.12823
1.12876
1.12941
1.13017
1.13104
1.13202
1.13313
1.13435
1.13571
1.13719
1.1388
1.14055
1.14243
1.14445
1.14661
1.14891
1.15135
1.15391
1.15661
1.15943
1.16235
1.16538
1.1685
1.17168
1.17492
1.17818
1.18147
1.18474
1.18797
1.19115
1.19425
1.19724
1.2001
1.2028
1.20532
1.20765
1.20975
1.21162
1.21323
1.21457
1.21562
1.21639
1.21685
1.217
1.21684
1.21636
1.21558
1.21448
1.21308
1.21138
1.2094
1.20715
1.20465
1.2019
1.19894
1.19578
1.19244
1.18896
1.18535
1.18166
1.17789
1.17409
1.17028
1.16648
1.16274
1.15906
1.15548
1.15202
1.14869
1.14551
1.14249
1.13964
1.13697
1.13448
1.13217
1.13004
1.12808
1.12628
1.12464
1.12314
1.12178
1.12054
1.11942
1.11839
1.11746
1.11661
1.11584
1.11513
1.11449
1.11391
1.11338
1.1129
1.11247
1.1121
1.11176
1.11148
1.11123
1.11104
1.11088
1.11076
1.11069
1.11065
1.11064
1.11066
1.11071
1.11078
1.11086
1.11095
1.11105
1.11115
1.11125
1.11133
1.11141
1.11147
1.11151
1.11153
1.1596
1.15971
1.15991
1.16022
1.16064
1.16116
1.16179
1.16253
1.16337
1.16433
1.1654
1.16659
1.1679
1.16933
1.17088
1.17256
1.17436
1.1763
1.17835
1.18054
1.18284
1.18527
1.18781
1.19046
1.1932
1.19603
1.19893
1.20189
1.20489
1.20792
1.21095
1.21397
1.21695
1.21987
1.22272
1.22546
1.22808
1.23055
1.23286
1.23498
1.2369
1.2386
1.24007
1.24128
1.24223
1.24291
1.24332
1.24344
1.24327
1.24282
1.24208
1.24105
1.23975
1.23817
1.23634
1.23425
1.23193
1.22939
1.22665
1.22373
1.22065
1.21743
1.2141
1.21068
1.2072
1.20368
1.20014
1.19662
1.19314
1.18972
1.18637
1.18313
1.18
1.177
1.17414
1.17143
1.16887
1.16648
1.16425
1.16217
1.16025
1.15848
1.15685
1.15535
1.15398
1.15273
1.15158
1.15054
1.14958
1.1487
1.1479
1.14717
1.1465
1.1459
1.14534
1.14484
1.1444
1.14399
1.14364
1.14333
1.14306
1.14284
1.14266
1.14252
1.14241
1.14234
1.1423
1.14228
1.1423
1.14233
1.14237
1.14243
1.1425
1.14257
1.14264
1.1427
1.14275
1.1428
1.14283
1.14284
1.19194
1.19204