/*--------------------------------*- C++ -*----------------------------------*\
| =========                 |                                                 |
| \\      /  F ield         | OpenFOAM: The Open Source CFD Toolbox           |
|  \\    /   O peration     | Version:  2406                                  |
|   \\  /    A nd           | Website:  www.openfoam.com                      |
|    \\/     M anipulation  |                                                 |
\*---------------------------------------------------------------------------*/
FoamFile
{
    version     2.0;
    format      ascii;
    arch        "LSB;label=32;scalar=64";
    class       volScalarField;
    location    "6.35";
    object      C;
}
// * * * * * * * * * * * * * * * * * * * * * * * * * * * * * * * * * * * * * //

dimensions      [1 -3 0 0 0 0 0];

internalField   nonuniform List<scalar> 
14400
(
0.256348
0.254914
0.252455
0.249544
0.246742
0.244512
0.243191
0.24299
0.243999
0.246186
0.249392
0.253314
0.257487
0.261262
0.263825
0.264332
0.262304
0.25835
0.253435
0.248486
0.244271
0.241396
0.240342
0.241497
0.245197
0.251749
0.26145
0.274606
0.291536
0.312584
0.338114
0.368506
0.40413
0.445281
0.491961
0.542789
0.586133
0.61571
0.638091
0.657535
0.674341
0.688741
0.700914
0.710999
0.719103
0.72531
0.729681
0.73226
0.733075
0.732138
0.729448
0.724988
0.718727
0.71062
0.700601
0.688585
0.674462
0.658093
0.6393
0.617857
0.593441
0.558199
0.508916
0.458474
0.412626
0.372267
0.337313
0.307432
0.282229
0.261311
0.244318
0.230924
0.220846
0.213844
0.209717
0.208307
0.209488
0.213171
0.219295
0.227817
0.238696
0.251874
0.267241
0.28458
0.303442
0.322681
0.337722
0.344379
0.343596
0.334605
0.321053
0.307053
0.29382
0.281914
0.271618
0.263051
0.25622
0.251043
0.247364
0.244966
0.243588
0.242953
0.242804
0.242966
0.243387
0.244164
0.24552
0.24775
0.251174
0.256101
0.262799
0.271488
0.282327
0.295402
0.310708
0.328096
0.347162
0.3668
0.382277
0.389218
0.265228
0.263376
0.260318
0.256813
0.253513
0.250916
0.249368
0.249081
0.250144
0.252531
0.256089
0.26053
0.265393
0.270003
0.273416
0.274403
0.271805
0.266918
0.261085
0.255365
0.250546
0.24722
0.245846
0.246794
0.250387
0.25692
0.266686
0.279984
0.29713
0.318466
0.344352
0.375161
0.411247
0.452864
0.499914
0.550766
0.591636
0.619036
0.641027
0.660172
0.676747
0.690969
0.703002
0.712979
0.721001
0.727146
0.731473
0.734025
0.734827
0.733891
0.731217
0.726788
0.720574
0.712532
0.702598
0.690692
0.676709
0.660517
0.641951
0.6208
0.596795
0.564089
0.517071
0.465945
0.419447
0.378534
0.343094
0.312784
0.287208
0.265973
0.248715
0.23511
0.224875
0.217769
0.213592
0.212187
0.213432
0.21724
0.223552
0.232327
0.243528
0.257104
0.272947
0.290835
0.310294
0.330082
0.34491
0.350982
0.350847
0.343012
0.329263
0.314741
0.301008
0.288695
0.278096
0.269331
0.262404
0.25723
0.253646
0.251418
0.250257
0.249838
0.249854
0.250075
0.25043
0.25104
0.252178
0.254195
0.257453
0.262288
0.268982
0.277763
0.288793
0.302158
0.317849
0.335699
0.355238
0.375137
0.389614
0.39532
0.283551
0.280657
0.276247
0.271477
0.267154
0.263816
0.261813
0.261352
0.262521
0.265297
0.269546
0.275008
0.281251
0.2876
0.29296
0.295386
0.291176
0.284165
0.276421
0.269156
0.263147
0.258936
0.256934
0.257477
0.26086
0.26736
0.277257
0.29084
0.308421
0.330334
0.356932
0.388575
0.425588
0.468138
0.515778
0.56532
0.601039
0.625579
0.64681
0.665377
0.681508
0.695384
0.707148
0.716914
0.724774
0.730799
0.735041
0.737538
0.738316
0.737384
0.734741
0.730372
0.724251
0.716335
0.706567
0.694875
0.681164
0.665316
0.647187
0.626594
0.603308
0.574527
0.532022
0.480469
0.433035
0.391126
0.354746
0.323588
0.297269
0.275399
0.257614
0.243588
0.233039
0.225725
0.221451
0.22006
0.221435
0.225492
0.232178
0.241457
0.253301
0.267663
0.284444
0.303412
0.323989
0.344469
0.357974
0.363299
0.363867
0.358824
0.345603
0.330112
0.315423
0.302329
0.291143
0.281991
0.274881
0.269728
0.266354
0.264498
0.263813
0.263884
0.264278
0.264638
0.264837
0.265059
0.265707
0.267254
0.27015
0.27478
0.281456
0.290413
0.301814
0.315745
0.332188
0.350941
0.371347
0.391088
0.402447
0.406754
0.31244
0.307324
0.300517
0.293708
0.287814
0.283367
0.280688
0.279967
0.281284
0.284624
0.289869
0.296799
0.305039
0.313979
0.322486
0.327446
0.320478
0.310015
0.299397
0.289885
0.282159
0.276671
0.273762
0.273717
0.276798
0.283258
0.293356
0.307373
0.325609
0.348388
0.376052
0.408936
0.447321
0.491295
0.540028
0.583429
0.612378
0.635095
0.655259
0.673018
0.688525
0.701911
0.71329
0.722756
0.730384
0.736234
0.740353
0.742772
0.743514
0.742587
0.73999
0.73571
0.729722
0.721989
0.712462
0.701077
0.687754
0.672397
0.654886
0.635079
0.612806
0.587615
0.551907
0.501889
0.453506
0.410212
0.372458
0.340044
0.312616
0.289794
0.271218
0.256562
0.245544
0.237923
0.233506
0.23214
0.233712
0.238146
0.245392
0.255423
0.268217
0.283735
0.301884
0.322418
0.344589
0.364802
0.375406
0.380233
0.381397
0.378934
0.369097
0.352961
0.3371
0.322941
0.310926
0.301218
0.293856
0.288761
0.285748
0.284524
0.284668
0.28562
0.286726
0.287353
0.28725
0.286738
0.286507
0.287238
0.289518
0.293799
0.30042
0.309621
0.321556
0.336292
0.35379
0.37378
0.395181
0.411667
0.419059
0.422474
0.35267
0.34351
0.333152
0.323572
0.315626
0.309747
0.306194
0.305133
0.30664
0.310692
0.317179
0.325913
0.336534
0.348341
0.3593
0.361872
0.357101
0.34365
0.329743
0.317532
0.307699
0.300617
0.29656
0.29577
0.298471
0.304891
0.31527
0.329872
0.348985
0.372919
0.401992
0.436477
0.476497
0.521597
0.568703
0.602241
0.62598
0.647162
0.666111
0.682913
0.697661
0.710445
0.721346
0.730435
0.737771
0.743401
0.747363
0.749684
0.750381
0.749461
0.746923
0.742755
0.736937
0.729437
0.720214
0.709217
0.696381
0.681631
0.66488
0.646031
0.624984
0.601656
0.573277
0.530782
0.48114
0.436043
0.39651
0.362447
0.333548
0.30946
0.289829
0.274334
0.262691
0.254664
0.250061
0.248735
0.250576
0.255514
0.263508
0.274533
0.288569
0.305575
0.325427
0.34776
0.371235
0.388371
0.396288
0.400827
0.402459
0.401339
0.396399
0.382855
0.366037
0.350687
0.337665
0.327257
0.319587
0.31461
0.312148
0.31189
0.313346
0.315763
0.318157
0.319289
0.318615
0.316778
0.315088
0.314532
0.315873
0.319624
0.326134
0.335632
0.348239
0.363948
0.382632
0.403623
0.42345
0.433795
0.438949
0.441608
0.392155
0.386582
0.373378
0.360859
0.350633
0.343119
0.338541
0.337075
0.338812
0.3437
0.351594
0.362318
0.37533
0.38901
0.395306
0.394866
0.393144
0.383353
0.366989
0.352053
0.33992
0.331025
0.325631
0.323965
0.326227
0.332621
0.343367
0.358709
0.37892
0.404286
0.435086
0.471488
0.513365
0.559109
0.595561
0.620412
0.641896
0.661464
0.67911
0.694861
0.708761
0.720862
0.731215
0.739868
0.746863
0.752236
0.756015
0.75822
0.758864
0.757953
0.755485
0.751451
0.745833
0.738607
0.729741
0.719195
0.706921
0.692866
0.676972
0.659182
0.639444
0.617728
0.594007
0.561834
0.515106
0.46872
0.427219
0.39117
0.360455
0.334788
0.313839
0.297293
0.284871
0.276338
0.271507
0.270234
0.272418
0.277992
0.286918
0.299174
0.314729
0.333514
0.35531
0.379362
0.401823
0.413575
0.420094
0.424327
0.426273
0.426072
0.424006
0.417068
0.40175
0.38562
0.371574
0.360345
0.352335
0.347553
0.345849
0.346939
0.350327
0.355011
0.359703
0.36175
0.360048
0.355841
0.351918
0.349478
0.349515
0.352537
0.35887
0.368703
0.382096
0.398827
0.41858
0.439406
0.451581
0.457329
0.461333
0.463401
0.426803
0.426002
0.419097
0.404964
0.392737
0.383599
0.377899
0.375967
0.37799
0.38382
0.393131
0.405776
0.420191
0.428258
0.429365
0.428889
0.42764
0.423664
0.410227
0.393359
0.379015
0.368208
0.361339
0.358698
0.360482
0.366878
0.378083
0.394318
0.415832
0.442865
0.475614
0.513916
0.55649
0.593523
0.619133
0.640174
0.659727
0.677688
0.694004
0.708659
0.72166
0.733026
0.742783
0.750958
0.757578
0.762666
0.766241
0.768316
0.768902
0.768002
0.765614
0.76173
0.756338
0.749418
0.740948
0.7309
0.719241
0.705939
0.690961
0.67428
0.65588
0.635769
0.613986
0.589898
0.555136
0.508519
0.464979
0.426654
0.393796
0.366248
0.343721
0.325914
0.312554
0.303414
0.298311
0.297107
0.299706
0.306047
0.316089
0.329801
0.347125
0.367915
0.39171
0.416662
0.432658
0.440423
0.446184
0.450112
0.452234
0.452669
0.451637
0.449409
0.441888
0.427304
0.412717
0.400584
0.392263
0.387759
0.386983
0.389726
0.39567
0.403167
0.411372
0.414345
0.411585
0.403736
0.397076
0.392148
0.390591
0.392722
0.398815
0.408982
0.423235
0.440609
0.460216
0.472349
0.478122
0.482544
0.485655
0.487261
0.461256
0.461113
0.460185
0.453788
0.441293
0.431092
0.424249
0.421774
0.424179
0.431049
0.441269
0.454714
0.462268
0.464025
0.46405
0.463684
0.462845
0.46151
0.455835
0.440908
0.425122
0.412501
0.404065
0.400395
0.401687
0.408127
0.419891
0.437155
0.460134
0.488942
0.523608
0.562593
0.597627
0.622583
0.642504
0.661424
0.679151
0.695557
0.710559
0.724112
0.736194
0.746799
0.755932
0.763604
0.769825
0.774608
0.777965
0.779903
0.780427
0.779539
0.777238
0.773518
0.768369
0.76178
0.753734
0.744215
0.733206
0.720689
0.706654
0.691096
0.674027
0.65548
0.635513
0.614221
0.589747
0.554244
0.509894
0.469284
0.434044
0.404357
0.380016
0.360741
0.346284
0.336432
0.331011
0.329888
0.332972
0.340205
0.351536
0.366906
0.386172
0.408996
0.434102
0.453249
0.462569
0.469052
0.474106
0.477705
0.47988
0.480733
0.480439
0.479239
0.477376
0.471049
0.460144
0.447488
0.439205
0.435078
0.435255
0.439434
0.44788
0.454636
0.458254
0.45946
0.458751
0.455619
0.44924
0.441818
0.438856
0.440043
0.445841
0.456105
0.47091
0.486129
0.496387
0.501455
0.505652
0.50907
0.511481
0.512727
0.495851
0.495867
0.495965
0.495779
0.4915
0.484286
0.476724
0.473712
0.476568
0.484389
0.492729
0.497995
0.499085
0.499127
0.499125
0.498951
0.498544
0.497903
0.497075
0.491237
0.477756
0.464074
0.454068
0.449429
0.450255
0.4568
0.469222
0.48758
0.512065
0.542331
0.577716
0.608195
0.630816
0.649113
0.666876
0.683867
0.699897
0.714828
0.728564
0.741036
0.752204
0.762045
0.770544
0.777699
0.783509
0.787978
0.791108
0.792902
0.793363
0.79249
0.790282
0.786734
0.781842
0.775597
0.767993
0.759022
0.748677
0.736958
0.723868
0.709423
0.693654
0.676609
0.658367
0.639035
0.618761
0.594752
0.560533
0.519103
0.481568
0.449625
0.4233
0.40237
0.38666
0.375994
0.370204
0.369165
0.372795
0.381034
0.393792
0.41095
0.432082
0.456018
0.476507
0.487131
0.49363
0.499109
0.503483
0.506722
0.508849
0.509944
0.510146
0.509652
0.508712
0.507631
0.504005
0.498061
0.491593
0.487977
0.488851
0.492093
0.495023
0.496417
0.495858
0.495819
0.496674
0.497989
0.497171
0.494994
0.492636
0.493018
0.498454
0.507486
0.516493
0.523442
0.527161
0.53073
0.53396
0.536603
0.538472
0.539438
0.53043
0.53054
0.530811
0.531356
0.532317
0.53118
0.529127
0.528226
0.529694
0.532511
0.534703
0.534397
0.534237
0.534274
0.534373
0.534452
0.534478
0.534473
0.534514
0.534712
0.530706
0.521896
0.510966
0.505891
0.506325
0.513049
0.526234
0.545472
0.570934
0.600473
0.624859
0.643646
0.659961
0.676177
0.692021
0.707269
0.721741
0.735297
0.74783
0.759264
0.769543
0.77863
0.786501
0.793139
0.798536
0.802686
0.805586
0.807235
0.807633
0.806776
0.804664
0.801295
0.796666
0.790774
0.783619
0.775201
0.765523
0.754596
0.742438
0.729076
0.714554
0.698937
0.68231
0.664792
0.64653
0.627715
0.605475
0.574599
0.536273
0.502398
0.474115
0.451388
0.434288
0.422722
0.416515
0.415547
0.419751
0.42908
0.443299
0.462197
0.484238
0.50374
0.514462
0.5204
0.525711
0.53027
0.533996
0.536852
0.538849
0.540047
0.540551
0.540511
0.540119
0.539602
0.539217
0.538537
0.536358
0.534544
0.534025
0.533872
0.532443
0.531296
0.530814
0.530931
0.531711
0.533118
0.535282
0.537599
0.538798
0.54076
0.544459
0.548896
0.552182
0.554759
0.557571
0.560345
0.562854
0.56491
0.566364
0.567117
0.5649
0.56505
0.565383
0.565963
0.566872
0.568189
0.569703
0.570509
0.570715
0.570129
0.569492
0.569212
0.569193
0.569359
0.569642
0.570004
0.570442
0.570997
0.571761
0.572888
0.574622
0.574208
0.571583
0.568466
0.568684
0.575674
0.589624
0.608348
0.62823
0.646179
0.660647
0.674786
0.689205
0.703611
0.717761
0.731447
0.744502
0.756788
0.768197
0.778647
0.788074
0.796433
0.803689
0.80982
0.814808
0.818643
0.821315
0.822821
0.823156
0.822318
0.820304
0.817116
0.812752
0.807215
0.800508
0.792639
0.783619
0.773467
0.76221
0.749887
0.736551
0.722273
0.707146
0.691291
0.674854
0.658017
0.640997
0.621815
0.595803
0.562188
0.532731
0.50819
0.489658
0.477176
0.470515
0.469568
0.474281
0.484703
0.500023
0.519686
0.535548
0.544743
0.549642
0.554294
0.558543
0.562265
0.565378
0.56784
0.569649
0.570843
0.571499
0.571724
0.571651
0.571428
0.571185
0.570972
0.570787
0.570181
0.568874
0.567396
0.56623
0.565461
0.565171
0.565382
0.566121
0.567392
0.569215
0.571543
0.574366
0.577184
0.579469
0.581423
0.58352
0.585737
0.588019
0.590225
0.592203
0.593818
0.594959
0.595549
0.599221
0.599378
0.599709
0.600239
0.600989
0.601933
0.602923
0.603663
0.603917
0.603856
0.603742
0.603767
0.603964
0.604325
0.604832
0.60548
0.606289
0.607313
0.608644
0.610427
0.612871
0.616261
0.620113
0.622867
0.627181
0.634845
0.64567
0.658009
0.669931
0.681102
0.693106
0.705647
0.71846
0.731303
0.743963
0.756258
0.768032
0.779155
0.789523
0.799052
0.807673
0.815337
0.822004
0.827644
0.832235
0.835762
0.838212
0.839577
0.839852
0.839034
0.83712
0.834112
0.830012
0.824825
0.818559
0.811227
0.802847
0.793443
0.78305
0.771712
0.759489
0.746457
0.732712
0.718371
0.703577
0.688504
0.673353
0.658365
0.642917
0.622524
0.597804
0.572204
0.552731
0.539574
0.532456
0.531402
0.536217
0.547292
0.561612
0.572008
0.578062
0.581479
0.585062
0.588591
0.591901
0.59487
0.597412
0.599481
0.601063
0.602179
0.602878
0.603233
0.603334
0.603273
0.603124
0.602915
0.602616
0.602083
0.601266
0.600367
0.599619
0.599147
0.599028
0.599304
0.599998
0.601114
0.602643
0.604536
0.6067
0.608906
0.610943
0.612842
0.614738
0.616651
0.618544
0.620331
0.621915
0.6232
0.624104
0.624571
0.633383
0.633532
0.633836
0.634297
0.634909
0.635632
0.636367
0.636981
0.637384
0.637634
0.637853
0.638148
0.638572
0.639145
0.639881
0.640795
0.641923
0.64332
0.645074
0.647305
0.650169
0.653847
0.658505
0.66438
0.671173
0.678486
0.686289
0.694733
0.704117
0.714256
0.725027
0.736237
0.747685
0.759176
0.770531
0.781589
0.792211
0.802278
0.81169
0.820363
0.82823
0.835239
0.841345
0.846516
0.850727
0.853957
0.856193
0.857423
0.857642
0.856844
0.85503
0.8522
0.848359
0.843514
0.837677
0.830864
0.823098
0.814408
0.804833
0.794422
0.783237
0.771356
0.758873
0.745903
0.732581
0.719067
0.705547
0.692235
0.679374
0.667209
0.653036
0.637077
0.621133
0.608303
0.600794
0.599397
0.602677
0.607605
0.612168
0.614188
0.615839
0.618044
0.620535
0.623107
0.625602
0.6279
0.62992
0.631608
0.632943
0.633931
0.6346
0.634997
0.63518
0.635206
0.635122
0.634949
0.634676
0.63427
0.63374
0.633186
0.632733
0.632479
0.632491
0.632808
0.633452
0.634425
0.635708
0.637257
0.638993
0.640794
0.642557
0.644264
0.64594
0.647586
0.649172
0.650642
0.651928
0.652962
0.653686
0.65406
0.667397
0.667533
0.667804
0.668205
0.66872
0.669316
0.669934
0.670509
0.671005
0.671444
0.671888
0.672401
0.673029
0.673804
0.67475
0.675898
0.677287
0.678971
0.681027
0.68355
0.686652
0.690452
0.695053
0.700517
0.706737
0.713557
0.720931
0.728904
0.737543
0.746779
0.756508
0.766589
0.776868
0.787186
0.797395
0.807357
0.816947
0.826057
0.834594
0.842479
0.849647
0.856042
0.861621
0.866349
0.870198
0.873147
0.875178
0.876281
0.876447
0.875673
0.873956
0.8713
0.867709
0.863195
0.85777
0.851454
0.844273
0.836258
0.827452
0.817905
0.807681
0.796856
0.785521
0.773786
0.761776
0.749637
0.737534
0.725654
0.7142
0.703395
0.693475
0.684534
0.675004
0.6662
0.659705
0.656218
0.654923
0.653791
0.652491
0.652365
0.653061
0.654321
0.655927
0.6577
0.659498
0.661211
0.662758
0.664087
0.665171
0.666002
0.666595
0.666976
0.667182
0.667249
0.667209
0.667081
0.666871
0.666582
0.666239
0.665902
0.665649
0.665546
0.665647
0.665985
0.666577
0.667424
0.668508
0.669792
0.67122
0.672719
0.674228
0.675715
0.677172
0.678582
0.679917
0.681136
0.682191
0.683033
0.68362
0.683922
0.701275
0.701398
0.701641
0.701997
0.702451
0.702978
0.703545
0.704117
0.704681
0.705249
0.705854
0.706539
0.70734
0.70829
0.709419
0.71076
0.712354
0.71425
0.716513
0.719215
0.722437
0.726258
0.730736
0.735897
0.741696
0.748068
0.754974
0.76241
0.770372
0.778809
0.787636
0.796743
0.806009
0.815306
0.824507
0.833495
0.842162
0.850409
0.858151
0.865314
0.871835
0.877661
0.882749
0.887061
0.890571
0.893254
0.895093
0.896076
0.896194
0.895442
0.893821
0.891333
0.887984
0.883786
0.878754
0.87291
0.866281
0.8589
0.850811
0.842066
0.832725
0.822865
0.812571
0.801944
0.791101
0.78017
0.769299
0.758645
0.748378
0.738672
0.729695
0.72158
0.714436
0.708297
0.702967
0.698379
0.694659
0.692067
0.690442
0.689719
0.689718
0.690253
0.691152
0.692268
0.693479
0.694686
0.695815
0.696813
0.69765
0.698312
0.6988
0.69913
0.699322
0.6994
0.699385
0.699296
0.699145
0.698948
0.69873
0.698535
0.698413
0.698411
0.698567
0.698908
0.699448
0.700185
0.701107
0.702183
0.703375
0.704635
0.705919
0.707198
0.708449
0.709652
0.710778
0.711796
0.712668
0.713359
0.713839
0.714085
0.73503
0.735143
0.735366
0.735692
0.736109
0.736601
0.737148
0.737735
0.738354
0.739015
0.739741
0.74056
0.741502
0.742597
0.743876
0.74537
0.747118
0.749164
0.751559
0.75436
0.757625
0.761405
0.765738
0.770637
0.776084
0.782043
0.788486
0.79539
0.802728
0.810449
0.818482
0.82674
0.835121
0.84352
0.851832
0.859956
0.867796
0.875265
0.882286
0.88879
0.894718
0.900019
0.904651
0.908577
0.911769
0.914204
0.915864
0.916735
0.91681
0.916083
0.914554
0.912226
0.909108
0.90521
0.900551
0.895151
0.889039
0.882251
0.874828
0.866821
0.858291
0.849308
0.839953
0.830319
0.820511
0.810645
0.800846
0.791249
0.781994
0.77322
0.765053
0.7576
0.750933
0.745074
0.739977
0.735624
0.732066
0.729371
0.727491
0.726353
0.72584
0.725819
0.72616
0.726743
0.727464
0.72824
0.729001
0.729701
0.730304
0.730794
0.731165
0.731422
0.731576
0.731642
0.731636
0.731572
0.731465
0.731333
0.7312
0.731096
0.731057
0.731116
0.731302
0.731633
0.732121
0.732764
0.73355
0.73446
0.735463
0.736526
0.737617
0.738708
0.739776
0.740798
0.741748
0.7426
0.743325
0.743897
0.744292
0.744494
0.768673
0.768779
0.768988
0.769295
0.769692
0.770168
0.770713
0.771319
0.771984
0.772717
0.773535
0.774457
0.775511
0.776721
0.778116
0.779726
0.781584
0.783728
0.7862
0.789042
0.792296
0.795999
0.800174
0.80483
0.809958
0.815535
0.821537
0.827937
0.834699
0.841775
0.849105
0.856612
0.864214
0.871822
0.879347
0.8867
0.893801
0.90057
0.906938
0.912843
0.918228
0.923047
0.927258
0.930827
0.933725
0.935929
0.937423
0.938191
0.938227
0.937525
0.936085
0.933911
0.931011
0.927397
0.923087
0.918104
0.912475
0.906236
0.899427
0.892099
0.884309
0.876122
0.867614
0.858869
0.849981
0.841052
0.832191
0.823512
0.815131
0.807159
0.799699
0.792833
0.786621
0.78109
0.776241
0.772075
0.76861
0.76586
0.763796
0.762361
0.761469
0.761024
0.760926
0.761078
0.761396
0.761807
0.762251
0.762683
0.763072
0.763395
0.763644
0.763817
0.763919
0.763957
0.763943
0.76389
0.76381
0.76372
0.76364
0.763592
0.763602
0.763695
0.76389
0.764202
0.764639
0.765198
0.765871
0.766642
0.76749
0.768389
0.769315
0.770242
0.771149
0.772015
0.772816
0.773531
0.774136
0.774611
0.774939
0.775106
0.802209
0.802311
0.802511
0.802808
0.803195
0.803666
0.804217
0.804843
0.805547
0.806336
0.807222
0.808225
0.809363
0.810661
0.812142
0.813833
0.815764
0.817965
0.82047
0.823311
0.82652
0.83012
0.834129
0.838552
0.843382
0.848603
0.854192
0.860121
0.866355
0.87285
0.879549
0.88639
0.893301
0.900207
0.907031
0.913699
0.920136
0.926276
0.932054
0.937414
0.942305
0.946683
0.950508
0.953747
0.956374
0.958366
0.959706
0.96038
0.960381
0.959705
0.95835
0.956321
0.953627
0.95028
0.946297
0.941702
0.936521
0.93079
0.924547
0.91784
0.910723
0.903257
0.895511
0.887561
0.879491
0.871391
0.863354
0.855477
0.847858
0.840587
0.833749
0.827412
0.821627
0.816425
0.811822
0.807824
0.804439
0.801664
0.799474
0.797824
0.796652
0.795883
0.79544
0.795247
0.795234
0.79534
0.795512
0.795711
0.795904
0.796071
0.7962
0.796284
0.796324
0.796324
0.796291
0.796235
0.796166
0.796098
0.796047
0.79603
0.796065
0.796171
0.796362
0.796648
0.797033
0.797517
0.798093
0.798748
0.799466
0.800227
0.80101
0.801796
0.802564
0.803295
0.803971
0.804571
0.805077
0.805473
0.805746
0.805885
0.835644
0.835743
0.835939
0.836231
0.836614
0.837086
0.837645
0.83829
0.839025
0.839856
0.840795
0.841856
0.843057
0.844417
0.845957
0.847701
0.849673
0.851899
0.854404
0.857214
0.860351
0.863833
0.867671
0.871867
0.876415
0.881301
0.886505
0.892
0.897752
0.903719
0.909853
0.916098
0.922393
0.928673
0.934873
0.940926
0.94677
0.952343
0.957588
0.962455
0.966896
0.970871
0.974342
0.97728
0.979658
0.981455
0.982654
0.983243
0.983214
0.982562
0.981289
0.979397
0.976896
0.973798
0.97012
0.965885
0.961119
0.955855
0.950131
0.943992
0.937486
0.930672
0.923612
0.916374
0.909032
0.901666
0.894356
0.887185
0.880236
0.873583
0.867298
0.861439
0.85605
0.851163
0.846796
0.84296
0.839658
0.836882
0.834612
0.832811
0.831431
0.830416
0.829705
0.829237
0.828955
0.828806
0.828748
0.828743
0.828762
0.828786
0.828799
0.828794
0.828769
0.828723
0.828662
0.828592
0.828521
0.828459
0.828419
0.828414
0.828458
0.828563
0.828739
0.828993
0.829329
0.829746
0.830237
0.830792
0.831398
0.832041
0.832703
0.833367
0.834016
0.834633
0.835201
0.835704
0.836128
0.836459
0.836686
0.836802
0.868981
0.869078
0.869272
0.869561
0.869944
0.870419
0.870986
0.871647
0.872406
0.873268
0.874244
0.875347
0.876591
0.877992
0.879569
0.881341
0.883329
0.885553
0.888033
0.890789
0.893837
0.89719
0.900853
0.904829
0.90911
0.913683
0.918529
0.923622
0.928932
0.934421
0.940045
0.945755
0.951499
0.95722
0.962861
0.968364
0.973674
0.978736
0.983501
0.987921
0.991954
0.995562
0.998711
1.00137
1.00352
1.00514
1.00621
1.00672
1.00667
1.00604
1.00485
1.00308
1.00076
0.997895
0.9945
0.990598
0.986214
0.98138
0.976131
0.970508
0.964559
0.958334
0.95189
0.94529
0.938598
0.931884
0.925219
0.918673
0.912315
0.906212
0.900422
0.894995
0.889971
0.885379
0.88124
0.877563
0.87435
0.871595
0.86928
0.867376
0.865846
0.864646
0.863727
0.863041
0.86254
0.862183
0.86193
0.86175
0.861617
0.86151
0.861416
0.861325
0.861233
0.861138
0.861042
0.860949
0.860866
0.860798
0.860757
0.860751
0.86079
0.860883
0.861037
0.861257
0.861545
0.8619
0.862315
0.862784
0.863295
0.863837
0.864394
0.864953
0.865499
0.866018
0.866495
0.866918
0.867272
0.867549
0.867739
0.867835
0.90222
0.902317
0.90251
0.902798
0.903181
0.90366
0.904234
0.904907
0.905682
0.906567
0.907568
0.908697
0.909967
0.911392
0.912986
0.914766
0.916748
0.91895
0.921386
0.924072
0.927019
0.930235
0.933725
0.937486
0.941513
0.945791
0.950304
0.955028
0.959934
0.964987
0.97015
0.975379
0.980628
0.985847
0.990987
0.995996
1.00083
1.00543
1.00976
1.01377
1.01744
1.02071
1.02357
1.02598
1.02792
1.02938
1.03033
1.03077
1.03069
1.03009
1.02897
1.02733
1.02517
1.02252
1.01939
1.01579
1.01176
1.00732
1.0025
0.997352
0.991906
0.986213
0.980325
0.974297
0.968187
0.962054
0.955962
0.949971
0.944142
0.938528
0.933183
0.928148
0.923459
0.919144
0.915221
0.9117
0.908585
0.905868
0.903537
0.901568
0.899932
0.898594
0.897516
0.896658
0.895983
0.895455
0.89504
0.894711
0.894445
0.894222
0.89403
0.893858
0.8937
0.893554
0.893419
0.893298
0.893194
0.893112
0.893059
0.893042
0.893067
0.893141
0.893269
0.893453
0.893695
0.893992
0.894341
0.894734
0.895162
0.895616
0.896083
0.896552
0.89701
0.897445
0.897845
0.898198
0.898495
0.898726
0.898884
0.898964
0.935363
0.935459
0.935651
0.935939
0.936323
0.936804
0.937384
0.938064
0.93885
0.939748
0.940764
0.941907
0.94319
0.944622
0.946217
0.947988
0.949949
0.952112
0.95449
0.957094
0.959931
0.963007
0.966324
0.969878
0.973663
0.977666
0.981869
0.986252
0.990787
0.995444
1.00019
1.00498
1.00979
1.01455
1.01924
1.02381
1.0282
1.03239
1.03633
1.03998
1.04331
1.04628
1.04887
1.05105
1.0528
1.05411
1.05496
1.05534
1.05524
1.05467
1.05361
1.05208
1.05008
1.04763
1.04474
1.04143
1.03771
1.03363
1.02921
1.02449
1.0195
1.01429
1.0089
1.00339
0.997796
0.992185
0.986604
0.981109
0.975751
0.970577
0.965632
0.960954
0.956574
0.952517
0.9488
0.945433
0.94242
0.939756
0.937431
0.935426
0.933719
0.932282
0.931084
0.930094
0.92928
0.928612
0.928063
0.927609
0.927228
0.926904
0.926623
0.926376
0.926156
0.925959
0.925783
0.925629
0.9255
0.925397
0.925326
0.925291
0.925296
0.925346
0.925445
0.925592
0.925789
0.926034
0.926322
0.926648
0.927004
0.927381
0.927771
0.928162
0.928544
0.928907
0.929241
0.929536
0.929783
0.929975
0.930107
0.930174
0.96841
0.968506
0.968697
0.968985
0.969369
0.969851
0.970432
0.971116
0.971907
0.97281
0.973831
0.974979
0.976261
0.977689
0.979272
0.981021
0.982947
0.98506
0.987369
0.989882
0.992604
0.995539
0.998685
1.00204
1.0056
1.00934
1.01325
1.01732
1.02152
1.02581
1.03018
1.03458
1.03898
1.04334
1.04762
1.05179
1.05579
1.05961
1.06319
1.06651
1.06953
1.07223
1.07458
1.07655
1.07813
1.07931
1.08006
1.08038
1.08027
1.07972
1.07873
1.0773
1.07545
1.07318
1.07051
1.06745
1.06404
1.06029
1.05623
1.05189
1.04732
1.04254
1.0376
1.03255
1.02743
1.02228
1.01716
1.01211
1.00718
1.0024
0.997815
0.993462
0.989366
0.98555
0.982029
0.978813
0.975906
0.973306
0.971004
0.968987
0.967236
0.96573
0.964444
0.963353
0.962431
0.961652
0.960993
0.960433
0.959955
0.959542
0.959183
0.958868
0.958589
0.958342
0.958125
0.957937
0.957778
0.95765
0.957556
0.957499
0.95748
0.957504
0.957571
0.957681
0.957836
0.958032
0.958265
0.958531
0.958824
0.959135
0.959457
0.959781
0.960098
0.960399
0.960676
0.960921
0.961126
0.961286
0.961395
0.96145
1.00136
1.00146
1.00165
1.00193
1.00232
1.0028
1.00338
1.00406
1.00485
1.00575
1.00677
1.00791
1.00919
1.0106
1.01216
1.01388
1.01576
1.01781
1.02004
1.02246
1.02506
1.02786
1.03084
1.034
1.03734
1.04084
1.04449
1.04827
1.05215
1.05611
1.06013
1.06418
1.06821
1.0722
1.07612
1.07992
1.08358
1.08705
1.09031
1.09333
1.09608
1.09853
1.10066
1.10244
1.10387
1.10492
1.10559
1.10586
1.10574
1.10521
1.10428
1.10295
1.10123
1.09913
1.09666
1.09385
1.0907
1.08725
1.08352
1.07954
1.07533
1.07095
1.06642
1.06179
1.05708
1.05236
1.04765
1.043
1.03844
1.03402
1.02977
1.02571
1.02188
1.01829
1.01495
1.01188
1.00908
1.00656
1.00429
1.00228
1.00051
0.998958
0.99761
0.996444
0.995437
0.99457
0.993823
0.993176
0.992616
0.992127
0.991699
0.991322
0.990989
0.990696
0.990438
0.990215
0.990025
0.98987
0.98975
0.989667
0.989623
0.989617
0.989652
0.989727
0.989841
0.989992
0.990176
0.990389
0.990625
0.990878
0.991141
0.991406
0.991667
0.991915
0.992143
0.992345
0.992514
0.992646
0.992736
0.992782
1.03422
1.03431
1.0345
1.03479
1.03517
1.03564
1.03622
1.0369
1.03769
1.03858
1.03959
1.04072
1.04198
1.04336
1.04489
1.04657
1.0484
1.05038
1.05253
1.05485
1.05734
1.05999
1.06281
1.06579
1.06892
1.07219
1.07559
1.0791
1.0827
1.08636
1.09007
1.09378
1.09749
1.10115
1.10473
1.1082
1.11154
1.11471
1.11768
1.12043
1.12293
1.12515
1.12708
1.1287
1.12998
1.13093
1.13152
1.13174
1.1316
1.1311
1.13022
1.12898
1.12739
1.12544
1.12317
1.12057
1.11767
1.11449
1.11106
1.1074
1.10354
1.09951
1.09535
1.09109
1.08676
1.08241
1.07808
1.07378
1.06957
1.06548
1.06153
1.05774
1.05415
1.05077
1.04761
1.04468
1.04199
1.03954
1.03733
1.03534
1.03356
1.03198
1.0306
1.02937
1.0283
1.02737
1.02655
1.02583
1.02521
1.02465
1.02416
1.02373
1.02335
1.02301
1.02272
1.02246
1.02224
1.02205
1.02191
1.0218
1.02173
1.02169
1.02169
1.02173
1.02181
1.02192
1.02206
1.02222
1.02241
1.02261
1.02282
1.02304
1.02325
1.02345
1.02364
1.0238
1.02394
1.02405
1.02412
1.02416
1.06698
1.06707
1.06726
1.06754
1.06792
1.06839
1.06896
1.06963
1.07041
1.07129
1.07229
1.0734
1.07463
1.07599
1.07748
1.07911
1.08088
1.08279
1.08486
1.08707
1.08944
1.09196
1.09462
1.09742
1.10036
1.10342
1.10659
1.10985
1.11318
1.11657
1.11998
1.1234
1.12681
1.13016
1.13344
1.13662
1.13967
1.14256
1.14527
1.14778
1.15005
1.15207
1.15382
1.15528
1.15644
1.15728
1.1578
1.15799
1.15784
1.15736
1.15653
1.15538
1.1539
1.15209
1.14999
1.14759
1.14492
1.14199
1.13883
1.13546
1.1319
1.1282
1.12437
1.12045
1.11647
1.11246
1.10846
1.10449
1.10059
1.09679
1.09311
1.08958
1.08621
1.08302
1.08003
1.07725
1.07467
1.0723
1.07014
1.06818
1.06641
1.06483
1.06341
1.06215
1.06104
1.06005
1.05918
1.0584
1.05772
1.05711
1.05657
1.05609
1.05567
1.05529
1.05496
1.05467
1.05441
1.0542
1.05403
1.05389
1.05379
1.05373
1.0537
1.05371
1.05375
1.05382
1.05391
1.05404
1.05418
1.05433
1.0545
1.05467
1.05484
1.055
1.05515
1.05528
1.0554
1.05548
1.05554
1.05558
1.09965
1.09974
1.09992
1.1002
1.10057
1.10104
1.1016
1.10226
1.10303
1.10389
1.10487
1.10596
1.10716
1.10848
1.10993
1.1115
1.11321
1.11505
1.11703
1.11914
1.12139
1.12378
1.12629
1.12893
1.13168
1.13454
1.13749
1.14052
1.14361
1.14674
1.14989
1.15305
1.15617
1.15925
1.16226
1.16517
1.16796
1.1706
1.17307
1.17535
1.17742
1.17926
1.18084
1.18216
1.18321
1.18396
1.18442
1.18457
1.18442
1.18395
1.18318
1.1821
1.18072
1.17905
1.1771
1.17489
1.17242
1.16972
1.1668
1.1637
1.16043
1.15701
1.15348
1.14987
1.1462
1.1425
1.1388
1.13513
1.13152
1.12798
1.12455
1.12125
1.11809
1.11509
1.11225
1.1096
1.10713
1.10484
1.10274
1.10082
1.09908
1.0975
1.09607
1.09479
1.09364
1.09262
1.0917
1.09089
1.09015
1.0895
1.08892
1.0884
1.08793
1.08752
1.08716
1.08683
1.08655
1.08631
1.08611
1.08595
1.08582
1.08573
1.08567
1.08564
1.08565
1.08569
1.08575
1.08583
1.08593
1.08605
1.08617
1.08631
1.08644
1.08656
1.08668
1.08679
1.08688
1.08695
1.087
1.08702
1.13222
1.13232
1.1325
1.13277
1.13313
1.13359
1.13414
1.13479
1.13554
1.13639
1.13734
1.1384
1.13957
1.14085
1.14225
1.14377
1.14541
1.14717
1.14906
1.15108
1.15321
1.15547
1.15784
1.16032
1.1629
1.16557
1.16832
1.17113
1.174
1.17689
1.17981
1.18271
1.18559
1.18842
1.19118
1.19384
1.19639
1.19881
1.20106
1.20314
1.20502
1.20669
1.20813
1.20933
1.21027
1.21094
1.21134
1.21146
1.2113
1.21086
1.21013
1.20912
1.20784
1.20629
1.20448
1.20243
1.20015
1.19766
1.19497
1.19211
1.18909
1.18594
1.18269
1.17935
1.17596
1.17254
1.16912
1.16572
1.16236
1.15907
1.15587
1.15278
1.14981
1.14698
1.1443
1.14177
1.1394
1.1372
1.13517
1.13329
1.13158
1.13001
1.12859
1.1273
1.12613
1.12508
1.12413
1.12328
1.12251
1.12182
1.1212
1.12065
1.12015
1.11971
1.11931
1.11896
1.11865
1.11838
1.11816
1.11796
1.11781
1.11769
1.11761
1.11755
1.11753
1.11753
1.11756
1.1176
1.11767
1.11775
1.11784