/*--------------------------------*- C++ -*----------------------------------*\
| =========                 |                                                 |
| \\      /  F ield         | OpenFOAM: The Open Source CFD Toolbox           |
|  \\    /   O peration     | Version:  2406                                  |
|   \\  /    A nd           | Website:  www.openfoam.com                      |
|    \\/     M anipulation  |                                                 |
\*---------------------------------------------------------------------------*/
FoamFile
{
    version     2.0;
    format      ascii;
    arch        "LSB;label=32;scalar=64";
    class       volScalarField;
    location    "6.15";
    object      C_0_0;
}
// * * * * * * * * * * * * * * * * * * * * * * * * * * * * * * * * * * * * * //

dimensions      [1 -3 0 0 0 0 0];

internalField   nonuniform List<scalar> 
14400
(
0.26314
0.261595
0.258959
0.255858
0.252894
0.250556
0.249201
0.249049
0.250198
0.252618
0.25615
0.260486
0.265141
0.269426
0.272453
0.27325
0.27121
0.267057
0.261881
0.256692
0.252308
0.249363
0.248353
0.249681
0.25369
0.260694
0.271001
0.284923
0.30279
0.324953
0.351782
0.383655
0.420917
0.4638
0.512177
0.56433
0.605416
0.632697
0.654718
0.673864
0.690421
0.70461
0.716605
0.726539
0.734518
0.740622
0.744911
0.747427
0.748197
0.747232
0.744531
0.740078
0.733841
0.725775
0.715816
0.703879
0.689856
0.673611
0.654967
0.633704
0.609535
0.576774
0.529883
0.477552
0.429637
0.38738
0.350729
0.319348
0.292836
0.270789
0.252833
0.238631
0.227893
0.220371
0.215861
0.214202
0.215266
0.218964
0.225231
0.234021
0.24529
0.258976
0.274965
0.293031
0.312707
0.332785
0.348163
0.354748
0.354024
0.344799
0.330593
0.315887
0.301991
0.289497
0.278698
0.269721
0.262573
0.257168
0.253343
0.250869
0.249468
0.248842
0.248716
0.248897
0.249327
0.250111
0.251485
0.253767
0.257297
0.2624
0.269357
0.278396
0.28968
0.303295
0.31923
0.337327
0.357155
0.377527
0.393112
0.399795
0.272439
0.270432
0.267146
0.26341
0.25992
0.257197
0.255604
0.255361
0.256563
0.259187
0.263084
0.267961
0.27335
0.27855
0.282548
0.283953
0.281242
0.276042
0.26987
0.263862
0.258845
0.255429
0.254088
0.255201
0.259098
0.266084
0.276458
0.290528
0.308621
0.331086
0.358293
0.390618
0.428396
0.471805
0.520483
0.571918
0.610307
0.635936
0.657594
0.676454
0.692788
0.706805
0.718665
0.728495
0.736393
0.742437
0.746684
0.749173
0.749931
0.748968
0.746283
0.741861
0.73567
0.727668
0.717793
0.705964
0.692079
0.676008
0.657587
0.636609
0.612808
0.582326
0.537753
0.485071
0.436663
0.393894
0.356755
0.324935
0.298038
0.275665
0.257438
0.243021
0.232123
0.224495
0.219936
0.218283
0.219413
0.223238
0.229696
0.238743
0.25034
0.264431
0.280903
0.299525
0.319784
0.340332
0.355342
0.361337
0.361223
0.353411
0.339074
0.32383
0.30942
0.296507
0.285397
0.276215
0.26897
0.263574
0.259855
0.257567
0.256402
0.256014
0.256069
0.256316
0.256672
0.25727
0.258406
0.260454
0.2638
0.268799
0.275747
0.284879
0.296359
0.310272
0.326604
0.345173
0.36546
0.385959
0.400272
0.405809
0.291611
0.288448
0.283699
0.278618
0.274053
0.270558
0.268491
0.268064
0.269371
0.272391
0.276996
0.282929
0.289769
0.296843
0.303033
0.306242
0.30163
0.294069
0.285846
0.278214
0.271957
0.267624
0.265632
0.266326
0.270006
0.276959
0.28747
0.301838
0.320383
0.34345
0.371407
0.404623
0.443425
0.487943
0.537442
0.585485
0.618571
0.642355
0.663266
0.681568
0.697474
0.711156
0.722755
0.732381
0.740123
0.74605
0.750214
0.752651
0.753385
0.752427
0.749774
0.745411
0.739312
0.731435
0.721724
0.710106
0.696489
0.680756
0.662765
0.642335
0.619235
0.59201
0.55211
0.499901
0.450764
0.407011
0.368905
0.336207
0.308545
0.285519
0.266752
0.251905
0.240686
0.232848
0.22819
0.226552
0.227816
0.231895
0.238733
0.248293
0.260543
0.275434
0.292863
0.312583
0.333964
0.355055
0.368372
0.373635
0.374178
0.369305
0.355874
0.33968
0.324308
0.310596
0.298879
0.289297
0.281867
0.276499
0.273013
0.271131
0.270485
0.270632
0.271103
0.271507
0.271688
0.271858
0.272456
0.27399
0.276938
0.281708
0.288626
0.297936
0.309799
0.324295
0.341398
0.360892
0.382046
0.401897
0.412827
0.417103
0.321724
0.316134
0.308826
0.301608
0.295413
0.29077
0.288005
0.287308
0.288762
0.292351
0.297964
0.305392
0.314284
0.324052
0.333513
0.338536
0.332049
0.320891
0.309683
0.299737
0.291715
0.286066
0.283138
0.283225
0.286596
0.293509
0.304232
0.31905
0.338274
0.362239
0.391299
0.425802
0.466017
0.51191
0.561866
0.602082
0.629155
0.651634
0.671548
0.689079
0.704382
0.717591
0.728817
0.738151
0.745668
0.751426
0.75547
0.757832
0.758532
0.75758
0.754973
0.750698
0.744731
0.737035
0.727561
0.716247
0.703013
0.687763
0.670381
0.650731
0.628655
0.60399
0.570741
0.522342
0.47216
0.426913
0.387361
0.353359
0.324554
0.300553
0.280977
0.265486
0.253787
0.245635
0.24083
0.239219
0.240685
0.245148
0.252557
0.262882
0.276096
0.292161
0.310977
0.332291
0.355279
0.375533
0.385755
0.390572
0.391708
0.389255
0.379765
0.363179
0.346678
0.331882
0.319302
0.309142
0.30145
0.296152
0.293061
0.291865
0.292118
0.293224
0.294474
0.295194
0.295024
0.294392
0.294029
0.294673
0.296947
0.301332
0.30818
0.317738
0.330155
0.345477
0.363643
0.384342
0.406263
0.422083
0.429248
0.432668
0.362632
0.353324
0.342408
0.332372
0.324093
0.317987
0.314331
0.313287
0.314928
0.31923
0.326087
0.335311
0.346569
0.3591
0.370271
0.372565
0.368599
0.355372
0.34102
0.328386
0.318225
0.310941
0.306831
0.306151
0.309133
0.316011
0.32703
0.342458
0.362589
0.38774
0.418238
0.454362
0.496197
0.543061
0.588456
0.61927
0.642522
0.66348
0.682214
0.698817
0.713385
0.72601
0.736771
0.745739
0.752971
0.758515
0.762408
0.764674
0.765332
0.764388
0.76184
0.757677
0.751878
0.744413
0.73524
0.724307
0.711553
0.696901
0.680266
0.661552
0.640655
0.617471
0.590574
0.551255
0.500697
0.45373
0.412357
0.376664
0.346361
0.32107
0.300418
0.284068
0.271728
0.263156
0.258159
0.256586
0.258326
0.263304
0.271474
0.28281
0.297287
0.314854
0.33538
0.358461
0.382523
0.398967
0.406697
0.41119
0.412764
0.411568
0.406931
0.393909
0.376534
0.36051
0.346868
0.335969
0.327954
0.322789
0.320294
0.320143
0.321807
0.324502
0.327133
0.328489
0.327618
0.325564
0.323616
0.322866
0.324121
0.327927
0.334645
0.344509
0.357627
0.373944
0.393267
0.41485
0.434013
0.443764
0.448974
0.451652
0.401726
0.396627
0.383427
0.370609
0.360105
0.352349
0.347661
0.346212
0.348083
0.353218
0.361475
0.372623
0.386191
0.400289
0.406069
0.405715
0.404324
0.395813
0.379415
0.364137
0.351648
0.342497
0.33701
0.335429
0.337965
0.344826
0.356234
0.372437
0.393703
0.420316
0.452557
0.490564
0.533929
0.580064
0.613429
0.636902
0.658176
0.677549
0.69501
0.710589
0.724332
0.736291
0.746518
0.755062
0.761963
0.767257
0.770971
0.773126
0.773733
0.7728
0.770323
0.766293
0.760693
0.753498
0.744677
0.73419
0.721989
0.708023
0.692231
0.674556
0.654941
0.633346
0.609763
0.580038
0.535783
0.487537
0.444165
0.406476
0.374348
0.347465
0.325473
0.308046
0.294901
0.285803
0.280566
0.279044
0.281132
0.286758
0.29588
0.308469
0.324488
0.343846
0.3663
0.391018
0.41309
0.424104
0.430566
0.434726
0.43659
0.436293
0.434109
0.427677
0.41314
0.396468
0.38174
0.369983
0.361604
0.356647
0.354968
0.35627
0.35998
0.365129
0.370063
0.372658
0.370446
0.366006
0.361639
0.358872
0.358719
0.361739
0.368257
0.378469
0.392418
0.40975
0.429822
0.450067
0.461449
0.467191
0.471231
0.473315
0.436095
0.435639
0.429445
0.415589
0.403338
0.393928
0.388146
0.386245
0.388406
0.394463
0.404146
0.417023
0.431878
0.439358
0.440156
0.43984
0.438777
0.435777
0.423979
0.406933
0.392178
0.381035
0.374026
0.371446
0.373504
0.380381
0.392279
0.409421
0.432042
0.460339
0.494547
0.534516
0.578308
0.61205
0.635482
0.656349
0.675733
0.69353
0.70969
0.724198
0.737062
0.748304
0.75795
0.766027
0.772562
0.777578
0.781094
0.783124
0.783676
0.782755
0.780358
0.776478
0.771101
0.76421
0.755781
0.745785
0.734193
0.720969
0.70608
0.689499
0.671207
0.651209
0.629546
0.60625
0.574267
0.527992
0.483046
0.443201
0.408976
0.38022
0.35663
0.337905
0.323784
0.314047
0.308518
0.307059
0.30957
0.315978
0.32624
0.340318
0.358137
0.379495
0.403806
0.428826
0.443627
0.45109
0.456734
0.460559
0.462577
0.462906
0.461761
0.459441
0.452581
0.439066
0.423859
0.411223
0.402502
0.397838
0.397142
0.400236
0.406531
0.414748
0.422564
0.425147
0.422862
0.41535
0.408025
0.40268
0.400821
0.402903
0.409146
0.41969
0.434568
0.452424
0.47098
0.482301
0.487855
0.492307
0.495443
0.497062
0.47064
0.470516
0.470055
0.464388
0.45304
0.44248
0.435713
0.433301
0.435855
0.442842
0.453479
0.466474
0.473432
0.47472
0.474901
0.47471
0.474067
0.472944
0.468643
0.455878
0.439864
0.426822
0.418232
0.414607
0.416189
0.423135
0.435618
0.453849
0.478008
0.508016
0.544004
0.584428
0.616141
0.638672
0.658487
0.677281
0.694875
0.711148
0.72602
0.739449
0.751415
0.761913
0.770949
0.778534
0.78468
0.789399
0.792703
0.794599
0.795093
0.794186
0.791876
0.788159
0.783024
0.77646
0.76845
0.758979
0.748027
0.735579
0.721622
0.706152
0.68918
0.670737
0.650888
0.62974
0.606963
0.574345
0.529224
0.487244
0.450735
0.419881
0.394447
0.374206
0.358929
0.348431
0.342554
0.341169
0.344176
0.351496
0.36307
0.37885
0.398673
0.422086
0.447494
0.465074
0.473487
0.479807
0.484723
0.488197
0.490254
0.490991
0.490583
0.489273
0.487358
0.481785
0.471879
0.45903
0.450357
0.446119
0.446352
0.451032
0.459316
0.465167
0.468324
0.469167
0.468868
0.466237
0.460874
0.453333
0.450034
0.451219
0.457085
0.467594
0.483006
0.496859
0.506259
0.511064
0.515295
0.518741
0.521172
0.522428
0.505308
0.505334
0.505449
0.505654
0.502159
0.496065
0.489258
0.486287
0.489364
0.496793
0.504196
0.50895
0.509627
0.509842
0.510018
0.510034
0.509837
0.509431
0.508887
0.50474
0.493815
0.479821
0.469813
0.465225
0.466414
0.473498
0.486624
0.505997
0.531812
0.562822
0.59868
0.626357
0.646599
0.664832
0.682515
0.699411
0.715339
0.730165
0.743795
0.756165
0.767235
0.776984
0.7854
0.79248
0.798224
0.802636
0.805719
0.807476
0.80791
0.807019
0.804803
0.801258
0.796377
0.790155
0.782582
0.773652
0.763358
0.751698
0.738676
0.724308
0.708622
0.69167
0.67353
0.654313
0.634163
0.612266
0.580988
0.538517
0.499965
0.466983
0.439513
0.417555
0.400938
0.38955
0.383264
0.381957
0.385528
0.393874
0.406879
0.424484
0.446246
0.470591
0.488995
0.498298
0.504617
0.509928
0.514152
0.517253
0.519251
0.520223
0.520307
0.519698
0.518649
0.517475
0.514528
0.509127
0.503257
0.499776
0.500296
0.50277
0.505103
0.505731
0.505061
0.505078
0.505878
0.507368
0.50736
0.505818
0.504285
0.505047
0.510339
0.518767
0.526982
0.533002
0.536653
0.54026
0.543522
0.546189
0.548075
0.54905
0.539949
0.540064
0.540345
0.5409
0.541914
0.541547
0.539986
0.539359
0.540812
0.543385
0.545061
0.544751
0.544783
0.545005
0.545293
0.545572
0.545816
0.546056
0.54638
0.546945
0.544789
0.538289
0.528131
0.523193
0.524263
0.531578
0.545268
0.565357
0.592426
0.619748
0.642161
0.65908
0.675366
0.69154
0.707329
0.72251
0.736905
0.750379
0.762829
0.774179
0.784378
0.793388
0.801188
0.807762
0.813101
0.817202
0.820061
0.821677
0.82205
0.821178
0.819059
0.815691
0.811072
0.805199
0.798071
0.789688
0.780054
0.769179
0.757078
0.743781
0.729331
0.713791
0.697249
0.679821
0.661652
0.642927
0.622845
0.594609
0.556258
0.521874
0.49232
0.468541
0.450397
0.437999
0.431244
0.430006
0.434196
0.44365
0.458023
0.477318
0.499835
0.516857
0.525924
0.53164
0.536755
0.541138
0.544703
0.547413
0.549273
0.550342
0.550723
0.550564
0.550054
0.549416
0.548892
0.548506
0.546718
0.544977
0.544184
0.543392
0.541651
0.540534
0.540042
0.540165
0.54093
0.542342
0.544463
0.547234
0.549016
0.551207
0.554788
0.558814
0.561498
0.564141
0.566995
0.569804
0.572342
0.574419
0.575888
0.576648
0.574475
0.574629
0.574966
0.575548
0.576446
0.577692
0.579229
0.580258
0.580449
0.579997
0.579649
0.579575
0.579749
0.580103
0.580579
0.581143
0.5818
0.582596
0.583631
0.585067
0.587154
0.588434
0.587396
0.586455
0.588185
0.595832
0.609625
0.627578
0.645754
0.661973
0.675649
0.68982
0.704243
0.718634
0.732751
0.746393
0.759393
0.771618
0.782962
0.793346
0.802707
0.811003
0.818201
0.824277
0.829217
0.833009
0.835645
0.837122
0.837436
0.836583
0.834564
0.831376
0.827021
0.821499
0.814815
0.806976
0.797993
0.787884
0.776676
0.764407
0.75113
0.736915
0.721855
0.706067
0.689698
0.672925
0.655963
0.63853
0.61463
0.583719
0.552799
0.527539
0.507707
0.494251
0.486999
0.485776
0.490571
0.501173
0.516174
0.535798
0.549221
0.556551
0.561165
0.565581
0.569625
0.573164
0.576111
0.57842
0.580088
0.581149
0.581678
0.58178
0.581588
0.581242
0.580873
0.580533
0.580167
0.579456
0.578113
0.576671
0.575481
0.574707
0.574407
0.57461
0.575337
0.576597
0.578398
0.580712
0.583449
0.586248
0.588566
0.590624
0.592788
0.595059
0.597381
0.599619
0.601622
0.603256
0.60441
0.605006
0.608848
0.609009
0.609344
0.609878
0.610626
0.611563
0.612573
0.613363
0.613749
0.61385
0.613936
0.614151
0.614533
0.615079
0.615775
0.616622
0.617644
0.618897
0.620479
0.622537
0.625274
0.628961
0.633853
0.638033
0.643233
0.651255
0.66187
0.673488
0.684242
0.69559
0.707704
0.720308
0.733151
0.746
0.758649
0.770919
0.782657
0.793737
0.804056
0.813533
0.822103
0.829716
0.836335
0.84193
0.84648
0.84997
0.85239
0.85373
0.853987
0.853156
0.851236
0.848229
0.844135
0.838961
0.832715
0.825407
0.817057
0.807689
0.797335
0.786042
0.773866
0.760883
0.747188
0.732895
0.718148
0.703112
0.687988
0.673004
0.658358
0.640051
0.618047
0.593721
0.572425
0.5583
0.550647
0.549211
0.55416
0.56561
0.577459
0.585941
0.590194
0.593291
0.596602
0.599896
0.603
0.605783
0.608156
0.61007
0.611509
0.612489
0.61306
0.613292
0.613273
0.613093
0.612825
0.612497
0.612075
0.611453
0.610585
0.609667
0.608896
0.608406
0.608271
0.608531
0.609209
0.61031
0.611819
0.613691
0.615822
0.618019
0.620079
0.622028
0.623972
0.625926
0.627852
0.629667
0.631273
0.632574
0.633489
0.633961
0.643061
0.643213
0.643523
0.643995
0.644619
0.64536
0.646134
0.646815
0.647328
0.647716
0.648096
0.64856
0.649155
0.649904
0.650822
0.651927
0.653256
0.654868
0.656852
0.659327
0.662444
0.666376
0.671283
0.677247
0.684208
0.691729
0.69975
0.70849
0.718081
0.728384
0.73927
0.750558
0.762053
0.773567
0.784927
0.795976
0.806578
0.816616
0.825993
0.834628
0.842456
0.849424
0.855492
0.860626
0.864803
0.868003
0.870213
0.871423
0.871625
0.870817
0.868997
0.866167
0.862331
0.857496
0.851674
0.844881
0.83714
0.828478
0.818935
0.808558
0.797409
0.785564
0.773117
0.760179
0.746885
0.733389
0.719872
0.706541
0.693628
0.681407
0.668887
0.654557
0.640161
0.627915
0.620294
0.617944
0.619519
0.62284
0.625844
0.626547
0.627892
0.629816
0.632055
0.634402
0.636695
0.63881
0.640662
0.642195
0.643387
0.644239
0.64478
0.645055
0.64512
0.645031
0.644836
0.644555
0.644183
0.643696
0.643108
0.642514
0.642029
0.641749
0.641738
0.642035
0.64266
0.643614
0.644879
0.64641
0.648129
0.649927
0.651703
0.653438
0.655145
0.656822
0.658434
0.659926
0.661229
0.662276
0.66301
0.663388
0.677121
0.677261
0.677542
0.677958
0.678495
0.679123
0.67979
0.680436
0.68103
0.68159
0.682173
0.682837
0.683623
0.684562
0.68568
0.687008
0.688585
0.690469
0.692734
0.695474
0.698797
0.702815
0.707616
0.713236
0.719625
0.726631
0.734204
0.74239
0.75121
0.760593
0.770435
0.780599
0.790934
0.801288
0.811515
0.82148
0.831062
0.840157
0.848672
0.85653
0.863668
0.870033
0.875582
0.880281
0.884103
0.887027
0.889037
0.890122
0.890274
0.88949
0.887768
0.885111
0.881524
0.877018
0.871605
0.865305
0.858142
0.850149
0.841367
0.831846
0.821648
0.810848
0.799537
0.78782
0.775823
0.763686
0.751572
0.739661
0.728153
0.717268
0.707236
0.698394
0.690195
0.682119
0.675684
0.671602
0.669061
0.66651
0.664962
0.664576
0.665012
0.666025
0.667401
0.668963
0.670567
0.672102
0.673485
0.674662
0.675603
0.676301
0.676767
0.677028
0.677119
0.677077
0.676932
0.676705
0.676405
0.67604
0.675635
0.675251
0.674959
0.674824
0.674897
0.675211
0.675781
0.676607
0.677673
0.678942
0.680358
0.681854
0.68337
0.684874
0.68635
0.687781
0.689136
0.690372
0.691441
0.692293
0.692887
0.693193
0.71104
0.711169
0.711424
0.711799
0.712281
0.712846
0.713466
0.71411
0.714764
0.715441
0.716171
0.716991
0.717937
0.71904
0.720329
0.721838
0.723608
0.725688
0.728141
0.731038
0.734457
0.73847
0.743131
0.748457
0.754422
0.760965
0.768046
0.775656
0.783774
0.792344
0.801278
0.81047
0.819797
0.829137
0.838365
0.847366
0.856035
0.864277
0.872007
0.879153
0.885654
0.891458
0.896522
0.900812
0.9043
0.906963
0.908785
0.909754
0.90986
0.909101
0.907475
0.904985
0.901638
0.897446
0.892423
0.88659
0.879975
0.87261
0.864539
0.855811
0.846488
0.836643
0.826361
0.815743
0.8049
0.793961
0.783068
0.772377
0.762055
0.752276
0.743214
0.735026
0.727726
0.721412
0.715934
0.711199
0.707373
0.704573
0.702731
0.701784
0.701556
0.70187
0.70256
0.70348
0.704508
0.705545
0.706515
0.707365
0.708063
0.708594
0.708959
0.709172
0.709252
0.709224
0.70911
0.708928
0.708693
0.708423
0.708143
0.707897
0.707731
0.707692
0.707816
0.70813
0.708645
0.709361
0.710264
0.711326
0.712507
0.713763
0.71505
0.716337
0.7176
0.718816
0.719956
0.720986
0.721869
0.722568
0.723054
0.723303
0.744831
0.74495
0.745187
0.745534
0.745982
0.746516
0.747118
0.747773
0.748477
0.749238
0.750077
0.751019
0.752095
0.753331
0.754758
0.756409
0.758319
0.760534
0.763103
0.766081
0.769523
0.773478
0.777979
0.783039
0.788643
0.79476
0.801359
0.808413
0.815888
0.823729
0.831864
0.840204
0.848649
0.857096
0.865441
0.873586
0.881436
0.888908
0.895925
0.90242
0.908336
0.913622
0.918237
0.922146
0.925322
0.927742
0.929387
0.930247
0.930312
0.929578
0.928045
0.925715
0.922598
0.918704
0.91405
0.908658
0.902556
0.895778
0.888366
0.880371
0.87185
0.862875
0.853524
0.843889
0.834073
0.824189
0.814362
0.804724
0.795413
0.786568
0.778319
0.770771
0.763978
0.757978
0.75274
0.748246
0.744547
0.741677
0.739607
0.738271
0.737558
0.73734
0.73749
0.737891
0.738441
0.739054
0.739664
0.74022
0.740689
0.741052
0.741303
0.741447
0.741493
0.741458
0.741356
0.741204
0.741018
0.740814
0.740618
0.740461
0.740375
0.740395
0.740546
0.740848
0.741309
0.741929
0.742696
0.74359
0.744582
0.745639
0.746729
0.747824
0.748898
0.749928
0.750887
0.751747
0.75248
0.753058
0.753457
0.753661
0.778502
0.778615
0.778839
0.779169
0.779598
0.780117
0.780716
0.781388
0.782133
0.782958
0.783879
0.784915
0.786091
0.787432
0.788965
0.790719
0.792727
0.795026
0.797657
0.80066
0.804076
0.807938
0.812269
0.817076
0.822351
0.828074
0.834216
0.84075
0.847635
0.854822
0.862246
0.869832
0.877498
0.885156
0.892718
0.900099
0.907216
0.913994
0.920366
0.926268
0.931647
0.936457
0.940657
0.944214
0.9471
0.949293
0.950776
0.951535
0.951563
0.950854
0.94941
0.947234
0.944334
0.940722
0.936416
0.931437
0.925814
0.91958
0.912778
0.905455
0.897668
0.889481
0.88097
0.872217
0.863313
0.854361
0.845467
0.836743
0.828305
0.820264
0.812722
0.805761
0.799436
0.793781
0.788801
0.784499
0.780891
0.777983
0.775749
0.774136
0.773065
0.772441
0.772168
0.772152
0.77231
0.772568
0.772867
0.773163
0.773422
0.773623
0.773756
0.773819
0.773817
0.773758
0.773653
0.773515
0.773358
0.773198
0.773055
0.772953
0.772916
0.772966
0.773125
0.773405
0.773814
0.774349
0.775002
0.775757
0.776592
0.777483
0.778404
0.779331
0.78024
0.78111
0.781916
0.782636
0.783246
0.783725
0.784056
0.784224
0.81206
0.812169
0.812385
0.812705
0.813124
0.813638
0.81424
0.81493
0.815708
0.816583
0.817565
0.818672
0.819923
0.821341
0.82295
0.824774
0.826843
0.829187
0.831837
0.834826
0.838183
0.84193
0.846083
0.850646
0.855613
0.860966
0.866683
0.872734
0.879081
0.885676
0.892465
0.899381
0.906355
0.913313
0.920177
0.926875
0.933334
0.939488
0.945275
0.950638
0.955528
0.959902
0.963721
0.966953
0.969571
0.971555
0.972887
0.973554
0.973549
0.972867
0.971508
0.969477
0.966782
0.963435
0.959453
0.954859
0.949681
0.943951
0.93771
0.931003
0.923884
0.916413
0.908658
0.900694
0.892603
0.884475
0.876401
0.868478
0.860801
0.853462
0.846544
0.840115
0.834226
0.82891
0.824184
0.820057
0.816535
0.813613
0.811269
0.809459
0.808124
0.807192
0.806589
0.806241
0.806078
0.806039
0.806074
0.806142
0.806212
0.806261
0.806278
0.806256
0.806197
0.806103
0.805982
0.805844
0.805701
0.805565
0.805452
0.80538
0.805367
0.80543
0.805583
0.805835
0.806192
0.806651
0.807205
0.807842
0.808546
0.809296
0.810073
0.810855
0.811623
0.812355
0.813032
0.813634
0.814143
0.814542
0.814816
0.814955
0.845509
0.845615
0.845826
0.846141
0.846556
0.847069
0.847678
0.848383
0.849188
0.850099
0.851126
0.852284
0.853589
0.85506
0.856718
0.858585
0.860685
0.863041
0.86568
0.868625
0.871898
0.875515
0.879486
0.883812
0.888487
0.893496
0.898817
0.904423
0.910277
0.916338
0.922555
0.928873
0.935229
0.941561
0.947803
0.95389
0.959758
0.965349
0.970607
0.975481
0.979926
0.983901
0.987371
0.990305
0.992678
0.994469
0.995663
0.996246
0.996212
0.995556
0.994278
0.992384
0.989881
0.986781
0.983103
0.978867
0.9741
0.968834
0.963108
0.956964
0.950453
0.943629
0.936555
0.929298
0.921932
0.914534
0.907184
0.899966
0.892958
0.886238
0.879876
0.873929
0.868442
0.863448
0.858967
0.85501
0.851579
0.848667
0.846255
0.844307
0.842779
0.841615
0.840756
0.840143
0.839721
0.839437
0.839249
0.83912
0.839021
0.838932
0.838838
0.838732
0.83861
0.838475
0.838329
0.83818
0.838036
0.837908
0.837808
0.837748
0.837743
0.837804
0.837941
0.838161
0.838467
0.838857
0.839325
0.839862
0.840453
0.841084
0.841737
0.842395
0.84304
0.843655
0.844222
0.844726
0.845151
0.845483
0.84571
0.845826
0.878851
0.878956
0.879165
0.879477
0.87989
0.880405
0.88102
0.881738
0.882561
0.883498
0.884556
0.885748
0.887088
0.888593
0.890278
0.892164
0.894269
0.896613
0.899216
0.902097
0.90527
0.908747
0.912533
0.916629
0.921026
0.925712
0.930666
0.935862
0.941267
0.946843
0.952545
0.958325
0.964128
0.969901
0.975584
0.981122
0.986459
0.991543
0.996323
1.00075
1.00479
1.00841
1.01156
1.01422
1.01637
1.01798
1.01905
1.01956
1.0195
1.01887
1.01767
1.0159
1.01358
1.01071
1.00731
1.0034
0.999017
0.994178
0.988923
0.983293
0.977333
0.971095
0.964634
0.958011
0.951292
0.944544
0.937837
0.931242
0.924827
0.918658
0.912793
0.907282
0.902166
0.897474
0.893227
0.889436
0.886103
0.883221
0.880775
0.878736
0.87707
0.875732
0.874676
0.873856
0.873225
0.87274
0.872365
0.872067
0.871822
0.871607
0.871411
0.871223
0.871038
0.870857
0.870679
0.87051
0.870356
0.870224
0.870123
0.870062
0.870052
0.870101
0.870216
0.870402
0.870659
0.870986
0.871378
0.871826
0.872321
0.872849
0.873395
0.873947
0.874487
0.875002
0.875477
0.875897
0.876251
0.876528
0.876717
0.876813
0.912089
0.912193
0.9124
0.912711
0.913124
0.913639
0.914259
0.914986
0.915822
0.916775
0.917853
0.919065
0.920424
0.921944
0.923638
0.925523
0.927613
0.929926
0.932476
0.935276
0.938338
0.941669
0.945271
0.949144
0.953278
0.957661
0.962274
0.967092
0.972086
0.977221
0.982458
0.987752
0.993059
0.998328
1.00351
1.00856
1.01341
1.01804
1.02239
1.02642
1.03009
1.03337
1.03623
1.03864
1.04059
1.04204
1.04299
1.04343
1.04335
1.04275
1.04162
1.03997
1.03782
1.03516
1.03202
1.02842
1.02439
1.01994
1.01511
1.00995
1.00449
0.998783
0.992875
0.986821
0.980681
0.974513
0.968378
0.962338
0.956451
0.950774
0.945356
0.940241
0.935465
0.931056
0.927031
0.923404
0.920175
0.917341
0.914888
0.912794
0.911032
0.909566
0.908362
0.907379
0.906582
0.905934
0.905404
0.904963
0.90459
0.904265
0.903975
0.90371
0.903464
0.903234
0.903021
0.902826
0.902653
0.902508
0.902397
0.902326
0.902303
0.902333
0.902421
0.90257
0.90278
0.903049
0.903373
0.903745
0.904156
0.904595
0.90505
0.905509
0.90596
0.906389
0.906785
0.907135
0.90743
0.907659
0.907817
0.907896
0.945224
0.945327
0.945533
0.945842
0.946254
0.94677
0.947393
0.948123
0.948966
0.949927
0.951014
0.952235
0.953599
0.95512
0.956807
0.958675
0.960736
0.963002
0.965484
0.968193
0.971137
0.974319
0.97774
0.981397
0.985281
0.98938
0.993676
0.998146
1.00276
1.0075
1.01231
1.01717
1.02203
1.02684
1.03157
1.03618
1.0406
1.04482
1.04877
1.05244
1.05578
1.05876
1.06135
1.06354
1.06529
1.0666
1.06745
1.06783
1.06773
1.06715
1.06609
1.06456
1.06256
1.0601
1.0572
1.05388
1.05016
1.04607
1.04164
1.03691
1.0319
1.02667
1.02126
1.01572
1.0101
1.00445
0.998825
0.99328
0.987866
0.98263
0.977615
0.972861
0.968398
0.964252
0.960439
0.956972
0.953853
0.95108
0.948641
0.946521
0.944696
0.94314
0.941825
0.940718
0.93979
0.93901
0.938352
0.937792
0.937309
0.936888
0.936514
0.936177
0.935872
0.935595
0.935344
0.935119
0.934923
0.934758
0.93463
0.934543
0.9345
0.934507
0.934565
0.934677
0.934842
0.935058
0.935321
0.935625
0.935962
0.936324
0.9367
0.93708
0.937454
0.93781
0.938138
0.938429
0.938673
0.938863
0.938993
0.93906
0.978255
0.978357
0.978562
0.978869
0.97928
0.979795
0.980417
0.981148
0.981992
0.982955
0.984041
0.98526
0.986619
0.988128
0.989797
0.991635
0.993653
0.995861
0.998266
1.00088
1.0037
1.00673
1.00997
1.01342
1.01707
1.0209
1.0249
1.02905
1.03333
1.03769
1.04212
1.04658
1.05104
1.05544
1.05977
1.06397
1.06801
1.07185
1.07545
1.07878
1.08182
1.08453
1.08688
1.08886
1.09045
1.09163
1.09238
1.0927
1.09259
1.09203
1.09104
1.08961
1.08775
1.08548
1.0828
1.07974
1.07631
1.07255
1.06848
1.06413
1.05954
1.05474
1.04978
1.0447
1.03954
1.03436
1.02919
1.02409
1.0191
1.01426
1.00961
1.00519
1.00101
0.997113
0.993502
0.990192
0.987186
0.984484
0.982076
0.979951
0.978091
0.976475
0.975079
0.973879
0.972848
0.971964
0.971202
0.970543
0.969968
0.969463
0.969014
0.968614
0.968254
0.96793
0.96764
0.967383
0.96716
0.966973
0.966823
0.966714
0.966648
0.966628
0.966656
0.966731
0.966853
0.96702
0.967228
0.967472
0.967745
0.968039
0.968346
0.968658
0.968965
0.969258
0.969529
0.969769
0.96997
0.970127
0.970235
0.970289
1.01118
1.01129
1.01149
1.01179
1.0122
1.01271
1.01333
1.01406
1.0149
1.01586
1.01694
1.01815
1.01949
1.02098
1.02262
1.02442
1.02638
1.02852
1.03084
1.03335
1.03605
1.03893
1.042
1.04525
1.04867
1.05226
1.05598
1.05984
1.06379
1.06782
1.07191
1.07601
1.08009
1.08413
1.08808
1.09192
1.09561
1.09911
1.10239
1.10543
1.10819
1.11065
1.11279
1.11459
1.11602
1.11707
1.11774
1.11801
1.11788
1.11735
1.11642
1.11509
1.11336
1.11126
1.10878
1.10596
1.1028
1.09934
1.09559
1.09159
1.08737
1.08297
1.07841
1.07375
1.06901
1.06425
1.0595
1.0548
1.05019
1.04571
1.04139
1.03727
1.03336
1.02968
1.02626
1.02311
1.02022
1.01759
1.01523
1.01312
1.01124
1.00959
1.00814
1.00687
1.00576
1.0048
1.00395
1.00321
1.00256
1.00198
1.00147
1.00101
1.0006
1.00023
0.999903
0.999614
0.999362
0.999149
0.998975
0.998842
0.99875
0.998702
0.998698
0.998738
0.99882
0.998941
0.9991
0.999289
0.999505
0.999741
0.999988
1.00024
1.00049
1.00073
1.00095
1.00115
1.00131
1.00144
1.00153
1.00157
1.04401
1.04411
1.04431
1.04462
1.04502
1.04553
1.04614
1.04686
1.04769
1.04864
1.0497
1.05089
1.05222
1.05367
1.05528
1.05703
1.05893
1.061
1.06323
1.06564
1.0682
1.07094
1.07384
1.07691
1.08012
1.08347
1.08694
1.09052
1.09418
1.09791
1.10167
1.10544
1.10919
1.1129
1.11652
1.12003
1.1234
1.12659
1.12959
1.13235
1.13487
1.1371
1.13904
1.14067
1.14196
1.14291
1.1435
1.14373
1.14359
1.14308
1.1422
1.14096
1.13935
1.1374
1.13512
1.13251
1.1296
1.12641
1.12296
1.11928
1.1154
1.11135
1.10716
1.10287
1.09851
1.09413
1.08974
1.08541
1.08114
1.07699
1.07298
1.06913
1.06546
1.062
1.05877
1.05576
1.05298
1.05044
1.04813
1.04604
1.04417
1.0425
1.04101
1.0397
1.03853
1.0375
1.03659
1.03579
1.03507
1.03443
1.03387
1.03336
1.0329
1.03249
1.03213
1.03181
1.03153
1.03129
1.03109
1.03093
1.03081
1.03073
1.0307
1.0307
1.03075
1.03083
1.03094
1.03108
1.03125
1.03143
1.03163
1.03183
1.03203
1.03222
1.0324
1.03256
1.03269
1.03279
1.03287
1.0329
1.07674
1.07684
1.07704
1.07733
1.07773
1.07823
1.07884
1.07955
1.08037
1.0813
1.08234
1.08351
1.08481
1.08623
1.08779
1.08949
1.09133
1.09332
1.09546
1.09775
1.1002
1.10279
1.10553
1.10841
1.11142
1.11455
1.11779
1.12111
1.12451
1.12795
1.13142
1.1349
1.13835
1.14174
1.14506
1.14828
1.15136
1.15427
1.15701
1.15953
1.16182
1.16385
1.16561
1.16708
1.16824
1.16909
1.16962
1.16981
1.16966
1.16917
1.16834
1.16718
1.1657
1.16389
1.16177
1.15936
1.15668
1.15373
1.15056
1.14717
1.1436
1.13987
1.13601
1.13206
1.12804
1.124
1.11995
1.11594
1.11199
1.10813
1.1044
1.1008
1.09736
1.0941
1.09104
1.08817
1.08551
1.08305
1.08081
1.07876
1.0769
1.07523
1.07372
1.07237
1.07117
1.07009
1.06913
1.06828
1.06751
1.06682
1.0662
1.06565
1.06515
1.06471
1.06431
1.06396
1.06365
1.06338
1.06316
1.06297
1.06283
1.06272
1.06266
1.06263
1.06264
1.06268
1.06275
1.06285
1.06297
1.06311
1.06326
1.06341
1.06357
1.06372
1.06386
1.06399
1.0641
1.06418
1.06424
1.06427
1.10937
1.10947
1.10966
1.10995
1.11034
1.11084
1.11143
1.11213
1.11293
1.11384
1.11487
1.11601
1.11727
1.11865
1.12016
1.1218
1.12357
1.12548
1.12753
1.12972
1.13204
1.13449
1.13708
1.13979
1.14261
1.14553
1.14855
1.15164
1.15479
1.15797
1.16118
1.16438
1.16755
1.17067
1.17372
1.17666
1.17948
1.18214
1.18464
1.18694
1.18902
1.19087
1.19247
1.1938
1.19485
1.19561
1.19607
1.19622
1.19607
1.1956
1.19482
1.19374
1.19236
1.19068
1.18872
1.18649
1.18401
1.1813
1.17837
1.17524
1.17195
1.16851
1.16495
1.16131
1.1576
1.15387
1.15013
1.14641
1.14275
1.13916
1.13567
1.13231
1.12908
1.12601
1.12311
1.12038
1.11783
1.11547
1.11328
1.11128
1.10945
1.10778
1.10627
1.10491
1.10368
1.10257
1.10157
1.10067
1.09986
1.09914
1.09848
1.09789
1.09736
1.09688
1.09645
1.09607
1.09573
1.09544
1.09519
1.09498
1.0948
1.09467
1.09458
1.09452
1.09449
1.0945
1.09453
1.09459
1.09468
1.09477
1.09488
1.095
1.09512
1.09524
1.09535
1.09544
1.09553
1.09559
1.09564
1.09566
1.1419
1.142
1.14219
1.14247
1.14286
1.14334
1.14392
1.1446
1.14538
1.14627
1.14727
1.14838
1.1496
1.15094
1.1524
1.15398
1.15568
1.15751
1.15946
1.16154
1.16374
1.16607
1.1685
1.17105
1.17369
1.17642
1.17923
1.18211
1.18503
1.18797
1.19093
1.19389
1.19681
1.19967
1.20247
1.20517
1.20775
1.21019
1.21246
1.21456
1.21646
1.21814
1.21959
1.2208
1.22174
1.22242
1.22283
1.22295
1.22279
1.22234
1.22161
1.2206
1.21931
1.21775
1.21594
1.21387
1.21158
1.20907
1.20637
1.20348
1.20044
1.19727
1.19399
1.19062
1.1872
1.18374
1.18028
1.17683
1.17343
1.17009
1.16683
1.16368
1.16065
1.15775
1.155
1.15241
1.14997
1.14769
1.14558
1.14363
1.14183
1.14018
1.13868
1.13731
1.13606
1.13493
1.13391
1.13298
1.13214
1.13138
1.13069
1.13007
1.1295
1.129
1.12854
1.12813
1.12777
1.12745
1.12718
1.12694
1.12674
1.12658
1.12646
1.12637
1.12632
1.12629
1.12629
1.12632
1.12636
1.12643
1.1265
1.12658
1.12667
1.12676
1.12684