/*--------------------------------*- C++ -*----------------------------------*\
| =========                 |                                                 |
| \\      /  F ield         | OpenFOAM: The Open Source CFD Toolbox           |
|  \\    /   O peration     | Version:  2406                                  |
|   \\  /    A nd           | Website:  www.openfoam.com                      |
|    \\/     M anipulation  |                                                 |
\*---------------------------------------------------------------------------*/
FoamFile
{
    version     2.0;
    format      ascii;
    arch        "LSB;label=32;scalar=64";
    class       volScalarField;
    location    "6.15";
    object      D;
}
// * * * * * * * * * * * * * * * * * * * * * * * * * * * * * * * * * * * * * //

dimensions      [0 2 -1 0 0 0 0];

internalField   nonuniform List<scalar> 
14400
(
6.38338e-05
6.36933e-05
6.34792e-05
6.3257e-05
6.30653e-05
6.29212e-05
6.2831e-05
6.27972e-05
6.28229e-05
6.29138e-05
6.30779e-05
6.33236e-05
6.36506e-05
6.40261e-05
6.43347e-05
6.4342e-05
6.38701e-05
6.32015e-05
6.25449e-05
6.19684e-05
6.14757e-05
6.10527e-05
6.06849e-05
6.03619e-05
6.00776e-05
5.98304e-05
5.96218e-05
5.94564e-05
5.93423e-05
5.92922e-05
5.93268e-05
5.9482e-05
5.98278e-05
6.05281e-05
6.21066e-05
6.74968e-05
0.00011702
0.00013824
0.00013824
0.00013824
0.00013824
0.00013824
0.00013824
0.00013824
0.00013824
0.00013824
0.00013824
0.00013824
0.00013824
0.00013824
0.00013824
0.00013824
0.00013824
0.00013824
0.00013824
0.00013824
0.00013824
0.00013824
0.00013824
0.00013824
0.000138221
9.26256e-05
6.59883e-05
6.19399e-05
6.06684e-05
6.01287e-05
5.99059e-05
5.98622e-05
5.99366e-05
6.00958e-05
6.03179e-05
6.05851e-05
6.08804e-05
6.11866e-05
6.14862e-05
6.17631e-05
6.20061e-05
6.22119e-05
6.23877e-05
6.25537e-05
6.27448e-05
6.30161e-05
6.34612e-05
6.42723e-05
6.60004e-05
7.13965e-05
0.000109347
0.000138239
0.00012445
7.27208e-05
6.62763e-05
6.41994e-05
6.32108e-05
6.26732e-05
6.23756e-05
6.22247e-05
6.21708e-05
6.21832e-05
6.22399e-05
6.23216e-05
6.2409e-05
6.24814e-05
6.25178e-05
6.25017e-05
6.24277e-05
6.23053e-05
6.21531e-05
6.19926e-05
6.18433e-05
6.17228e-05
6.16478e-05
6.16373e-05
6.17171e-05
6.19293e-05
6.23525e-05
6.31641e-05
6.49004e-05
7.03166e-05
0.000110333
0.000138239
6.40371e-05
6.38212e-05
6.35217e-05
6.32337e-05
6.29981e-05
6.28271e-05
6.27221e-05
6.26828e-05
6.27111e-05
6.28135e-05
6.30017e-05
6.3293e-05
6.37055e-05
6.42382e-05
6.48006e-05
6.50381e-05
6.4302e-05
6.33975e-05
6.26078e-05
6.19647e-05
6.14406e-05
6.10046e-05
6.06336e-05
6.03129e-05
6.00344e-05
5.97952e-05
5.9596e-05
5.94414e-05
5.93397e-05
5.93045e-05
5.93586e-05
5.95427e-05
5.99383e-05
6.07417e-05
6.2588e-05
6.88663e-05
0.000129123
0.00013824
0.00013824
0.00013824
0.00013824
0.00013824
0.00013824
0.00013824
0.00013824
0.00013824
0.00013824
0.00013824
0.00013824
0.00013824
0.00013824
0.00013824
0.00013824
0.00013824
0.00013824
0.00013824
0.00013824
0.00013824
0.00013824
0.00013824
0.000138239
0.000105546
6.69681e-05
6.22021e-05
6.07897e-05
6.01914e-05
5.99341e-05
5.98658e-05
5.99199e-05
6.00606e-05
6.02645e-05
6.05134e-05
6.07905e-05
6.1079e-05
6.13627e-05
6.16272e-05
6.18625e-05
6.20665e-05
6.22473e-05
6.24252e-05
6.26359e-05
6.29366e-05
6.34264e-05
6.43133e-05
6.62029e-05
7.22096e-05
0.000119658
0.00013824
0.000134879
7.53761e-05
6.69851e-05
6.44382e-05
6.32958e-05
6.26895e-05
6.23539e-05
6.21796e-05
6.21115e-05
6.2117e-05
6.21735e-05
6.22617e-05
6.23613e-05
6.24491e-05
6.24993e-05
6.24896e-05
6.24111e-05
6.22774e-05
6.21132e-05
6.1944e-05
6.17917e-05
6.16742e-05
6.16081e-05
6.16128e-05
6.17158e-05
6.19631e-05
6.24447e-05
6.33703e-05
6.53911e-05
7.18389e-05
0.000125184
0.00013824
6.4662e-05
6.41951e-05
6.36675e-05
6.32278e-05
6.28999e-05
6.2675e-05
6.25412e-05
6.24913e-05
6.25244e-05
6.26485e-05
6.28827e-05
6.32631e-05
6.38548e-05
6.47693e-05
6.61736e-05
6.79705e-05
6.5583e-05
6.38938e-05
6.27691e-05
6.19792e-05
6.13894e-05
6.09256e-05
6.05464e-05
6.02287e-05
5.99601e-05
5.97351e-05
5.95535e-05
5.94196e-05
5.9342e-05
5.93366e-05
5.94309e-05
5.96767e-05
6.01869e-05
6.12754e-05
6.43201e-05
8.10488e-05
0.000138084
0.00013824
0.00013824
0.00013824
0.00013824
0.00013824
0.00013824
0.00013824
0.00013824
0.00013824
0.00013824
0.00013824
0.00013824
0.00013824
0.00013824
0.00013824
0.00013824
0.00013824
0.00013824
0.00013824
0.00013824
0.00013824
0.00013824
0.00013824
0.00013824
0.000126176
6.89652e-05
6.28521e-05
6.10808e-05
6.03379e-05
6.00025e-05
5.9882e-05
5.98952e-05
5.99998e-05
6.01693e-05
6.03843e-05
6.0628e-05
6.08849e-05
6.11407e-05
6.13834e-05
6.16056e-05
6.18073e-05
6.19979e-05
6.21988e-05
6.24474e-05
6.28069e-05
6.33933e-05
6.4469e-05
6.68475e-05
7.46002e-05
0.000133747
0.00013824
0.000138228
9.88084e-05
6.95037e-05
6.50561e-05
6.35184e-05
6.27576e-05
6.23404e-05
6.21174e-05
6.20207e-05
6.20132e-05
6.20712e-05
6.2175e-05
6.23033e-05
6.24281e-05
6.25128e-05
6.25193e-05
6.24268e-05
6.22629e-05
6.20678e-05
6.18767e-05
6.17148e-05
6.16008e-05
6.15511e-05
6.15859e-05
6.17365e-05
6.20599e-05
6.26778e-05
6.39136e-05
6.70541e-05
8.15199e-05
0.000137866
0.00013824
6.66225e-05
6.51504e-05
6.405e-05
6.33175e-05
6.28352e-05
6.25264e-05
6.23498e-05
6.22843e-05
6.23245e-05
6.24801e-05
6.27811e-05
6.32954e-05
6.41828e-05
6.58866e-05
7.02136e-05
8.90481e-05
6.9493e-05
6.49634e-05
6.31035e-05
6.20543e-05
6.13565e-05
6.0846e-05
6.04502e-05
6.01328e-05
5.9875e-05
5.96682e-05
5.95106e-05
5.94059e-05
5.93642e-05
5.94046e-05
5.9563e-05
5.9912e-05
6.06253e-05
6.22654e-05
6.78857e-05
0.000119117
0.00013824
0.00013824
0.00013824
0.00013824
0.00013824
0.00013824
0.00013824
0.00013824
0.00013824
0.00013824
0.00013824
0.00013824
0.00013824
0.00013824
0.00013824
0.00013824
0.00013824
0.00013824
0.00013824
0.00013824
0.00013824
0.00013824
0.00013824
0.00013824
0.00013824
0.000138121
8.26045e-05
6.4797e-05
6.16919e-05
6.06156e-05
6.01345e-05
5.99274e-05
5.98777e-05
5.99297e-05
6.00513e-05
6.02207e-05
6.04209e-05
6.06376e-05
6.08588e-05
6.10755e-05
6.12833e-05
6.14842e-05
6.16898e-05
6.19237e-05
6.22277e-05
6.26772e-05
6.34274e-05
6.49028e-05
6.90838e-05
9.53828e-05
0.000138217
0.00013824
0.00013824
0.000131086
7.35964e-05
6.62775e-05
6.40095e-05
6.29586e-05
6.2395e-05
6.20901e-05
6.19481e-05
6.19225e-05
6.19868e-05
6.21218e-05
6.23062e-05
6.25072e-05
6.26683e-05
6.27159e-05
6.25825e-05
6.23467e-05
6.20835e-05
6.1845e-05
6.16599e-05
6.15457e-05
6.15178e-05
6.15986e-05
6.18274e-05
6.22847e-05
6.31647e-05
6.50853e-05
7.12782e-05
0.000121729
0.00013824
0.00013824
7.58831e-05
6.77358e-05
6.49445e-05
6.36336e-05
6.2898e-05
6.24626e-05
6.22241e-05
6.21371e-05
6.2188e-05
6.23888e-05
6.27859e-05
6.34973e-05
6.48736e-05
6.84037e-05
8.64457e-05
0.000137953
8.63885e-05
6.73995e-05
6.37597e-05
6.22645e-05
6.13954e-05
6.08086e-05
6.03808e-05
6.00561e-05
5.98067e-05
5.96194e-05
5.94904e-05
5.94234e-05
5.94306e-05
5.95372e-05
5.97946e-05
6.03169e-05
6.14249e-05
6.4598e-05
8.36123e-05
0.000138157
0.00013824
0.00013824
0.00013824
0.00013824
0.00013824
0.00013824
0.00013824
0.00013824
0.00013824
0.00013824
0.00013824
0.00013824
0.00013824
0.00013824
0.00013824
0.00013824
0.00013824
0.00013824
0.00013824
0.00013824
0.00013824
0.00013824
0.00013824
0.00013824
0.00013824
0.00013824
0.00012415
6.88863e-05
6.28385e-05
6.11033e-05
6.03698e-05
6.00286e-05
5.98901e-05
5.98732e-05
5.99353e-05
6.00508e-05
6.02018e-05
6.03748e-05
6.05601e-05
6.07512e-05
6.09465e-05
6.11508e-05
6.13783e-05
6.16565e-05
6.20359e-05
6.26139e-05
6.3615e-05
6.57307e-05
7.24608e-05
0.000126952
0.00013824
0.00013824
0.00013824
0.000138239
0.000110242
7.06529e-05
6.52576e-05
6.34749e-05
6.26223e-05
6.21764e-05
6.19636e-05
6.19138e-05
6.19947e-05
6.21901e-05
6.24846e-05
6.28511e-05
6.31994e-05
6.33846e-05
6.3106e-05
6.26859e-05
6.22685e-05
6.19306e-05
6.16946e-05
6.15703e-05
6.15691e-05
6.17179e-05
6.20754e-05
6.2777e-05
6.42289e-05
6.83985e-05
9.45267e-05
0.00013822
0.00013824
0.00013824
0.000135863
7.71792e-05
6.71659e-05
6.44536e-05
6.32476e-05
6.25972e-05
6.22611e-05
6.21416e-05
6.22113e-05
6.2486e-05
6.30443e-05
6.40976e-05
6.64471e-05
7.43858e-05
0.000134625
0.00013824
0.000131267
7.23584e-05
6.50954e-05
6.27676e-05
6.15943e-05
6.08727e-05
6.03841e-05
6.0037e-05
5.97891e-05
5.96203e-05
5.95242e-05
5.95055e-05
5.95807e-05
5.9787e-05
6.02081e-05
6.10546e-05
6.30177e-05
6.99855e-05
0.000133317
0.00013824
0.00013824
0.00013824
0.00013824
0.00013824
0.00013824
0.00013824
0.00013824
0.00013824
0.00013824
0.00013824
0.00013824
0.00013824
0.00013824
0.00013824
0.00013824
0.00013824
0.00013824
0.00013824
0.00013824
0.00013824
0.00013824
0.00013824
0.00013824
0.00013824
0.00013824
0.00013824
0.000138231
9.43922e-05
6.59441e-05
6.20351e-05
6.07887e-05
6.02307e-05
5.99663e-05
5.986e-05
5.98507e-05
5.99054e-05
6.00038e-05
6.01327e-05
6.02838e-05
6.04529e-05
6.06411e-05
6.08559e-05
6.11156e-05
6.14551e-05
6.19412e-05
6.2718e-05
6.41933e-05
6.83298e-05
9.51762e-05
0.000138222
0.00013824
0.00013824
0.00013824
0.00013824
0.000138205
9.2286e-05
6.89844e-05
6.47603e-05
6.32255e-05
6.2506e-05
6.21707e-05
6.20857e-05
6.22041e-05
6.2523e-05
6.30562e-05
6.38597e-05
6.47926e-05
6.57623e-05
6.46645e-05
6.36573e-05
6.283e-05
6.22674e-05
6.19212e-05
6.17663e-05
6.17992e-05
6.20589e-05
6.2658e-05
6.38863e-05
6.68623e-05
7.9449e-05
0.000137729
0.00013824
0.00013824
0.00013824
0.00013824
0.00013493
7.47834e-05
6.67198e-05
6.42834e-05
6.31453e-05
6.26211e-05
6.24416e-05
6.25517e-05
6.29768e-05
6.39029e-05
6.58602e-05
7.25493e-05
0.00012779
0.00013824
0.00013824
0.00013824
0.000113584
6.98249e-05
6.40834e-05
6.21376e-05
6.11347e-05
6.05251e-05
6.01271e-05
5.98677e-05
5.97145e-05
5.96577e-05
5.97053e-05
5.98851e-05
6.02607e-05
6.1008e-05
6.27292e-05
6.86472e-05
0.000122503
0.00013824
0.00013824
0.00013824
0.00013824
0.00013824
0.00013824
0.00013824
0.00013824
0.00013824
0.00013824
0.00013824
0.00013824
0.00013824
0.00013824
0.00013824
0.00013824
0.00013824
0.00013824
0.00013824
0.00013824
0.00013824
0.00013824
0.00013824
0.00013824
0.00013824
0.00013824
0.00013824
0.00013824
0.00013824
0.000137224
7.37403e-05
6.39102e-05
6.15564e-05
6.0617e-05
6.01606e-05
5.99322e-05
5.98332e-05
5.98175e-05
5.98594e-05
5.99443e-05
6.00644e-05
6.02172e-05
6.04063e-05
6.0643e-05
6.09521e-05
6.13835e-05
6.20381e-05
6.31557e-05
6.55192e-05
7.34695e-05
0.00013484
0.00013824
0.00013824
0.00013824
0.00013824
0.00013824
0.00013824
0.000138119
8.7576e-05
6.89025e-05
6.4793e-05
6.33708e-05
6.277e-05
6.26219e-05
6.2826e-05
6.34487e-05
6.46367e-05
6.72857e-05
7.10095e-05
7.97505e-05
7.07235e-05
6.68405e-05
6.43511e-05
6.31559e-05
6.254e-05
6.23088e-05
6.23942e-05
6.2875e-05
6.40967e-05
6.71383e-05
7.71471e-05
0.000136927
0.00013824
0.00013824
0.00013824
0.00013824
0.00013824
0.00013824
0.000134838
7.63561e-05
6.78439e-05
6.47365e-05
6.37159e-05
6.33729e-05
6.36037e-05
6.44416e-05
6.67296e-05
7.27838e-05
0.000126482
0.00013824
0.00013824
0.00013824
0.00013824
0.000138233
9.83832e-05
6.83757e-05
6.35239e-05
6.17934e-05
6.0921e-05
6.04111e-05
6.01157e-05
5.99735e-05
5.99689e-05
6.01223e-05
6.04964e-05
6.12266e-05
6.28373e-05
6.84589e-05
0.000115717
0.00013824
0.00013824
0.00013824
0.00013824
0.00013824
0.00013824
0.00013824
0.00013824
0.00013824
0.00013824
0.00013824
0.00013824
0.00013824
0.00013824
0.00013824
0.00013824
0.00013824
0.00013824
0.00013824
0.00013824
0.00013824
0.00013824
0.00013824
0.00013824
0.00013824
0.00013824
0.00013824
0.00013824
0.00013824
0.00013824
0.00013824
0.000131919
6.99364e-05
6.32758e-05
6.13949e-05
6.05816e-05
6.01594e-05
5.99334e-05
5.98282e-05
5.98048e-05
5.98434e-05
5.99352e-05
6.0079e-05
6.02811e-05
6.05584e-05
6.09488e-05
6.15365e-05
6.25183e-05
6.44969e-05
7.06969e-05
0.000122125
0.00013824
0.00013824
0.00013824
0.00013824
0.00013824
0.00013824
0.00013824
0.00013824
0.000138141
9.64569e-05
7.04522e-05
6.58213e-05
6.43489e-05
6.40451e-05
6.4481e-05
6.62593e-05
7.04257e-05
8.98127e-05
0.000129863
0.000137887
0.000128423
8.62103e-05
6.98673e-05
6.56896e-05
6.41394e-05
6.36995e-05
6.38984e-05
6.49856e-05
6.91179e-05
8.55772e-05
0.000137307
0.00013824
0.00013824
0.00013824
0.00013824
0.00013824
0.00013824
0.00013824
0.00013824
0.000137041
9.18984e-05
7.06666e-05
6.7478e-05
6.62155e-05
6.71409e-05
6.99135e-05
8.25857e-05
0.000133105
0.00013824
0.00013824
0.00013824
0.00013824
0.00013824
0.00013824
0.000138221
9.46875e-05
6.82291e-05
6.3462e-05
6.18649e-05
6.10743e-05
6.0688e-05
6.05494e-05
6.06286e-05
6.0995e-05
6.18805e-05
6.37273e-05
6.92741e-05
0.000119036
0.00013824
0.00013824
0.00013824
0.00013824
0.00013824
0.00013824
0.00013824
0.00013824
0.00013824
0.00013824
0.00013824
0.00013824
0.00013824
0.00013824
0.00013824
0.00013824
0.00013824
0.00013824
0.00013824
0.00013824
0.00013824
0.00013824
0.00013824
0.00013824
0.00013824
0.00013824
0.00013824
0.00013824
0.00013824
0.00013824
0.00013824
0.00013824
0.00013824
0.000126102
6.94233e-05
6.32544e-05
6.1504e-05
6.06879e-05
6.024e-05
6.00016e-05
5.98903e-05
5.98735e-05
5.99381e-05
6.00826e-05
6.0318e-05
6.06711e-05
6.12078e-05
6.21071e-05
6.39148e-05
6.93412e-05
0.000108324
0.000138239
0.00013824
0.00013824
0.00013824
0.00013824
0.00013824
0.00013824
0.00013824
0.00013824
0.00013824
0.000138228
0.000119786
7.67961e-05
7.0052e-05
6.91518e-05
7.04406e-05
8.09733e-05
0.000122012
0.000138196
0.00013824
0.00013824
0.00013824
0.000138149
0.000118996
7.73012e-05
6.98547e-05
6.85837e-05
6.9264e-05
7.29343e-05
0.000111705
0.000138134
0.00013824
0.00013824
0.00013824
0.00013824
0.00013824
0.00013824
0.00013824
0.00013824
0.00013824
0.00013824
0.00013821
0.000122722
9.25982e-05
7.92837e-05
8.90443e-05
0.000117777
0.000138028
0.00013824
0.00013824
0.00013824
0.00013824
0.00013824
0.00013824
0.00013824
0.00013824
0.000138226
0.000104108
6.95008e-05
6.4545e-05
6.26968e-05
6.20524e-05
6.19029e-05
6.21669e-05
6.31363e-05
6.65761e-05
7.52489e-05
0.000130069
0.00013824
0.00013824
0.00013824
0.00013824
0.00013824
0.00013824
0.00013824
0.00013824
0.00013824
0.00013824
0.00013824
0.00013824
0.00013824
0.00013824
0.00013824
0.00013824
0.00013824
0.00013824
0.00013824
0.00013824
0.00013824
0.00013824
0.00013824
0.00013824
0.00013824
0.00013824
0.00013824
0.00013824
0.00013824
0.00013824
0.00013824
0.00013824
0.00013824
0.00013824
0.00013824
0.00012676
7.00178e-05
6.39935e-05
6.19482e-05
6.09562e-05
6.04696e-05
6.0209e-05
6.01104e-05
6.0144e-05
6.03052e-05
6.06164e-05
6.11278e-05
6.19734e-05
6.36932e-05
6.89412e-05
0.000103319
0.000138237
0.00013824
0.00013824
0.00013824
0.00013824
0.00013824
0.00013824
0.00013824
0.00013824
0.00013824
0.00013824
0.00013824
0.00013824
0.000137388
0.000122247
0.000112818
0.000125185
0.000137942
0.00013824
0.00013824
0.00013824
0.00013824
0.00013824
0.00013824
0.00013824
0.00013754
0.000121766
0.000108168
0.000117124
0.000135426
0.00013824
0.00013824
0.00013824
0.00013824
0.00013824
0.00013824
0.00013824
0.00013824
0.00013824
0.00013824
0.00013824
0.00013824
0.00013824
0.00013824
0.000138211
0.00013772
0.000138179
0.00013824
0.00013824
0.00013824
0.00013824
0.00013824
0.00013824
0.00013824
0.00013824
0.00013824
0.00013824
0.00013824
0.000138239
0.000124672
7.80476e-05
6.84102e-05
6.66865e-05
6.64831e-05
6.75243e-05
7.11842e-05
0.000108635
0.000137669
0.00013824
0.00013824
0.00013824
0.00013824
0.00013824
0.00013824
0.00013824
0.00013824
0.00013824
0.00013824
0.00013824
0.00013824
0.00013824
0.00013824
0.00013824
0.00013824
0.00013824
0.00013824
0.00013824
0.00013824
0.00013824
0.00013824
0.00013824
0.00013824
0.00013824
0.00013824
0.00013824
0.00013824
0.00013824
0.00013824
0.00013824
0.00013824
0.00013824
0.00013824
0.00013824
0.00013824
0.00013824
0.000133109
7.58213e-05
6.61861e-05
6.27368e-05
6.16211e-05
6.09885e-05
6.07264e-05
6.07146e-05
6.09262e-05
6.14336e-05
6.2384e-05
6.41237e-05
6.96041e-05
0.000108972
0.000138238
0.00013824
0.00013824
0.00013824
0.00013824
0.00013824
0.00013824
0.00013824
0.00013824
0.00013824
0.00013824
0.00013824
0.00013824
0.00013824
0.00013824
0.00013824
0.00013824
0.00013824
0.00013824
0.00013824
0.00013824
0.00013824
0.00013824
0.00013824
0.00013824
0.00013824
0.00013824
0.00013824
0.000138239
0.00013824
0.00013824
0.00013824
0.00013824
0.00013824
0.00013824
0.00013824
0.00013824
0.00013824
0.00013824
0.00013824
0.00013824
0.00013824
0.00013824
0.00013824
0.00013824
0.00013824
0.00013824
0.00013824
0.00013824
0.00013824
0.00013824
0.00013824
0.00013824
0.00013824
0.00013824
0.00013824
0.00013824
0.00013824
0.00013824
0.00013824
0.00013824
0.000137885
0.000121926
0.00010373
0.000102786
0.000117729
0.000135952
0.00013824
0.00013824
0.00013824
0.00013824
0.00013824
0.00013824
0.00013824
0.00013824
0.00013824
0.00013824
0.00013824
0.00013824
0.00013824
0.00013824
0.00013824
0.00013824
0.00013824
0.00013824
0.00013824
0.00013824
0.00013824
0.00013824
0.00013824
0.00013824
0.00013824
0.00013824
0.00013824
0.00013824
0.00013824
0.00013824
0.00013824
0.00013824
0.00013824
0.00013824
0.00013824
0.00013824
0.00013824
0.00013824
0.00013824
0.00013824
0.000137733
0.000100975
6.91679e-05
6.55175e-05
6.30218e-05
6.22766e-05
6.21697e-05
6.2526e-05
6.3756e-05
6.69864e-05
7.30925e-05
0.000124491
0.00013824
0.00013824
0.00013824
0.00013824
0.00013824
0.00013824
0.00013824
0.00013824
0.00013824
0.00013824
0.00013824
0.00013824
0.00013824
0.00013824
0.00013824
0.00013824
0.00013824
0.00013824
0.00013824
0.00013824
0.00013824
0.00013824
0.00013824
0.00013824
0.00013824
0.00013824
0.00013824
0.00013824
0.00013824
0.00013824
0.00013824
0.00013824
0.00013824
0.00013824
0.00013824
0.00013824
0.00013824
0.00013824
0.00013824
0.00013824
0.00013824
0.00013824
0.00013824
0.00013824
0.00013824
0.00013824
0.00013824
0.00013824
0.00013824
0.00013824
0.00013824
0.00013824
0.00013824
0.00013824
0.00013824
0.00013824
0.00013824
0.00013824
0.00013824
0.00013824
0.00013824
0.00013824
0.00013824
0.00013824
0.000138238
0.000138238
0.00013824
0.00013824
0.00013824
0.00013824
0.00013824
0.00013824
0.00013824
0.00013824
0.00013824
0.00013824
0.00013824
0.00013824
0.00013824
0.00013824
0.00013824
0.00013824
0.00013824
0.00013824
0.00013824
0.00013824
0.00013824
0.00013824
0.00013824
0.00013824
0.00013824
0.00013824
0.00013824
0.00013824
0.00013824
0.00013824
0.00013824
0.00013824
0.00013824
0.00013824
0.00013824
0.00013824
0.00013824
0.00013824
0.00013824
0.00013824
0.00013824
0.00013824
0.00013824
0.000138238
0.000129203
9.62018e-05
7.07972e-05
6.79102e-05
6.7499e-05
6.83324e-05
7.40172e-05
0.000108218
0.000136738
0.00013824
0.00013824
0.00013824
0.00013824
0.00013824
0.00013824
0.00013824
0.00013824
0.00013824
0.00013824
0.00013824
0.00013824
0.00013824
0.00013824
0.00013824
0.00013824
0.00013824
0.00013824
0.00013824
0.00013824
0.00013824
0.00013824
0.00013824
0.00013824
0.00013824
0.00013824
0.00013824
0.00013824
0.00013824
0.00013824
0.00013824
0.00013824
0.00013824
0.00013824
0.00013824
0.00013824
0.00013824
0.00013824
0.00013824
0.00013824
0.00013824
0.00013824
0.00013824
0.00013824
0.00013824
0.00013824
0.00013824
0.00013824
0.00013824
0.00013824
0.00013824
0.00013824
0.00013824
0.00013824
0.00013824
0.00013824
0.00013824
0.00013824
0.00013824
0.00013824
0.00013824
0.00013824
0.00013824
0.00013824
0.00013824
0.00013824
0.00013824
0.00013824
0.00013824
0.00013824
0.00013824
0.00013824
0.00013824
0.00013824
0.00013824
0.00013824
0.00013824
0.00013824
0.00013824
0.00013824
0.00013824
0.00013824
0.00013824
0.00013824
0.00013824
0.00013824
0.00013824
0.00013824
0.00013824
0.00013824
0.00013824
0.00013824
0.00013824
0.00013824
0.00013824
0.00013824
0.00013824
0.00013824
0.00013824
0.00013824
0.00013824
0.00013824
0.00013824
0.00013824
0.00013824
0.00013824
0.00013824
0.00013824
0.00013824
0.00013824
0.00013824
0.00013824
0.000138234
0.000135747
0.000124202
0.000118912
0.000126117
0.000137293
0.000138239
0.00013824
0.00013824
0.00013824
0.00013824
0.00013824
0.00013824
0.00013824
0.00013824
0.00013824
0.00013824
0.00013824
0.00013824
0.00013824
0.00013824
0.00013824
0.00013824
0.00013824
0.00013824
0.00013824
0.00013824
0.00013824
0.00013824
0.00013824
0.00013824
0.00013824
0.00013824
0.00013824
0.00013824
0.00013824
0.00013824
0.00013824
0.00013824
0.00013824
0.00013824
0.00013824
0.00013824
0.00013824
0.00013824
0.00013824
0.00013824
0.00013824
0.00013824
0.00013824
0.00013824
0.00013824
0.00013824
0.00013824
0.00013824
0.00013824
0.00013824
0.00013824
0.00013824
0.00013824
0.00013824
0.00013824
0.00013824
0.00013824
0.00013824
0.00013824
0.00013824
0.00013824
0.00013824
0.00013824
0.00013824
0.00013824
0.00013824
0.00013824
0.00013824
0.00013824
0.00013824
0.00013824
0.00013824
0.00013824
0.00013824
0.00013824
0.00013824
0.00013824
0.00013824
0.00013824
0.00013824
0.00013824
0.00013824
0.00013824
0.00013824
0.00013824
0.00013824
0.00013824
0.00013824
0.00013824
0.00013824
0.00013824
0.00013824
0.00013824
0.00013824
0.00013824
0.00013824
0.00013824
0.00013824
0.00013824
0.00013824
0.00013824
0.00013824
0.00013824
0.00013824
0.00013824
0.00013824
0.00013824
0.00013824
0.00013824
0.00013824
0.00013824
0.00013824
0.00013824
0.00013824
0.00013824
0.00013824
0.00013824
0.00013824
0.00013824
0.00013824
0.00013824
0.00013824
0.00013824
0.00013824
0.00013824
0.00013824
0.00013824
0.00013824
0.00013824
0.00013824
0.00013824
0.00013824
0.00013824
0.00013824
0.00013824
0.00013824
0.00013824
0.00013824
0.00013824
0.00013824
0.00013824
0.00013824
0.00013824
0.00013824
0.00013824
0.00013824
0.00013824
0.00013824
0.00013824
0.00013824
0.00013824
0.00013824
0.00013824
0.00013824
0.00013824
0.00013824
0.00013824
0.00013824
0.00013824
0.00013824
0.00013824
0.00013824
0.00013824
0.00013824
0.00013824
0.00013824
0.00013824
0.00013824
0.00013824
0.00013824
0.00013824
0.00013824
0.00013824
0.00013824
0.00013824
0.00013824
0.00013824
0.00013824
0.00013824
0.00013824
0.00013824
0.00013824
0.00013824
0.00013824
0.00013824
0.00013824
0.00013824
0.00013824
0.00013824
0.00013824
0.00013824
0.00013824
0.00013824
0.00013824
0.00013824
0.00013824
0.00013824
0.00013824
0.00013824
0.00013824
0.00013824
0.00013824
0.00013824
0.00013824
0.00013824
0.00013824
0.00013824
0.00013824
0.00013824
0.00013824
0.00013824
0.00013824
0.00013824
0.00013824
0.00013824
0.00013824
0.00013824
0.00013824
0.00013824
0.00013824
0.00013824
0.00013824
0.00013824
0.00013824
0.00013824
0.00013824
0.00013824
0.00013824
0.00013824
0.00013824
0.00013824
0.00013824
0.00013824
0.00013824
0.00013824
0.00013824
0.00013824
0.00013824
0.00013824
0.00013824
0.00013824
0.00013824
0.00013824
0.00013824
0.00013824
0.00013824
0.00013824
0.00013824
0.00013824
0.00013824
0.00013824
0.00013824
0.00013824
0.00013824
0.00013824
0.00013824
0.00013824
0.00013824
0.00013824
0.00013824
0.00013824
0.00013824
0.00013824
0.00013824
0.00013824
0.00013824
0.00013824
0.00013824
0.00013824
0.00013824
0.00013824
0.00013824
0.00013824
0.00013824
0.00013824
0.00013824
0.00013824
0.00013824
0.00013824
0.00013824
0.00013824
0.00013824
0.00013824
0.00013824
0.00013824
0.00013824
0.00013824
0.00013824
0.00013824
0.00013824
0.00013824
0.00013824
0.00013824
0.00013824
0.00013824
0.00013824
0.00013824
0.00013824
0.00013824
0.00013824
0.00013824
0.00013824
0.00013824
0.00013824
0.00013824
0.00013824
0.00013824
0.00013824
0.00013824
0.00013824
0.00013824
0.00013824
0.00013824
0.00013824
0.00013824
0.00013824
0.00013824
0.00013824
0.00013824
0.00013824
0.00013824
0.00013824
0.00013824
0.00013824
0.00013824
0.00013824
0.00013824
0.00013824
0.00013824
0.00013824
0.00013824
0.00013824
0.00013824
0.00013824
0.00013824
0.00013824
0.00013824
0.00013824
0.00013824
0.00013824
0.00013824
0.00013824
0.00013824
0.00013824
0.00013824
0.00013824
0.00013824
0.00013824
0.00013824
0.00013824
0.00013824
0.00013824
0.00013824
0.00013824
0.00013824
0.00013824
0.00013824
0.00013824
0.00013824
0.00013824
0.00013824
0.00013824
0.00013824
0.00013824
0.00013824
0.00013824
0.00013824
0.00013824
0.00013824
0.00013824
0.00013824
0.00013824
0.00013824
0.00013824
0.00013824
0.00013824
0.00013824
0.00013824
0.00013824
0.00013824
0.00013824
0.00013824
0.00013824
0.00013824
0.00013824
0.00013824
0.00013824
0.00013824
0.00013824
0.00013824
0.00013824
0.00013824
0.00013824
0.00013824
0.00013824
0.00013824
0.00013824
0.00013824
0.00013824
0.00013824
0.00013824
0.00013824
0.00013824
0.00013824
0.00013824
0.00013824
0.00013824
0.00013824
0.00013824
0.00013824
0.00013824
0.00013824
0.00013824
0.00013824
0.00013824
0.00013824
0.00013824
0.00013824
0.00013824
0.00013824
0.00013824
0.00013824
0.00013824
0.00013824
0.00013824
0.00013824
0.00013824
0.00013824
0.00013824
0.00013824
0.00013824
0.00013824
0.00013824
0.00013824
0.00013824
0.00013824
0.00013824
0.00013824
0.00013824
0.00013824
0.00013824
0.00013824
0.00013824
0.00013824
0.00013824
0.00013824
0.00013824
0.00013824
0.00013824
0.00013824
0.00013824
0.00013824
0.00013824
0.00013824
0.00013824
0.00013824
0.00013824
0.00013824
0.00013824
0.00013824
0.00013824
0.00013824
0.00013824
0.00013824
0.00013824
0.00013824
0.00013824
0.00013824
0.00013824
0.00013824
0.00013824
0.00013824
0.00013824
0.00013824
0.00013824
0.00013824
0.00013824
0.00013824
0.00013824
0.00013824
0.00013824
0.00013824
0.00013824
0.00013824
0.00013824
0.00013824
0.00013824
0.00013824
0.00013824
0.00013824
0.00013824
0.00013824
0.00013824
0.00013824
0.00013824
0.00013824
0.00013824
0.00013824
0.00013824
0.00013824
0.00013824
0.00013824
0.00013824
0.00013824
0.00013824
0.00013824
0.00013824
0.00013824
0.00013824
0.00013824
0.00013824
0.00013824
0.00013824
0.00013824
0.00013824
0.00013824
0.00013824
0.00013824
0.00013824
0.00013824
0.00013824
0.00013824
0.00013824
0.00013824
0.00013824
0.00013824
0.00013824
0.00013824
0.00013824
0.00013824
0.00013824
0.00013824
0.00013824
0.00013824
0.00013824
0.00013824
0.00013824
0.00013824
0.00013824
0.00013824
0.00013824
0.00013824
0.00013824
0.00013824
0.00013824
0.00013824
0.00013824
0.00013824
0.00013824
0.00013824
0.00013824
0.00013824
0.00013824
0.00013824
0.00013824
0.00013824
0.00013824
0.00013824
0.00013824
0.00013824
0.00013824
0.00013824
0.00013824
0.00013824
0.00013824
0.00013824
0.00013824
0.00013824
0.00013824
0.00013824
0.00013824
0.00013824
0.00013824
0.00013824
0.00013824
0.00013824
0.00013824
0.00013824
0.00013824
0.00013824
0.00013824
0.00013824
0.00013824
0.00013824
0.00013824
0.00013824
0.00013824
0.00013824
0.00013824
0.00013824
0.00013824
0.00013824
0.00013824
0.00013824
0.00013824
0.00013824
0.00013824
0.00013824
0.00013824
0.00013824
0.00013824
0.00013824
0.00013824
0.00013824
0.00013824
0.00013824
0.00013824
0.00013824
0.00013824
0.00013824
0.00013824
0.00013824
0.00013824
0.00013824
0.00013824
0.00013824
0.00013824
0.00013824
0.00013824
0.00013824
0.00013824
0.00013824
0.00013824
0.00013824
0.00013824
0.00013824
0.00013824
0.00013824
0.00013824
0.00013824
0.00013824
0.00013824
0.00013824
0.00013824
0.00013824
0.00013824
0.00013824
0.00013824
0.00013824
0.00013824
0.00013824
0.00013824
0.00013824
0.00013824
0.00013824
0.00013824
0.00013824
0.00013824
0.00013824
0.00013824
0.00013824
0.00013824
0.00013824
0.00013824
0.00013824
0.00013824
0.00013824
0.00013824
0.00013824
0.00013824
0.00013824
0.00013824
0.00013824
0.00013824
0.00013824
0.00013824
0.00013824
0.00013824
0.00013824
0.00013824
0.00013824
0.00013824
0.00013824
0.00013824
0.00013824
0.00013824
0.00013824
0.00013824
0.00013824
0.00013824
0.00013824
0.00013824
0.00013824
0.00013824
0.00013824
0.00013824
0.00013824
0.00013824
0.00013824
0.00013824
0.00013824
0.00013824
0.00013824
0.00013824
0.00013824
0.00013824
0.00013824
0.00013824
0.00013824
0.00013824
0.00013824
0.00013824
0.00013824
0.00013824
0.00013824
0.00013824
0.00013824
0.00013824
0.00013824
0.00013824
0.00013824
0.00013824
0.00013824
0.00013824
0.00013824
0.00013824
0.00013824
0.00013824
0.00013824
0.00013824
0.00013824
0.00013824
0.00013824
0.00013824
0.00013824
0.00013824
0.00013824
0.00013824
0.00013824
0.00013824
0.00013824
0.00013824
0.00013824
0.00013824
0.00013824
0.00013824
0.00013824
0.00013824
0.00013824
0.00013824
0.00013824
0.00013824
0.00013824
0.00013824
0.00013824
0.00013824
0.00013824
0.00013824
0.00013824
0.00013824
0.00013824
0.00013824
0.00013824
0.00013824
0.00013824
0.00013824
0.00013824
0.00013824
0.00013824
0.00013824
0.00013824
0.00013824
0.00013824
0.00013824
0.00013824
0.00013824
0.00013824
0.00013824
0.00013824
0.00013824
0.00013824
0.00013824
0.00013824
0.00013824
0.00013824
0.00013824
0.00013824
0.00013824
0.00013824
0.00013824
0.00013824
0.00013824
0.00013824
0.00013824
0.00013824
0.00013824
0.00013824
0.00013824
0.00013824
0.00013824
0.00013824
0.00013824
0.00013824
0.00013824
0.00013824
0.00013824
0.00013824
0.00013824
0.00013824
0.00013824
0.00013824
0.00013824
0.00013824
0.00013824
0.00013824
0.00013824
0.00013824
0.00013824
0.00013824
0.00013824
0.00013824
0.00013824
0.00013824
0.00013824
0.00013824
0.00013824
0.00013824
0.00013824
0.00013824
0.00013824
0.00013824
0.00013824
0.00013824
0.00013824
0.00013824
0.00013824
0.00013824
0.00013824
0.00013824
0.00013824
0.00013824
0.00013824
0.00013824
0.00013824
0.00013824
0.00013824
0.00013824
0.00013824
0.00013824
0.00013824
0.00013824
0.00013824
0.00013824
0.00013824
0.00013824
0.00013824
0.00013824
0.00013824
0.00013824
0.00013824
0.00013824
0.00013824
0.00013824
0.00013824
0.00013824
0.00013824
0.00013824
0.00013824
0.00013824
0.00013824
0.00013824
0.00013824
0.00013824
0.00013824
0.00013824
0.00013824
0.00013824
0.00013824
0.00013824
0.00013824
0.00013824
0.00013824
0.00013824
0.00013824
0.00013824
0.00013824
0.00013824
0.00013824
0.00013824
0.00013824
0.00013824
0.00013824
0.00013824
0.00013824
0.00013824
0.00013824
0.00013824
0.00013824
0.00013824
0.00013824
0.00013824
0.00013824
0.00013824
0.00013824
0.00013824
0.00013824
0.00013824
0.00013824
0.00013824
0.00013824
0.00013824
0.00013824
0.00013824
0.00013824
0.00013824
0.00013824
0.00013824
0.00013824
0.00013824
0.00013824
0.00013824
0.00013824
0.00013824
0.00013824
0.00013824
0.00013824
0.00013824
0.00013824
0.00013824
0.00013824
0.00013824
0.00013824
0.00013824
0.00013824
0.00013824
0.00013824
0.00013824
0.00013824
0.00013824
0.00013824
0.00013824
0.00013824
0.00013824
0.00013824
0.00013824
0.00013824