/*--------------------------------*- C++ -*----------------------------------*\
| =========                 |                                                 |
| \\      /  F ield         | OpenFOAM: The Open Source CFD Toolbox           |
|  \\    /   O peration     | Version:  2406                                  |
|   \\  /    A nd           | Website:  www.openfoam.com                      |
|    \\/     M anipulation  |                                                 |
\*---------------------------------------------------------------------------*/
FoamFile
{
    version     2.0;
    format      ascii;
    arch        "LSB;label=32;scalar=64";
    class       volScalarField;
    location    "6.15";
    object      Da;
}
// * * * * * * * * * * * * * * * * * * * * * * * * * * * * * * * * * * * * * //

dimensions      [0 2 -1 0 0 0 0];

internalField   nonuniform List<scalar> 
14400
(
4.51201e-05
4.50582e-05
4.49637e-05
4.48656e-05
4.4781e-05
4.47174e-05
4.46775e-05
4.46626e-05
4.46739e-05
4.4714e-05
4.47864e-05
4.48947e-05
4.50389e-05
4.52044e-05
4.53403e-05
4.53432e-05
4.5135e-05
4.48399e-05
4.45499e-05
4.42951e-05
4.40773e-05
4.38902e-05
4.37274e-05
4.35843e-05
4.34583e-05
4.33487e-05
4.3256e-05
4.31825e-05
4.31317e-05
4.31092e-05
4.3124e-05
4.31921e-05
4.33443e-05
4.36529e-05
4.43487e-05
4.67231e-05
6.84576e-05
7.8e-05
7.8e-05
7.8e-05
7.8e-05
7.8e-05
7.8e-05
7.8e-05
7.8e-05
7.8e-05
7.8e-05
7.8e-05
7.8e-05
7.8e-05
7.8e-05
7.8e-05
7.8e-05
7.8e-05
7.8e-05
7.8e-05
7.8e-05
7.8e-05
7.8e-05
7.8e-05
7.7991e-05
5.76825e-05
4.60553e-05
4.42763e-05
4.37163e-05
4.34786e-05
4.33807e-05
4.3362e-05
4.33954e-05
4.34664e-05
4.35652e-05
4.3684e-05
4.38152e-05
4.39513e-05
4.40842e-05
4.42071e-05
4.43148e-05
4.44058e-05
4.44834e-05
4.45564e-05
4.46404e-05
4.47598e-05
4.4956e-05
4.53139e-05
4.60768e-05
4.84588e-05
6.51851e-05
7.79994e-05
7.18629e-05
4.90416e-05
4.61964e-05
4.52795e-05
4.48431e-05
4.46058e-05
4.44746e-05
4.44081e-05
4.43845e-05
4.43902e-05
4.44155e-05
4.44517e-05
4.44905e-05
4.45226e-05
4.45386e-05
4.45315e-05
4.44987e-05
4.44445e-05
4.4377e-05
4.43058e-05
4.42396e-05
4.41861e-05
4.41527e-05
4.41477e-05
4.41827e-05
4.42762e-05
4.44629e-05
4.48212e-05
4.55877e-05
4.7978e-05
6.5602e-05
7.79996e-05
4.52092e-05
4.51141e-05
4.4982e-05
4.48549e-05
4.47509e-05
4.46754e-05
4.4629e-05
4.46116e-05
4.46241e-05
4.46693e-05
4.47523e-05
4.48808e-05
4.50628e-05
4.52977e-05
4.55454e-05
4.56495e-05
4.53251e-05
4.49261e-05
4.45774e-05
4.42933e-05
4.40616e-05
4.38687e-05
4.37045e-05
4.35624e-05
4.3439e-05
4.33329e-05
4.32445e-05
4.31758e-05
4.31304e-05
4.31145e-05
4.3138e-05
4.32188e-05
4.33929e-05
4.37466e-05
4.45592e-05
4.73218e-05
7.38416e-05
7.8e-05
7.8e-05
7.8e-05
7.8e-05
7.8e-05
7.8e-05
7.8e-05
7.8e-05
7.8e-05
7.8e-05
7.8e-05
7.8e-05
7.8e-05
7.8e-05
7.8e-05
7.8e-05
7.8e-05
7.8e-05
7.8e-05
7.8e-05
7.8e-05
7.8e-05
7.8e-05
7.79995e-05
6.3392e-05
4.64897e-05
4.43921e-05
4.37697e-05
4.35061e-05
4.3393e-05
4.33634e-05
4.33879e-05
4.34506e-05
4.35414e-05
4.36521e-05
4.37752e-05
4.39034e-05
4.40293e-05
4.41466e-05
4.42508e-05
4.43411e-05
4.44208e-05
4.44992e-05
4.45919e-05
4.47243e-05
4.49402e-05
4.53316e-05
4.61657e-05
4.88174e-05
6.97427e-05
7.8e-05
7.64891e-05
5.02028e-05
4.6508e-05
4.53846e-05
4.48804e-05
4.46128e-05
4.44648e-05
4.4388e-05
4.4358e-05
4.43607e-05
4.43858e-05
4.44249e-05
4.4469e-05
4.45079e-05
4.45301e-05
4.45257e-05
4.4491e-05
4.44318e-05
4.4359e-05
4.42841e-05
4.42166e-05
4.41644e-05
4.41349e-05
4.41367e-05
4.41819e-05
4.42909e-05
4.45034e-05
4.49119e-05
4.58036e-05
4.86486e-05
7.2175e-05
7.8e-05
4.54833e-05
4.5278e-05
4.50454e-05
4.48515e-05
4.47068e-05
4.46075e-05
4.45484e-05
4.45263e-05
4.45409e-05
4.45957e-05
4.4699e-05
4.48669e-05
4.5128e-05
4.55314e-05
4.61497e-05
4.69364e-05
4.58887e-05
4.51444e-05
4.46481e-05
4.42991e-05
4.40385e-05
4.38334e-05
4.36656e-05
4.35249e-05
4.34059e-05
4.33061e-05
4.32255e-05
4.31659e-05
4.31313e-05
4.31285e-05
4.31697e-05
4.32777e-05
4.35022e-05
4.39806e-05
4.53123e-05
5.25317e-05
7.79237e-05
7.8e-05
7.8e-05
7.8e-05
7.8e-05
7.8e-05
7.8e-05
7.8e-05
7.8e-05
7.8e-05
7.8e-05
7.8e-05
7.8e-05
7.8e-05
7.8e-05
7.8e-05
7.8e-05
7.8e-05
7.8e-05
7.8e-05
7.8e-05
7.8e-05
7.8e-05
7.8e-05
7.8e-05
7.25459e-05
4.73691e-05
4.46776e-05
4.38976e-05
4.35704e-05
4.34229e-05
4.33702e-05
4.33766e-05
4.34234e-05
4.34989e-05
4.35945e-05
4.37029e-05
4.3817e-05
4.39305e-05
4.40381e-05
4.41365e-05
4.42257e-05
4.43098e-05
4.43984e-05
4.45079e-05
4.46663e-05
4.4925e-05
4.53996e-05
4.64487e-05
4.98652e-05
7.5984e-05
7.8e-05
7.79947e-05
6.05034e-05
4.76181e-05
4.56571e-05
4.49784e-05
4.46425e-05
4.44584e-05
4.436e-05
4.43174e-05
4.43143e-05
4.434e-05
4.4386e-05
4.44428e-05
4.44979e-05
4.45353e-05
4.45381e-05
4.44972e-05
4.44247e-05
4.43384e-05
4.42538e-05
4.41821e-05
4.41315e-05
4.41093e-05
4.41244e-05
4.41907e-05
4.43333e-05
4.46059e-05
4.5151e-05
4.65333e-05
5.28636e-05
7.78279e-05
7.8e-05
4.63423e-05
4.56972e-05
4.52129e-05
4.489e-05
4.46772e-05
4.45409e-05
4.44629e-05
4.4434e-05
4.44517e-05
4.45204e-05
4.46532e-05
4.48803e-05
4.52718e-05
4.6023e-05
4.79253e-05
5.61371e-05
4.7606e-05
4.56149e-05
4.47949e-05
4.43317e-05
4.40234e-05
4.37977e-05
4.36226e-05
4.3482e-05
4.33678e-05
4.32762e-05
4.32062e-05
4.31596e-05
4.31408e-05
4.31582e-05
4.32277e-05
4.33813e-05
4.36951e-05
4.44162e-05
4.68859e-05
6.93928e-05
7.8e-05
7.8e-05
7.8e-05
7.8e-05
7.8e-05
7.8e-05
7.8e-05
7.8e-05
7.8e-05
7.8e-05
7.8e-05
7.8e-05
7.8e-05
7.8e-05
7.8e-05
7.8e-05
7.8e-05
7.8e-05
7.8e-05
7.8e-05
7.8e-05
7.8e-05
7.8e-05
7.8e-05
7.8e-05
7.79423e-05
5.32295e-05
4.55256e-05
4.41659e-05
4.36924e-05
4.34807e-05
4.33898e-05
4.33684e-05
4.3392e-05
4.34462e-05
4.35216e-05
4.36106e-05
4.37069e-05
4.3805e-05
4.39011e-05
4.39931e-05
4.40819e-05
4.41727e-05
4.42759e-05
4.44099e-05
4.46082e-05
4.49392e-05
4.55902e-05
4.74331e-05
5.89873e-05
7.79895e-05
7.8e-05
7.8e-05
7.48001e-05
4.94255e-05
4.61959e-05
4.51947e-05
4.47307e-05
4.44819e-05
4.43473e-05
4.42847e-05
4.42735e-05
4.4302e-05
4.43617e-05
4.44432e-05
4.45319e-05
4.4603e-05
4.46238e-05
4.4565e-05
4.44609e-05
4.43445e-05
4.42391e-05
4.41572e-05
4.41065e-05
4.4094e-05
4.41294e-05
4.42303e-05
4.4432e-05
4.48202e-05
4.56674e-05
4.83984e-05
7.06371e-05
7.8e-05
7.8e-05
5.03846e-05
4.68311e-05
4.56054e-05
4.50281e-05
4.47038e-05
4.45117e-05
4.44065e-05
4.4368e-05
4.43905e-05
4.44791e-05
4.46543e-05
4.49683e-05
4.55754e-05
4.71294e-05
5.50347e-05
7.78674e-05
5.49876e-05
4.66852e-05
4.50835e-05
4.44238e-05
4.40398e-05
4.37805e-05
4.35913e-05
4.34476e-05
4.33372e-05
4.32541e-05
4.31968e-05
4.31669e-05
4.31697e-05
4.32165e-05
4.33297e-05
4.35595e-05
4.40466e-05
4.54341e-05
5.3642e-05
7.79593e-05
7.8e-05
7.8e-05
7.8e-05
7.8e-05
7.8e-05
7.8e-05
7.8e-05
7.8e-05
7.8e-05
7.8e-05
7.8e-05
7.8e-05
7.8e-05
7.8e-05
7.8e-05
7.8e-05
7.8e-05
7.8e-05
7.8e-05
7.8e-05
7.8e-05
7.8e-05
7.8e-05
7.8e-05
7.8e-05
7.8e-05
7.1647e-05
4.73317e-05
4.46705e-05
4.39067e-05
4.35839e-05
4.34339e-05
4.33733e-05
4.33664e-05
4.33944e-05
4.34459e-05
4.3513e-05
4.35899e-05
4.36721e-05
4.37567e-05
4.38432e-05
4.39335e-05
4.4034e-05
4.41568e-05
4.43242e-05
4.45793e-05
4.5021e-05
4.59545e-05
4.89238e-05
7.29627e-05
7.8e-05
7.8e-05
7.8e-05
7.79997e-05
6.55432e-05
4.81232e-05
4.57446e-05
4.4958e-05
4.45816e-05
4.43847e-05
4.42908e-05
4.42689e-05
4.43047e-05
4.4391e-05
4.4521e-05
4.46827e-05
4.4836e-05
4.4917e-05
4.47948e-05
4.46096e-05
4.44253e-05
4.4276e-05
4.41717e-05
4.41167e-05
4.4116e-05
4.41815e-05
4.43391e-05
4.46483e-05
4.52879e-05
4.71224e-05
5.85775e-05
7.79909e-05
7.8e-05
7.8e-05
7.69102e-05
5.09624e-05
4.65802e-05
4.53879e-05
4.48568e-05
4.45702e-05
4.44219e-05
4.43691e-05
4.43999e-05
4.45211e-05
4.47674e-05
4.52322e-05
4.62683e-05
4.97636e-05
7.63676e-05
7.8e-05
7.48649e-05
4.88753e-05
4.56725e-05
4.46452e-05
4.4127e-05
4.38082e-05
4.35921e-05
4.34387e-05
4.33289e-05
4.32541e-05
4.32113e-05
4.32027e-05
4.32356e-05
4.33263e-05
4.35119e-05
4.38848e-05
4.47487e-05
4.78093e-05
7.57218e-05
7.8e-05
7.8e-05
7.8e-05
7.8e-05
7.8e-05
7.8e-05
7.8e-05
7.8e-05
7.8e-05
7.8e-05
7.8e-05
7.8e-05
7.8e-05
7.8e-05
7.8e-05
7.8e-05
7.8e-05
7.8e-05
7.8e-05
7.8e-05
7.8e-05
7.8e-05
7.8e-05
7.8e-05
7.8e-05
7.8e-05
7.8e-05
7.79954e-05
5.84042e-05
4.60272e-05
4.4315e-05
4.37676e-05
4.35224e-05
4.34063e-05
4.33599e-05
4.33563e-05
4.33809e-05
4.34247e-05
4.3482e-05
4.3549e-05
4.3624e-05
4.37072e-05
4.38022e-05
4.39169e-05
4.40668e-05
4.42814e-05
4.46242e-05
4.52748e-05
4.70961e-05
5.88709e-05
7.79918e-05
7.8e-05
7.8e-05
7.8e-05
7.8e-05
7.79836e-05
5.75993e-05
4.73828e-05
4.55239e-05
4.48471e-05
4.45294e-05
4.43815e-05
4.43441e-05
4.43963e-05
4.4537e-05
4.47724e-05
4.51263e-05
4.55367e-05
4.59579e-05
4.54803e-05
4.50367e-05
4.46722e-05
4.44238e-05
4.4271e-05
4.42025e-05
4.42169e-05
4.43312e-05
4.45953e-05
4.51357e-05
4.64415e-05
5.19355e-05
7.77632e-05
7.8e-05
7.8e-05
7.8e-05
7.8e-05
7.64912e-05
4.99233e-05
4.63822e-05
4.53121e-05
4.48111e-05
4.45799e-05
4.45006e-05
4.45492e-05
4.47367e-05
4.51448e-05
4.60086e-05
4.89595e-05
7.33055e-05
7.8e-05
7.8e-05
7.79999e-05
6.69898e-05
4.77548e-05
4.52246e-05
4.43661e-05
4.39232e-05
4.36538e-05
4.34778e-05
4.33631e-05
4.32951e-05
4.32697e-05
4.32903e-05
4.33693e-05
4.35347e-05
4.38644e-05
4.46229e-05
4.72268e-05
7.08381e-05
7.8e-05
7.8e-05
7.8e-05
7.8e-05
7.8e-05
7.8e-05
7.8e-05
7.8e-05
7.8e-05
7.8e-05
7.8e-05
7.8e-05
7.8e-05
7.8e-05
7.8e-05
7.8e-05
7.8e-05
7.8e-05
7.8e-05
7.8e-05
7.8e-05
7.8e-05
7.8e-05
7.8e-05
7.8e-05
7.8e-05
7.8e-05
7.8e-05
7.8e-05
7.75126e-05
4.93805e-05
4.51338e-05
4.41046e-05
4.36919e-05
4.34913e-05
4.33911e-05
4.33478e-05
4.33413e-05
4.33602e-05
4.3398e-05
4.34512e-05
4.35189e-05
4.36025e-05
4.37071e-05
4.38438e-05
4.40343e-05
4.43234e-05
4.48165e-05
4.58582e-05
4.93547e-05
7.64562e-05
7.8e-05
7.8e-05
7.8e-05
7.8e-05
7.8e-05
7.8e-05
7.79438e-05
5.55134e-05
4.73455e-05
4.55376e-05
4.49098e-05
4.46452e-05
4.458e-05
4.467e-05
4.49442e-05
4.54684e-05
4.66319e-05
4.82745e-05
5.20412e-05
4.8149e-05
4.64347e-05
4.53418e-05
4.48145e-05
4.45433e-05
4.44414e-05
4.44788e-05
4.46904e-05
4.52285e-05
4.65623e-05
5.09264e-05
7.73924e-05
7.8e-05
7.8e-05
7.8e-05
7.8e-05
7.8e-05
7.8e-05
7.64471e-05
5.05937e-05
4.68765e-05
4.55122e-05
4.50619e-05
4.49103e-05
4.50122e-05
4.53817e-05
4.63856e-05
4.90576e-05
7.27143e-05
7.8e-05
7.8e-05
7.8e-05
7.8e-05
7.79969e-05
6.0251e-05
4.71109e-05
4.49763e-05
4.42131e-05
4.38278e-05
4.36026e-05
4.3472e-05
4.3409e-05
4.34065e-05
4.34736e-05
4.36379e-05
4.39589e-05
4.46698e-05
4.71438e-05
6.78196e-05
7.8e-05
7.8e-05
7.8e-05
7.8e-05
7.8e-05
7.8e-05
7.8e-05
7.8e-05
7.8e-05
7.8e-05
7.8e-05
7.8e-05
7.8e-05
7.8e-05
7.8e-05
7.8e-05
7.8e-05
7.8e-05
7.8e-05
7.8e-05
7.8e-05
7.8e-05
7.8e-05
7.8e-05
7.8e-05
7.8e-05
7.8e-05
7.8e-05
7.8e-05
7.8e-05
7.8e-05
7.50732e-05
4.77888e-05
4.48619e-05
4.40341e-05
4.36761e-05
4.34905e-05
4.33913e-05
4.33453e-05
4.33353e-05
4.33526e-05
4.33933e-05
4.3457e-05
4.35463e-05
4.36688e-05
4.38414e-05
4.4101e-05
4.45345e-05
4.54076e-05
4.81408e-05
7.07745e-05
7.8e-05
7.8e-05
7.8e-05
7.8e-05
7.8e-05
7.8e-05
7.8e-05
7.8e-05
7.79542e-05
5.94212e-05
4.80307e-05
4.59856e-05
4.53408e-05
4.52074e-05
4.53991e-05
4.6178e-05
4.80185e-05
5.64774e-05
7.42246e-05
7.78344e-05
7.35825e-05
5.48872e-05
4.77706e-05
4.59264e-05
4.52479e-05
4.50544e-05
4.51417e-05
4.56186e-05
4.74381e-05
5.46068e-05
7.75676e-05
7.8e-05
7.8e-05
7.8e-05
7.8e-05
7.8e-05
7.8e-05
7.8e-05
7.8e-05
7.74486e-05
5.74008e-05
4.81261e-05
4.67167e-05
4.61584e-05
4.65672e-05
4.77922e-05
5.32987e-05
7.56772e-05
7.8e-05
7.8e-05
7.8e-05
7.8e-05
7.8e-05
7.8e-05
7.79909e-05
5.86017e-05
4.70447e-05
4.49478e-05
4.42426e-05
4.38945e-05
4.3724e-05
4.36625e-05
4.36967e-05
4.38569e-05
4.42456e-05
4.50507e-05
4.75006e-05
6.92921e-05
7.8e-05
7.8e-05
7.8e-05
7.8e-05
7.8e-05
7.8e-05
7.8e-05
7.8e-05
7.8e-05
7.8e-05
7.8e-05
7.8e-05
7.8e-05
7.8e-05
7.8e-05
7.8e-05
7.8e-05
7.8e-05
7.8e-05
7.8e-05
7.8e-05
7.8e-05
7.8e-05
7.8e-05
7.8e-05
7.8e-05
7.8e-05
7.8e-05
7.8e-05
7.8e-05
7.8e-05
7.8e-05
7.8e-05
7.24419e-05
4.75671e-05
4.48516e-05
4.40807e-05
4.37225e-05
4.35258e-05
4.34211e-05
4.33722e-05
4.33651e-05
4.33938e-05
4.34577e-05
4.35616e-05
4.37176e-05
4.39547e-05
4.43519e-05
4.51496e-05
4.75395e-05
6.4645e-05
7.79997e-05
7.8e-05
7.8e-05
7.8e-05
7.8e-05
7.8e-05
7.8e-05
7.8e-05
7.8e-05
7.8e-05
7.79944e-05
6.97535e-05
5.07688e-05
4.78548e-05
4.74591e-05
4.80262e-05
5.25888e-05
7.07437e-05
7.79796e-05
7.8e-05
7.8e-05
7.8e-05
7.79574e-05
6.93961e-05
5.09825e-05
4.7767e-05
4.72072e-05
4.75067e-05
4.91028e-05
6.61467e-05
7.79503e-05
7.8e-05
7.8e-05
7.8e-05
7.8e-05
7.8e-05
7.8e-05
7.8e-05
7.8e-05
7.8e-05
7.8e-05
7.79861e-05
7.10644e-05
5.77198e-05
5.18589e-05
5.61509e-05
6.88678e-05
7.79009e-05
7.8e-05
7.8e-05
7.8e-05
7.8e-05
7.8e-05
7.8e-05
7.8e-05
7.8e-05
7.79932e-05
6.2746e-05
4.76058e-05
4.54153e-05
4.46086e-05
4.43251e-05
4.42587e-05
4.43737e-05
4.47952e-05
4.63043e-05
5.00023e-05
7.42487e-05
7.8e-05
7.8e-05
7.8e-05
7.8e-05
7.8e-05
7.8e-05
7.8e-05
7.8e-05
7.8e-05
7.8e-05
7.8e-05
7.8e-05
7.8e-05
7.8e-05
7.8e-05
7.8e-05
7.8e-05
7.8e-05
7.8e-05
7.8e-05
7.8e-05
7.8e-05
7.8e-05
7.8e-05
7.8e-05
7.8e-05
7.8e-05
7.8e-05
7.8e-05
7.8e-05
7.8e-05
7.8e-05
7.8e-05
7.8e-05
7.8e-05
7.27328e-05
4.78202e-05
4.51668e-05
4.42756e-05
4.38408e-05
4.36267e-05
4.3512e-05
4.34688e-05
4.34839e-05
4.3555e-05
4.36922e-05
4.39179e-05
4.42907e-05
4.50502e-05
4.7361e-05
6.24159e-05
7.79988e-05
7.8e-05
7.8e-05
7.8e-05
7.8e-05
7.8e-05
7.8e-05
7.8e-05
7.8e-05
7.8e-05
7.8e-05
7.8e-05
7.8e-05
7.76046e-05
7.08433e-05
6.66648e-05
7.21477e-05
7.78609e-05
7.8e-05
7.8e-05
7.8e-05
7.8e-05
7.8e-05
7.8e-05
7.8e-05
7.76737e-05
7.06266e-05
6.46012e-05
6.8565e-05
7.6709e-05
7.79999e-05
7.8e-05
7.8e-05
7.8e-05
7.8e-05
7.8e-05
7.8e-05
7.8e-05
7.8e-05
7.8e-05
7.8e-05
7.8e-05
7.8e-05
7.8e-05
7.79865e-05
7.77595e-05
7.79718e-05
7.8e-05
7.8e-05
7.8e-05
7.8e-05
7.8e-05
7.8e-05
7.8e-05
7.8e-05
7.8e-05
7.8e-05
7.8e-05
7.79993e-05
7.18878e-05
5.1248e-05
4.71235e-05
4.63641e-05
4.62735e-05
4.67315e-05
4.82956e-05
6.46859e-05
7.7721e-05
7.8e-05
7.8e-05
7.8e-05
7.8e-05
7.8e-05
7.8e-05
7.8e-05
7.8e-05
7.8e-05
7.8e-05
7.8e-05
7.8e-05
7.8e-05
7.8e-05
7.8e-05
7.8e-05
7.8e-05
7.8e-05
7.8e-05
7.8e-05
7.8e-05
7.8e-05
7.8e-05
7.8e-05
7.8e-05
7.8e-05
7.8e-05
7.8e-05
7.8e-05
7.8e-05
7.8e-05
7.8e-05
7.8e-05
7.8e-05
7.8e-05
7.8e-05
7.8e-05
7.56133e-05
5.02507e-05
4.61322e-05
4.46244e-05
4.41329e-05
4.38542e-05
4.37396e-05
4.37347e-05
4.38279e-05
4.40506e-05
4.44695e-05
4.52326e-05
4.76515e-05
6.48998e-05
7.79989e-05
7.8e-05
7.8e-05
7.8e-05
7.8e-05
7.8e-05
7.8e-05
7.8e-05
7.8e-05
7.8e-05
7.8e-05
7.8e-05
7.8e-05
7.8e-05
7.8e-05
7.8e-05
7.79999e-05
7.8e-05
7.8e-05
7.8e-05
7.8e-05
7.8e-05
7.8e-05
7.8e-05
7.8e-05
7.8e-05
7.8e-05
7.8e-05
7.79996e-05
7.8e-05
7.8e-05
7.8e-05
7.8e-05
7.8e-05
7.8e-05
7.8e-05
7.8e-05
7.8e-05
7.8e-05
7.8e-05
7.8e-05
7.8e-05
7.8e-05
7.8e-05
7.8e-05
7.8e-05
7.8e-05
7.8e-05
7.8e-05
7.8e-05
7.8e-05
7.8e-05
7.8e-05
7.8e-05
7.8e-05
7.8e-05
7.8e-05
7.8e-05
7.8e-05
7.8e-05
7.8e-05
7.78293e-05
7.06525e-05
6.2577e-05
6.21527e-05
6.87682e-05
7.69159e-05
7.79998e-05
7.8e-05
7.8e-05
7.8e-05
7.8e-05
7.8e-05
7.8e-05
7.8e-05
7.8e-05
7.8e-05
7.8e-05
7.8e-05
7.8e-05
7.8e-05
7.8e-05
7.8e-05
7.8e-05
7.8e-05
7.8e-05
7.8e-05
7.8e-05
7.8e-05
7.8e-05
7.8e-05
7.8e-05
7.8e-05
7.8e-05
7.8e-05
7.8e-05
7.8e-05
7.8e-05
7.8e-05
7.8e-05
7.8e-05
7.8e-05
7.8e-05
7.8e-05
7.8e-05
7.8e-05
7.8e-05
7.77528e-05
6.12872e-05
4.74546e-05
4.58406e-05
4.47441e-05
4.44215e-05
4.43756e-05
4.45314e-05
4.50652e-05
4.64897e-05
4.91288e-05
7.17861e-05
7.79998e-05
7.8e-05
7.8e-05
7.8e-05
7.8e-05
7.8e-05
7.8e-05
7.8e-05
7.8e-05
7.8e-05
7.8e-05
7.8e-05
7.8e-05
7.8e-05
7.8e-05
7.8e-05
7.8e-05
7.8e-05
7.8e-05
7.8e-05
7.8e-05
7.8e-05
7.8e-05
7.8e-05
7.8e-05
7.8e-05
7.8e-05
7.8e-05
7.8e-05
7.8e-05
7.8e-05
7.8e-05
7.8e-05
7.8e-05
7.8e-05
7.8e-05
7.8e-05
7.8e-05
7.8e-05
7.8e-05
7.8e-05
7.8e-05
7.8e-05
7.8e-05
7.8e-05
7.8e-05
7.8e-05
7.8e-05
7.8e-05
7.8e-05
7.8e-05
7.8e-05
7.8e-05
7.8e-05
7.8e-05
7.8e-05
7.8e-05
7.8e-05
7.8e-05
7.8e-05
7.8e-05
7.8e-05
7.8e-05
7.8e-05
7.79993e-05
7.79991e-05
7.8e-05
7.8e-05
7.8e-05
7.8e-05
7.8e-05
7.8e-05
7.8e-05
7.8e-05
7.8e-05
7.8e-05
7.8e-05
7.8e-05
7.8e-05
7.8e-05
7.8e-05
7.8e-05
7.8e-05
7.8e-05
7.8e-05
7.8e-05
7.8e-05
7.8e-05
7.8e-05
7.8e-05
7.8e-05
7.8e-05
7.8e-05
7.8e-05
7.8e-05
7.8e-05
7.8e-05
7.8e-05
7.8e-05
7.8e-05
7.8e-05
7.8e-05
7.8e-05
7.8e-05
7.8e-05
7.8e-05
7.8e-05
7.8e-05
7.8e-05
7.7999e-05
7.38851e-05
5.91875e-05
4.81218e-05
4.69013e-05
4.67229e-05
4.70872e-05
4.94937e-05
6.45454e-05
7.72911e-05
7.8e-05
7.8e-05
7.8e-05
7.8e-05
7.8e-05
7.8e-05
7.8e-05
7.8e-05
7.8e-05
7.8e-05
7.8e-05
7.8e-05
7.8e-05
7.8e-05
7.8e-05
7.8e-05
7.8e-05
7.8e-05
7.8e-05
7.8e-05
7.8e-05
7.8e-05
7.8e-05
7.8e-05
7.8e-05
7.8e-05
7.8e-05
7.8e-05
7.8e-05
7.8e-05
7.8e-05
7.8e-05
7.8e-05
7.8e-05
7.8e-05
7.8e-05
7.8e-05
7.8e-05
7.8e-05
7.8e-05
7.8e-05
7.8e-05
7.8e-05
7.8e-05
7.8e-05
7.8e-05
7.8e-05
7.8e-05
7.8e-05
7.8e-05
7.8e-05
7.8e-05
7.8e-05
7.8e-05
7.8e-05
7.8e-05
7.8e-05
7.8e-05
7.8e-05
7.8e-05
7.8e-05
7.8e-05
7.8e-05
7.8e-05
7.8e-05
7.8e-05
7.8e-05
7.8e-05
7.8e-05
7.8e-05
7.8e-05
7.8e-05
7.8e-05
7.8e-05
7.8e-05
7.8e-05
7.8e-05
7.8e-05
7.8e-05
7.8e-05
7.8e-05
7.8e-05
7.8e-05
7.8e-05
7.8e-05
7.8e-05
7.8e-05
7.8e-05
7.8e-05
7.8e-05
7.8e-05
7.8e-05
7.8e-05
7.8e-05
7.8e-05
7.8e-05
7.8e-05
7.8e-05
7.8e-05
7.8e-05
7.8e-05
7.8e-05
7.8e-05
7.8e-05
7.8e-05
7.8e-05
7.8e-05
7.8e-05
7.8e-05
7.8e-05
7.8e-05
7.8e-05
7.79969e-05
7.68179e-05
7.16337e-05
6.92866e-05
7.24952e-05
7.75458e-05
7.79998e-05
7.8e-05
7.8e-05
7.8e-05
7.8e-05
7.8e-05
7.8e-05
7.8e-05
7.8e-05
7.8e-05
7.8e-05
7.8e-05
7.8e-05
7.8e-05
7.8e-05
7.8e-05
7.8e-05
7.8e-05
7.8e-05
7.8e-05
7.8e-05
7.8e-05
7.8e-05
7.8e-05
7.8e-05
7.8e-05
7.8e-05
7.8e-05
7.8e-05
7.8e-05
7.8e-05
7.8e-05
7.8e-05
7.8e-05
7.8e-05
7.8e-05
7.8e-05
7.8e-05
7.8e-05
7.8e-05
7.8e-05
7.8e-05
7.8e-05
7.8e-05
7.8e-05
7.8e-05
7.8e-05
7.8e-05
7.8e-05
7.8e-05
7.8e-05
7.8e-05
7.8e-05
7.8e-05
7.8e-05
7.8e-05
7.8e-05
7.8e-05
7.8e-05
7.8e-05
7.8e-05
7.8e-05
7.8e-05
7.8e-05
7.8e-05
7.8e-05
7.8e-05
7.8e-05
7.8e-05
7.8e-05
7.8e-05
7.8e-05
7.8e-05
7.8e-05
7.8e-05
7.8e-05
7.8e-05
7.8e-05
7.8e-05
7.8e-05
7.8e-05
7.8e-05
7.8e-05
7.8e-05
7.8e-05
7.8e-05
7.8e-05
7.8e-05
7.8e-05
7.8e-05
7.8e-05
7.8e-05
7.8e-05
7.8e-05
7.8e-05
7.8e-05
7.8e-05
7.8e-05
7.8e-05
7.8e-05
7.8e-05
7.8e-05
7.8e-05
7.8e-05
7.8e-05
7.8e-05
7.8e-05
7.8e-05
7.8e-05
7.8e-05
7.8e-05
7.8e-05
7.8e-05
7.8e-05
7.8e-05
7.8e-05
7.8e-05
7.8e-05
7.8e-05
7.8e-05
7.8e-05
7.8e-05
7.8e-05
7.8e-05
7.8e-05
7.8e-05
7.8e-05
7.8e-05
7.8e-05
7.8e-05
7.8e-05
7.8e-05
7.8e-05
7.8e-05
7.8e-05
7.8e-05
7.8e-05
7.8e-05
7.8e-05
7.8e-05
7.8e-05
7.8e-05
7.8e-05
7.8e-05
7.8e-05
7.8e-05
7.8e-05
7.8e-05
7.8e-05
7.8e-05
7.8e-05
7.8e-05
7.8e-05
7.8e-05
7.8e-05
7.8e-05
7.8e-05
7.8e-05
7.8e-05
7.8e-05
7.8e-05
7.8e-05
7.8e-05
7.8e-05
7.8e-05
7.8e-05
7.8e-05
7.8e-05
7.8e-05
7.8e-05
7.8e-05
7.8e-05
7.8e-05
7.8e-05
7.8e-05
7.8e-05
7.8e-05
7.8e-05
7.8e-05
7.8e-05
7.8e-05
7.8e-05
7.8e-05
7.8e-05
7.8e-05
7.8e-05
7.8e-05
7.8e-05
7.8e-05
7.8e-05
7.8e-05
7.8e-05
7.8e-05
7.8e-05
7.8e-05
7.8e-05
7.8e-05
7.8e-05
7.8e-05
7.8e-05
7.8e-05
7.8e-05
7.8e-05
7.8e-05
7.8e-05
7.8e-05
7.8e-05
7.8e-05
7.8e-05
7.8e-05
7.8e-05
7.8e-05
7.8e-05
7.8e-05
7.8e-05
7.8e-05
7.8e-05
7.8e-05
7.8e-05
7.8e-05
7.8e-05
7.8e-05
7.8e-05
7.8e-05
7.8e-05
7.8e-05
7.8e-05
7.8e-05
7.8e-05
7.8e-05
7.8e-05
7.8e-05
7.8e-05
7.8e-05
7.8e-05
7.8e-05
7.8e-05
7.8e-05
7.8e-05
7.8e-05
7.8e-05
7.8e-05
7.8e-05
7.8e-05
7.8e-05
7.8e-05
7.8e-05
7.8e-05
7.8e-05
7.8e-05
7.8e-05
7.8e-05
7.8e-05
7.8e-05
7.8e-05
7.8e-05
7.8e-05
7.8e-05
7.8e-05
7.8e-05
7.8e-05
7.8e-05
7.8e-05
7.8e-05
7.8e-05
7.8e-05
7.8e-05
7.8e-05
7.8e-05
7.8e-05
7.8e-05
7.8e-05
7.8e-05
7.8e-05
7.8e-05
7.8e-05
7.8e-05
7.8e-05
7.8e-05
7.8e-05
7.8e-05
7.8e-05
7.8e-05
7.8e-05
7.8e-05
7.8e-05
7.8e-05
7.8e-05
7.8e-05
7.8e-05
7.8e-05
7.8e-05
7.8e-05
7.8e-05
7.8e-05
7.8e-05
7.8e-05
7.8e-05
7.8e-05
7.8e-05
7.8e-05
7.8e-05
7.8e-05
7.8e-05
7.8e-05
7.8e-05
7.8e-05
7.8e-05
7.8e-05
7.8e-05
7.8e-05
7.8e-05
7.8e-05
7.8e-05
7.8e-05
7.8e-05
7.8e-05
7.8e-05
7.8e-05
7.8e-05
7.8e-05
7.8e-05
7.8e-05
7.8e-05
7.8e-05
7.8e-05
7.8e-05
7.8e-05
7.8e-05
7.8e-05
7.8e-05
7.8e-05
7.8e-05
7.8e-05
7.8e-05
7.8e-05
7.8e-05
7.8e-05
7.8e-05
7.8e-05
7.8e-05
7.8e-05
7.8e-05
7.8e-05
7.8e-05
7.8e-05
7.8e-05
7.8e-05
7.8e-05
7.8e-05
7.8e-05
7.8e-05
7.8e-05
7.8e-05
7.8e-05
7.8e-05
7.8e-05
7.8e-05
7.8e-05
7.8e-05
7.8e-05
7.8e-05
7.8e-05
7.8e-05
7.8e-05
7.8e-05
7.8e-05
7.8e-05
7.8e-05
7.8e-05
7.8e-05
7.8e-05
7.8e-05
7.8e-05
7.8e-05
7.8e-05
7.8e-05
7.8e-05
7.8e-05
7.8e-05
7.8e-05
7.8e-05
7.8e-05
7.8e-05
7.8e-05
7.8e-05
7.8e-05
7.8e-05
7.8e-05
7.8e-05
7.8e-05
7.8e-05
7.8e-05
7.8e-05
7.8e-05
7.8e-05
7.8e-05
7.8e-05
7.8e-05
7.8e-05
7.8e-05
7.8e-05
7.8e-05
7.8e-05
7.8e-05
7.8e-05
7.8e-05
7.8e-05
7.8e-05
7.8e-05
7.8e-05
7.8e-05
7.8e-05
7.8e-05
7.8e-05
7.8e-05
7.8e-05
7.8e-05
7.8e-05
7.8e-05
7.8e-05
7.8e-05
7.8e-05
7.8e-05
7.8e-05
7.8e-05
7.8e-05
7.8e-05
7.8e-05
7.8e-05
7.8e-05
7.8e-05
7.8e-05
7.8e-05
7.8e-05
7.8e-05
7.8e-05
7.8e-05
7.8e-05
7.8e-05
7.8e-05
7.8e-05
7.8e-05
7.8e-05
7.8e-05
7.8e-05
7.8e-05
7.8e-05
7.8e-05
7.8e-05
7.8e-05
7.8e-05
7.8e-05
7.8e-05
7.8e-05
7.8e-05
7.8e-05
7.8e-05
7.8e-05
7.8e-05
7.8e-05
7.8e-05
7.8e-05
7.8e-05
7.8e-05
7.8e-05
7.8e-05
7.8e-05
7.8e-05
7.8e-05
7.8e-05
7.8e-05
7.8e-05
7.8e-05
7.8e-05
7.8e-05
7.8e-05
7.8e-05
7.8e-05
7.8e-05
7.8e-05
7.8e-05
7.8e-05
7.8e-05
7.8e-05
7.8e-05
7.8e-05
7.8e-05
7.8e-05
7.8e-05
7.8e-05
7.8e-05
7.8e-05
7.8e-05
7.8e-05
7.8e-05
7.8e-05
7.8e-05
7.8e-05
7.8e-05
7.8e-05
7.8e-05
7.8e-05
7.8e-05
7.8e-05
7.8e-05
7.8e-05
7.8e-05
7.8e-05
7.8e-05
7.8e-05
7.8e-05
7.8e-05
7.8e-05
7.8e-05
7.8e-05
7.8e-05
7.8e-05
7.8e-05
7.8e-05
7.8e-05
7.8e-05
7.8e-05
7.8e-05
7.8e-05
7.8e-05
7.8e-05
7.8e-05
7.8e-05
7.8e-05
7.8e-05
7.8e-05
7.8e-05
7.8e-05
7.8e-05
7.8e-05
7.8e-05
7.8e-05
7.8e-05
7.8e-05
7.8e-05
7.8e-05
7.8e-05
7.8e-05
7.8e-05
7.8e-05
7.8e-05
7.8e-05
7.8e-05
7.8e-05
7.8e-05
7.8e-05
7.8e-05
7.8e-05
7.8e-05
7.8e-05
7.8e-05
7.8e-05
7.8e-05
7.8e-05
7.8e-05
7.8e-05
7.8e-05
7.8e-05
7.8e-05
7.8e-05
7.8e-05
7.8e-05
7.8e-05
7.8e-05
7.8e-05
7.8e-05
7.8e-05
7.8e-05
7.8e-05
7.8e-05
7.8e-05
7.8e-05
7.8e-05
7.8e-05
7.8e-05
7.8e-05
7.8e-05
7.8e-05
7.8e-05
7.8e-05
7.8e-05
7.8e-05
7.8e-05
7.8e-05
7.8e-05
7.8e-05
7.8e-05
7.8e-05
7.8e-05
7.8e-05
7.8e-05
7.8e-05
7.8e-05
7.8e-05
7.8e-05
7.8e-05
7.8e-05
7.8e-05
7.8e-05
7.8e-05
7.8e-05
7.8e-05
7.8e-05
7.8e-05
7.8e-05
7.8e-05
7.8e-05
7.8e-05
7.8e-05
7.8e-05
7.8e-05
7.8e-05
7.8e-05
7.8e-05
7.8e-05
7.8e-05
7.8e-05
7.8e-05
7.8e-05
7.8e-05
7.8e-05
7.8e-05
7.8e-05
7.8e-05
7.8e-05
7.8e-05
7.8e-05
7.8e-05
7.8e-05
7.8e-05
7.8e-05
7.8e-05
7.8e-05
7.8e-05
7.8e-05
7.8e-05
7.8e-05
7.8e-05
7.8e-05
7.8e-05
7.8e-05
7.8e-05
7.8e-05
7.8e-05
7.8e-05
7.8e-05
7.8e-05
7.8e-05
7.8e-05
7.8e-05
7.8e-05
7.8e-05
7.8e-05
7.8e-05
7.8e-05
7.8e-05
7.8e-05
7.8e-05
7.8e-05
7.8e-05
7.8e-05
7.8e-05
7.8e-05
7.8e-05
7.8e-05
7.8e-05
7.8e-05
7.8e-05
7.8e-05
7.8e-05
7.8e-05
7.8e-05
7.8e-05
7.8e-05
7.8e-05
7.8e-05
7.8e-05
7.8e-05
7.8e-05
7.8e-05
7.8e-05
7.8e-05
7.8e-05
7.8e-05
7.8e-05
7.8e-05
7.8e-05
7.8e-05
7.8e-05
7.8e-05
7.8e-05
7.8e-05
7.8e-05
7.8e-05
7.8e-05
7.8e-05
7.8e-05
7.8e-05
7.8e-05
7.8e-05
7.8e-05
7.8e-05
7.8e-05
7.8e-05
7.8e-05
7.8e-05
7.8e-05
7.8e-05
7.8e-05
7.8e-05
7.8e-05
7.8e-05
7.8e-05
7.8e-05
7.8e-05
7.8e-05
7.8e-05
7.8e-05
7.8e-05
7.8e-05
7.8e-05
7.8e-05
7.8e-05
7.8e-05
7.8e-05
7.8e-05
7.8e-05
7.8e-05
7.8e-05
7.8e-05
7.8e-05
7.8e-05
7.8e-05
7.8e-05
7.8e-05
7.8e-05
7.8e-05
7.8e-05
7.8e-05
7.8e-05
7.8e-05
7.8e-05
7.8e-05
7.8e-05
7.8e-05
7.8e-05
7.8e-05
7.8e-05
7.8e-05
7.8e-05
7.8e-05
7.8e-05
7.8e-05
7.8e-05
7.8e-05
7.8e-05
7.8e-05
7.8e-05
7.8e-05
7.8e-05
7.8e-05
7.8e-05
7.8e-05
7.8e-05
7.8e-05
7.8e-05
7.8e-05
7.8e-05
7.8e-05
7.8e-05
7.8e-05
7.8e-05
7.8e-05
7.8e-05
7.8e-05
7.8e-05
7.8e-05
7.8e-05
7.8e-05
7.8e-05
7.8e-05
7.8e-05
7.8e-05
7.8e-05
7.8e-05
7.8e-05
7.8e-05
7.8e-05
7.8e-05
7.8e-05
7.8e-05
7.8e-05
7.8e-05
7.8e-05
7.8e-05
7.8e-05
7.8e-05
7.8e-05
7.8e-05
7.8e-05
7.8e-05
7.8e-05
7.8e-05
7.8e-05
7.8e-05
7.8e-05
7.8e-05
7.8e-05
7.8e-05
7.8e-05
7.8e-05
7.8e-05
7.8e-05
7.8e-05
7.8e-05
7.8e-05
7.8e-05
7.8e-05
7.8e-05
7.8e-05
7.8e-05
7.8e-05
7.8e-05
7.8e-05
7.8e-05
7.8e-05
7.8e-05
7.8e-05
7.8e-05
7.8e-05
7.8e-05
7.8e-05
7.8e-05
7.8e-05
7.8e-05
7.8e-05
7.8e-05
7.8e-05
7.8e-05
7.8e-05
7.8e-05
7.8e-05
7.8e-05
7.8e-05
7.8e-05
7.8e-05
7.8e-05
7.8e-05
7.8e-05
7.8e-05
7.8e-05
7.8e-05
7.8e-05
7.8e-05
7.8e-05
7.8e-05
7.8e-05
7.8e-05
7.8e-05
7.8e-05
7.8e-05
7.8e-05
7.8e-05
7.8e-05
7.8e-05
7.8e-05
7.8e-05
7.8e-05
7.8e-05
7.8e-05
7.8e-05
7.8e-05
7.8e-05
7.8e-05
7.8e-05
7.8e-05
7.8e-05
7.8e-05
7.8e-05
7.8e-05
7.8e-05
7.8e-05
7.8e-05
7.8e-05
7.8e-05
7.8e-05
7.8e-05
7.8e-05
7.8e-05
7.8e-05
7.8e-05
7.8e-05
7.8e-05
7.8e-05
7.8e-05
7.8e-05
7.8e-05
7.8e-05
7.8e-05
7.8e-05
7.8e-05
7.8e-05
7.8e-05
7.8e-05
7.8e-05
7.8e-05
7.8e-05
7.8e-05
7.8e-05
7.8e-05
7.8e-05
7.8e-05
7.8e-05
7.8e-05
7.8e-05
7.8e-05
7.8e-05
7.8e-05
7.8e-05
7.8e-05
7.8e-05
7.8e-05
7.8e-05
7.8e-05
7.8e-05
7.8e-05
7.8e-05
7.8e-05
7.8e-05
7.8e-05
7.8e-05
7.8e-05
7.8e-05
7.8e-05
7.8e-05
7.8e-05
7.8e-05
7.8e-05
7.8e-05
7.8e-05
7.8e-05
7.8e-05
7.8e-05
7.8e-05
7.8e-05
7.8e-05
7.8e-05
7.8e-05
7.8e-05
7.8e-05
7.8e-05
7.8e-05
7.8e-05
7.8e-05
7.8e-05
7.8e-05
7.8e-05
7.8e-05
7.8e-05
7.8e-05
7.8e-05
7.8e-05
7.8e-05
7.8e-05
7.8e-05
7.8e-05
7.8e-05
7.8e-05
7.8e-05
7.8e-05
7.8e-05
7.8e-05
7.8e-05
7.8e-05
7.8e-05
7.8e-05
7.8e-05
7.8e-05
7.8e-05
7.8e-05
7.8e-05
7.8e-05
7.8e-05
7.8e-05
7.8e-05
7.8e-05
7.8e-05
7.8e-05
7.8e-05
7.8e-05
7.8e-05
7.8e-05
7.8e-05
7.8e-05
7.8e-05
7.8e-05
7.8e-05
7.8e-05
7.8e-05
7.8e-05
7.8e-05
7.8e-05
7.8e-05
7.8e-05
7.8e-05
7.8e-05
7.8e-05
7.8e-05
7.8e-05
7.8e-05
7.8e-05
7.8e-05
7.8e-05
7.8e-05
7.8e-05
7.8e-05
7.8e-05
7.8e-05
7.8e-05
7.8e-05
7.8e-05
7.8e-05
7.8e-05
7.8e-05
7.8e-05
7.8e-05
7.8e-05
7.8e-05
7.8e-05
7.8e-05
7.8e-05
7.8e-05
7.8e-05
7.8e-05
7.8e-05
7.8e-05
7.8e-05
7.8e-05
7.8e-05
7.8e-05
7.8e-05
7.8e-05
7.8e-05
7.8e-05
7.8e-05
7.8e-05
7.8e-05
7.8e-05
7.8e-05
7.8e-05
7.8e-05
7.8e-05
7.8e-05
7.8e-05
7.8e-05
7.8e-05
7.8e-05
7.8e-05
7.8e-05
7.8e-05
7.8e-05
7.8e-05
7.8e-05
7.8e-05
7.8e-05
7.8e-05
7.8e-05
7.8e-05
7.8e-05
7.8e-05
7.8e-05
7.8e-05
7.8e-05
7.8e-05
7.8e-05
7.8e-05
7.8e-05
7.8e-05
7.8e-05
7.8e-05
7.8e-05
7.8e-05
7.8e-05
7.8e-05
7.8e-05
7.8e-05
7.8e-05
7.8e-05
7.8e-05
7.8e-05
7.8e-05
7.8e-05
7.8e-05
7.8e-05
7.8e-05
7.8e-05
7.8e-05
7.8e-05
7.8e-05
7.8e-05
7.8e-05
7.8e-05
7.8e-05
7.8e-05
7.8e-05
7.8e-05
7.8e-05
7.8e-05
7.8e-05
7.8e-05
7.8e-05
7.8e-05
7.8e-05
7.8e-05
7.8e-05
7.8e-05
7.8e-05
7.8e-05
7.8e-05
7.8e-05
7.8e-05
7.8e-05
7.8e-05
7.8e-05
7.8e-05
7.8e-05
7.8e-05
7.8e-05
7.8e-05
7.8e-05
7.8e-05
7.8e-05
7.8e-05
7.8e-05
7.8e-05
7.8e-05
7.8e-05
7.8e-05
7.8e-05
7.8e-05
7.8e-05
7.8e-05
7.8e-05
7.8e-05
7.8e-05
7.8e-05
7.8e-05
7.8e-05
7.8e-05
7.8e-05
7.8e-05
7.8e-05
7.8e-05
7.8e-05
7.8e-05
7.8e-05
7.8e-05
7.8e-05
7.8e-05
7.8e-05
7.8e-05
7.8e-05
7.8e-05
7.8e-05
7.8e-05
7.8e-05
7.8e-05
7.8e-05
7.8e-05
7.8e-05
7.8e-05
7.8e-05
7.8e-05
7.8e-05
7.8e-05
7.8e-05
7.8e-05
7.8e-05
7.8e-05
7.8e-05
7.8e-05
7.8e-05
7.8e-05
7.8e-05
7.8e-05
7.8e-05
7.8e-05
7.8e-05
7.8e-05
7.8e-05
7.8e-05
7.8e-05
7.8e-05
7.8e-05
7.8e-05
7.8e-05
7.8e-05
7.8e-05
7.8e-05
7.8e-05
7.8e-05
7.8e-05
7.8e-05
7.8e-05
7.8e-05
7.8e-05
7.8e-05
7.8e-05
7.8e-05
7.8e-05
7.8e-05
7.8e-05
7.8e-05
7.8e-05
7.8e-05
7.8e-05
7.8e-05
7.8e-05
7.8e-05
7.8e-05
7.8e-05
7.8e-05
7.8e-05
7.8e-05
7.8e-05
7.8e-05
7.8e-05
7.8e-05
7.8e-05
7.8e-05
7.8e-05
7.8e-05
7.8e-05
7.8e-05
7.8e-05
7.8e-05
7.8e-05
7.8e-05
7.8e-05
7.8e-05
7.8e-05
7.8e-05
7.8e-05
7.8e-05
7.8e-05
7.8e-05
7.8e-05
7.8e-05
7.8e-05
7.8e-05
7.8e-05
7.8e-05
7.8e-05
7.8e-05
7.8e-05
7.8e-05
7.8e-05
7.8e-05
7.8e-05
7.8e-05
7.8e-05
7.8e-05
7.8e-05
7.8e-05
7.8e-05
7.8e-05
7.8e-05
7.8e-05
7.8e-05
7.8e-05
7.8e-05
7.8e-05
7.8e-05
7.8e-05
7.8e-05
7.8e-05
7.8e-05
7.8e-05
7.8e-05
7.8e-05
7.8e-05
7.8e-05
7.8e-05
7.8e-05
7.8e-05
7.8e-05
7.8e-05
7.8e-05
7.8e-05
7.8e-05
7.8e-05
7.8e-05
7.8e-05
7.8e-05
7.8e-05
7.8e-05
7.8e-05
7.8e-05
7.8e-05
7.8e-05
7.8e-05
7.8e-05
7.8e-05
7.8e-05
7.8e-05
7.8e-05
7.8e-05
7.8e-05
7.8e-05
7.8e-05
7.8e-05
7.8e-05
7.8e-05
7.8e-05
7.8e-05
7.8e-05
7.8e-05
7.8e-05
7.8e-05
7.8e-05
7.8e-05
7.8e-05
7.8e-05
7.8e-05
7.8e-05
7.8e-05
7.8e-05
7.8e-05
7.8e-05
7.8e-05
7.8e-05
7.8e-05
7.8e-05
7.8e-05
7.8e-05
7.8e-05
7.8e-05
7.8e-05
7.8e-05
7.8e-05
7.8e-05
7.8e-05
7.8e-05
7.8e-05
7.8e-05
7.8e-05
7.8e-05
7.8e-05
7.8e-05
7.8e-05
7.8e-05
7.8e-05
7.8e-05
7.8e-05
7.8e-05
7.8e-05
7.8e-05
7.8e-05
7.8e-05
7.8e-05
7.8e-05
7.8e-05
7.8e-05
7.8e-05
7.8e-05
7.8e-05
7.8e-05
7.8e-05
7.8e-05
7.8e-05
7.8e-05
7.8e-05
7.8e-05
7.8e-05
7.8e-05
7.8e-05
7.8e-05
7.8e-05
7.8e-05
7.8e-05
7.8e-05
7.8e-05
7.8e-05
7.8e-05
7.8e-05
7.8e-05
7.8e-05
7.8e-05
7.8e-05
7.8e-05
7.8e-05
7.8e-05
7.8e-05
7.8e-05
7.8e-05
7.8e-05
7.8e-05
7.8e-05
7.8e-05
7.8e-05
7.8e-05
7.8e-05
7.8e-05
7.8e-05
7.8e-05
7.8e-05
7.8e-05
7.8e-05
7.8e-05
7.8e-05
7.8e-05
7.8e-05
7.8e-05
7.8e-05
7.8e-05
7.8e-05
7.8e-05
7.8e-05
7.8e-05
7.8e-05
7.8e-05
7.8e-05
7.8e-05
7.8e-05
7.8e-05
7.8e-05
7.8e-05
7.8e-05
7.8e-05
7.8e-05
7.8e-05
7.8e-05
7.8e-05
7.8e-05
7.8e-05
7.8e-05
7.8e-05
7.8e-05
7.8e-05
7.8e-05
7.8e-05
7.8e-05
7.8e-05
7.8e-05
7.8e-05
7.8e-05
7.8e-05
7.8e-05
7.8e-05
7.8e-05
7.8e-05
7.8e-05
7.8e-05
7.8e-05
7.8e-05
7.8e-05
7.8e-05
7.8e-05
7.8e-05
7.8e-05
7.8e-05
7.8e-05
7.8e-05
7.8e-05
7.8e-05
7.8e-05
7.8e-05
7.8e-05
7.8e-05
7.8e-05
7.8e-05
7.8e-05
7.8e-05
7.8e-05
7.8e-05
7.8e-05
7.8e-05
7.8e-05
7.8e-05
7.8e-05
7.8e-05
7.8e-05
7.8e-05
7.8e-05
7.8e-05
7.8e-05
7.8e-05
7.8e-05
7.8e-05
7.8e-05
7.8e-05
7.8e-05
7.8e-05
7.8e-05
7.8e-05
7.8e-05
7.8e-05
7.8e-05
7.8e-05
7.8e-05
7.8e-05
7.8e-05
7.8e-05
7.8e-05
7.8e-05
7.8e-05
7.8e-05
7.8e-05
7.8e-05
7.8e-05
7.8e-05
7.8e-05
7.8e-05
7.8e-05
7.8e-05
7.8e-05
7.8e-05
7.8e-05
7.8e-05
7.8e-05
7.8e-05
7.8e-05
7.8e-05
7.8e-05
7.8e-05
7.8e-05
7.8e-05
7.8e-05
7.8e-05
7.8e-05
7.8e-05
7.8e-05
7.8e-05
7.8e-05
7.8e-05
7.8e-05
7.8e-05
7.8e-05
7.8e-05
7.8e-05
7.8e-05
7.8e-05
7.8e-05
7.8e-05
7.8e-05
7.8e-05
7.8e-05
7.8e-05
7.8e-05
7.8e-05
7.8e-05
7.8e-05
7.8e-05
7.8e-05
7.8e-05
7.8e-05
7.8e-05
7.8e-05
7.8e-05
7.8e-05
7.8e-05
7.8e-05
7.8e-05
7.8e-05
7.8e-05
7.8e-05
7.8e-05
7.8e-05