/*--------------------------------*- C++ -*----------------------------------*\
| =========                 |                                                 |
| \\      /  F ield         | OpenFOAM: The Open Source CFD Toolbox           |
|  \\    /   O peration     | Version:  2406                                  |
|   \\  /    A nd           | Website:  www.openfoam.com                      |
|    \\/     M anipulation  |                                                 |
\*---------------------------------------------------------------------------*/
FoamFile
{
    version     2.0;
    format      ascii;
    arch        "LSB;label=32;scalar=64";
    class       volScalarField;
    location    "4.35";
    object      D;
}
// * * * * * * * * * * * * * * * * * * * * * * * * * * * * * * * * * * * * * //

dimensions      [0 2 -1 0 0 0 0];

internalField   nonuniform List<scalar> 
14400
(
6.29394e-05
6.18049e-05
6.0806e-05
6.01096e-05
5.96457e-05
5.93476e-05
5.91745e-05
5.91059e-05
5.9136e-05
5.92735e-05
5.95466e-05
6.00195e-05
6.08481e-05
6.25116e-05
6.74018e-05
0.000100782
7.06086e-05
6.32275e-05
6.07661e-05
5.95777e-05
5.88784e-05
5.84234e-05
5.81132e-05
5.79015e-05
5.77649e-05
5.76935e-05
5.76859e-05
5.77499e-05
5.79049e-05
5.81922e-05
5.87013e-05
5.96599e-05
6.18516e-05
6.95836e-05
0.0001358
0.00013824
0.00013824
0.00013824
0.00013824
0.00013824
0.00013824
0.00013824
0.00013824
0.00013824
0.00013824
0.00013824
0.00013824
0.00013824
0.00013824
0.00013824
0.00013824
0.00013824
0.00013824
0.00013824
0.00013824
0.00013824
0.00013824
0.00013824
0.00013824
0.00013824
0.00013824
0.00013824
0.00013824
0.000108089
6.55247e-05
6.06557e-05
5.91721e-05
5.84712e-05
5.808e-05
5.78502e-05
5.77184e-05
5.76522e-05
5.76334e-05
5.76516e-05
5.77009e-05
5.77794e-05
5.78883e-05
5.80332e-05
5.82249e-05
5.84833e-05
5.88443e-05
5.93791e-05
6.02525e-05
6.19799e-05
6.73127e-05
0.000110965
0.00013824
0.00013824
0.00013824
0.000122453
6.88412e-05
6.28754e-05
6.09942e-05
6.00878e-05
5.95791e-05
5.92835e-05
5.91229e-05
5.90582e-05
5.90669e-05
5.91328e-05
5.92391e-05
5.93616e-05
5.94636e-05
5.94996e-05
5.94422e-05
5.93202e-05
5.91799e-05
5.90571e-05
5.89752e-05
5.895e-05
5.89967e-05
5.91364e-05
5.9406e-05
5.98798e-05
6.07326e-05
6.25136e-05
6.82125e-05
0.000119104
0.00013824
0.00013824
6.57874e-05
6.27328e-05
6.11683e-05
6.02864e-05
5.97495e-05
5.94186e-05
5.92305e-05
5.91571e-05
5.91904e-05
5.93398e-05
5.9637e-05
6.01568e-05
6.10855e-05
6.30223e-05
6.91078e-05
0.000121218
8.34317e-05
6.46839e-05
6.11293e-05
5.97362e-05
5.89711e-05
5.84872e-05
5.81628e-05
5.79442e-05
5.78057e-05
5.7736e-05
5.7734e-05
5.78082e-05
5.7981e-05
5.8301e-05
5.88819e-05
6.00574e-05
6.34173e-05
8.44505e-05
0.000138188
0.00013824
0.00013824
0.00013824
0.00013824
0.00013824
0.00013824
0.00013824
0.00013824
0.00013824
0.00013824
0.00013824
0.00013824
0.00013824
0.00013824
0.00013824
0.00013824
0.00013824
0.00013824
0.00013824
0.00013824
0.00013824
0.00013824
0.00013824
0.00013824
0.00013824
0.00013824
0.00013824
0.00013824
0.000123269
6.67748e-05
6.10703e-05
5.93699e-05
5.85846e-05
5.81526e-05
5.79e-05
5.77543e-05
5.76789e-05
5.7654e-05
5.76682e-05
5.77154e-05
5.77934e-05
5.79039e-05
5.80526e-05
5.82515e-05
5.85223e-05
5.89053e-05
5.94817e-05
6.04443e-05
6.24042e-05
6.8588e-05
0.000124814
0.00013824
0.00013824
0.00013824
0.000135954
7.22828e-05
6.37745e-05
6.13536e-05
6.02802e-05
5.97042e-05
5.93777e-05
5.92035e-05
5.91366e-05
5.91534e-05
5.92385e-05
5.9377e-05
5.95455e-05
5.97005e-05
5.9767e-05
5.96783e-05
5.95031e-05
5.93171e-05
5.91628e-05
5.90622e-05
5.90293e-05
5.90783e-05
5.92312e-05
5.95305e-05
6.00673e-05
6.10722e-05
6.33121e-05
7.08739e-05
0.000134403
0.00013824
0.00013824
8.73302e-05
6.55629e-05
6.19993e-05
6.06752e-05
5.99797e-05
5.95783e-05
5.93577e-05
5.92742e-05
5.93152e-05
5.9492e-05
5.98466e-05
6.0484e-05
6.16954e-05
6.46549e-05
7.7957e-05
0.000137817
0.000114644
6.74353e-05
6.18802e-05
6.00827e-05
5.9177e-05
5.86293e-05
5.82728e-05
5.80386e-05
5.78951e-05
5.7829e-05
5.78389e-05
5.79354e-05
5.81467e-05
5.85382e-05
5.92749e-05
6.09028e-05
6.64184e-05
0.000118542
0.00013824
0.00013824
0.00013824
0.00013824
0.00013824
0.00013824
0.00013824
0.00013824
0.00013824
0.00013824
0.00013824
0.00013824
0.00013824
0.00013824
0.00013824
0.00013824
0.00013824
0.00013824
0.00013824
0.00013824
0.00013824
0.00013824
0.00013824
0.00013824
0.00013824
0.00013824
0.00013824
0.00013824
0.00013824
0.000137737
7.41101e-05
6.24237e-05
5.98626e-05
5.88413e-05
5.83115e-05
5.80084e-05
5.78327e-05
5.77381e-05
5.77005e-05
5.77066e-05
5.77495e-05
5.78269e-05
5.79407e-05
5.80977e-05
5.83118e-05
5.86094e-05
5.9041e-05
5.97156e-05
6.09228e-05
6.37943e-05
7.63179e-05
0.000137734
0.00013824
0.00013824
0.00013824
0.000138239
0.000107699
6.71972e-05
6.22854e-05
6.0727e-05
5.99879e-05
5.95897e-05
5.93841e-05
5.93118e-05
5.93467e-05
5.94765e-05
5.96945e-05
5.9988e-05
6.03156e-05
6.05138e-05
6.02911e-05
5.99431e-05
5.96332e-05
5.94006e-05
5.92564e-05
5.9206e-05
5.92604e-05
5.94438e-05
5.98118e-05
6.05034e-05
6.1962e-05
6.65364e-05
0.000103533
0.000138239
0.00013824
0.00013824
0.000132441
7.07495e-05
6.3552e-05
6.1396e-05
6.04033e-05
5.98724e-05
5.95923e-05
5.94903e-05
5.95462e-05
5.97766e-05
6.02482e-05
6.11481e-05
6.30889e-05
6.94171e-05
0.000124578
0.00013824
0.000137617
7.52358e-05
6.35504e-05
6.07624e-05
5.95596e-05
5.88855e-05
5.84677e-05
5.82038e-05
5.80504e-05
5.799e-05
5.80209e-05
5.81575e-05
5.84399e-05
5.89694e-05
6.00473e-05
6.30647e-05
8.11463e-05
0.000138154
0.00013824
0.00013824
0.00013824
0.00013824
0.00013824
0.00013824
0.00013824
0.00013824
0.00013824
0.00013824
0.00013824
0.00013824
0.00013824
0.00013824
0.00013824
0.00013824
0.00013824
0.00013824
0.00013824
0.00013824
0.00013824
0.00013824
0.00013824
0.00013824
0.00013824
0.00013824
0.00013824
0.00013824
0.00013824
0.00013824
0.000116692
6.61893e-05
6.08802e-05
5.93084e-05
5.85876e-05
5.81942e-05
5.79675e-05
5.78408e-05
5.77824e-05
5.77756e-05
5.78119e-05
5.78888e-05
5.80086e-05
5.81799e-05
5.84202e-05
5.87639e-05
5.92818e-05
6.01423e-05
6.18846e-05
6.73993e-05
0.000115888
0.00013824
0.00013824
0.00013824
0.00013824
0.00013824
0.000137715
7.65106e-05
6.43154e-05
6.15978e-05
6.05226e-05
5.99813e-05
5.9713e-05
5.96281e-05
5.9697e-05
5.99156e-05
6.03067e-05
6.09144e-05
6.18598e-05
6.28767e-05
6.18286e-05
6.08632e-05
6.02422e-05
5.98389e-05
5.96073e-05
5.95237e-05
5.95906e-05
5.98349e-05
6.03397e-05
6.13469e-05
6.38254e-05
7.40075e-05
0.000137267
0.00013824
0.00013824
0.00013824
0.00013824
0.000117523
6.88481e-05
6.30214e-05
6.12201e-05
6.04125e-05
6.00129e-05
5.98752e-05
5.99597e-05
6.02988e-05
6.10278e-05
6.2646e-05
6.76428e-05
0.000104249
0.000138239
0.00013824
0.00013824
0.000126835
6.87199e-05
6.22734e-05
6.0287e-05
5.93372e-05
5.87993e-05
5.84785e-05
5.83055e-05
5.82538e-05
5.83219e-05
5.85324e-05
5.89503e-05
5.97646e-05
6.16532e-05
6.84204e-05
0.000133506
0.00013824
0.00013824
0.00013824
0.00013824
0.00013824
0.00013824
0.00013824
0.00013824
0.00013824
0.00013824
0.00013824
0.00013824
0.00013824
0.00013824
0.00013824
0.00013824
0.00013824
0.00013824
0.00013824
0.00013824
0.00013824
0.00013824
0.00013824
0.00013824
0.00013824
0.00013824
0.00013824
0.00013824
0.00013824
0.00013824
0.00013824
0.000138179
8.27573e-05
6.32811e-05
6.01547e-05
5.90491e-05
5.84973e-05
5.81861e-05
5.80081e-05
5.79174e-05
5.78911e-05
5.79181e-05
5.79952e-05
5.81256e-05
5.83205e-05
5.8604e-05
5.90253e-05
5.96954e-05
6.09201e-05
6.40297e-05
8.03825e-05
0.000138079
0.00013824
0.00013824
0.00013824
0.00013824
0.00013824
0.00013824
0.000133357
7.05689e-05
6.35556e-05
6.15953e-05
6.0715e-05
6.03054e-05
6.01865e-05
6.03236e-05
6.07309e-05
6.15519e-05
6.30837e-05
6.73405e-05
7.67247e-05
6.72826e-05
6.30155e-05
6.14795e-05
6.06518e-05
6.02336e-05
6.00824e-05
6.01823e-05
6.05635e-05
6.13931e-05
6.32635e-05
6.99652e-05
0.000131667
0.00013824
0.00013824
0.00013824
0.00013824
0.00013824
0.000138239
0.00010767
6.84145e-05
6.30738e-05
6.15087e-05
6.08083e-05
6.05903e-05
6.07367e-05
6.13378e-05
6.27779e-05
6.74102e-05
9.57953e-05
0.000138231
0.00013824
0.00013824
0.00013824
0.00013824
0.000111276
6.73797e-05
6.19144e-05
6.01865e-05
5.93847e-05
5.8943e-05
5.87287e-05
5.86916e-05
5.88325e-05
5.92011e-05
5.99323e-05
6.15744e-05
6.74667e-05
0.000124981
0.00013824
0.00013824
0.00013824
0.00013824
0.00013824
0.00013824
0.00013824
0.00013824
0.00013824
0.00013824
0.00013824
0.00013824
0.00013824
0.00013824
0.00013824
0.00013824
0.00013824
0.00013824
0.00013824
0.00013824
0.00013824
0.00013824
0.00013824
0.00013824
0.00013824
0.00013824
0.00013824
0.00013824
0.00013824
0.00013824
0.00013824
0.00013824
0.00013824
0.000135348
6.91085e-05
6.18542e-05
5.98695e-05
5.90078e-05
5.85451e-05
5.82795e-05
5.81366e-05
5.80804e-05
5.80941e-05
5.81734e-05
5.83227e-05
5.8558e-05
5.89164e-05
5.94776e-05
6.0452e-05
6.25222e-05
6.94725e-05
0.000132535
0.00013824
0.00013824
0.00013824
0.00013824
0.00013824
0.00013824
0.00013824
0.00013824
0.000130153
7.06517e-05
6.44716e-05
6.23199e-05
6.1486e-05
6.12473e-05
6.15709e-05
6.24973e-05
6.50443e-05
7.08725e-05
0.00012215
0.000137979
0.000121834
7.07227e-05
6.49403e-05
6.2411e-05
6.14758e-05
6.11387e-05
6.13543e-05
6.21464e-05
6.41513e-05
7.01301e-05
0.000128024
0.00013824
0.00013824
0.00013824
0.00013824
0.00013824
0.00013824
0.00013824
0.000138239
0.000112462
6.95115e-05
6.45263e-05
6.2583e-05
6.2135e-05
6.24523e-05
6.40181e-05
6.87671e-05
0.000102843
0.000138231
0.00013824
0.00013824
0.00013824
0.00013824
0.00013824
0.000138239
0.000106447
6.73663e-05
6.21001e-05
6.05686e-05
5.97938e-05
5.94801e-05
5.94719e-05
5.97859e-05
6.06125e-05
6.23877e-05
6.79707e-05
0.000123225
0.00013824
0.00013824
0.00013824
0.00013824
0.00013824
0.00013824
0.00013824
0.00013824
0.00013824
0.00013824
0.00013824
0.00013824
0.00013824
0.00013824
0.00013824
0.00013824
0.00013824
0.00013824
0.00013824
0.00013824
0.00013824
0.00013824
0.00013824
0.00013824
0.00013824
0.00013824
0.00013824
0.00013824
0.00013824
0.00013824
0.00013824
0.00013824
0.00013824
0.00013824
0.00013824
0.000129168
6.78829e-05
6.17123e-05
5.9978e-05
5.91786e-05
5.87369e-05
5.85007e-05
5.8394e-05
5.83869e-05
5.84726e-05
5.8658e-05
5.89688e-05
5.94743e-05
6.03336e-05
6.21629e-05
6.81803e-05
0.00012213
0.00013824
0.00013824
0.00013824
0.00013824
0.00013824
0.00013824
0.00013824
0.00013824
0.00013824
0.00013824
0.000134065
7.92942e-05
6.76337e-05
6.46414e-05
6.3698e-05
6.50041e-05
6.83125e-05
8.67398e-05
0.000135502
0.00013824
0.00013824
0.00013824
0.000135369
8.6293e-05
6.81996e-05
6.48769e-05
6.35617e-05
6.44534e-05
6.73656e-05
7.76514e-05
0.000132988
0.00013824
0.00013824
0.00013824
0.00013824
0.00013824
0.00013824
0.00013824
0.00013824
0.00013824
0.00013824
0.000128231
8.13266e-05
6.85586e-05
6.72069e-05
6.8218e-05
7.67017e-05
0.000123386
0.000138238
0.00013824
0.00013824
0.00013824
0.00013824
0.00013824
0.00013824
0.00013824
0.000138239
0.000115705
6.88018e-05
6.40952e-05
6.16804e-05
6.10695e-05
6.11351e-05
6.2016e-05
6.52634e-05
7.36084e-05
0.000131091
0.00013824
0.00013824
0.00013824
0.00013824
0.00013824
0.00013824
0.00013824
0.00013824
0.00013824
0.00013824
0.00013824
0.00013824
0.00013824
0.00013824
0.00013824
0.00013824
0.00013824
0.00013824
0.00013824
0.00013824
0.00013824
0.00013824
0.00013824
0.00013824
0.00013824
0.00013824
0.00013824
0.00013824
0.00013824
0.00013824
0.00013824
0.00013824
0.00013824
0.00013824
0.00013824
0.00013824
0.00013824
0.000127243
6.82642e-05
6.2394e-05
6.04988e-05
5.95797e-05
5.91469e-05
5.89403e-05
5.88921e-05
5.89953e-05
5.92605e-05
5.9735e-05
6.0611e-05
6.22934e-05
6.80775e-05
0.000117597
0.00013824
0.00013824
0.00013824
0.00013824
0.00013824
0.00013824
0.00013824
0.00013824
0.00013824
0.00013824
0.00013824
0.00013824
0.000137999
0.000114098
8.0968e-05
7.21539e-05
8.47469e-05
0.000119592
0.000138195
0.00013824
0.00013824
0.00013824
0.00013824
0.00013824
0.000138191
0.000119308
8.42538e-05
7.18384e-05
8.01383e-05
0.000113008
0.0001379
0.00013824
0.00013824
0.00013824
0.00013824
0.00013824
0.00013824
0.00013824
0.00013824
0.00013824
0.00013824
0.00013824
0.00013824
0.000138094
0.000124822
0.000111204
0.000122668
0.000137807
0.00013824
0.00013824
0.00013824
0.00013824
0.00013824
0.00013824
0.00013824
0.00013824
0.00013824
0.00013824
0.00013824
0.000131388
8.91077e-05
6.80678e-05
6.63509e-05
6.67069e-05
7.05175e-05
0.000108104
0.000137703
0.00013824
0.00013824
0.00013824
0.00013824
0.00013824
0.00013824
0.00013824
0.00013824
0.00013824
0.00013824
0.00013824
0.00013824
0.00013824
0.00013824
0.00013824
0.00013824
0.00013824
0.00013824
0.00013824
0.00013824
0.00013824
0.00013824
0.00013824
0.00013824
0.00013824
0.00013824
0.00013824
0.00013824
0.00013824
0.00013824
0.00013824
0.00013824
0.00013824
0.00013824
0.00013824
0.00013824
0.00013824
0.00013824
0.00013824
0.000132768
7.33626e-05
6.47104e-05
6.14652e-05
6.04998e-05
6.00184e-05
5.98507e-05
6.00093e-05
6.05136e-05
6.14523e-05
6.394e-05
6.93054e-05
0.000123769
0.00013824
0.00013824
0.00013824
0.00013824
0.00013824
0.00013824
0.00013824
0.00013824
0.00013824
0.00013824
0.00013824
0.00013824
0.00013824
0.00013824
0.00013824
0.000138044
0.000136102
0.000138154
0.00013824
0.00013824
0.00013824
0.00013824
0.00013824
0.00013824
0.00013824
0.00013824
0.00013824
0.000138147
0.000135935
0.000138013
0.00013824
0.00013824
0.00013824
0.00013824
0.00013824
0.00013824
0.00013824
0.00013824
0.00013824
0.00013824
0.00013824
0.00013824
0.00013824
0.00013824
0.00013824
0.00013824
0.00013824
0.00013824
0.00013824
0.00013824
0.00013824
0.00013824
0.00013824
0.00013824
0.00013824
0.00013824
0.00013824
0.00013824
0.00013824
0.00013824
0.00013824
0.000138221
0.00013053
0.000116949
0.000122368
0.000136636
0.00013824
0.00013824
0.00013824
0.00013824
0.00013824
0.00013824
0.00013824
0.00013824
0.00013824
0.00013824
0.00013824
0.00013824
0.00013824
0.00013824
0.00013824
0.00013824
0.00013824
0.00013824
0.00013824
0.00013824
0.00013824
0.00013824
0.00013824
0.00013824
0.00013824
0.00013824
0.00013824
0.00013824
0.00013824
0.00013824
0.00013824
0.00013824
0.00013824
0.00013824
0.00013824
0.00013824
0.00013824
0.00013824
0.00013824
0.00013824
0.00013824
0.00013824
0.000137676
0.000100469
6.79675e-05
6.48798e-05
6.29164e-05
6.21047e-05
6.25411e-05
6.43599e-05
6.73408e-05
8.61037e-05
0.000134022
0.00013824
0.00013824
0.00013824
0.00013824
0.00013824
0.00013824
0.00013824
0.00013824
0.00013824
0.00013824
0.00013824
0.00013824
0.00013824
0.00013824
0.00013824
0.00013824
0.00013824
0.00013824
0.00013824
0.00013824
0.00013824
0.00013824
0.00013824
0.00013824
0.00013824
0.00013824
0.00013824
0.00013824
0.00013824
0.00013824
0.00013824
0.00013824
0.00013824
0.00013824
0.00013824
0.00013824
0.00013824
0.00013824
0.00013824
0.00013824
0.00013824
0.00013824
0.00013824
0.00013824
0.00013824
0.00013824
0.00013824
0.00013824
0.00013824
0.00013824
0.00013824
0.00013824
0.00013824
0.00013824
0.00013824
0.00013824
0.00013824
0.00013824
0.00013824
0.00013824
0.00013824
0.00013824
0.00013824
0.00013824
0.00013824
0.00013824
0.00013824
0.00013824
0.00013824
0.00013824
0.00013824
0.00013824
0.00013824
0.00013824
0.00013824
0.00013824
0.00013824
0.00013824
0.00013824
0.00013824
0.00013824
0.00013824
0.00013824
0.00013824
0.00013824
0.00013824
0.00013824
0.00013824
0.00013824
0.00013824
0.00013824
0.00013824
0.00013824
0.00013824
0.00013824
0.00013824
0.00013824
0.00013824
0.00013824
0.00013824
0.00013824
0.00013824
0.00013824
0.00013824
0.00013824
0.00013824
0.00013824
0.00013824
0.00013824
0.00013824
0.000138239
0.000130319
0.000101747
7.77742e-05
7.03676e-05
7.32733e-05
9.2045e-05
0.000122984
0.000138205
0.00013824
0.00013824
0.00013824
0.00013824
0.00013824
0.00013824
0.00013824
0.00013824
0.00013824
0.00013824
0.00013824
0.00013824
0.00013824
0.00013824
0.00013824
0.00013824
0.00013824
0.00013824
0.00013824
0.00013824
0.00013824
0.00013824
0.00013824
0.00013824
0.00013824
0.00013824
0.00013824
0.00013824
0.00013824
0.00013824
0.00013824
0.00013824
0.00013824
0.00013824
0.00013824
0.00013824
0.00013824
0.00013824
0.00013824
0.00013824
0.00013824
0.00013824
0.00013824
0.00013824
0.00013824
0.00013824
0.00013824
0.00013824
0.00013824
0.00013824
0.00013824
0.00013824
0.00013824
0.00013824
0.00013824
0.00013824
0.00013824
0.00013824
0.00013824
0.00013824
0.00013824
0.00013824
0.00013824
0.00013824
0.00013824
0.00013824
0.00013824
0.00013824
0.00013824
0.00013824
0.00013824
0.00013824
0.00013824
0.00013824
0.00013824
0.00013824
0.00013824
0.00013824
0.00013824
0.00013824
0.00013824
0.00013824
0.00013824
0.00013824
0.00013824
0.00013824
0.00013824
0.00013824
0.00013824
0.00013824
0.00013824
0.00013824
0.00013824
0.00013824
0.00013824
0.00013824
0.00013824
0.00013824
0.00013824
0.00013824
0.00013824
0.00013824
0.00013824
0.00013824
0.00013824
0.00013824
0.00013824
0.00013824
0.00013824
0.00013824
0.00013824
0.00013824
0.00013824
0.000138239
0.000138001
0.000136334
0.000137455
0.000138228
0.00013824
0.00013824
0.00013824
0.00013824
0.00013824
0.00013824
0.00013824
0.00013824
0.00013824
0.00013824
0.00013824
0.00013824
0.00013824
0.00013824
0.00013824
0.00013824
0.00013824
0.00013824
0.00013824
0.00013824
0.00013824
0.00013824
0.00013824
0.00013824
0.00013824
0.00013824
0.00013824
0.00013824
0.00013824
0.00013824
0.00013824
0.00013824
0.00013824
0.00013824
0.00013824
0.00013824
0.00013824
0.00013824
0.00013824
0.00013824
0.00013824
0.00013824
0.00013824
0.00013824
0.00013824
0.00013824
0.00013824
0.00013824
0.00013824
0.00013824
0.00013824
0.00013824
0.00013824
0.00013824
0.00013824
0.00013824
0.00013824
0.00013824
0.00013824
0.00013824
0.00013824
0.00013824
0.00013824
0.00013824
0.00013824
0.00013824
0.00013824
0.00013824
0.00013824
0.00013824
0.00013824
0.00013824
0.00013824
0.00013824
0.00013824
0.00013824
0.00013824
0.00013824
0.00013824
0.00013824
0.00013824
0.00013824
0.00013824
0.00013824
0.00013824
0.00013824
0.00013824
0.00013824
0.00013824
0.00013824
0.00013824
0.00013824
0.00013824
0.00013824
0.00013824
0.00013824
0.00013824
0.00013824
0.00013824
0.00013824
0.00013824
0.00013824
0.00013824
0.00013824
0.00013824
0.00013824
0.00013824
0.00013824
0.00013824
0.00013824
0.00013824
0.00013824
0.00013824
0.00013824
0.00013824
0.00013824
0.00013824
0.00013824
0.00013824
0.00013824
0.00013824
0.00013824
0.00013824
0.00013824
0.00013824
0.00013824
0.00013824
0.00013824
0.00013824
0.00013824
0.00013824
0.00013824
0.00013824
0.00013824
0.00013824
0.00013824
0.00013824
0.00013824
0.00013824
0.00013824
0.00013824
0.00013824
0.00013824
0.00013824
0.00013824
0.00013824
0.00013824
0.00013824
0.00013824
0.00013824
0.00013824
0.00013824
0.00013824
0.00013824
0.00013824
0.00013824
0.00013824
0.00013824
0.00013824
0.00013824
0.00013824
0.00013824
0.00013824
0.00013824
0.00013824
0.00013824
0.00013824
0.00013824
0.00013824
0.00013824
0.00013824
0.00013824
0.00013824
0.00013824
0.00013824
0.00013824
0.00013824
0.00013824
0.00013824
0.00013824
0.00013824
0.00013824
0.00013824
0.00013824
0.00013824
0.00013824
0.00013824
0.00013824
0.00013824
0.00013824
0.00013824
0.00013824
0.00013824
0.00013824
0.00013824
0.00013824
0.00013824
0.00013824
0.00013824
0.00013824
0.00013824
0.00013824
0.00013824
0.00013824
0.00013824
0.00013824
0.00013824
0.00013824
0.00013824
0.00013824
0.00013824
0.00013824
0.00013824
0.00013824
0.00013824
0.00013824
0.00013824
0.00013824
0.00013824
0.00013824
0.00013824
0.00013824
0.00013824
0.00013824
0.00013824
0.00013824
0.00013824
0.00013824
0.00013824
0.00013824
0.00013824
0.00013824
0.00013824
0.00013824
0.00013824
0.00013824
0.00013824
0.00013824
0.00013824
0.00013824
0.00013824
0.00013824
0.00013824
0.00013824
0.00013824
0.00013824
0.00013824
0.00013824
0.00013824
0.00013824
0.00013824
0.00013824
0.00013824
0.00013824
0.00013824
0.00013824
0.00013824
0.00013824
0.00013824
0.00013824
0.00013824
0.00013824
0.00013824
0.00013824
0.00013824
0.00013824
0.00013824
0.00013824
0.00013824
0.00013824
0.00013824
0.00013824
0.00013824
0.00013824
0.00013824
0.00013824
0.00013824
0.00013824
0.00013824
0.00013824
0.00013824
0.00013824
0.00013824
0.00013824
0.00013824
0.00013824
0.00013824
0.00013824
0.00013824
0.00013824
0.00013824
0.00013824
0.00013824
0.00013824
0.00013824
0.00013824
0.00013824
0.00013824
0.00013824
0.00013824
0.00013824
0.00013824
0.00013824
0.00013824
0.00013824
0.00013824
0.00013824
0.00013824
0.00013824
0.00013824
0.00013824
0.00013824
0.00013824
0.00013824
0.00013824
0.00013824
0.00013824
0.00013824
0.00013824
0.00013824
0.00013824
0.00013824
0.00013824
0.00013824
0.00013824
0.00013824
0.00013824
0.00013824
0.00013824
0.00013824
0.00013824
0.00013824
0.00013824
0.00013824
0.00013824
0.00013824
0.00013824
0.00013824
0.00013824
0.00013824
0.00013824
0.00013824
0.00013824
0.00013824
0.00013824
0.00013824
0.00013824
0.00013824
0.00013824
0.00013824
0.00013824
0.00013824
0.00013824
0.00013824
0.00013824
0.00013824
0.00013824
0.00013824
0.00013824
0.00013824
0.00013824
0.00013824
0.00013824
0.00013824
0.00013824
0.00013824
0.00013824
0.00013824
0.00013824
0.00013824
0.00013824
0.00013824
0.00013824
0.00013824
0.00013824
0.00013824
0.00013824
0.00013824
0.00013824
0.00013824
0.00013824
0.00013824
0.00013824
0.00013824
0.00013824
0.00013824
0.00013824
0.00013824
0.00013824
0.00013824
0.00013824
0.00013824
0.00013824
0.00013824
0.00013824
0.00013824
0.00013824
0.00013824
0.00013824
0.00013824
0.00013824
0.00013824
0.00013824
0.00013824
0.00013824
0.00013824
0.00013824
0.00013824
0.00013824
0.00013824
0.00013824
0.00013824
0.00013824
0.00013824
0.00013824
0.00013824
0.00013824
0.00013824
0.00013824
0.00013824
0.00013824
0.00013824
0.00013824
0.00013824
0.00013824
0.00013824
0.00013824
0.00013824
0.00013824
0.00013824
0.00013824
0.00013824
0.00013824
0.00013824
0.00013824
0.00013824
0.00013824
0.00013824
0.00013824
0.00013824
0.00013824
0.00013824
0.00013824
0.00013824
0.00013824
0.00013824
0.00013824
0.00013824
0.00013824
0.00013824
0.00013824
0.00013824
0.00013824
0.00013824
0.00013824
0.00013824
0.00013824
0.00013824
0.00013824
0.00013824
0.00013824
0.00013824
0.00013824
0.00013824
0.00013824
0.00013824
0.00013824
0.00013824
0.00013824
0.00013824
0.00013824
0.00013824
0.00013824
0.00013824
0.00013824
0.00013824
0.00013824
0.00013824
0.00013824
0.00013824
0.00013824
0.00013824
0.00013824
0.00013824
0.00013824
0.00013824
0.00013824
0.00013824
0.00013824
0.00013824
0.00013824
0.00013824
0.00013824
0.00013824
0.00013824
0.00013824
0.00013824
0.00013824
0.00013824
0.00013824
0.00013824
0.00013824
0.00013824
0.00013824
0.00013824
0.00013824
0.00013824
0.00013824
0.00013824
0.00013824
0.00013824
0.00013824
0.00013824
0.00013824
0.00013824
0.00013824
0.00013824
0.00013824
0.00013824
0.00013824
0.00013824
0.00013824
0.00013824
0.00013824
0.00013824
0.00013824
0.00013824
0.00013824
0.00013824
0.00013824
0.00013824
0.00013824
0.00013824
0.00013824
0.00013824
0.00013824
0.00013824
0.00013824
0.00013824
0.00013824
0.00013824
0.00013824
0.00013824
0.00013824
0.00013824
0.00013824
0.00013824
0.00013824
0.00013824
0.00013824
0.00013824
0.00013824
0.00013824
0.00013824
0.00013824
0.00013824
0.00013824
0.00013824
0.00013824
0.00013824
0.00013824
0.00013824
0.00013824
0.00013824
0.00013824
0.00013824
0.00013824
0.00013824
0.00013824
0.00013824
0.00013824
0.00013824
0.00013824
0.00013824
0.00013824
0.00013824
0.00013824
0.00013824
0.00013824
0.00013824
0.00013824
0.00013824
0.00013824
0.00013824
0.00013824
0.00013824
0.00013824
0.00013824
0.00013824
0.00013824
0.00013824
0.00013824
0.00013824
0.00013824
0.00013824
0.00013824
0.00013824
0.00013824
0.00013824
0.00013824
0.00013824
0.00013824
0.00013824
0.00013824
0.00013824
0.00013824
0.00013824
0.00013824
0.00013824
0.00013824
0.00013824
0.00013824
0.00013824
0.00013824
0.00013824
0.00013824
0.00013824
0.00013824
0.00013824
0.00013824
0.00013824
0.00013824
0.00013824
0.00013824
0.00013824
0.00013824
0.00013824
0.00013824
0.00013824
0.00013824
0.00013824
0.00013824
0.00013824
0.00013824
0.00013824
0.00013824
0.00013824
0.00013824
0.00013824
0.00013824
0.00013824
0.00013824
0.00013824
0.00013824
0.00013824
0.00013824
0.00013824
0.00013824
0.00013824
0.00013824
0.00013824
0.00013824
0.00013824
0.00013824
0.00013824
0.00013824
0.00013824
0.00013824
0.00013824
0.00013824
0.00013824
0.00013824
0.00013824
0.00013824
0.00013824
0.00013824
0.00013824
0.00013824
0.00013824
0.00013824
0.00013824
0.00013824
0.00013824
0.00013824
0.00013824
0.00013824
0.00013824
0.00013824
0.00013824
0.00013824
0.00013824
0.00013824
0.00013824
0.00013824
0.00013824
0.00013824
0.00013824
0.00013824
0.00013824
0.00013824
0.00013824
0.00013824
0.00013824
0.00013824
0.00013824
0.00013824
0.00013824
0.00013824
0.00013824
0.00013824
0.00013824
0.00013824
0.00013824
0.00013824
0.00013824
0.00013824
0.00013824
0.00013824
0.00013824
0.00013824
0.00013824
0.00013824
0.00013824
0.00013824
0.00013824
0.00013824
0.00013824
0.00013824
0.00013824
0.00013824
0.00013824
0.00013824
0.00013824
0.00013824
0.00013824
0.00013824
0.00013824
0.00013824
0.00013824
0.00013824
0.00013824
0.00013824
0.00013824
0.00013824
0.00013824
0.00013824
0.00013824
0.00013824
0.00013824
0.00013824
0.00013824
0.00013824
0.00013824
0.00013824
0.00013824
0.00013824
0.00013824
0.00013824
0.00013824
0.00013824
0.00013824
0.00013824
0.00013824
0.00013824
0.00013824
0.00013824
0.00013824
0.00013824
0.00013824
0.00013824
0.00013824
0.00013824
0.00013824
0.00013824
0.00013824
0.00013824
0.00013824
0.00013824
0.00013824
0.00013824
0.00013824
0.00013824
0.00013824
0.00013824
0.00013824
0.00013824
0.00013824
0.00013824
0.00013824
0.00013824
0.00013824
0.00013824
0.00013824
0.00013824
0.00013824
0.00013824
0.00013824
0.00013824
0.00013824
0.00013824
0.00013824
0.00013824
0.00013824
0.00013824
0.00013824
0.00013824
0.00013824
0.00013824
0.00013824
0.00013824
0.00013824
0.00013824
0.00013824
0.00013824
0.00013824
0.00013824
0.00013824
0.00013824
0.00013824
0.00013824
0.00013824
0.00013824
0.00013824
0.00013824
0.00013824
0.00013824
0.00013824
0.00013824
0.00013824
0.00013824
0.00013824
0.00013824
0.00013824
0.00013824
0.00013824
0.00013824
0.00013824
0.00013824
0.00013824
0.00013824
0.00013824
0.00013824
0.00013824
0.00013824
0.00013824
0.00013824
0.00013824
0.00013824
0.00013824
0.00013824
0.00013824
0.00013824
0.00013824
0.00013824
0.00013824
0.00013824
0.00013824
0.00013824
0.00013824
0.00013824
0.00013824
0.00013824
0.00013824
0.00013824
0.00013824
0.00013824
0.00013824
0.00013824
0.00013824
0.00013824
0.00013824
0.00013824
0.00013824
0.00013824
0.00013824
0.00013824
0.00013824
0.00013824
0.00013824
0.00013824
0.00013824
0.00013824
0.00013824
0.00013824
0.00013824
0.00013824
0.00013824
0.00013824
0.00013824
0.00013824
0.00013824
0.00013824
0.00013824
0.00013824
0.00013824
0.00013824
0.00013824
0.00013824
0.00013824
0.00013824
0.00013824
0.00013824
0.00013824
0.00013824
0.00013824
0.00013824
0.00013824
0.00013824
0.00013824
0.00013824
0.00013824
0.00013824
0.00013824
0.00013824
0.00013824
0.00013824
0.00013824
0.00013824
0.00013824
0.00013824
0.00013824
0.00013824
0.00013824
0.00013824
0.00013824
0.00013824
0.00013824
0.00013824
0.00013824
0.00013824
0.00013824
0.00013824
0.00013824
0.00013824
0.00013824
0.00013824
0.00013824
0.00013824
0.00013824
0.00013824
0.00013824
0.00013824
0.00013824
0.00013824
0.00013824
0.00013824
0.00013824
0.00013824
0.00013824
0.00013824
0.00013824
0.00013824
0.00013824
0.00013824
0.00013824
0.00013824
0.00013824
0.00013824
0.00013824
0.00013824
0.00013824
0.00013824
0.00013824
0.00013824
0.00013824
0.00013824
0.00013824
0.00013824
0.00013824
0.00013824
0.00013824
0.00013824
0.00013824
0.00013824
0.00013824
0.00013824
0.00013824
0.00013824
0.00013824
0.00013824
0.00013824
0.00013824
0.00013824
0.00013824
0.00013824
0.00013824
0.00013824
0.00013824
0.00013824
0.00013824
0.00013824
0.00013824
0.00013824
0.00013824
0.00013824
0.00013824
0.00013824
0.00013824
0.00013824
0.00013824
0.00013824
0.00013824
0.00013824
0.00013824
0.00013824
0.00013824
0.00013824
0.00013824
0.00013824
0.00013824
0.00013824
0.00013824
0.00013824
0.00013824
0.00013824
0.00013824
0.00013824
0.00013824
0.00013824
0.00013824
0.00013824
0.00013824
0.00013824
0.00013824
0.00013824
0.00013824
0.00013824
0.00013824
0.00013824
0.00013824
0.00013824
0.00013824
0.00013824
0.00013824
0.00013824
0.00013824
0.00013824
0.00013824
0.00013824
0.00013824
0.00013824
0.00013824
0.00013824
0.00013824
0.00013824
0.00013824
0.00013824
0.00013824
0.00013824
0.00013824
0.00013824
0.00013824
0.00013824
0.00013824
0.00013824
0.00013824
0.00013824
0.00013824
0.00013824
0.00013824
0.00013824
0.00013824
0.00013824
0.00013824
0.00013824
0.00013824
0.00013824
0.00013824
0.00013824
0.00013824
0.00013824
0.00013824
0.00013824
0.00013824
0.00013824
0.00013824
0.00013824
0.00013824
0.00013824
0.00013824
0.00013824
0.00013824
0.00013824
0.00013824
0.00013824
0.00013824
0.00013824
0.00013824
0.00013824
0.00013824
0.00013824
0.00013824
0.00013824
0.00013824
0.00013824
0.00013824
0.00013824
0.00013824
0.00013824
0.00013824
0.00013824
0.00013824
0.00013824
0.00013824
0.00013824
0.00013824
0.00013824
0.00013824
0.00013824
0.00013824
0.00013824
0.00013824
0.00013824
0.00013824
0.00013824
0.00013824
0.00013824
0.00013824
0.00013824
0.00013824
0.00013824
0.00013824
0.00013824
0.00013824
0.00013824
0.00013824
0.00013824
0.00013824
0.00013824
0.00013824
0.00013824
0.00013824
0.00013824
0.00013824
0.00013824
0.00013824
0.00013824
0.00013824
0.00013824
0.00013824
0.00013824
0.00013824
0.00013824
0.00013824
0.00013824
0.00013824
0.00013824
0.00013824
0.00013824
0.00013824
0.00013824
0.00013824
0.00013824
0.00013824
0.00013824
0.00013824
0.00013824
0.00013824
0.00013824
0.00013824
0.00013824
0.00013824
0.00013824
0.00013824
0.00013824
0.00013824
0.00013824
0.00013824
0.00013824
0.00013824
0.00013824
0.00013824
0.00013824
0.00013824
0.00013824
0.00013824
0.00013824
0.00013824
0.00013824
0.00013824
0.00013824
0.00013824
0.00013824
0.00013824
0.00013824
0.00013824
0.00013824
0.00013824
0.00013824
0.00013824
0.00013824
0.00013824
0.00013824
0.00013824
0.00013824
0.00013824
0.00013824
0.00013824
0.00013824
0.00013824
0.00013824
0.00013824
0.00013824
0.00013824
0.00013824