/*--------------------------------*- C++ -*----------------------------------*\
| =========                 |                                                 |
| \\      /  F ield         | OpenFOAM: The Open Source CFD Toolbox           |
|  \\    /   O peration     | Version:  2406                                  |
|   \\  /    A nd           | Website:  www.openfoam.com                      |
|    \\/     M anipulation  |                                                 |
\*---------------------------------------------------------------------------*/
FoamFile
{
    version     2.0;
    format      ascii;
    arch        "LSB;label=32;scalar=64";
    class       volScalarField;
    location    "9.3";
    object      C;
}
// * * * * * * * * * * * * * * * * * * * * * * * * * * * * * * * * * * * * * //

dimensions      [1 -3 0 0 0 0 0];

internalField   nonuniform List<scalar> 
14400
(
0.214559
0.213786
0.212419
0.21073
0.209015
0.207526
0.206457
0.205926
0.205978
0.20658
0.207622
0.208912
0.210176
0.211068
0.211212
0.210291
0.20819
0.205116
0.20146
0.197651
0.194081
0.191079
0.188922
0.187847
0.188078
0.18984
0.193377
0.198959
0.206877
0.217437
0.230949
0.247729
0.268101
0.292389
0.320908
0.353906
0.3914
0.432466
0.470845
0.498129
0.5174
0.533864
0.547771
0.559311
0.568626
0.575825
0.580988
0.584175
0.585421
0.584748
0.582157
0.577633
0.571143
0.562636
0.552039
0.539254
0.524151
0.506562
0.486235
0.45691
0.416576
0.375542
0.338303
0.3056
0.277393
0.253424
0.233375
0.216909
0.203682
0.19334
0.185527
0.179901
0.176165
0.174081
0.173479
0.174242
0.176301
0.179623
0.184201
0.190052
0.1972
0.205655
0.215384
0.226259
0.237974
0.249863
0.260317
0.266129
0.265203
0.259612
0.252015
0.244058
0.236444
0.229546
0.223563
0.218584
0.214615
0.211602
0.209444
0.208006
0.207135
0.206676
0.206492
0.206496
0.206668
0.207066
0.207819
0.209098
0.211101
0.214026
0.218058
0.223356
0.230038
0.238168
0.247736
0.258622
0.270544
0.282937
0.2946
0.301978
0.219643
0.218679
0.217008
0.214991
0.212978
0.211258
0.21004
0.209449
0.209533
0.21026
0.211517
0.213105
0.21473
0.216
0.216446
0.21561
0.213264
0.209753
0.205611
0.20135
0.197402
0.194106
0.191741
0.190538
0.190716
0.192497
0.196118
0.201843
0.209957
0.220756
0.234549
0.251649
0.27238
0.297066
0.326018
0.359481
0.397471
0.439
0.475821
0.501268
0.520203
0.536419
0.550139
0.561536
0.570742
0.57786
0.582965
0.586114
0.587341
0.586666
0.58409
0.579598
0.57316
0.564726
0.554228
0.541572
0.526637
0.509268
0.489261
0.461702
0.422787
0.381179
0.343364
0.310154
0.281485
0.257094
0.236658
0.219836
0.206286
0.195658
0.187602
0.181785
0.17791
0.175741
0.175103
0.175879
0.177999
0.181431
0.186176
0.192254
0.199694
0.208517
0.218697
0.230118
0.24249
0.255151
0.266126
0.271774
0.27148
0.265712
0.257615
0.249181
0.241149
0.233902
0.227646
0.222466
0.21837
0.215298
0.213143
0.21176
0.210974
0.210606
0.210492
0.210522
0.210669
0.211001
0.211671
0.21288
0.214848
0.217792
0.221907
0.227358
0.234269
0.242704
0.252658
0.264018
0.276506
0.289521
0.301555
0.308317
0.230325
0.228909
0.226559
0.223832
0.221195
0.218996
0.217471
0.216757
0.216903
0.21788
0.219572
0.22177
0.22415
0.226243
0.227402
0.226821
0.223866
0.219357
0.214166
0.208966
0.204245
0.200356
0.197569
0.196107
0.196177
0.197989
0.201769
0.207769
0.216258
0.227525
0.241868
0.2596
0.281041
0.306514
0.336316
0.370648
0.409395
0.451121
0.484764
0.507407
0.525725
0.541471
0.554831
0.565951
0.574946
0.581907
0.5869
0.589975
0.591164
0.590485
0.587938
0.58351
0.577173
0.568882
0.558574
0.546168
0.531557
0.514607
0.495152
0.470478
0.434447
0.392213
0.353472
0.31932
0.289755
0.264533
0.243331
0.225809
0.211623
0.200431
0.191896
0.185695
0.18154
0.179195
0.178482
0.179281
0.181524
0.185184
0.190266
0.196802
0.204833
0.21439
0.225458
0.237933
0.251529
0.265528
0.277144
0.282456
0.282998
0.277696
0.268887
0.259579
0.250745
0.242826
0.236038
0.230475
0.226139
0.222967
0.220839
0.219585
0.218994
0.218835
0.218883
0.218974
0.219059
0.219237
0.219715
0.220756
0.222631
0.225589
0.22985
0.23559
0.242936
0.251957
0.26265
0.274908
0.288455
0.302608
0.314764
0.319947
0.247615
0.245301
0.241734
0.237817
0.234176
0.231227
0.229226
0.228318
0.228555
0.229905
0.232254
0.235388
0.238964
0.242444
0.24497
0.245111
0.240811
0.234485
0.227559
0.220882
0.214977
0.210188
0.206764
0.204906
0.2048
0.206641
0.210637
0.21702
0.226045
0.237985
0.253132
0.271793
0.294285
0.320923
0.35198
0.387574
0.427234
0.467649
0.496275
0.516358
0.533817
0.548908
0.561762
0.572491
0.581186
0.587921
0.592752
0.595721
0.596856
0.596171
0.593666
0.589331
0.583139
0.575053
0.56502
0.552969
0.538816
0.522451
0.503744
0.48195
0.450415
0.40853
0.368732
0.333252
0.302377
0.27593
0.253601
0.235052
0.219938
0.207925
0.198686
0.191916
0.187338
0.184721
0.183891
0.184725
0.187157
0.191165
0.196763
0.203995
0.212915
0.223562
0.235932
0.249914
0.265169
0.280709
0.292384
0.297351
0.298615
0.295303
0.28601
0.275521
0.265557
0.25668
0.249139
0.243038
0.23838
0.2351
0.233059
0.232058
0.231829
0.232057
0.23241
0.232613
0.232575
0.232453
0.232565
0.233281
0.234952
0.237879
0.242313
0.248442
0.256397
0.266246
0.277978
0.291463
0.30634
0.321537
0.332266
0.335878
0.272969
0.268867
0.263285
0.257581
0.252511
0.248519
0.245867
0.244693
0.245043
0.246887
0.25011
0.254503
0.259727
0.265235
0.270049
0.271925
0.264888
0.255653
0.246233
0.237537
0.230048
0.224061
0.219783
0.217383
0.217022
0.218871
0.223116
0.22997
0.239667
0.252469
0.268656
0.288527
0.312393
0.340552
0.373235
0.410455
0.451257
0.486147
0.509171
0.52783
0.544278
0.558582
0.570819
0.581065
0.589386
0.595839
0.600466
0.603302
0.604368
0.603676
0.601226
0.597007
0.591
0.583173
0.573482
0.561874
0.548284
0.532638
0.514857
0.494881
0.468893
0.430605
0.38942
0.352189
0.319604
0.291558
0.267762
0.247878
0.231567
0.218497
0.208356
0.20085
0.19572
0.192746
0.191758
0.192641
0.195332
0.199813
0.206109
0.214271
0.224362
0.236431
0.250476
0.266372
0.28366
0.300595
0.310911
0.315693
0.317564
0.3165
0.308824
0.297229
0.285945
0.275896
0.267424
0.260664
0.255636
0.252277
0.250439
0.249884
0.250277
0.251183
0.252085
0.252494
0.25221
0.251531
0.250989
0.251128
0.25241
0.255204
0.259792
0.266374
0.275079
0.28596
0.298978
0.313936
0.330227
0.345308
0.352572
0.355224
0.307687
0.300288
0.291721
0.283612
0.276695
0.271381
0.26791
0.266401
0.266889
0.269337
0.27363
0.279556
0.286773
0.294694
0.301848
0.3025
0.295487
0.282872
0.270435
0.259301
0.249891
0.242438
0.237102
0.234016
0.233311
0.235133
0.239646
0.247041
0.257536
0.271374
0.288824
0.310173
0.335715
0.365704
0.400232
0.438777
0.477831
0.504819
0.524178
0.541512
0.556884
0.570322
0.581867
0.591564
0.599455
0.605581
0.609972
0.612652
0.613639
0.612939
0.610553
0.606473
0.600682
0.593155
0.583862
0.572762
0.55981
0.544959
0.528162
0.509381
0.487908
0.456715
0.415307
0.376303
0.341728
0.311757
0.286175
0.264669
0.246909
0.232571
0.221351
0.21297
0.207183
0.203785
0.202618
0.203573
0.206595
0.211672
0.218836
0.228143
0.23966
0.253439
0.269471
0.287586
0.307079
0.323789
0.332072
0.336922
0.339356
0.339506
0.335816
0.324707
0.312241
0.300909
0.291368
0.283858
0.278436
0.275063
0.273596
0.273764
0.275159
0.277206
0.279102
0.279901
0.27912
0.277431
0.275773
0.274961
0.275587
0.278089
0.282777
0.289852
0.29942
0.311497
0.325974
0.342489
0.359723
0.37081
0.375109
0.37722
0.344069
0.338175
0.326838
0.316077
0.307045
0.300195
0.295772
0.293875
0.294524
0.297673
0.303196
0.310822
0.3201
0.329929
0.334806
0.333149
0.328621
0.315376
0.300167
0.286442
0.274886
0.265754
0.25918
0.255272
0.254135
0.255892
0.260688
0.268693
0.280106
0.295151
0.31408
0.337158
0.364646
0.396731
0.433275
0.472637
0.503093
0.523434
0.541152
0.557156
0.571425
0.583956
0.594763
0.603867
0.611291
0.617058
0.621188
0.623697
0.624595
0.623888
0.621575
0.617649
0.612098
0.604905
0.596048
0.5855
0.573235
0.559225
0.543452
0.525907
0.506607
0.482659
0.446424
0.405862
0.369102
0.336928
0.309268
0.285865
0.266415
0.250607
0.238148
0.228772
0.222246
0.218379
0.217025
0.218086
0.221514
0.227304
0.235491
0.246135
0.259302
0.275034
0.293274
0.313675
0.334719
0.348589
0.355688
0.360565
0.363433
0.364421
0.363706
0.357556
0.344683
0.332094
0.321392
0.31307
0.307239
0.303933
0.303046
0.304286
0.307181
0.31106
0.314733
0.31634
0.314509
0.311046
0.307599
0.305352
0.304983
0.306995
0.311708
0.3193
0.329816
0.343194
0.359129
0.376672
0.39042
0.396424
0.399666
0.401328
0.377448
0.375679
0.367331
0.354786
0.343696
0.335214
0.329771
0.327461
0.328293
0.332212
0.339071
0.348365
0.359064
0.366685
0.367106
0.365098
0.361867
0.352457
0.335446
0.319213
0.305395
0.294427
0.286468
0.281617
0.279968
0.28163
0.286731
0.29542
0.307877
0.324302
0.344916
0.369935
0.399542
0.43374
0.471517
0.504324
0.526047
0.543652
0.559838
0.574536
0.587702
0.599314
0.609363
0.61785
0.624783
0.630172
0.634025
0.636352
0.637157
0.636443
0.634209
0.63045
0.625157
0.61832
0.609924
0.599957
0.588404
0.575256
0.560513
0.544187
0.526314
0.506894
0.479908
0.440611
0.402036
0.367514
0.337518
0.311954
0.290574
0.273096
0.259241
0.248754
0.241414
0.237042
0.235503
0.236711
0.240621
0.247236
0.256591
0.268747
0.283765
0.301658
0.322276
0.34488
0.364774
0.374793
0.381377
0.386217
0.38939
0.391021
0.391286
0.389987
0.382676
0.369561
0.357751
0.348644
0.342385
0.339215
0.339136
0.341815
0.346697
0.353221
0.359652
0.362827
0.358968
0.352869
0.346837
0.342678
0.340952
0.342268
0.34693
0.355061
0.366563
0.381186
0.397872
0.412468
0.419712
0.423293
0.425804
0.427096
0.410557
0.410256
0.40759
0.398774
0.38653
0.376507
0.370105
0.367403
0.368427
0.3731
0.381309
0.391603
0.399922
0.40175
0.400315
0.398212
0.395271
0.390338
0.376089
0.357833
0.341769
0.328886
0.319434
0.313537
0.311308
0.312856
0.318293
0.327752
0.341387
0.359362
0.381849
0.408943
0.440599
0.476093
0.509806
0.532362
0.549366
0.56529
0.580012
0.593447
0.605535
0.616235
0.625524
0.633387
0.63982
0.64482
0.648389
0.650528
0.651238
0.650518
0.648368
0.644784
0.63976
0.633292
0.625373
0.615998
0.605167
0.592882
0.579157
0.564016
0.5475
0.529666
0.509869
0.480385
0.440905
0.403987
0.371438
0.343463
0.319918
0.300566
0.285152
0.273433
0.2652
0.260284
0.258563
0.259957
0.264428
0.271976
0.282638
0.296468
0.313509
0.333701
0.356611
0.380255
0.394876
0.402638
0.40881
0.413535
0.416889
0.418987
0.419997
0.420139
0.418719
0.412082
0.400149
0.390698
0.383969
0.380955
0.381899
0.386296
0.393102
0.402173
0.407185
0.408695
0.407136
0.401727
0.393058
0.386968
0.383582
0.384057
0.388601
0.397285
0.409633
0.424809
0.437914
0.445127
0.448492
0.45123
0.453161
0.454158
0.443969
0.443869
0.44375
0.441317
0.434298
0.423573
0.416687
0.413691
0.414877
0.419954
0.428985
0.435387
0.437211
0.435813
0.434193
0.432166
0.429613
0.426499
0.419225
0.402017
0.384261
0.369557
0.358568
0.351539
0.348676
0.350103
0.355919
0.366243
0.381197
0.400874
0.425381
0.454495
0.487418
0.52015
0.542472
0.5585
0.573763
0.588128
0.601474
0.613706
0.624754
0.634568
0.643109
0.650355
0.656289
0.660901
0.664183
0.666133
0.666748
0.666025
0.663962
0.660557
0.655809
0.649715
0.642277
0.633497
0.623383
0.611949
0.599216
0.585219
0.570003
0.553629
0.536163
0.51564
0.484728
0.446529
0.411477
0.380927
0.355003
0.333578
0.316437
0.303357
0.294142
0.288637
0.286731
0.28835
0.293458
0.30205
0.314147
0.329786
0.348972
0.371514
0.396302
0.415626
0.424995
0.431961
0.437689
0.442226
0.445642
0.448043
0.449574
0.450432
0.450871
0.450292
0.445827
0.438429
0.431328
0.428502
0.430517
0.436468
0.442367
0.445941
0.446936
0.446923
0.447662
0.446817
0.443369
0.437291
0.432298
0.43207
0.436378
0.445364
0.457487
0.466945
0.472613
0.475369
0.477893
0.479974
0.481451
0.482216
0.477482
0.477502
0.47761
0.477946
0.476995
0.473171
0.468133
0.465086
0.466344
0.470102
0.472973
0.473307
0.471633
0.470092
0.468477
0.466645
0.464514
0.462067
0.459314
0.450683
0.43291
0.416804
0.404354
0.396117
0.392588
0.393908
0.400153
0.411431
0.427836
0.449255
0.475778
0.506034
0.535569
0.55636
0.571106
0.585383
0.599058
0.611986
0.624049
0.635149
0.645209
0.654172
0.661991
0.668636
0.674081
0.67831
0.68131
0.683074
0.683595
0.682871
0.680897
0.677674
0.673202
0.667483
0.660523
0.65233
0.64292
0.632314
0.620541
0.607641
0.593666
0.578682
0.562766
0.546014
0.525216
0.494144
0.457821
0.424819
0.396389
0.37272
0.353694
0.339115
0.328818
0.32267
0.320569
0.32245
0.328275
0.338019
0.351662
0.369179
0.390452
0.414726
0.43743
0.449136
0.45631
0.462524
0.46776
0.472038
0.475412
0.477967
0.479824
0.481145
0.482127
0.483011
0.483853
0.482315
0.480074
0.478888
0.479707
0.481474
0.482599
0.481808
0.481415
0.481596
0.482398
0.48384
0.485312
0.48477
0.483947
0.48444
0.487964
0.493451
0.49872
0.501827
0.503783
0.505832
0.507739
0.509323
0.510453
0.51104
0.510974
0.511048
0.511239
0.511633
0.512349
0.513207
0.512247
0.51116
0.51103
0.511063
0.509392
0.507508
0.505913
0.504447
0.502979
0.501422
0.49973
0.497908
0.496008
0.493903
0.485842
0.470375
0.457079
0.447586
0.443454
0.444734
0.451442
0.463692
0.481641
0.504357
0.531922
0.556107
0.573979
0.587143
0.600163
0.612869
0.625098
0.63671
0.647587
0.657631
0.666762
0.674918
0.682048
0.688115
0.693089
0.696947
0.699673
0.701257
0.701689
0.700965
0.699082
0.69604
0.691841
0.686491
0.68
0.672381
0.663654
0.653846
0.642992
0.631137
0.618339
0.604667
0.590205
0.575053
0.559331
0.539166
0.509557
0.475366
0.444547
0.418559
0.397535
0.38133
0.369844
0.362989
0.360678
0.362852
0.369472
0.380474
0.395736
0.415075
0.438072
0.462084
0.475462
0.482371
0.488582
0.494065
0.498788
0.502754
0.505999
0.508588
0.510613
0.512195
0.513481
0.514631
0.515805
0.517166
0.518307
0.518547
0.518187
0.517063
0.516024
0.51545
0.515316
0.515648
0.516479
0.517833
0.519739
0.522341
0.524841
0.526744
0.528988
0.530911
0.531965
0.533309
0.534854
0.536438
0.537906
0.539127
0.539998
0.540451
0.544391
0.544476
0.544666
0.544999
0.5455
0.546139
0.5468
0.546939
0.546029
0.544473
0.542898
0.541417
0.540065
0.538802
0.537571
0.536333
0.535077
0.533827
0.532653
0.531671
0.530806
0.525329
0.515825
0.505499
0.501285
0.502725
0.509849
0.522717
0.541937
0.56341
0.581366
0.59512
0.606472
0.618018
0.629533
0.640832
0.651756
0.662169
0.671958
0.681025
0.689291
0.69669
0.703169
0.708688
0.713212
0.716715
0.71918
0.720592
0.72094
0.720219
0.718426
0.715562
0.711632
0.706642
0.700605
0.69354
0.685469
0.676423
0.666443
0.655577
0.643885
0.631441
0.618333
0.604662
0.590552
0.57614
0.557748
0.531422
0.499531
0.47149
0.448534
0.430609
0.417832
0.410213
0.407666
0.410142
0.417623
0.429973
0.446807
0.467489
0.490584
0.504084
0.510476
0.516265
0.521584
0.526366
0.530571
0.534192
0.537244
0.539772
0.541843
0.543543
0.544971
0.546227
0.547395
0.548499
0.549392
0.54985
0.549718
0.549284
0.548856
0.548651
0.54875
0.549202
0.550037
0.551272
0.552909
0.554924
0.55712
0.559262
0.56088
0.562162
0.563347
0.56459
0.565885
0.56716
0.568321
0.569279
0.569961
0.570315
0.577723
0.577797
0.577952
0.578194
0.578513
0.578856
0.5791
0.579008
0.578405
0.577423
0.576311
0.575194
0.57413
0.573125
0.572171
0.571264
0.570416
0.569671
0.569105
0.568839
0.569054
0.569979
0.568607
0.56602
0.564282
0.566309
0.573582
0.585038
0.597811
0.609779
0.619326
0.628804
0.63875
0.648923
0.659121
0.66917
0.678924
0.688254
0.69705
0.705221
0.712686
0.719381
0.725252
0.730255
0.734354
0.737523
0.73974
0.740989
0.74126
0.740544
0.738841
0.736152
0.732481
0.727839
0.722239
0.715704
0.708258
0.699936
0.69078
0.680842
0.670184
0.658881
0.647022
0.634712
0.622072
0.609245
0.596402
0.580946
0.559339
0.5311
0.506997
0.487371
0.473262
0.464878
0.462062
0.464775
0.473091
0.486767
0.504487
0.523713
0.535446
0.540859
0.545838
0.550628
0.555122
0.559242
0.562941
0.566197
0.569013
0.571414
0.573445
0.575162
0.576631
0.577912
0.579049
0.580042
0.58083
0.581328
0.581509
0.581499
0.581465
0.581548
0.581833
0.582372
0.583194
0.584309
0.585703
0.587325
0.589056
0.590742
0.592214
0.593494
0.594672
0.595817
0.596937
0.597997
0.59894
0.599708
0.600252
0.600533
0.610981
0.611038
0.611151
0.611314
0.611503
0.611672
0.611737
0.611588
0.61116
0.610504
0.609728
0.60892
0.608134
0.607397
0.606724
0.606133
0.605654
0.605337
0.605257
0.605525
0.606293
0.607759
0.610178
0.6132
0.615569
0.619303
0.625171
0.632302
0.639025
0.645894
0.653649
0.662019
0.670801
0.679804
0.688856
0.697804
0.706515
0.714871
0.722769
0.730121
0.736851
0.742896
0.748202
0.752725
0.756428
0.759283
0.761268
0.762365
0.762565
0.761858
0.760243
0.757722
0.754302
0.749992
0.74481
0.738778
0.731923
0.724283
0.715899
0.706826
0.697127
0.686877
0.676164
0.66509
0.653777
0.642366
0.631022
0.619946
0.608136
0.591834
0.571718
0.551088
0.536071
0.527167
0.524045
0.526689
0.535292
0.549438
0.561645
0.569921
0.573626
0.577447
0.581388
0.585289
0.589034
0.592541
0.595754
0.598642
0.601196
0.603427
0.60536
0.60703
0.608479
0.609742
0.610845
0.611791
0.612558
0.613122
0.613493
0.613739
0.613958
0.614243
0.614661
0.615258
0.616058
0.617067
0.618267
0.619616
0.621036
0.622437
0.623739
0.624928
0.62603
0.62707
0.62805
0.628949
0.629733
0.630363
0.630805
0.631032
0.644182
0.644223
0.644301
0.644405
0.644514
0.644592
0.644587
0.644447
0.644145
0.643703
0.643178
0.642625
0.642089
0.641604
0.641195
0.640892
0.640731
0.640764
0.64106
0.641713
0.642834
0.644554
0.646994
0.650185
0.654148
0.658553
0.6632
0.668266
0.674016
0.680379
0.687356
0.694821
0.702631
0.710636
0.718695
0.726676
0.734462
0.741946
0.749033
0.755643
0.761702
0.767151
0.771936
0.776014
0.779349
0.781913
0.783683
0.784641
0.784775
0.784079
0.782551
0.780193
0.777011
0.773018
0.768231
0.762674
0.756375
0.749372
0.741708
0.733437
0.724622
0.715336
0.705665
0.695709
0.685582
0.675418
0.665372
0.655624
0.646386
0.637835
0.627201
0.615247
0.603776
0.595361
0.591925
0.593583
0.598247
0.603393
0.606922
0.608654
0.611075
0.613916
0.616977
0.620105
0.623185
0.626134
0.628891
0.631419
0.633703
0.635738
0.637538
0.639121
0.640511
0.641732
0.642799
0.643719
0.64449
0.64511
0.6456
0.646005
0.646386
0.646804
0.647311
0.647941
0.648714
0.649633
0.650684
0.651835
0.653036
0.654232
0.655376
0.656448
0.657449
0.658382
0.659243
0.660017
0.660679
0.661205
0.661571
0.661759
0.677342
0.677371
0.677424
0.677492
0.677557
0.677594
0.677573
0.677468
0.677268
0.676986
0.676655
0.676313
0.675995
0.675734
0.675561
0.675508
0.675613
0.675927
0.676508
0.677431
0.678777
0.68063
0.683059
0.686085
0.689685
0.693741
0.698175
0.703032
0.708394
0.714251
0.720574
0.72728
0.734266
0.741414
0.748611
0.755744
0.762711
0.769416
0.775776
0.781715
0.787165
0.792068
0.796376
0.800046
0.803043
0.805338
0.806909
0.807739
0.807816
0.807134
0.805689
0.803486
0.800531
0.796838
0.792423
0.787311
0.781532
0.775121
0.768124
0.760592
0.752587
0.744179
0.735452
0.726497
0.717424
0.708353
0.699424
0.690793
0.682634
0.675137
0.668516
0.662789
0.656637
0.651189
0.64779
0.646604
0.646301
0.645422
0.645508
0.646481
0.648103
0.650165
0.652499
0.654969
0.657469
0.659917
0.662256
0.664443
0.666457
0.668286
0.669932
0.671403
0.672713
0.673875
0.674901
0.675797
0.67657
0.677229
0.677792
0.678294
0.678775
0.679278
0.679837
0.680481
0.681224
0.682067
0.683002
0.684004
0.685042
0.686079
0.687085
0.688041
0.688937
0.689767
0.690524
0.691195
0.691763
0.692208
0.692516
0.692674
0.710473
0.710494
0.710533
0.710581
0.710627
0.710653
0.710643
0.710584
0.710473
0.710318
0.710143
0.709975
0.709843
0.709777
0.709806
0.709965
0.710289
0.710822
0.711615
0.712725
0.714212
0.716132
0.718526
0.72141
0.724768
0.728551
0.732725
0.737294
0.742276
0.747659
0.753408
0.759461
0.765737
0.772145
0.77859
0.784978
0.79122
0.797233
0.802941
0.808275
0.813173
0.817582
0.821454
0.824751
0.827437
0.829486
0.830876
0.83159
0.831617
0.830949
0.829587
0.827531
0.824791
0.821378
0.817312
0.812616
0.807319
0.801457
0.795074
0.788221
0.780954
0.773343
0.765465
0.757405
0.749262
0.741146
0.733178
0.72549
0.718221
0.711513
0.705499
0.700253
0.695818
0.692155
0.689028
0.686398
0.684509
0.683452
0.683199
0.683659
0.68469
0.686143
0.687885
0.689803
0.691803
0.693811
0.695771
0.697641
0.699395
0.701017
0.7025
0.703847
0.705063
0.706155
0.707131
0.707998
0.708765
0.709442
0.710047
0.710605
0.711144
0.711693
0.71228
0.712922
0.713632
0.714411
0.715251
0.716138
0.717048
0.717958
0.718845
0.719693
0.720489
0.721226
0.721892
0.722477
0.722967
0.723349
0.723612
0.723746
0.743582
0.7436
0.743632
0.743674
0.743716
0.743748
0.743763
0.743753
0.74372
0.743672
0.743625
0.743601
0.743625
0.743724
0.743924
0.744256
0.744755
0.745457
0.746405
0.747642
0.749214
0.751158
0.753504
0.756262
0.759425
0.762971
0.76688
0.771144
0.775757
0.7807
0.785937
0.791418
0.797077
0.802839
0.808625
0.814357
0.819958
0.825355
0.83048
0.83527
0.839671
0.843631
0.847109
0.850066
0.852469
0.854294
0.855519
0.856129
0.856111
0.855461
0.854176
0.852261
0.849722
0.846573
0.842831
0.838521
0.833671
0.828315
0.822496
0.816261
0.809667
0.802775
0.795658
0.788395
0.781074
0.773792
0.766653
0.759767
0.753245
0.747197
0.741715
0.736861
0.732661
0.729096
0.726094
0.723646
0.721827
0.720676
0.720177
0.720268
0.720854
0.721831
0.723095
0.724555
0.72613
0.727754
0.729376
0.730956
0.732465
0.733885
0.735206
0.736423
0.737537
0.738551
0.73947
0.7403
0.741049
0.741727
0.74235
0.742934
0.743501
0.744072
0.744666
0.745297
0.745972
0.746693
0.747455
0.748247
0.749054
0.749858
0.750644
0.751396
0.752102
0.752754
0.753341
0.753853
0.75428
0.75461
0.754836
0.754951
0.776674
0.776691
0.776723
0.776765
0.776814
0.776862
0.776907
0.776946
0.776982
0.777023
0.777083
0.77718
0.777334
0.777569
0.777909
0.778382
0.779017
0.779846
0.780904
0.782225
0.783842
0.785784
0.78807
0.790709
0.793698
0.797026
0.80068
0.804645
0.808908
0.813445
0.818224
0.823198
0.828313
0.833508
0.838715
0.843868
0.848901
0.853749
0.858352
0.862656
0.866608
0.870165
0.873285
0.875933
0.87808
0.879702
0.880778
0.881294
0.881238
0.880607
0.879397
0.877613
0.875263
0.87236
0.86892
0.864966
0.860527
0.855637
0.850333
0.844662
0.838676
0.832433
0.825998
0.819443
0.812848
0.806295
0.799875
0.793678
0.787797
0.782314
0.777303
0.772813
0.76887
0.765474
0.762606
0.760266
0.758477
0.757249
0.756566
0.756381
0.756629
0.757232
0.758111
0.759191
0.760406
0.761699
0.763023
0.764341
0.765624
0.766853
0.768014
0.769101
0.77011
0.771042
0.771898
0.772683
0.773404
0.774069
0.77469
0.77528
0.775854
0.776429
0.777016
0.777626
0.778265
0.778934
0.779629
0.780342
0.781063
0.781778
0.782476
0.783144
0.783771
0.784348
0.784865
0.785315
0.785688
0.785976
0.786172
0.786271
0.80975
0.809768
0.809802
0.809851
0.809911
0.80998
0.810057
0.810141
0.810239
0.810356
0.810505
0.810701
0.810962
0.811308
0.811761
0.812345
0.813085
0.814007
0.815141
0.816512
0.818147
0.820065
0.822283
0.824805
0.827633
0.830757
0.834167
0.837849
0.841785
0.84595
0.850314
0.854837
0.859471
0.864164
0.868859
0.8735
0.878027
0.882387
0.886525
0.890392
0.893942
0.897134
0.899931
0.902301
0.904217
0.905655
0.906597
0.90703
0.906942
0.90633
0.905192
0.903532
0.901358
0.898682
0.895521
0.891897
0.887836
0.883371
0.878537
0.873378
0.867942
0.862282
0.856457
0.850533
0.844578
0.838666
0.832872
0.827275
0.821949
0.816961
0.81237
0.808218
0.804533
0.801324
0.79859
0.796336
0.794565
0.793278
0.792455
0.792062
0.792048
0.792356
0.792924
0.793692
0.794605
0.795613
0.796677
0.79776
0.798837
0.799888
0.800898
0.801858
0.802762
0.803608
0.804397
0.805131
0.805815
0.806455
0.807061
0.807641
0.808208
0.808772
0.809343
0.809927
0.810528
0.811148
0.811784
0.81243
0.813077
0.813717
0.814338
0.814932
0.815489
0.816
0.816458
0.816854
0.817181
0.817433
0.817604
0.817691
0.842807
0.842827
0.842867
0.842925
0.842999
0.84309
0.843198
0.843325
0.843475
0.843657
0.84388
0.844157
0.844505
0.844941
0.845483
0.846152
0.846969
0.847958
0.84914
0.850536
0.852167
0.854048
0.85619
0.858597
0.86127
0.864202
0.867383
0.870799
0.874431
0.878257
0.882246
0.886364
0.89057
0.894817
0.899058
0.903243
0.907322
0.911246
0.914969
0.918445
0.921634
0.924499
0.927005
0.929125
0.930831
0.932104
0.932926
0.933285
0.933171
0.932579
0.93151
0.929966
0.927955
0.92549
0.922586
0.919265
0.91555
0.911473
0.907067
0.902372
0.897432
0.892295
0.887017
0.881653
0.876265
0.870917
0.865674
0.860602
0.855762
0.85121
0.846997
0.843158
0.83972
0.836697
0.834096
0.83192
0.830171
0.828841
0.827915
0.827363
0.827147
0.827221
0.827538
0.828048
0.828707
0.829473
0.83031
0.831186
0.832078
0.832964
0.833832
0.834669
0.83547
0.836231
0.83695
0.837628
0.838269
0.838876
0.839456
0.840017
0.840565
0.841109
0.841656
0.842209
0.842773
0.843347
0.843929
0.844516
0.845099
0.845673
0.846228
0.846757
0.847253
0.847707
0.848112
0.848461
0.84875
0.848971
0.849121
0.849197
0.875845
0.875868
0.875913
0.875981
0.876071
0.876184
0.876321
0.876485
0.876681
0.876916
0.8772
0.877543
0.877961
0.878466
0.879077
0.87981
0.880683
0.881715
0.882924
0.884326
0.885938
0.88777
0.889831
0.892124
0.894648
0.897398
0.900364
0.903532
0.906885
0.9104
0.91405
0.917804
0.921626
0.925477
0.929313
0.933093
0.936772
0.940308
0.943659
0.946785
0.94965
0.952221
0.954466
0.95636
0.957879
0.959004
0.959719
0.960013
0.959876
0.959306
0.958301
0.956866
0.955007
0.952736
0.950069
0.947025
0.943627
0.939903
0.935885
0.93161
0.927118
0.922452
0.917661
0.912797
0.907912
0.903063
0.898306
0.893696
0.889285
0.885123
0.881249
0.877697
0.874491
0.871647
0.869175
0.867079
0.865357
0.864002
0.863
0.862328
0.861954
0.861843
0.861957
0.862256
0.862703
0.863262
0.863903
0.864597
0.865322
0.86606
0.866795
0.867518
0.86822
0.868896
0.869544
0.870164
0.870756
0.871324
0.871872
0.872404
0.872927
0.873444
0.873961
0.874482
0.875007
0.875538
0.876071
0.876604
0.877131
0.877647
0.878144
0.878617
0.879058
0.879462
0.879821
0.88013
0.880385
0.88058
0.880712
0.880779
0.90886
0.908886
0.908938
0.909016
0.90912
0.909253
0.909416
0.909612
0.909847
0.910126
0.910459
0.910856
0.911328
0.911888
0.912549
0.913328
0.914238
0.915295
0.916514
0.917907
0.919487
0.921263
0.923239
0.925419
0.927801
0.930378
0.933143
0.936081
0.939176
0.942407
0.94575
0.949177
0.952655
0.95615
0.959626
0.963043
0.966366
0.969554
0.972573
0.975386
0.977961
0.980268
0.982279
0.983971
0.985322
0.986314
0.986934
0.98717
0.987016
0.986467
0.985524
0.984189
0.982471
0.980379
0.977929
0.975138
0.972029
0.968627
0.964962
0.961066
0.956976
0.952733
0.94838
0.943961
0.939524
0.935117
0.93079
0.92659
0.922562
0.918746
0.915179
0.911889
0.9089
0.906227
0.90388
0.901863
0.900175
0.898811
0.897756
0.896994
0.896498
0.896241
0.896191
0.896317
0.896586
0.896971
0.897442
0.897977
0.898555
0.899157
0.899772
0.900387
0.900994
0.901589
0.902167
0.902726
0.903268
0.903792
0.904303
0.904802
0.905292
0.905779
0.906264
0.90675
0.907237
0.907726
0.908214
0.908698
0.909175
0.909639
0.910085
0.910508
0.910902
0.911261
0.91158
0.911854
0.91208
0.912252
0.912369
0.912428
0.941849
0.941878
0.941936
0.942023
0.942142
0.942292
0.942478
0.942701
0.942968
0.943284
0.943656
0.944094
0.944607
0.945207
0.945905
0.946714
0.947646
0.948714
0.949929
0.951302
0.952841
0.954554
0.956445
0.958513
0.960758
0.963172
0.965748
0.968472
0.97133
0.974303
0.977367
0.980497
0.983666
0.986843
0.989995
0.99309
0.996093
0.998971
1.00169
1.00422
1.00654
1.00861
1.01041
1.01192
1.01312
1.014
1.01453
1.01472
1.01455
1.01402
1.01314
1.0119
1.01031
1.00838
1.00613
1.00357
1.00072
0.997614
0.994268
0.990715
0.986989
0.983126
0.979163
0.975142
0.971104
0.967092
0.963148
0.959313
0.955625
0.952121
0.948831
0.945782
0.942993
0.940481
0.938254
0.936317
0.93467
0.933309
0.932221
0.931392
0.930803
0.930431
0.930249
0.930233
0.930355
0.930592
0.930918
0.931314
0.931761
0.932244
0.932748
0.933263
0.933782
0.934298
0.934807
0.935307
0.935796
0.936275
0.936745
0.937207
0.937663
0.938115
0.938566
0.939016
0.939466
0.939914
0.940359
0.940799
0.94123
0.941649
0.942049
0.942428
0.94278
0.9431
0.943384
0.943627
0.943827
0.94398
0.944083
0.944135
0.974809
0.974841
0.974904
0.975001
0.975131
0.975297
0.975502
0.975747
0.97604
0.976384
0.976787
0.977256
0.9778
0.978428
0.97915
0.979977
0.980919
0.981985
0.983186
0.98453
0.986022
0.987669
0.989472
0.991431
0.993544
0.995804
0.998204
1.00073
1.00337
1.00611
1.00892
1.01178
1.01467
1.01756
1.02042
1.02323
1.02594
1.02854
1.031
1.03328
1.03536
1.03722
1.03884
1.04018
1.04125
1.04202
1.04248
1.04262
1.04244
1.04194
1.04111
1.03995
1.03848
1.03671
1.03464
1.03229
1.02968
1.02684
1.02378
1.02054
1.01714
1.01362
1.01001
1.00634
1.00266
0.998999
0.995397
0.991888
0.988506
0.985282
0.982244
0.979414
0.976811
0.974449
0.972337
0.970481
0.968881
0.967532
0.966426
0.965552
0.964892
0.96443
0.964143
0.964011
0.964011
0.964122
0.964325
0.964601
0.964933
0.965307
0.965712
0.966136
0.966573
0.967015
0.967458
0.967899
0.968335
0.968767
0.969195
0.969617
0.970037
0.970454
0.970869
0.971283
0.971695
0.972105
0.972511
0.97291
0.973299
0.973676
0.974036
0.974375
0.974689
0.974975
0.975228
0.975444
0.975622
0.975757
0.975849
0.975895
1.00774
1.00777
1.00784
1.00794
1.00808
1.00826
1.00848
1.00875
1.00906
1.00943
1.00985
1.01034
1.01091
1.01155
1.01229
1.01313
1.01407
1.01512
1.0163
1.01761
1.01905
1.02063
1.02234
1.0242
1.02618
1.0283
1.03053
1.03288
1.03532
1.03783
1.04041
1.04303
1.04567
1.04831
1.05091
1.05345
1.05591
1.05826
1.06048
1.06254
1.06441
1.06608
1.06752
1.06873
1.06967
1.07035
1.07074
1.07085
1.07066
1.07018
1.0694
1.06832
1.06696
1.06533
1.06342
1.06127
1.05888
1.05628
1.05348
1.05052
1.04741
1.0442
1.0409
1.03756
1.03419
1.03085
1.02755
1.02434
1.02123
1.01826
1.01545
1.01282
1.01039
1.00817
1.00617
1.00439
1.00284
1.00151
1.0004
0.999496
0.998785
0.998253
0.997882
0.997656
0.997555
0.997561
0.997659
0.99783
0.998062
0.998341
0.998656
0.998998
0.999358
0.99973
1.00011
1.00049
1.00088
1.00126
1.00165
1.00203
1.00241
1.00279
1.00317
1.00355
1.00393
1.0043
1.00467
1.00503
1.00538
1.00572
1.00604
1.00635
1.00663
1.00688
1.00711
1.0073
1.00746
1.00758
1.00766
1.0077
1.04063
1.04067
1.04074
1.04085
1.041
1.04119
1.04142
1.0417
1.04203
1.04241
1.04285
1.04336
1.04393
1.04459
1.04533
1.04617
1.0471
1.04814
1.04929
1.05055
1.05194
1.05345
1.05508
1.05683
1.05869
1.06067
1.06275
1.06493
1.06718
1.0695
1.07187
1.07427
1.07668
1.07908
1.08145
1.08376
1.08599
1.08812
1.09012
1.09198
1.09366
1.09516
1.09646
1.09753
1.09837
1.09896
1.0993
1.09937
1.09917
1.09871
1.09798
1.09698
1.09572
1.09421
1.09246
1.09048
1.08829