/*--------------------------------*- C++ -*----------------------------------*\
| =========                 |                                                 |
| \\      /  F ield         | OpenFOAM: The Open Source CFD Toolbox           |
|  \\    /   O peration     | Version:  2406                                  |
|   \\  /    A nd           | Website:  www.openfoam.com                      |
|    \\/     M anipulation  |                                                 |
\*---------------------------------------------------------------------------*/
FoamFile
{
    version     2.0;
    format      ascii;
    arch        "LSB;label=32;scalar=64";
    class       volScalarField;
    location    "9.3";
    object      Da;
}
// * * * * * * * * * * * * * * * * * * * * * * * * * * * * * * * * * * * * * //

dimensions      [0 2 -1 0 0 0 0];

internalField   nonuniform List<scalar> 
14400
(
5.12584e-05
5.12589e-05
5.12684e-05
5.1292e-05
5.13271e-05
5.13651e-05
5.13964e-05
5.14139e-05
5.14158e-05
5.1406e-05
5.13945e-05
5.13941e-05
5.14162e-05
5.14634e-05
5.15214e-05
5.15581e-05
5.15485e-05
5.1513e-05
5.14686e-05
5.14086e-05
5.13081e-05
5.11342e-05
5.08555e-05
5.0448e-05
4.99028e-05
4.92323e-05
4.84743e-05
4.76876e-05
4.69362e-05
4.62698e-05
4.57143e-05
4.52764e-05
4.49549e-05
4.47506e-05
4.46783e-05
4.47877e-05
4.52453e-05
4.68397e-05
5.60708e-05
7.79627e-05
7.8e-05
7.8e-05
7.8e-05
7.8e-05
7.8e-05
7.8e-05
7.8e-05
7.8e-05
7.8e-05
7.8e-05
7.8e-05
7.8e-05
7.8e-05
7.8e-05
7.8e-05
7.8e-05
7.8e-05
7.8e-05
7.78052e-05
5.29331e-05
4.66902e-05
4.54253e-05
4.50833e-05
4.50763e-05
4.52731e-05
4.5642e-05
4.61862e-05
4.69212e-05
4.78542e-05
4.89563e-05
5.01423e-05
5.12909e-05
5.22953e-05
5.30906e-05
5.36481e-05
5.39613e-05
5.40376e-05
5.38929e-05
5.35522e-05
5.30525e-05
5.24477e-05
5.1812e-05
5.12411e-05
5.08587e-05
5.08646e-05
5.18165e-05
5.67458e-05
7.75271e-05
6.04046e-05
5.15319e-05
4.97548e-05
4.92299e-05
4.91231e-05
4.9221e-05
4.94339e-05
4.97089e-05
5.00087e-05
5.03049e-05
5.05762e-05
5.0807e-05
5.09861e-05
5.11045e-05
5.11544e-05
5.11294e-05
5.10261e-05
5.08457e-05
5.05929e-05
5.0275e-05
4.99022e-05
4.94892e-05
4.90569e-05
4.86316e-05
4.82444e-05
4.79292e-05
4.77246e-05
4.76847e-05
4.79154e-05
4.87194e-05
5.16225e-05
7.37562e-05
5.0845e-05
5.08144e-05
5.07796e-05
5.07599e-05
5.07593e-05
5.07718e-05
5.07882e-05
5.08016e-05
5.081e-05
5.08177e-05
5.08348e-05
5.08753e-05
5.09521e-05
5.10669e-05
5.11941e-05
5.12679e-05
5.12218e-05
5.11254e-05
5.10273e-05
5.09288e-05
5.08042e-05
5.06192e-05
5.03415e-05
4.99486e-05
4.94332e-05
4.8809e-05
4.81119e-05
4.73944e-05
4.67114e-05
4.6105e-05
4.55978e-05
4.51973e-05
4.4905e-05
4.47254e-05
4.46769e-05
4.48171e-05
4.53394e-05
4.72627e-05
6.10503e-05
7.79967e-05
7.8e-05
7.8e-05
7.8e-05
7.8e-05
7.8e-05
7.8e-05
7.8e-05
7.8e-05
7.8e-05
7.8e-05
7.8e-05
7.8e-05
7.8e-05
7.8e-05
7.8e-05
7.8e-05
7.8e-05
7.8e-05
7.79753e-05
5.71422e-05
4.71053e-05
4.55065e-05
4.50983e-05
4.50592e-05
4.52285e-05
4.55657e-05
4.60686e-05
4.67482e-05
4.76107e-05
4.86333e-05
4.97459e-05
5.0841e-05
5.18134e-05
5.25917e-05
5.31409e-05
5.34507e-05
5.35263e-05
5.33837e-05
5.30495e-05
5.25638e-05
5.19839e-05
5.13862e-05
5.08665e-05
5.05492e-05
5.06531e-05
5.1912e-05
5.93211e-05
7.79014e-05
6.525e-05
5.1818e-05
4.96501e-05
4.90176e-05
4.88405e-05
4.88774e-05
4.90336e-05
4.92571e-05
4.95131e-05
4.97759e-05
5.00261e-05
5.02482e-05
5.04291e-05
5.05555e-05
5.06142e-05
5.05933e-05
5.0488e-05
5.03027e-05
5.00484e-05
4.97382e-05
4.93857e-05
4.90066e-05
4.86198e-05
4.82484e-05
4.79194e-05
4.76632e-05
4.75182e-05
4.75448e-05
4.78737e-05
4.89149e-05
5.27549e-05
7.67482e-05
5.01736e-05
5.00705e-05
4.99421e-05
4.98383e-05
4.97722e-05
4.97389e-05
4.97284e-05
4.97336e-05
4.97523e-05
4.97889e-05
4.98548e-05
4.99674e-05
5.01461e-05
5.03998e-05
5.06913e-05
5.087e-05
5.07068e-05
5.0458e-05
5.02426e-05
5.00652e-05
4.98933e-05
4.96881e-05
4.94164e-05
4.90568e-05
4.86036e-05
4.80693e-05
4.74835e-05
4.68869e-05
4.63205e-05
4.58157e-05
4.53913e-05
4.50565e-05
4.48173e-05
4.46844e-05
4.46847e-05
4.48916e-05
4.55505e-05
4.80167e-05
6.97478e-05
7.8e-05
7.8e-05
7.8e-05
7.8e-05
7.8e-05
7.8e-05
7.8e-05
7.8e-05
7.8e-05
7.8e-05
7.8e-05
7.8e-05
7.8e-05
7.8e-05
7.8e-05
7.8e-05
7.8e-05
7.8e-05
7.8e-05
7.79997e-05
6.54595e-05
4.78062e-05
4.56659e-05
4.5137e-05
4.50346e-05
4.51503e-05
4.54282e-05
4.58564e-05
4.64379e-05
4.7175e-05
4.80521e-05
4.90201e-05
4.99968e-05
5.08888e-05
5.16198e-05
5.21438e-05
5.24425e-05
5.25173e-05
5.2384e-05
5.20723e-05
5.16275e-05
5.11114e-05
5.06015e-05
5.01906e-05
5.00018e-05
5.02812e-05
5.20683e-05
6.4777e-05
7.79956e-05
7.26911e-05
5.23894e-05
4.95527e-05
4.86908e-05
4.83763e-05
4.83038e-05
4.83626e-05
4.84982e-05
4.8678e-05
4.88803e-05
4.90889e-05
4.92902e-05
4.94692e-05
4.96073e-05
4.96813e-05
4.96691e-05
4.95624e-05
4.93724e-05
4.91219e-05
4.88328e-05
4.85224e-05
4.82058e-05
4.78979e-05
4.76163e-05
4.73823e-05
4.72228e-05
4.71776e-05
4.73213e-05
4.78477e-05
4.96048e-05
5.99294e-05
7.7977e-05
4.95176e-05
4.92719e-05
4.89958e-05
4.87794e-05
4.86339e-05
4.85475e-05
4.85061e-05
4.85008e-05
4.85293e-05
4.85964e-05
4.87153e-05
4.89101e-05
4.92172e-05
4.96818e-05
5.03075e-05
5.08121e-05
5.02616e-05
4.96996e-05
4.92968e-05
4.90093e-05
4.87767e-05
4.85496e-05
4.8292e-05
4.79821e-05
4.76131e-05
4.71925e-05
4.67404e-05
4.6284e-05
4.58505e-05
4.54625e-05
4.51359e-05
4.48819e-05
4.47121e-05
4.46453e-05
4.47238e-05
4.50613e-05
4.60777e-05
5.03188e-05
7.73551e-05
7.8e-05
7.8e-05
7.8e-05
7.8e-05
7.8e-05
7.8e-05
7.8e-05
7.8e-05
7.8e-05
7.8e-05
7.8e-05
7.8e-05
7.8e-05
7.8e-05
7.8e-05
7.8e-05
7.8e-05
7.8e-05
7.8e-05
7.8e-05
7.47711e-05
4.89341e-05
4.59984e-05
4.52366e-05
4.50238e-05
4.50583e-05
4.52551e-05
4.55871e-05
4.60469e-05
4.66305e-05
4.73251e-05
4.80983e-05
4.88944e-05
4.96429e-05
5.02757e-05
5.07418e-05
5.10145e-05
5.10894e-05
5.09815e-05
5.07233e-05
5.0363e-05
4.9963e-05
4.95964e-05
4.935e-05
4.93505e-05
4.98889e-05
5.23202e-05
7.17247e-05
7.8e-05
7.78122e-05
5.63064e-05
4.98663e-05
4.8416e-05
4.78796e-05
4.76653e-05
4.76106e-05
4.7648e-05
4.77433e-05
4.78765e-05
4.80349e-05
4.82073e-05
4.83795e-05
4.85293e-05
4.86232e-05
4.86239e-05
4.85176e-05
4.83251e-05
4.80844e-05
4.78259e-05
4.75683e-05
4.73238e-05
4.71032e-05
4.69191e-05
4.67884e-05
4.67372e-05
4.68109e-05
4.71082e-05
4.79189e-05
5.06576e-05
7.14077e-05
7.8e-05
4.92868e-05
4.87008e-05
4.81898e-05
4.78357e-05
4.76071e-05
4.74694e-05
4.73989e-05
4.73831e-05
4.74188e-05
4.75117e-05
4.76781e-05
4.79522e-05
4.84024e-05
4.91765e-05
5.06051e-05
5.30697e-05
5.03074e-05
4.90725e-05
4.84013e-05
4.79864e-05
4.76923e-05
4.74461e-05
4.72055e-05
4.69468e-05
4.66602e-05
4.63473e-05
4.60189e-05
4.56907e-05
4.538e-05
4.5103e-05
4.48734e-05
4.47049e-05
4.46145e-05
4.46324e-05
4.48281e-05
4.54193e-05
4.75917e-05
6.62912e-05
7.79998e-05
7.8e-05
7.8e-05
7.8e-05
7.8e-05
7.8e-05
7.8e-05
7.8e-05
7.8e-05
7.8e-05
7.8e-05
7.8e-05
7.8e-05
7.8e-05
7.8e-05
7.8e-05
7.8e-05
7.8e-05
7.8e-05
7.8e-05
7.8e-05
7.79905e-05
5.85728e-05
4.70947e-05
4.54842e-05
4.5059e-05
4.49774e-05
4.50754e-05
4.53012e-05
4.56344e-05
4.60631e-05
4.65736e-05
4.71423e-05
4.77325e-05
4.82968e-05
4.87853e-05
4.91559e-05
4.93822e-05
4.94573e-05
4.93938e-05
4.9222e-05
4.8986e-05
4.87406e-05
4.85508e-05
4.85021e-05
4.87513e-05
4.9769e-05
5.41132e-05
7.73337e-05
7.8e-05
7.8e-05
7.09148e-05
5.11071e-05
4.83737e-05
4.74903e-05
4.71054e-05
4.69362e-05
4.6884e-05
4.69056e-05
4.698e-05
4.70958e-05
4.72444e-05
4.74143e-05
4.75828e-05
4.77072e-05
4.77262e-05
4.76153e-05
4.74106e-05
4.71719e-05
4.69371e-05
4.67236e-05
4.65402e-05
4.63944e-05
4.62956e-05
4.62599e-05
4.63171e-05
4.65276e-05
4.70502e-05
4.85369e-05
5.60762e-05
7.79047e-05
7.8e-05
5.09687e-05
4.87387e-05
4.77211e-05
4.71626e-05
4.68334e-05
4.66409e-05
4.65411e-05
4.65145e-05
4.65558e-05
4.66724e-05
4.68866e-05
4.72502e-05
4.78904e-05
4.92331e-05
5.37416e-05
7.36666e-05
5.19491e-05
4.8823e-05
4.772e-05
4.71536e-05
4.67956e-05
4.65287e-05
4.62992e-05
4.60794e-05
4.58565e-05
4.56274e-05
4.53957e-05
4.51696e-05
4.49597e-05
4.47781e-05
4.46378e-05
4.45549e-05
4.45537e-05
4.46819e-05
4.506e-05
4.61409e-05
5.09364e-05
7.7605e-05
7.8e-05
7.8e-05
7.8e-05
7.8e-05
7.8e-05
7.8e-05
7.8e-05
7.8e-05
7.8e-05
7.8e-05
7.8e-05
7.8e-05
7.8e-05
7.8e-05
7.8e-05
7.8e-05
7.8e-05
7.8e-05
7.8e-05
7.8e-05
7.8e-05
7.8e-05
7.41663e-05
4.88339e-05
4.59402e-05
4.51782e-05
4.49361e-05
4.49183e-05
4.50344e-05
4.52475e-05
4.55373e-05
4.58871e-05
4.62775e-05
4.66829e-05
4.70726e-05
4.74144e-05
4.76805e-05
4.78529e-05
4.79272e-05
4.79136e-05
4.78359e-05
4.77288e-05
4.76372e-05
4.76203e-05
4.77734e-05
4.83255e-05
5.03551e-05
6.52072e-05
7.79985e-05
7.8e-05
7.8e-05
7.79554e-05
5.79758e-05
4.90509e-05
4.73534e-05
4.67259e-05
4.64328e-05
4.62984e-05
4.62596e-05
4.62904e-05
4.63793e-05
4.65202e-05
4.67062e-05
4.69191e-05
4.71084e-05
4.71603e-05
4.70214e-05
4.6767e-05
4.65002e-05
4.6266e-05
4.60755e-05
4.59332e-05
4.58437e-05
4.58157e-05
4.5868e-05
4.60428e-05
4.64366e-05
4.73471e-05
5.03486e-05
7.37574e-05
7.8e-05
7.8e-05
7.10723e-05
5.0771e-05
4.7846e-05
4.68516e-05
4.63576e-05
4.60885e-05
4.59515e-05
4.59116e-05
4.59595e-05
4.61058e-05
4.63869e-05
4.68937e-05
4.79043e-05
5.0865e-05
7.24039e-05
7.7996e-05
6.27694e-05
4.94629e-05
4.73579e-05
4.65736e-05
4.61347e-05
4.5837e-05
4.56066e-05
4.54094e-05
4.52288e-05
4.50576e-05
4.48953e-05
4.47453e-05
4.46146e-05
4.45133e-05
4.44551e-05
4.44609e-05
4.45687e-05
4.48648e-05
4.56203e-05
4.83152e-05
7.21307e-05
7.8e-05
7.8e-05
7.8e-05
7.8e-05
7.8e-05
7.8e-05
7.8e-05
7.8e-05
7.8e-05
7.8e-05
7.8e-05
7.8e-05
7.8e-05
7.8e-05
7.8e-05
7.8e-05
7.8e-05
7.8e-05
7.8e-05
7.8e-05
7.8e-05
7.8e-05
7.8e-05
7.79986e-05
6.22604e-05
4.74026e-05
4.55057e-05
4.49789e-05
4.48141e-05
4.48157e-05
4.49179e-05
4.50895e-05
4.53101e-05
4.55615e-05
4.58247e-05
4.60796e-05
4.63064e-05
4.64892e-05
4.66182e-05
4.66924e-05
4.67205e-05
4.67202e-05
4.6719e-05
4.6756e-05
4.68926e-05
4.72513e-05
4.81779e-05
5.13415e-05
7.5436e-05
7.8e-05
7.8e-05
7.8e-05
7.8e-05
7.63135e-05
5.12341e-05
4.76904e-05
4.66278e-05
4.61603e-05
4.59318e-05
4.5835e-05
4.58323e-05
4.59116e-05
4.60687e-05
4.63083e-05
4.66327e-05
4.7008e-05
4.71563e-05
4.68985e-05
4.64776e-05
4.61131e-05
4.58402e-05
4.56447e-05
4.55224e-05
4.5475e-05
4.5512e-05
4.56608e-05
4.60025e-05
4.67656e-05
4.90998e-05
6.52294e-05
7.79994e-05
7.8e-05
7.8e-05
7.79998e-05
6.73335e-05
4.96959e-05
4.71013e-05
4.62271e-05
4.58178e-05
4.5621e-05
4.55617e-05
4.56202e-05
4.58155e-05
4.62225e-05
4.70609e-05
4.9408e-05
6.40886e-05
7.79985e-05
7.8e-05
7.58365e-05
5.0821e-05
4.7395e-05
4.62758e-05
4.57095e-05
4.53587e-05
4.51115e-05
4.49206e-05
4.47636e-05
4.46302e-05
4.45164e-05
4.44232e-05
4.4356e-05
4.43251e-05
4.43485e-05
4.44582e-05
4.47251e-05
4.53613e-05
4.74417e-05
6.28933e-05
7.79991e-05
7.8e-05
7.8e-05
7.8e-05
7.8e-05
7.8e-05
7.8e-05
7.8e-05
7.8e-05
7.8e-05
7.8e-05
7.8e-05
7.8e-05
7.8e-05
7.8e-05
7.8e-05
7.8e-05
7.8e-05
7.8e-05
7.8e-05
7.8e-05
7.8e-05
7.8e-05
7.8e-05
7.8e-05
7.75675e-05
5.08522e-05
4.62251e-05
4.51719e-05
4.48004e-05
4.46715e-05
4.46662e-05
4.47357e-05
4.48537e-05
4.50011e-05
4.51621e-05
4.53222e-05
4.54697e-05
4.55956e-05
4.56959e-05
4.57719e-05
4.58313e-05
4.58894e-05
4.59707e-05
4.61157e-05
4.64021e-05
4.70357e-05
4.90116e-05
6.27476e-05
7.79969e-05
7.8e-05
7.8e-05
7.8e-05
7.8e-05
7.8e-05
7.2549e-05
5.00487e-05
4.71087e-05
4.62261e-05
4.58369e-05
4.56591e-05
4.56228e-05
4.57139e-05
4.59299e-05
4.63091e-05
4.69611e-05
4.82284e-05
4.90342e-05
4.79162e-05
4.67497e-05
4.60802e-05
4.56923e-05
4.5447e-05
4.53211e-05
4.53092e-05
4.54252e-05
4.5717e-05
4.64001e-05
4.83454e-05
5.89298e-05
7.79856e-05
7.8e-05
7.8e-05
7.8e-05
7.8e-05
7.79981e-05
6.329e-05
4.90218e-05
4.66633e-05
4.59004e-05
4.5582e-05
4.54876e-05
4.55669e-05
4.58615e-05
4.65869e-05
4.86184e-05
5.88871e-05
7.79821e-05
7.8e-05
7.8e-05
7.79997e-05
6.6398e-05
4.88334e-05
4.6389e-05
4.55319e-05
4.50798e-05
4.47922e-05
4.45905e-05
4.44419e-05
4.43313e-05
4.4252e-05
4.42039e-05
4.41925e-05
4.42316e-05
4.43506e-05
4.46098e-05
4.51774e-05
4.68125e-05
5.61156e-05
7.79754e-05
7.8e-05
7.8e-05
7.8e-05
7.8e-05
7.8e-05
7.8e-05
7.8e-05
7.8e-05
7.8e-05
7.8e-05
7.8e-05
7.8e-05
7.8e-05
7.8e-05
7.8e-05
7.8e-05
7.8e-05
7.8e-05
7.8e-05
7.8e-05
7.8e-05
7.8e-05
7.8e-05
7.8e-05
7.8e-05
7.8e-05
7.36177e-05
4.85617e-05
4.57436e-05
4.49553e-05
4.46383e-05
4.45109e-05
4.44833e-05
4.45149e-05
4.45822e-05
4.46688e-05
4.47633e-05
4.48575e-05
4.49467e-05
4.50298e-05
4.51098e-05
4.51949e-05
4.53003e-05
4.54534e-05
4.57057e-05
4.61715e-05
4.71969e-05
5.06433e-05
7.62495e-05
7.8e-05
7.8e-05
7.8e-05
7.8e-05
7.8e-05
7.8e-05
7.8e-05
7.07469e-05
4.9753e-05
4.70248e-05
4.62024e-05
4.58372e-05
4.574e-05
4.58942e-05
4.62914e-05
4.71164e-05
4.92973e-05
5.87879e-05
6.89939e-05
5.58935e-05
4.87978e-05
4.66965e-05
4.59743e-05
4.5558e-05
4.53866e-05
4.54173e-05
4.56871e-05
4.62993e-05
4.82691e-05
5.77595e-05
7.79656e-05
7.8e-05
7.8e-05
7.8e-05
7.8e-05
7.8e-05
7.8e-05
7.79974e-05
6.40082e-05
4.90637e-05
4.67076e-05
4.6036e-05
4.58572e-05
4.59891e-05
4.65489e-05
4.87029e-05
5.95651e-05
7.79741e-05
7.8e-05
7.8e-05
7.8e-05
7.8e-05
7.79373e-05
5.53385e-05
4.72826e-05
4.56699e-05
4.50156e-05
4.46464e-05
4.44101e-05
4.42541e-05
4.41548e-05
4.4102e-05
4.40951e-05
4.41425e-05
4.42672e-05
4.45322e-05
4.5091e-05
4.65487e-05
5.31216e-05
7.78789e-05
7.8e-05
7.8e-05
7.8e-05
7.8e-05
7.8e-05
7.8e-05
7.8e-05
7.8e-05
7.8e-05
7.8e-05
7.8e-05
7.8e-05
7.8e-05
7.8e-05
7.8e-05
7.8e-05
7.8e-05
7.8e-05
7.8e-05
7.8e-05
7.8e-05
7.8e-05
7.8e-05
7.8e-05
7.8e-05
7.8e-05
7.8e-05
7.79999e-05
6.70356e-05
4.78954e-05
4.55038e-05
4.47887e-05
4.44813e-05
4.43418e-05
4.42903e-05
4.42893e-05
4.43178e-05
4.4364e-05
4.44212e-05
4.44867e-05
4.4561e-05
4.46485e-05
4.47588e-05
4.49108e-05
4.51416e-05
4.55364e-05
4.63444e-05
4.88141e-05
6.77724e-05
7.79999e-05
7.8e-05
7.8e-05
7.8e-05
7.8e-05
7.8e-05
7.8e-05
7.8e-05
7.8e-05
7.36789e-05
5.1074e-05
4.81409e-05
4.6855e-05
4.65141e-05
4.70096e-05
4.83436e-05
5.16157e-05
7.17071e-05
7.79852e-05
7.79999e-05
7.79421e-05
6.7947e-05
4.9783e-05
4.76254e-05
4.63058e-05
4.59536e-05
4.60743e-05
4.69484e-05
4.89136e-05
6.24926e-05
7.79776e-05
7.8e-05
7.8e-05
7.8e-05
7.8e-05
7.8e-05
7.8e-05
7.8e-05
7.8e-05
7.79991e-05
7.08071e-05
5.06804e-05
4.82525e-05
4.76913e-05
4.80913e-05
4.97364e-05
6.73595e-05
7.79904e-05
7.8e-05
7.8e-05
7.8e-05
7.8e-05
7.8e-05
7.8e-05
7.7217e-05
5.04986e-05
4.64311e-05
4.52747e-05
4.47185e-05
4.43989e-05
4.42123e-05
4.41134e-05
4.4084e-05
4.41254e-05
4.42564e-05
4.45201e-05
4.51171e-05
4.6738e-05
5.34486e-05
7.78251e-05
7.8e-05
7.8e-05
7.8e-05
7.8e-05
7.8e-05
7.8e-05
7.8e-05
7.8e-05
7.8e-05
7.8e-05
7.8e-05
7.8e-05
7.8e-05
7.8e-05
7.8e-05
7.8e-05
7.8e-05
7.8e-05
7.8e-05
7.8e-05
7.8e-05
7.8e-05
7.8e-05
7.8e-05
7.8e-05
7.8e-05
7.8e-05
7.8e-05
7.8e-05
7.79987e-05
6.20844e-05
4.74681e-05
4.53307e-05
4.46461e-05
4.43375e-05
4.4187e-05
4.41166e-05
4.40924e-05
4.40984e-05
4.41273e-05
4.41769e-05
4.4249e-05
4.43497e-05
4.44917e-05
4.47014e-05
4.50381e-05
4.56731e-05
4.73614e-05
5.68106e-05
7.79717e-05
7.8e-05
7.8e-05
7.8e-05
7.8e-05
7.8e-05
7.8e-05
7.8e-05
7.8e-05
7.8e-05
7.8e-05
7.73125e-05
6.48125e-05
5.20672e-05
4.9744e-05
5.33555e-05
6.66638e-05
7.75184e-05
7.8e-05
7.8e-05
7.8e-05
7.8e-05
7.79999e-05
7.5969e-05
6.12571e-05
4.95967e-05
4.84242e-05
4.88326e-05
5.49707e-05
7.21681e-05
7.79983e-05
7.8e-05
7.8e-05
7.8e-05
7.8e-05
7.8e-05
7.8e-05
7.8e-05
7.8e-05
7.8e-05
7.8e-05
7.8e-05
7.72602e-05
6.81253e-05
6.167e-05
6.65125e-05
7.62186e-05
7.79999e-05
7.8e-05
7.8e-05
7.8e-05
7.8e-05
7.8e-05
7.8e-05
7.8e-05
7.8e-05
7.64056e-05
4.98904e-05
4.64251e-05
4.52082e-05
4.4646e-05
4.43767e-05
4.42629e-05
4.4261e-05
4.43834e-05
4.47016e-05
4.52929e-05
4.73224e-05
5.76165e-05
7.79126e-05
7.8e-05
7.8e-05
7.8e-05
7.8e-05
7.8e-05
7.8e-05
7.8e-05
7.8e-05
7.8e-05
7.8e-05
7.8e-05
7.8e-05
7.8e-05
7.8e-05
7.8e-05
7.8e-05
7.8e-05
7.8e-05
7.8e-05
7.8e-05
7.8e-05
7.8e-05
7.8e-05
7.8e-05
7.8e-05
7.8e-05
7.8e-05
7.8e-05
7.8e-05
7.8e-05
7.8e-05
7.79955e-05
6.00921e-05
4.73101e-05
4.52299e-05
4.45471e-05
4.42391e-05
4.40776e-05
4.3993e-05
4.39574e-05
4.39606e-05
4.39994e-05
4.40763e-05
4.42007e-05
4.43921e-05
4.46947e-05
4.52171e-05
4.63786e-05
5.075e-05
7.74188e-05
7.8e-05
7.8e-05
7.8e-05
7.8e-05
7.8e-05
7.8e-05
7.8e-05
7.8e-05
7.8e-05
7.8e-05
7.8e-05
7.8e-05
7.79994e-05
7.76634e-05
7.63497e-05
7.78315e-05
7.79998e-05
7.8e-05
7.8e-05
7.8e-05
7.8e-05
7.8e-05
7.8e-05
7.8e-05
7.79968e-05
7.6455e-05
7.20669e-05
7.4515e-05
7.79399e-05
7.8e-05
7.8e-05
7.8e-05
7.8e-05
7.8e-05
7.8e-05
7.8e-05
7.8e-05
7.8e-05
7.8e-05
7.8e-05
7.8e-05
7.8e-05
7.8e-05
7.79999e-05
7.79971e-05
7.79998e-05
7.8e-05
7.8e-05
7.8e-05
7.8e-05
7.8e-05
7.8e-05
7.8e-05
7.8e-05
7.8e-05
7.8e-05
7.8e-05
7.70051e-05
5.31403e-05
4.72738e-05
4.55042e-05
4.49756e-05
4.48122e-05
4.48601e-05
4.51902e-05
4.64013e-05
4.82977e-05
6.65443e-05
7.79902e-05
7.8e-05
7.8e-05
7.8e-05
7.8e-05
7.8e-05
7.8e-05
7.8e-05
7.8e-05
7.8e-05
7.8e-05
7.8e-05
7.8e-05
7.8e-05
7.8e-05
7.8e-05
7.8e-05
7.8e-05
7.8e-05
7.8e-05
7.8e-05
7.8e-05
7.8e-05
7.8e-05
7.8e-05
7.8e-05
7.8e-05
7.8e-05
7.8e-05
7.8e-05
7.8e-05
7.8e-05
7.8e-05
7.8e-05
7.79952e-05
6.14037e-05
4.74657e-05
4.52416e-05
4.45618e-05
4.4231e-05
4.40508e-05
4.39569e-05
4.39301e-05
4.3961e-05
4.4053e-05
4.42249e-05
4.45136e-05
4.50243e-05
4.6042e-05
4.93749e-05
7.61582e-05
7.8e-05
7.8e-05
7.8e-05
7.8e-05
7.8e-05
7.8e-05
7.8e-05
7.8e-05
7.8e-05
7.8e-05
7.8e-05
7.8e-05
7.8e-05
7.8e-05
7.8e-05
7.8e-05
7.8e-05
7.8e-05
7.8e-05
7.8e-05
7.8e-05
7.8e-05
7.8e-05
7.8e-05
7.8e-05
7.8e-05
7.8e-05
7.8e-05
7.8e-05
7.8e-05
7.8e-05
7.8e-05
7.8e-05
7.8e-05
7.8e-05
7.8e-05
7.8e-05
7.8e-05
7.8e-05
7.8e-05
7.8e-05
7.8e-05
7.8e-05
7.8e-05
7.8e-05
7.8e-05
7.8e-05
7.8e-05
7.8e-05
7.8e-05
7.8e-05
7.8e-05
7.8e-05
7.8e-05
7.8e-05
7.8e-05
7.8e-05
7.8e-05
7.8e-05
7.78973e-05
6.55818e-05
4.9051e-05
4.7342e-05
4.69765e-05
4.72043e-05
4.83201e-05
6.00928e-05
7.54119e-05
7.79999e-05
7.8e-05
7.8e-05
7.8e-05
7.8e-05
7.8e-05
7.8e-05
7.8e-05
7.8e-05
7.8e-05
7.8e-05
7.8e-05
7.8e-05
7.8e-05
7.8e-05
7.8e-05
7.8e-05
7.8e-05
7.8e-05
7.8e-05
7.8e-05
7.8e-05
7.8e-05
7.8e-05
7.8e-05
7.8e-05
7.8e-05
7.8e-05
7.8e-05
7.8e-05
7.8e-05
7.8e-05
7.8e-05
7.8e-05
7.8e-05
7.8e-05
7.79984e-05
6.63995e-05
4.79822e-05
4.56637e-05
4.4794e-05
4.4382e-05
4.4166e-05
4.40907e-05
4.41152e-05
4.42438e-05
4.45318e-05
4.50849e-05
4.64004e-05
4.98453e-05
7.60272e-05
7.8e-05
7.8e-05
7.8e-05
7.8e-05
7.8e-05
7.8e-05
7.8e-05
7.8e-05
7.8e-05
7.8e-05
7.8e-05
7.8e-05
7.8e-05
7.8e-05
7.8e-05
7.8e-05
7.8e-05
7.8e-05
7.8e-05
7.8e-05
7.8e-05
7.8e-05
7.8e-05
7.8e-05
7.8e-05
7.8e-05
7.8e-05
7.8e-05
7.8e-05
7.8e-05
7.8e-05
7.8e-05
7.8e-05
7.8e-05
7.8e-05
7.8e-05
7.8e-05
7.8e-05
7.8e-05
7.8e-05
7.8e-05
7.8e-05
7.8e-05
7.8e-05
7.8e-05
7.8e-05
7.8e-05
7.8e-05
7.8e-05
7.8e-05
7.8e-05
7.8e-05
7.8e-05
7.8e-05
7.8e-05
7.8e-05
7.8e-05
7.8e-05
7.8e-05
7.8e-05
7.8e-05
7.79998e-05
7.69144e-05
6.96537e-05
6.59674e-05
6.9407e-05
7.61857e-05
7.79973e-05
7.8e-05
7.8e-05
7.8e-05
7.8e-05
7.8e-05
7.8e-05
7.8e-05
7.8e-05
7.8e-05
7.8e-05
7.8e-05
7.8e-05
7.8e-05
7.8e-05
7.8e-05
7.8e-05
7.8e-05
7.8e-05
7.8e-05
7.8e-05
7.8e-05
7.8e-05
7.8e-05
7.8e-05
7.8e-05
7.8e-05
7.8e-05
7.8e-05
7.8e-05
7.8e-05
7.8e-05
7.8e-05
7.8e-05
7.8e-05
7.8e-05
7.8e-05
7.8e-05
7.8e-05
7.79999e-05
7.37334e-05
5.15005e-05
4.70178e-05
4.55073e-05
4.48411e-05
4.46553e-05
4.46726e-05
4.48984e-05
4.56204e-05
4.74326e-05
5.56266e-05
7.72861e-05
7.8e-05
7.8e-05
7.8e-05
7.8e-05
7.8e-05
7.8e-05
7.8e-05
7.8e-05
7.8e-05
7.8e-05
7.8e-05
7.8e-05
7.8e-05
7.8e-05
7.8e-05
7.8e-05
7.8e-05
7.8e-05
7.8e-05
7.8e-05
7.8e-05
7.8e-05
7.8e-05
7.8e-05
7.8e-05
7.8e-05
7.8e-05
7.8e-05
7.8e-05
7.8e-05
7.8e-05
7.8e-05
7.8e-05
7.8e-05
7.8e-05
7.8e-05
7.8e-05
7.8e-05
7.8e-05
7.8e-05
7.8e-05
7.8e-05
7.8e-05
7.8e-05
7.8e-05
7.8e-05
7.8e-05
7.8e-05
7.8e-05
7.8e-05
7.8e-05
7.8e-05
7.8e-05
7.8e-05
7.8e-05
7.8e-05
7.8e-05
7.8e-05
7.8e-05
7.8e-05
7.8e-05
7.8e-05
7.8e-05
7.8e-05
7.8e-05
7.79999e-05
7.8e-05
7.8e-05
7.8e-05
7.8e-05
7.8e-05
7.8e-05
7.8e-05
7.8e-05
7.8e-05
7.8e-05
7.8e-05
7.8e-05
7.8e-05
7.8e-05
7.8e-05
7.8e-05
7.8e-05
7.8e-05
7.8e-05
7.8e-05
7.8e-05
7.8e-05
7.8e-05
7.8e-05
7.8e-05
7.8e-05
7.8e-05
7.8e-05
7.8e-05
7.8e-05
7.8e-05
7.8e-05
7.8e-05
7.8e-05
7.8e-05
7.8e-05
7.8e-05
7.8e-05
7.8e-05
7.8e-05
7.8e-05
7.8e-05
7.8e-05
7.78322e-05
6.77098e-05
5.14293e-05
4.74312e-05
4.68835e-05
4.68781e-05
4.74463e-05
5.12612e-05
6.9053e-05
7.79747e-05
7.8e-05
7.8e-05
7.8e-05
7.8e-05
7.8e-05
7.8e-05
7.8e-05
7.8e-05
7.8e-05
7.8e-05
7.8e-05
7.8e-05
7.8e-05
7.8e-05
7.8e-05
7.8e-05
7.8e-05
7.8e-05
7.8e-05
7.8e-05
7.8e-05
7.8e-05
7.8e-05
7.8e-05
7.8e-05
7.8e-05
7.8e-05
7.8e-05
7.8e-05
7.8e-05
7.8e-05
7.8e-05
7.8e-05
7.8e-05
7.8e-05
7.8e-05
7.8e-05
7.8e-05
7.8e-05
7.8e-05
7.8e-05
7.8e-05
7.8e-05
7.8e-05
7.8e-05
7.8e-05
7.8e-05
7.8e-05
7.8e-05
7.8e-05
7.8e-05
7.8e-05
7.8e-05
7.8e-05
7.8e-05
7.8e-05
7.8e-05
7.8e-05
7.8e-05
7.8e-05
7.8e-05
7.8e-05
7.8e-05
7.8e-05
7.8e-05
7.8e-05
7.8e-05
7.8e-05
7.8e-05
7.8e-05
7.8e-05
7.8e-05
7.8e-05
7.8e-05
7.8e-05
7.8e-05
7.8e-05
7.8e-05
7.8e-05
7.8e-05
7.8e-05
7.8e-05
7.8e-05
7.8e-05
7.8e-05
7.8e-05
7.8e-05
7.8e-05
7.8e-05
7.8e-05
7.8e-05
7.8e-05
7.8e-05
7.8e-05
7.8e-05
7.8e-05
7.8e-05
7.8e-05
7.8e-05
7.8e-05
7.8e-05
7.8e-05
7.8e-05
7.8e-05
7.8e-05
7.8e-05
7.8e-05
7.8e-05
7.8e-05
7.8e-05
7.8e-05
7.8e-05
7.78335e-05
7.29961e-05
6.74487e-05
6.69636e-05
7.23426e-05
7.77993e-05
7.8e-05
7.8e-05
7.8e-05
7.8e-05
7.8e-05
7.8e-05
7.8e-05
7.8e-05
7.8e-05
7.8e-05
7.8e-05
7.8e-05
7.8e-05
7.8e-05
7.8e-05
7.8e-05
7.8e-05
7.8e-05
7.8e-05
7.8e-05
7.8e-05
7.8e-05
7.8e-05
7.8e-05
7.8e-05
7.8e-05
7.8e-05
7.8e-05
7.8e-05
7.8e-05
7.8e-05
7.8e-05
7.8e-05
7.8e-05
7.8e-05
7.8e-05
7.8e-05
7.8e-05
7.8e-05
7.8e-05
7.8e-05
7.8e-05
7.8e-05
7.8e-05
7.8e-05
7.8e-05
7.8e-05
7.8e-05
7.8e-05
7.8e-05
7.8e-05
7.8e-05
7.8e-05
7.8e-05
7.8e-05
7.8e-05
7.8e-05
7.8e-05
7.8e-05
7.8e-05
7.8e-05
7.8e-05
7.8e-05
7.8e-05
7.8e-05
7.8e-05
7.8e-05
7.8e-05
7.8e-05
7.8e-05
7.8e-05
7.8e-05
7.8e-05
7.8e-05
7.8e-05
7.8e-05
7.8e-05
7.8e-05
7.8e-05
7.8e-05
7.8e-05
7.8e-05
7.8e-05
7.8e-05
7.8e-05
7.8e-05
7.8e-05
7.8e-05
7.8e-05
7.8e-05
7.8e-05
7.8e-05
7.8e-05
7.8e-05
7.8e-05
7.8e-05
7.8e-05
7.8e-05
7.8e-05
7.8e-05
7.8e-05
7.8e-05
7.8e-05
7.8e-05
7.8e-05
7.8e-05
7.8e-05
7.8e-05
7.8e-05
7.8e-05
7.8e-05
7.8e-05
7.8e-05
7.8e-05
7.8e-05
7.8e-05
7.8e-05
7.79999e-05
7.8e-05
7.8e-05
7.8e-05
7.8e-05
7.8e-05
7.8e-05
7.8e-05
7.8e-05
7.8e-05
7.8e-05
7.8e-05
7.8e-05
7.8e-05
7.8e-05
7.8e-05
7.8e-05
7.8e-05
7.8e-05
7.8e-05
7.8e-05
7.8e-05
7.8e-05
7.8e-05
7.8e-05
7.8e-05
7.8e-05
7.8e-05
7.8e-05
7.8e-05
7.8e-05
7.8e-05
7.8e-05
7.8e-05
7.8e-05
7.8e-05
7.8e-05
7.8e-05
7.8e-05
7.8e-05
7.8e-05
7.8e-05
7.8e-05
7.8e-05
7.8e-05
7.8e-05
7.8e-05
7.8e-05
7.8e-05
7.8e-05
7.8e-05
7.8e-05
7.8e-05
7.8e-05
7.8e-05
7.8e-05
7.8e-05
7.8e-05
7.8e-05
7.8e-05
7.8e-05
7.8e-05
7.8e-05
7.8e-05
7.8e-05
7.8e-05
7.8e-05
7.8e-05
7.8e-05
7.8e-05
7.8e-05
7.8e-05
7.8e-05
7.8e-05
7.8e-05
7.8e-05
7.8e-05
7.8e-05
7.8e-05
7.8e-05
7.8e-05
7.8e-05
7.8e-05
7.8e-05
7.8e-05
7.8e-05
7.8e-05
7.8e-05
7.8e-05
7.8e-05
7.8e-05
7.8e-05
7.8e-05
7.8e-05
7.8e-05
7.8e-05
7.8e-05
7.8e-05
7.8e-05
7.8e-05
7.8e-05
7.8e-05
7.8e-05
7.8e-05
7.8e-05
7.8e-05
7.8e-05
7.8e-05
7.8e-05
7.8e-05
7.8e-05
7.8e-05
7.8e-05
7.8e-05
7.8e-05
7.8e-05
7.8e-05
7.8e-05
7.8e-05
7.8e-05
7.8e-05
7.8e-05
7.8e-05
7.8e-05
7.8e-05
7.8e-05
7.8e-05
7.8e-05
7.8e-05
7.8e-05
7.8e-05
7.8e-05
7.8e-05
7.8e-05
7.8e-05
7.8e-05
7.8e-05
7.8e-05
7.8e-05
7.8e-05
7.8e-05
7.8e-05
7.8e-05
7.8e-05
7.8e-05
7.8e-05
7.8e-05
7.8e-05
7.8e-05
7.8e-05
7.8e-05
7.8e-05
7.8e-05
7.8e-05
7.8e-05
7.8e-05
7.8e-05
7.8e-05
7.8e-05
7.8e-05
7.8e-05
7.8e-05
7.8e-05
7.8e-05
7.8e-05
7.8e-05
7.8e-05
7.8e-05
7.8e-05
7.8e-05
7.8e-05
7.8e-05
7.8e-05
7.8e-05
7.8e-05
7.8e-05
7.8e-05
7.8e-05
7.8e-05
7.8e-05
7.8e-05
7.8e-05
7.8e-05
7.8e-05
7.8e-05
7.8e-05
7.8e-05
7.8e-05
7.8e-05
7.8e-05
7.8e-05
7.8e-05
7.8e-05
7.8e-05
7.8e-05
7.8e-05
7.8e-05
7.8e-05
7.8e-05
7.8e-05
7.8e-05
7.8e-05
7.8e-05
7.8e-05
7.8e-05
7.8e-05
7.8e-05
7.8e-05
7.8e-05
7.8e-05
7.8e-05
7.8e-05
7.8e-05
7.8e-05
7.8e-05
7.8e-05
7.8e-05
7.8e-05
7.8e-05
7.8e-05
7.8e-05
7.8e-05
7.8e-05
7.8e-05
7.8e-05
7.8e-05
7.8e-05
7.8e-05
7.8e-05
7.8e-05
7.8e-05
7.8e-05
7.8e-05
7.8e-05
7.8e-05
7.8e-05
7.8e-05
7.8e-05
7.8e-05
7.8e-05
7.8e-05
7.8e-05
7.8e-05
7.8e-05
7.8e-05
7.8e-05
7.8e-05
7.8e-05
7.8e-05
7.8e-05
7.8e-05
7.8e-05
7.8e-05
7.8e-05
7.8e-05
7.8e-05
7.8e-05
7.8e-05
7.8e-05
7.8e-05
7.8e-05
7.8e-05
7.8e-05
7.8e-05
7.8e-05
7.8e-05
7.8e-05
7.8e-05
7.8e-05
7.8e-05
7.8e-05
7.8e-05
7.8e-05
7.8e-05
7.8e-05
7.8e-05
7.8e-05
7.8e-05
7.8e-05
7.8e-05
7.8e-05
7.8e-05
7.8e-05
7.8e-05
7.8e-05
7.8e-05
7.8e-05
7.8e-05
7.8e-05
7.8e-05
7.8e-05
7.8e-05
7.8e-05
7.8e-05
7.8e-05
7.8e-05
7.8e-05
7.8e-05
7.8e-05
7.8e-05
7.8e-05
7.8e-05
7.8e-05
7.8e-05
7.8e-05
7.8e-05
7.8e-05
7.8e-05
7.8e-05
7.8e-05
7.8e-05
7.8e-05
7.8e-05
7.8e-05
7.8e-05
7.8e-05
7.8e-05
7.8e-05
7.8e-05
7.8e-05
7.8e-05
7.8e-05
7.8e-05
7.8e-05
7.8e-05
7.8e-05
7.8e-05
7.8e-05
7.8e-05
7.8e-05
7.8e-05
7.8e-05
7.8e-05
7.8e-05
7.8e-05
7.8e-05
7.8e-05
7.8e-05
7.8e-05
7.8e-05
7.8e-05
7.8e-05
7.8e-05
7.8e-05
7.8e-05
7.8e-05
7.8e-05
7.8e-05
7.8e-05
7.8e-05
7.8e-05
7.8e-05
7.8e-05
7.8e-05
7.8e-05
7.8e-05
7.8e-05
7.8e-05
7.8e-05
7.8e-05
7.8e-05
7.8e-05
7.8e-05
7.8e-05
7.8e-05
7.8e-05
7.8e-05
7.8e-05
7.8e-05
7.8e-05
7.8e-05
7.8e-05
7.8e-05
7.8e-05
7.8e-05
7.8e-05
7.8e-05
7.8e-05
7.8e-05
7.8e-05
7.8e-05
7.8e-05
7.8e-05
7.8e-05
7.8e-05
7.8e-05
7.8e-05
7.8e-05
7.8e-05
7.8e-05
7.8e-05
7.8e-05
7.8e-05
7.8e-05
7.8e-05
7.8e-05
7.8e-05
7.8e-05
7.8e-05
7.8e-05
7.8e-05
7.8e-05
7.8e-05
7.8e-05
7.8e-05
7.8e-05
7.8e-05
7.8e-05
7.8e-05
7.8e-05
7.8e-05
7.8e-05
7.8e-05
7.8e-05
7.8e-05
7.8e-05
7.8e-05
7.8e-05
7.8e-05
7.8e-05
7.8e-05
7.8e-05
7.8e-05
7.8e-05
7.8e-05
7.8e-05
7.8e-05
7.8e-05
7.8e-05
7.8e-05
7.8e-05
7.8e-05
7.8e-05
7.8e-05
7.8e-05
7.8e-05
7.8e-05
7.8e-05
7.8e-05
7.8e-05
7.8e-05
7.8e-05
7.8e-05
7.8e-05
7.8e-05
7.8e-05
7.8e-05
7.8e-05
7.8e-05
7.8e-05
7.8e-05
7.8e-05
7.8e-05
7.8e-05
7.8e-05
7.8e-05
7.8e-05
7.8e-05
7.8e-05
7.8e-05
7.8e-05
7.8e-05
7.8e-05
7.8e-05
7.8e-05
7.8e-05
7.8e-05
7.8e-05
7.8e-05
7.8e-05
7.8e-05
7.8e-05
7.8e-05
7.8e-05
7.8e-05
7.8e-05
7.8e-05
7.8e-05
7.8e-05
7.8e-05
7.8e-05
7.8e-05
7.8e-05
7.8e-05
7.8e-05
7.8e-05
7.8e-05
7.8e-05
7.8e-05
7.8e-05
7.8e-05
7.8e-05
7.8e-05
7.8e-05
7.8e-05
7.8e-05
7.8e-05
7.8e-05
7.8e-05
7.8e-05
7.8e-05
7.8e-05
7.8e-05
7.8e-05
7.8e-05
7.8e-05
7.8e-05
7.8e-05
7.8e-05
7.8e-05
7.8e-05
7.8e-05
7.8e-05
7.8e-05
7.8e-05
7.8e-05
7.8e-05
7.8e-05
7.8e-05
7.8e-05
7.8e-05
7.8e-05
7.8e-05
7.8e-05
7.8e-05
7.8e-05
7.8e-05
7.8e-05
7.8e-05
7.8e-05
7.8e-05
7.8e-05
7.8e-05
7.8e-05
7.8e-05
7.8e-05
7.8e-05
7.8e-05
7.8e-05
7.8e-05
7.8e-05
7.8e-05
7.8e-05
7.8e-05
7.8e-05
7.8e-05
7.8e-05
7.8e-05
7.8e-05
7.8e-05
7.8e-05
7.8e-05
7.8e-05
7.8e-05
7.8e-05
7.8e-05
7.8e-05
7.8e-05
7.8e-05
7.8e-05
7.8e-05
7.8e-05
7.8e-05
7.8e-05
7.8e-05
7.8e-05
7.8e-05
7.8e-05
7.8e-05
7.8e-05
7.8e-05
7.8e-05
7.8e-05
7.8e-05
7.8e-05
7.8e-05
7.8e-05
7.8e-05
7.8e-05
7.8e-05
7.8e-05
7.8e-05
7.8e-05
7.8e-05
7.8e-05
7.8e-05
7.8e-05
7.8e-05
7.8e-05
7.8e-05
7.8e-05
7.8e-05
7.8e-05
7.8e-05
7.8e-05
7.8e-05
7.8e-05
7.8e-05
7.8e-05
7.8e-05
7.8e-05
7.8e-05
7.8e-05
7.8e-05
7.8e-05
7.8e-05
7.8e-05
7.8e-05
7.8e-05
7.8e-05
7.8e-05
7.8e-05
7.8e-05
7.8e-05
7.8e-05
7.8e-05
7.8e-05
7.8e-05
7.8e-05
7.8e-05
7.8e-05
7.8e-05
7.8e-05
7.8e-05
7.8e-05
7.8e-05
7.8e-05
7.8e-05
7.8e-05
7.8e-05
7.8e-05
7.8e-05
7.8e-05
7.8e-05
7.8e-05
7.8e-05
7.8e-05
7.8e-05
7.8e-05
7.8e-05
7.8e-05
7.8e-05
7.8e-05
7.8e-05
7.8e-05
7.8e-05
7.8e-05
7.8e-05
7.8e-05
7.8e-05
7.8e-05
7.8e-05
7.8e-05
7.8e-05
7.8e-05
7.8e-05
7.8e-05
7.8e-05
7.8e-05
7.8e-05
7.8e-05
7.8e-05
7.8e-05
7.8e-05
7.8e-05
7.8e-05
7.8e-05
7.8e-05
7.8e-05
7.8e-05
7.8e-05
7.8e-05
7.8e-05
7.8e-05
7.8e-05
7.8e-05
7.8e-05
7.8e-05
7.8e-05
7.8e-05
7.8e-05
7.8e-05
7.8e-05
7.8e-05
7.8e-05
7.8e-05
7.8e-05
7.8e-05
7.8e-05
7.8e-05
7.8e-05
7.8e-05
7.8e-05
7.8e-05
7.8e-05
7.8e-05
7.8e-05
7.8e-05
7.8e-05
7.8e-05
7.8e-05
7.8e-05
7.8e-05
7.8e-05
7.8e-05
7.8e-05
7.8e-05
7.8e-05
7.8e-05
7.8e-05
7.8e-05
7.8e-05
7.8e-05
7.8e-05
7.8e-05
7.8e-05
7.8e-05
7.8e-05
7.8e-05
7.8e-05
7.8e-05
7.8e-05
7.8e-05
7.8e-05
7.8e-05
7.8e-05
7.8e-05
7.8e-05
7.8e-05
7.8e-05
7.8e-05
7.8e-05
7.8e-05
7.8e-05
7.8e-05
7.8e-05
7.8e-05
7.8e-05
7.8e-05
7.8e-05
7.8e-05
7.8e-05
7.8e-05
7.8e-05
7.8e-05
7.8e-05
7.8e-05
7.8e-05
7.8e-05
7.8e-05
7.8e-05
7.8e-05
7.8e-05
7.8e-05
7.8e-05
7.8e-05
7.8e-05
7.8e-05
7.8e-05
7.8e-05
7.8e-05
7.8e-05
7.8e-05
7.8e-05
7.8e-05
7.8e-05
7.8e-05
7.8e-05
7.8e-05
7.8e-05
7.8e-05
7.8e-05
7.8e-05
7.8e-05
7.8e-05
7.8e-05
7.8e-05
7.8e-05
7.8e-05
7.8e-05
7.8e-05
7.8e-05
7.8e-05
7.8e-05
7.8e-05
7.8e-05
7.8e-05
7.8e-05
7.8e-05
7.8e-05
7.8e-05
7.8e-05
7.8e-05
7.8e-05
7.8e-05
7.8e-05
7.8e-05
7.8e-05
7.8e-05
7.8e-05
7.8e-05
7.8e-05
7.8e-05
7.8e-05
7.8e-05
7.8e-05
7.8e-05
7.8e-05
7.8e-05
7.8e-05
7.8e-05
7.8e-05
7.8e-05
7.8e-05
7.8e-05
7.8e-05
7.8e-05
7.8e-05
7.8e-05
7.8e-05
7.8e-05
7.8e-05
7.8e-05
7.8e-05
7.8e-05
7.8e-05
7.8e-05
7.8e-05
7.8e-05
7.8e-05
7.8e-05
7.8e-05
7.8e-05
7.8e-05
7.8e-05
7.8e-05
7.8e-05
7.8e-05
7.8e-05
7.8e-05
7.8e-05
7.8e-05
7.8e-05
7.8e-05
7.8e-05
7.8e-05
7.8e-05
7.8e-05
7.8e-05
7.8e-05
7.8e-05
7.8e-05
7.8e-05
7.8e-05
7.8e-05
7.8e-05
7.8e-05
7.8e-05
7.8e-05
7.8e-05
7.8e-05
7.8e-05
7.8e-05
7.8e-05
7.8e-05
7.8e-05
7.8e-05
7.8e-05
7.8e-05
7.8e-05
7.8e-05
7.8e-05
7.8e-05
7.8e-05
7.8e-05
7.8e-05
7.8e-05
7.8e-05
7.8e-05
7.8e-05
7.8e-05
7.8e-05
7.8e-05
7.8e-05
7.8e-05
7.8e-05
7.8e-05
7.8e-05
7.8e-05
7.8e-05
7.8e-05
7.8e-05
7.8e-05
7.8e-05
7.8e-05
7.8e-05
7.8e-05
7.8e-05
7.8e-05
7.8e-05
7.8e-05
7.8e-05
7.8e-05
7.8e-05
7.8e-05
7.8e-05
7.8e-05
7.8e-05
7.8e-05
7.8e-05
7.8e-05
7.8e-05
7.8e-05
7.8e-05
7.8e-05
7.8e-05
7.8e-05
7.8e-05
7.8e-05
7.8e-05
7.8e-05
7.8e-05
7.8e-05
7.8e-05
7.8e-05
7.8e-05
7.8e-05
7.8e-05
7.8e-05
7.8e-05
7.8e-05
7.8e-05
7.8e-05
7.8e-05
7.8e-05
7.8e-05
7.8e-05
7.8e-05
7.8e-05
7.8e-05
7.8e-05
7.8e-05
7.8e-05
7.8e-05
7.8e-05
7.8e-05
7.8e-05
7.8e-05
7.8e-05
7.8e-05
7.8e-05
7.8e-05
7.8e-05
7.8e-05
7.8e-05
7.8e-05
7.8e-05
7.8e-05
7.8e-05
7.8e-05
7.8e-05
7.8e-05
7.8e-05
7.8e-05
7.8e-05
7.8e-05
7.8e-05
7.8e-05
7.8e-05
7.8e-05
7.8e-05
7.8e-05
7.8e-05