/*--------------------------------*- C++ -*----------------------------------*\
| =========                 |                                                 |
| \\      /  F ield         | OpenFOAM: The Open Source CFD Toolbox           |
|  \\    /   O peration     | Version:  2406                                  |
|   \\  /    A nd           | Website:  www.openfoam.com                      |
|    \\/     M anipulation  |                                                 |
\*---------------------------------------------------------------------------*/
FoamFile
{
    version     2.0;
    format      ascii;
    arch        "LSB;label=32;scalar=64";
    class       volScalarField;
    location    "8.75";
    object      C;
}
// * * * * * * * * * * * * * * * * * * * * * * * * * * * * * * * * * * * * * //

dimensions      [1 -3 0 0 0 0 0];

internalField   nonuniform List<scalar> 
14400
(
0.218099
0.217255
0.215767
0.213941
0.212098
0.210518
0.209411
0.208908
0.209058
0.209828
0.211098
0.21266
0.214214
0.215377
0.215731
0.214916
0.212797
0.209613
0.205802
0.201845
0.198178
0.19517
0.193128
0.192321
0.192997
0.195403
0.199798
0.206452
0.215649
0.227683
0.242859
0.261496
0.283922
0.310473
0.341464
0.377129
0.417432
0.461056
0.497035
0.521421
0.540358
0.556545
0.57022
0.581564
0.590713
0.597775
0.602827
0.605925
0.607106
0.606387
0.603771
0.59924
0.592764
0.584289
0.573743
0.561027
0.546014
0.528535
0.508375
0.481639
0.443417
0.399675
0.359521
0.324106
0.293413
0.267171
0.245046
0.226689
0.211755
0.199906
0.190808
0.184137
0.179593
0.176923
0.175934
0.176488
0.1785
0.181925
0.186754
0.193
0.200681
0.209801
0.220314
0.232076
0.24475
0.257608
0.268815
0.274904
0.273922
0.267796
0.259427
0.250689
0.242343
0.234784
0.228225
0.222759
0.218396
0.215078
0.212698
0.211113
0.210154
0.209652
0.209461
0.209481
0.209691
0.210156
0.211011
0.212446
0.214673
0.217902
0.222329
0.228119
0.235391
0.244209
0.254557
0.266308
0.27916
0.292496
0.304963
0.312644
0.223712
0.222659
0.220838
0.218654
0.216491
0.214664
0.213398
0.212833
0.213019
0.213924
0.215428
0.217316
0.219268
0.220855
0.221556
0.220847
0.218461
0.214798
0.21046
0.206019
0.201951
0.198633
0.196373
0.195433
0.196054
0.198477
0.202952
0.209743
0.219128
0.231397
0.246853
0.265815
0.288614
0.315581
0.347021
0.383128
0.423745
0.467271
0.501545
0.524482
0.543107
0.559058
0.572552
0.583757
0.592801
0.599785
0.604781
0.607843
0.609005
0.608285
0.605684
0.601187
0.594762
0.58636
0.575912
0.563325
0.548478
0.531217
0.511342
0.486155
0.449446
0.405466
0.364903
0.329032
0.297886
0.271217
0.2487
0.229984
0.214727
0.20259
0.193243
0.186368
0.181671
0.178902
0.177867
0.178427
0.180499
0.18404
0.189044
0.195525
0.203511
0.213009
0.223983
0.236298
0.249637
0.263277
0.274961
0.280809
0.280508
0.274285
0.265427
0.256207
0.247438
0.239528
0.232694
0.227031
0.222545
0.219176
0.21681
0.215288
0.214426
0.214028
0.213914
0.213965
0.214148
0.214538
0.215301
0.216653
0.218832
0.222067
0.226565
0.232498
0.239989
0.249105
0.259835
0.272062
0.285492
0.299472
0.312212
0.319028
0.235452
0.233898
0.231335
0.228382
0.22555
0.223213
0.221623
0.220929
0.221185
0.22236
0.224334
0.226884
0.229666
0.232174
0.233696
0.233307
0.230243
0.225487
0.220017
0.214574
0.209688
0.205747
0.203047
0.201835
0.20234
0.204787
0.209411
0.216464
0.226213
0.238941
0.25495
0.274557
0.298093
0.325889
0.358234
0.395257
0.436493
0.47892
0.509523
0.530504
0.54853
0.564027
0.577173
0.58811
0.596951
0.603782
0.608669
0.61166
0.612787
0.612064
0.609494
0.605061
0.598737
0.590478
0.58022
0.567882
0.553357
0.536512
0.517176
0.494272
0.460715
0.416996
0.37575
0.338978
0.306925
0.279407
0.25611
0.236687
0.220793
0.208091
0.198256
0.190979
0.185979
0.18301
0.181881
0.182456
0.184649
0.188424
0.193778
0.200736
0.209329
0.219577
0.231452
0.244828
0.259391
0.274346
0.286529
0.291942
0.292501
0.287016
0.277478
0.267374
0.25779
0.2492
0.241837
0.235795
0.231081
0.227628
0.225308
0.223941
0.223301
0.223137
0.223204
0.223323
0.223438
0.223655
0.224199
0.225355
0.227412
0.230635
0.235255
0.241454
0.249363
0.259052
0.270514
0.283635
0.298121
0.313205
0.325715
0.330774
0.254323
0.251764
0.24787
0.243634
0.239733
0.236602
0.234514
0.233619
0.233975
0.235553
0.238232
0.241794
0.245881
0.249931
0.25302
0.253509
0.248929
0.24219
0.234862
0.227855
0.221727
0.216844
0.213478
0.211849
0.212164
0.214624
0.219448
0.22687
0.237142
0.25054
0.26736
0.287918
0.312543
0.341561
0.375245
0.413676
0.45606
0.494128
0.519644
0.539292
0.556484
0.571346
0.584002
0.59456
0.60311
0.609722
0.614453
0.617342
0.618418
0.617692
0.615165
0.610826
0.604648
0.596594
0.586609
0.574625
0.560556
0.544298
0.525732
0.504716
0.475933
0.434588
0.392273
0.354114
0.320706
0.291925
0.267473
0.247008
0.230181
0.216656
0.206113
0.198254
0.192809
0.189546
0.188279
0.188876
0.191256
0.195386
0.20127
0.20894
0.218437
0.229788
0.242972
0.257858
0.274069
0.290485
0.302396
0.307384
0.308661
0.305454
0.295693
0.284412
0.273678
0.264121
0.256005
0.249434
0.244415
0.240877
0.238677
0.237602
0.23737
0.237639
0.238047
0.238291
0.238271
0.23815
0.238281
0.239061
0.240867
0.244018
0.248773
0.25533
0.263825
0.274327
0.286819
0.301158
0.316945
0.33292
0.343342
0.346877
0.281745
0.277187
0.271104
0.26496
0.259548
0.255326
0.252559
0.251391
0.251876
0.253983
0.257595
0.262501
0.268361
0.27462
0.280264
0.282544
0.275138
0.265309
0.255354
0.246237
0.238458
0.23233
0.228074
0.225878
0.225915
0.228365
0.233422
0.241302
0.252242
0.266506
0.284384
0.306184
0.332226
0.362806
0.398112
0.437887
0.479823
0.510774
0.532082
0.550535
0.566768
0.580872
0.59293
0.603019
0.611206
0.617544
0.622077
0.624839
0.625849
0.62512
0.62265
0.618429
0.612436
0.60464
0.594997
0.583453
0.569944
0.554394
0.536723
0.51685
0.493028
0.457573
0.414396
0.374589
0.339455
0.30903
0.283069
0.261244
0.243208
0.228624
0.217176
0.208576
0.202567
0.19893
0.197492
0.198127
0.200762
0.205368
0.211956
0.220564
0.23124
0.244017
0.258877
0.275672
0.293892
0.311429
0.321557
0.32632
0.328193
0.327208
0.319744
0.307459
0.2954
0.284663
0.275619
0.268401
0.263033
0.259447
0.257492
0.25692
0.257377
0.258397
0.25942
0.259892
0.259605
0.25886
0.258258
0.258387
0.25974
0.262702
0.267567
0.274542
0.283763
0.295284
0.309053
0.324837
0.341942
0.357021
0.363739
0.366381
0.318677
0.31065
0.301422
0.292754
0.285416
0.279826
0.276212
0.274704
0.275345
0.278098
0.282843
0.289369
0.297316
0.306045
0.313814
0.314484
0.307884
0.294684
0.281638
0.270017
0.260263
0.252621
0.247269
0.244355
0.244025
0.246431
0.251747
0.260165
0.271909
0.287229
0.306402
0.329724
0.357484
0.389921
0.427086
0.468102
0.504044
0.527738
0.546854
0.563998
0.579182
0.592443
0.603827
0.613381
0.621149
0.62717
0.631474
0.634086
0.635021
0.634288
0.631885
0.627803
0.622028
0.614533
0.605286
0.594247
0.581372
0.566611
0.549915
0.531243
0.510553
0.482558
0.441822
0.400585
0.36346
0.33105
0.303248
0.279763
0.260257
0.244395
0.231866
0.222388
0.215717
0.211648
0.21002
0.21072
0.213682
0.218884
0.226342
0.236097
0.2482
0.262683
0.279514
0.298482
0.318741
0.335405
0.343359
0.348134
0.350527
0.350666
0.347368
0.336372
0.323192
0.311192
0.301107
0.293159
0.287421
0.283857
0.282321
0.28254
0.284095
0.286361
0.288501
0.289396
0.28859
0.286707
0.284872
0.283951
0.284568
0.287174
0.29209
0.299519
0.309577
0.322292
0.33751
0.354735
0.372283
0.382389
0.38646
0.388529
0.355699
0.350334
0.338476
0.327107
0.317597
0.310447
0.305851
0.303946
0.304772
0.308278
0.314315
0.322631
0.332696
0.34317
0.347585
0.345911
0.34208
0.329309
0.313628
0.299424
0.287495
0.278129
0.271496
0.267725
0.266941
0.269274
0.274875
0.283916
0.296601
0.313163
0.333863
0.358969
0.388703
0.423123
0.461695
0.500539
0.526912
0.546081
0.563599
0.579421
0.593518
0.605891
0.616554
0.625529
0.632841
0.638512
0.642564
0.64501
0.645863
0.645125
0.642798
0.638873
0.633339
0.626177
0.617366
0.606878
0.594686
0.580762
0.565082
0.547633
0.528419
0.506569
0.47436
0.432333
0.393051
0.358362
0.328415
0.30299
0.281768
0.264421
0.250643
0.240162
0.232744
0.228199
0.226377
0.227178
0.230543
0.236458
0.244942
0.256037
0.26979
0.286218
0.305234
0.326404
0.347807
0.360794
0.367595
0.372332
0.375115
0.376076
0.375434
0.370013
0.357056
0.34398
0.332854
0.324122
0.318012
0.314553
0.313642
0.315002
0.318182
0.322399
0.32658
0.32828
0.32646
0.322528
0.31875
0.316275
0.315816
0.317862
0.322752
0.330655
0.341626
0.355661
0.372366
0.390416
0.402771
0.407955
0.411121
0.412746
0.389065
0.387988
0.380776
0.367761
0.356168
0.347431
0.341766
0.339429
0.340468
0.344816
0.35222
0.362307
0.37371
0.380417
0.38038
0.378574
0.375787
0.367969
0.351261
0.334711
0.320525
0.309276
0.301203
0.296453
0.295139
0.297378
0.3033
0.313055
0.326823
0.344814
0.367261
0.394396
0.426315
0.462695
0.50148
0.529552
0.548653
0.566041
0.582039
0.596568
0.609579
0.621048
0.630968
0.63934
0.646172
0.651475
0.655258
0.657529
0.658293
0.657553
0.655308
0.651552
0.646277
0.639471
0.631122
0.621214
0.609733
0.596669
0.582019
0.56579
0.548006
0.528713
0.505019
0.469251
0.428396
0.391326
0.359013
0.331403
0.308234
0.289199
0.274006
0.262396
0.254149
0.249085
0.247069
0.248009
0.251857
0.258603
0.268268
0.280887
0.296491
0.315058
0.336391
0.359568
0.378441
0.387503
0.393834
0.398482
0.401525
0.403088
0.403358
0.402469
0.396113
0.382977
0.371103
0.361591
0.355118
0.351837
0.351757
0.354579
0.359915
0.366699
0.374154
0.377121
0.373655
0.366567
0.360151
0.35566
0.353794
0.355064
0.359866
0.368253
0.380098
0.39539
0.412698
0.425376
0.431365
0.434869
0.437324
0.438588
0.422492
0.422268
0.420667
0.413423
0.400814
0.39086
0.384097
0.38133
0.382594
0.387821
0.39642
0.407448
0.414343
0.415323
0.414043
0.412206
0.409671
0.405996
0.394276
0.376113
0.359725
0.346497
0.336856
0.331023
0.329118
0.331255
0.337551
0.348125
0.363121
0.382715
0.407079
0.4364
0.47047
0.507555
0.535785
0.554813
0.571642
0.587391
0.601949
0.615233
0.627182
0.637755
0.646929
0.65469
0.661033
0.665958
0.669464
0.671554
0.672228
0.671487
0.669328
0.665749
0.660745
0.654309
0.646437
0.637122
0.626363
0.614163
0.600534
0.5855
0.569102
0.551405
0.532498
0.507106
0.469045
0.430204
0.395494
0.365523
0.340201
0.319279
0.302498
0.289625
0.280456
0.274826
0.272611
0.27373
0.278139
0.285835
0.296834
0.311156
0.328785
0.349583
0.37295
0.39595
0.408671
0.415906
0.421757
0.426238
0.429413
0.431393
0.432341
0.432472
0.431742
0.42612
0.415403
0.405483
0.39876
0.395683
0.396604
0.400941
0.408416
0.416489
0.420615
0.421908
0.420732
0.416559
0.408277
0.401933
0.398502
0.398791
0.4035
0.412394
0.424647
0.440277
0.451239
0.45689
0.460158
0.462832
0.464718
0.465693
0.456143
0.456095
0.456077
0.454936
0.449469
0.440118
0.432502
0.429481
0.430873
0.43671
0.445268
0.450214
0.450932
0.449669
0.448263
0.446536
0.444378
0.441742
0.436664
0.422908
0.405264
0.390181
0.378904
0.371928
0.369389
0.37143
0.378174
0.389688
0.406044
0.427372
0.453645
0.484971
0.519727
0.54644
0.564734
0.5806
0.595713
0.609929
0.623134
0.635234
0.64616
0.655862
0.664303
0.671459
0.677314
0.681858
0.685086
0.686994
0.687578
0.686837
0.68477
0.681373
0.676645
0.670585
0.663193
0.654474
0.644433
0.633085
0.620454
0.606575
0.591498
0.575296
0.558063
0.539798
0.513544
0.475102
0.43829
0.40589
0.378256
0.355258
0.33671
0.322426
0.312232
0.305976
0.30355
0.30488
0.30993
0.318694
0.33118
0.347368
0.367153
0.390161
0.414764
0.43117
0.439174
0.445681
0.451048
0.455301
0.458497
0.46073
0.462141
0.462912
0.463278
0.463326
0.459872
0.454096
0.447869
0.44497
0.446959
0.451809
0.456107
0.458681
0.458747
0.458718
0.459562
0.459875
0.457612
0.453448
0.44898
0.448209
0.452878
0.462175
0.472562
0.480348
0.48442
0.487086
0.489547
0.49158
0.493025
0.493774
0.489841
0.489893
0.490057
0.490454
0.490647
0.488031
0.484546
0.482249
0.483178
0.485711
0.487655
0.486974
0.485488
0.484159
0.482803
0.481295
0.479564
0.477597
0.475443
0.469806
0.456462
0.440497
0.42767
0.419614
0.416415
0.418376
0.425676
0.438261
0.456037
0.479125
0.506664
0.538318
0.561938
0.578452
0.593003
0.607138
0.620679
0.633481
0.645422
0.656409
0.666364
0.675229
0.682961
0.689528
0.694904
0.699076
0.702029
0.703757
0.704254
0.703515
0.70154
0.698327
0.693876
0.688192
0.681279
0.673146
0.66381
0.653292
0.641622
0.628846
0.61502
0.600218
0.584532
0.56807
0.550578
0.52469
0.487489
0.452936
0.422983
0.39776
0.377262
0.361416
0.350083
0.343131
0.340471
0.342041
0.3478
0.357736
0.371839
0.389994
0.411845
0.436129
0.454887
0.464166
0.470829
0.476595
0.481454
0.485422
0.488542
0.49089
0.49258
0.493757
0.494605
0.495343
0.49623
0.495661
0.493956
0.492926
0.493399
0.494466
0.494454
0.493498
0.493158
0.493354
0.494168
0.495566
0.497615
0.498205
0.498169
0.499303
0.502618
0.507277
0.5115
0.513511
0.515468
0.517489
0.519362
0.520918
0.522027
0.522603
0.523487
0.52358
0.523803
0.524224
0.52494
0.526068
0.526354
0.525839
0.525569
0.524774
0.522836
0.521233
0.519886
0.518675
0.517496
0.516278
0.514987
0.513637
0.512293
0.511075
0.506512
0.49643
0.482929
0.474312
0.470433
0.472321
0.480335
0.494126
0.51301
0.53733
0.562575
0.582022
0.595838
0.608807
0.621686
0.63427
0.646386
0.657891
0.668666
0.678614
0.687657
0.69573
0.702786
0.708786
0.713701
0.71751
0.720197
0.721751
0.722164
0.72143
0.719548
0.716518
0.712342
0.707027
0.700583
0.693023
0.684369
0.674648
0.663898
0.652167
0.639517
0.626023
0.611779
0.59689
0.581479
0.565153
0.540974
0.50644
0.474791
0.447352
0.424757
0.407218
0.394638
0.386906
0.383979
0.38581
0.392325
0.403493
0.419279
0.439283
0.462132
0.481324
0.491386
0.497682
0.503382
0.508416
0.512752
0.51639
0.519357
0.52171
0.523531
0.524932
0.526042
0.527006
0.527959
0.528964
0.529945
0.530239
0.52962
0.528527
0.527665
0.527139
0.527034
0.527372
0.528189
0.529499
0.531335
0.53373
0.536551
0.539017
0.540951
0.542241
0.543422
0.544871
0.546452
0.548039
0.549496
0.550702
0.551562
0.552008
0.557041
0.557138
0.557349
0.557701
0.558214
0.558858
0.559423
0.559607
0.55892
0.557748
0.556448
0.555236
0.554148
0.553159
0.55223
0.551333
0.550468
0.54967
0.549016
0.548637
0.548733
0.546925
0.541956
0.535115
0.530691
0.532578
0.54141
0.556254
0.574202
0.591228
0.60561
0.616579
0.627816
0.639251
0.650665
0.66187
0.672704
0.683031
0.692737
0.701726
0.709918
0.717249
0.723666
0.729129
0.733604
0.737067
0.739499
0.740887
0.74122
0.740493
0.738704
0.735854
0.731948
0.726993
0.721002
0.713995
0.705995
0.697034
0.687155
0.676407
0.664857
0.65258
0.639669
0.626232
0.612393
0.598296
0.583737
0.562475
0.533107
0.504254
0.479584
0.460362
0.446485
0.437871
0.434631
0.436747
0.444017
0.456319
0.473646
0.49444
0.51159
0.521123
0.526598
0.531796
0.536601
0.540934
0.544749
0.54803
0.550788
0.55306
0.554904
0.556396
0.557626
0.558681
0.559632
0.560492
0.561182
0.561485
0.561326
0.56091
0.560537
0.560359
0.560467
0.560909
0.561718
0.562905
0.564469
0.566369
0.568468
0.570473
0.572138
0.573514
0.574788
0.576098
0.57743
0.578718
0.57988
0.580833
0.58151
0.58186
0.590497
0.590581
0.590754
0.591018
0.591359
0.591724
0.591987
0.591982
0.59156
0.590834
0.589975
0.589114
0.588311
0.587583
0.58693
0.586356
0.585884
0.585559
0.585464
0.585721
0.586506
0.58806
0.589823
0.589909
0.590866
0.59468
0.601978
0.611753
0.622177
0.63135
0.640178
0.64968
0.659596
0.669717
0.679854
0.68984
0.699528
0.708793
0.717526
0.725635
0.733041
0.739681
0.745501
0.750459
0.754519
0.757655
0.759846
0.761076
0.761336
0.760619
0.758922
0.756247
0.752601
0.747993
0.742439
0.735959
0.728581
0.72034
0.711278
0.701451
0.690923
0.679771
0.668087
0.655976
0.643563
0.630989
0.618421
0.605962
0.588875
0.566808
0.541218
0.520997
0.505973
0.496338
0.492715
0.495179
0.503074
0.515781
0.533399
0.546132
0.553516
0.557767
0.562084
0.566301
0.570292
0.57397
0.577279
0.580192
0.582705
0.584838
0.586628
0.588124
0.589383
0.590461
0.591395
0.592189
0.592805
0.593174
0.593289
0.593251
0.593214
0.593292
0.593565
0.594081
0.594869
0.595935
0.597265
0.59881
0.600469
0.602094
0.60357
0.60489
0.606116
0.607303
0.608451
0.609524
0.610473
0.611241
0.611783
0.612063
0.623869
0.623936
0.624068
0.624256
0.62448
0.624692
0.624818
0.624774
0.624506
0.624054
0.623503
0.622934
0.622399
0.621931
0.62155
0.621279
0.621151
0.621219
0.621559
0.622277
0.623509
0.62542
0.628179
0.632037
0.636594
0.641447
0.646787
0.652473
0.658777
0.666007
0.673918
0.682365
0.691171
0.700167
0.709194
0.718107
0.726776
0.735087
0.742939
0.750245
0.756931
0.762933
0.768199
0.772686
0.776358
0.779187
0.781152
0.782237
0.782429
0.781723
0.780117
0.777612
0.774216
0.76994
0.764801
0.758821
0.75203
0.744464
0.736168
0.727196
0.717613
0.707495
0.696931
0.686024
0.674893
0.663676
0.652531
0.641645
0.631248
0.619282
0.604247
0.587433
0.572155
0.561462
0.557385
0.560201
0.568108
0.577297
0.584582
0.588501
0.591208
0.594341
0.597672
0.601033
0.604297
0.607375
0.610205
0.612752
0.615002
0.61696
0.618645
0.620088
0.621323
0.622385
0.623297
0.624064
0.624676
0.625117
0.625402
0.625593
0.625776
0.626031
0.626419
0.626982
0.627741
0.628702
0.629847
0.631137
0.632504
0.633866
0.635158
0.63636
0.637485
0.638548
0.639546
0.640456
0.641245
0.641877
0.642318
0.642546
0.657175
0.657226
0.657325
0.65746
0.657612
0.657747
0.65782
0.65779
0.657634
0.657372
0.65705
0.656719
0.656422
0.656193
0.656061
0.656058
0.656222
0.656606
0.657276
0.658318
0.659834
0.661932
0.66471
0.668232
0.672373
0.676973
0.681956
0.687394
0.693379
0.699982
0.707123
0.71469
0.722556
0.730585
0.738647
0.746617
0.754383
0.76184
0.768898
0.775476
0.781503
0.78692
0.791676
0.795727
0.79904
0.801584
0.80334
0.804289
0.804421
0.803728
0.80221
0.799868
0.796711
0.79275
0.788004
0.782495
0.776255
0.769319
0.761734
0.753552
0.744837
0.735664
0.726117
0.716295
0.70631
0.69629
0.686382
0.676754
0.667601
0.659144
0.651485
0.642395
0.633338
0.626124
0.622119
0.621562
0.623317
0.625307
0.625608
0.626691
0.628474
0.630718
0.633231
0.63586
0.638488
0.641027
0.643415
0.645611
0.647592
0.649355
0.650905
0.652258
0.653436
0.654459
0.655343
0.656095
0.656718
0.657216
0.65761
0.657942
0.658266
0.658637
0.659099
0.659685
0.660413
0.661283
0.662284
0.663386
0.664543
0.665707
0.666835
0.667907
0.668915
0.669858
0.670728
0.671508
0.672174
0.672702
0.673068
0.673256
0.690428
0.690469
0.690545
0.690647
0.69076
0.690862
0.690926
0.690931
0.690869
0.690751
0.690606
0.69047
0.690376
0.690356
0.690443
0.69067
0.691075
0.691706
0.692621
0.693887
0.695576
0.697762
0.700499
0.703809
0.707643
0.711932
0.716636
0.72177
0.727361
0.733421
0.739899
0.746718
0.753777
0.760971
0.768192
0.775333
0.782298
0.788993
0.795338
0.801257
0.806687
0.811569
0.815857
0.819508
0.822489
0.824771
0.826333
0.827159
0.827236
0.826559
0.825126
0.82294
0.820009
0.816346
0.811969
0.806901
0.801174
0.794824
0.787896
0.780441
0.772521
0.764207
0.755579
0.746729
0.737761
0.728792
0.719953
0.711387
0.703256
0.695725
0.688956
0.683121
0.678278
0.674126
0.6706
0.667681
0.665361
0.664033
0.663707
0.66418
0.665278
0.666826
0.668673
0.670688
0.672768
0.674831
0.676817
0.678682
0.680401
0.681961
0.683361
0.684605
0.685705
0.686673
0.68752
0.688254
0.688884
0.689419
0.689881
0.690298
0.690709
0.69115
0.691656
0.692248
0.69294
0.693735
0.694621
0.695578
0.696577
0.697584
0.69857
0.699516
0.70041
0.701242
0.702001
0.702674
0.703242
0.703689
0.703996
0.704154
0.723642
0.723675
0.723738
0.723824
0.723921
0.724015
0.724092
0.72414
0.724159
0.724157
0.724155
0.724178
0.724255
0.724414
0.724686
0.725103
0.725702
0.726523
0.727616
0.729031
0.730823
0.733039
0.735715
0.738861
0.742459
0.746475
0.750887
0.755688
0.760877
0.76644
0.772336
0.778504
0.784864
0.791331
0.797815
0.804227
0.810481
0.816497
0.822202
0.827528
0.832416
0.836813
0.840674
0.843959
0.846636
0.848678
0.850063
0.850776
0.850806
0.850146
0.848796
0.846757
0.84404
0.840655
0.836623
0.831967
0.826716
0.820908
0.814584
0.807795
0.800599
0.793063
0.785262
0.777281
0.769214
0.761165
0.753249
0.745587
0.738309
0.731543
0.725408
0.719997
0.715336
0.711346
0.707965
0.705171
0.703025
0.701636
0.701008
0.701045
0.70163
0.702637
0.703946
0.705451
0.707065
0.708712
0.710338
0.7119
0.713369
0.714729
0.715971
0.717096
0.718106
0.719008
0.719809
0.720519
0.721144
0.721697
0.722195
0.722661
0.723121
0.723601
0.724125
0.72471
0.725366
0.726094
0.726887
0.72773
0.728602
0.729481
0.730346
0.731179
0.731966
0.732697
0.733361
0.733944
0.734433
0.734814
0.735075
0.735209
0.756822
0.756852
0.75691
0.756989
0.757084
0.757185
0.757285
0.757379
0.757469
0.757564
0.757678
0.757833
0.758051
0.758359
0.758784
0.759355
0.760105
0.76107
0.762288
0.7638
0.765645
0.767858
0.770461
0.773462
0.776856
0.780623
0.784748
0.789218
0.794018
0.799125
0.804503
0.810097
0.815845
0.821674
0.827511
0.833278
0.838902
0.844312
0.849445
0.854237
0.858637
0.862594
0.866067
0.869019
0.871419
0.873241
0.874466
0.875077
0.875065
0.874424
0.873152
0.871254
0.868736
0.865613
0.861902
0.857627
0.852817
0.847506
0.841736
0.835555
0.829017
0.822184
0.815126
0.807919
0.800648
0.793406
0.78629
0.779404
0.772851
0.766732
0.761134
0.756122
0.751722
0.747914
0.744678
0.74201
0.739933
0.73848
0.737642
0.737363
0.737561
0.738144
0.739022
0.740108
0.741327
0.742616
0.743924
0.74521
0.746447
0.747614
0.748701
0.749701
0.750614
0.751443
0.752192
0.752867
0.753476
0.75403
0.754542
0.75503
0.755512
0.756008
0.756534
0.757102
0.75772
0.758389
0.759103
0.759851
0.76062
0.761393
0.762153
0.762886
0.763579
0.764221
0.764801
0.765308
0.765731
0.766059
0.766283
0.766397
0.789973
0.790002
0.790058
0.790139
0.79024
0.790356
0.790484
0.790623
0.790775
0.79095
0.791161
0.791423
0.791758
0.792187
0.792735
0.793428
0.794293
0.795362
0.796666
0.798235
0.8001
0.802285
0.804807
0.807673
0.810878
0.814413
0.818265
0.822417
0.826851
0.831541
0.836452
0.841537
0.846744
0.852011
0.857275
0.862471
0.867536
0.872407
0.877026
0.88134
0.885299
0.888859
0.891981
0.89463
0.896779
0.898402
0.899481
0.900002
0.899954
0.899333
0.898136
0.896369
0.894038
0.891158
0.887745
0.883822
0.879418
0.874564
0.869301
0.863672
0.85773
0.851531
0.845138
0.838621
0.832055
0.825521
0.819103
0.812887
0.806959
0.801399
0.796274
0.791637
0.787514
0.78391
0.780824
0.778257
0.776217
0.774709
0.773717
0.773203
0.773106
0.773358
0.773889
0.77463
0.775519
0.7765
0.77753
0.77857
0.779594
0.78058
0.781516
0.782392
0.783207
0.783957
0.784647
0.785281
0.785863
0.786404
0.786913
0.787404
0.78789
0.788384
0.7889
0.789444
0.790024
0.790638
0.791284
0.791953
0.792635
0.793317
0.793988
0.794633
0.795243
0.795807
0.796314
0.796756
0.797123
0.797407
0.797601
0.797699
0.823094
0.823124
0.823183
0.82327
0.823381
0.823516
0.823672
0.823852
0.824059
0.824302
0.824591
0.824942
0.82537
0.825896
0.826541
0.827327
0.828279
0.82942
0.830778
0.832375
0.834235
0.836376
0.83881
0.841542
0.844571
0.847888
0.851481
0.855334
0.859428
0.863736
0.868226
0.872857
0.877582
0.88235
0.887107
0.891797
0.896363
0.900753
0.904914
0.908798
0.912361
0.915562
0.918367
0.920743
0.922664
0.924107
0.925056
0.925495
0.925417
0.924816
0.923691
0.922047
0.919891
0.917235
0.914098
0.9105
0.906467
0.902032
0.89723
0.892104
0.8867
0.881071
0.875274
0.869371
0.863429
0.857519
0.851712
0.846082
0.840699
0.835629
0.830927
0.826637
0.822787
0.819389
0.816452
0.813978
0.811969
0.81042
0.809316
0.808625
0.808301
0.808294
0.808547
0.809005
0.809618
0.810337
0.811125
0.811947
0.812778
0.813597
0.81439
0.815147
0.815862
0.816533
0.81716
0.817745
0.818293
0.81881
0.819303
0.819783
0.820258
0.82074
0.821236
0.821752
0.822292
0.822856
0.823442
0.824042
0.824649
0.825254
0.825847
0.826416
0.826953
0.827449
0.827893
0.82828
0.8286
0.828846
0.829014
0.829099
0.856185
0.856217
0.856281
0.856375
0.856499
0.856653
0.856837
0.857053
0.857308
0.857607
0.857961
0.858382
0.858885
0.859487
0.860206
0.861062
0.862074
0.863262
0.864649
0.866252
0.868089
0.870174
0.872515
0.875116
0.877975
0.881086
0.884436
0.888011
0.891791
0.89575
0.899859
0.904081
0.908377
0.912701
0.917007
0.921245
0.925368
0.929327
0.933078
0.936576
0.939783
0.942663
0.945181
0.947311
0.949026
0.950308
0.951139
0.951506
0.951402
0.950822
0.949765
0.948236
0.946242
0.943795
0.940911
0.937611
0.933919
0.929866
0.925484
0.920813
0.915895
0.910779
0.905515
0.90016
0.894773
0.889414
0.884145
0.87903
0.874127
0.869491
0.865169
0.861198
0.857606
0.854409
0.851616
0.849233
0.847259
0.845687
0.844502
0.843679
0.843181
0.84297
0.843
0.843227
0.843609
0.844106
0.844685
0.845316
0.845974
0.84664
0.8473
0.847943
0.848562
0.849153
0.849714
0.850247
0.850754
0.851238
0.851707
0.852165
0.852621
0.853082
0.853552
0.854036
0.854537
0.855053
0.855584
0.856124
0.856666
0.857204
0.857728
0.858231
0.858705
0.859141
0.859531
0.85987
0.860149
0.860364
0.86051
0.860584
0.889244
0.889278
0.889347
0.88945
0.889588
0.88976
0.889969
0.890218
0.890511
0.890856
0.891262
0.89174
0.892301
0.892961
0.893735
0.89464
0.895691
0.896907
0.898303
0.899895
0.901695
0.903715
0.90596
0.908432
0.911129
0.914044
0.917167
0.920483
0.923973
0.927614
0.931378
0.935233
0.939144
0.943071
0.946974
0.950809
0.954535
0.95811
0.961493
0.964646
0.967534
0.970123
0.972385
0.974292
0.975823
0.976959
0.977685
0.977989
0.977863
0.977304
0.976312
0.974891
0.973046
0.970791
0.968141
0.965114
0.961734
0.958028
0.954027
0.949768
0.945289
0.940634
0.935848
0.930982
0.926087
0.921217
0.916426
0.911766
0.907288
0.903039
0.899059
0.895381
0.89203
0.889023
0.886371
0.88408
0.882147
0.880568
0.879328
0.878406
0.877775
0.877403
0.877255
0.877293
0.877484
0.877794
0.878194
0.878657
0.879162
0.87969
0.880227
0.880763
0.88129
0.881802
0.882297
0.882775
0.883236
0.883683
0.88412
0.884551
0.88498
0.885413
0.885853
0.886303
0.886765
0.887237
0.887717
0.888203
0.888688
0.889166
0.889631
0.890077
0.890494
0.890878
0.891221
0.891518
0.891763
0.891951
0.892078
0.892142
0.922268
0.922305
0.922379
0.922491
0.922641
0.92283
0.923061
0.923337
0.923663
0.924046
0.924493
0.925013
0.925619
0.926321
0.927134
0.928071
0.929145
0.930371
0.931762
0.933329
0.935083
0.937031
0.939177
0.941522
0.944064
0.946795
0.949706
0.952781
0.956005
0.959355
0.962806
0.96633
0.969894
0.973466
0.977007
0.980483
0.983854
0.987085
0.990139
0.992982
0.995583
0.997912
0.999942
1.00165
1.00302
1.00402
1.00465
1.0049
1.00476
1.00422
1.00329
1.00197
1.00026
0.998183
0.995747
0.99297
0.989874
0.986484
0.98283
0.978943
0.97486
0.970619
0.966262
0.961833
0.957377
0.952942
0.948574
0.944319
0.940221
0.936319
0.932648
0.929237
0.92611
0.923283
0.920767
0.918566
0.916682
0.915109
0.913834
0.912842
0.912111
0.911614
0.911322
0.911207
0.91124
0.911392
0.911639
0.911957
0.912326
0.91273
0.913156
0.913593
0.914032
0.914468
0.914898
0.91532
0.915733
0.916139
0.916539
0.916938
0.917336
0.917738
0.918145
0.91856
0.918982
0.919411
0.919846
0.920282
0.920716
0.921142
0.921555
0.921949
0.922318
0.922656
0.922958
0.923219
0.923433
0.923598
0.923709
0.923765
0.955255
0.955295
0.955374
0.955494
0.955655
0.955859
0.956108
0.956407
0.956759
0.957171
0.957649
0.958202
0.958839
0.959571
0.960409
0.961364
0.962448
0.963671
0.965044
0.966577
0.968276
0.970148
0.972195
0.974417
0.976809
0.979367
0.982078
0.984932
0.98791
0.990994
0.994161
0.997385
1.00064
1.00389
1.00711
1.01026
1.01331
1.01624
1.019
1.02156
1.0239
1.026
1.02782
1.02935
1.03057
1.03146
1.032
1.0322
1.03205
1.03153
1.03066
1.02943
1.02785
1.02593
1.02369
1.02114
1.01831
1.0152
1.01186
1.00831
1.00459
1.00072
0.996748
0.99271
0.988647
0.9846
0.98061
0.976716
0.972957
0.969366
0.965975
0.962809
0.95989
0.957232
0.954845
0.952737
0.950907
0.94935
0.948059
0.947019
0.946212
0.945618
0.945213
0.944974
0.944876
0.944896
0.945012
0.945205
0.945455
0.945749
0.946074
0.946419
0.946777
0.947141
0.947507
0.947873
0.948237
0.9486
0.948961
0.949324
0.949688
0.950056
0.950429
0.950808
0.951192
0.951581
0.951973
0.952364
0.952751
0.953131
0.953497
0.953846
0.954172
0.95447
0.954736
0.954965
0.955154
0.955298
0.955395
0.955445
0.988203
0.988245
0.988329
0.988455
0.988626
0.988842
0.989107
0.989423
0.989795
0.990229
0.99073
0.991306
0.991965
0.992715
0.993567
0.994529
0.99561
0.99682
0.998167
0.999658
1.0013
1.00309
1.00504
1.00714
1.00939
1.01178
1.01431
1.01696
1.01971
1.02255
1.02546
1.02841
1.03138
1.03435
1.03727
1.04014
1.04291
1.04555
1.04804
1.05036
1.05247
1.05436
1.05599
1.05736
1.05845
1.05923
1.05971
1.05986
1.05969
1.0592
1.05838
1.05724
1.05578
1.05401
1.05195
1.04961
1.04701
1.04416
1.04111
1.03786
1.03446
1.03093
1.0273
1.02361
1.0199
1.0162
1.01255
1.00898
1.00552
1.00221
0.999078
0.996136
0.993408
0.990908
0.988647
0.98663
0.984857
0.983327
0.982032
0.980961
0.9801
0.979432
0.978939
0.978599
0.978395
0.978304
0.97831
0.978394
0.978541
0.978738
0.978972
0.979233
0.979515
0.979811
0.980116
0.980427
0.980743
0.981061
0.981383
0.981708
0.982037
0.98237
0.982708
0.983051
0.983398
0.983748
0.9841
0.98445
0.984795
0.985133
0.985458
0.985766
0.986054
0.986317
0.986551
0.986753
0.986918
0.987044
0.98713
0.987173
1.02111
1.02115
1.02124
1.02137
1.02155
1.02178
1.02205
1.02238
1.02277
1.02322
1.02374
1.02433
1.025
1.02576
1.02661
1.02757
1.02864
1.02983
1.03115
1.03259
1.03417
1.03588
1.03773
1.03971
1.04183
1.04407
1.04642
1.04888
1.05142
1.05404
1.05671
1.05942
1.06214
1.06484
1.0675
1.07011
1.07262
1.07502
1.07727
1.07936
1.08127
1.08297
1.08444
1.08566
1.08662
1.08732
1.08772
1.08784
1.08767
1.08719
1.08642
1.08536
1.08401
1.08238
1.08048
1.07833
1.07594
1.07334
1.07054
1.06757
1.06446
1.06123
1.05791
1.05454
1.05114
1.04775
1.04441
1.04113
1.03795
1.03489
1.03198
1.02925
1.0267
1.02435
1.0222
1.02028
1.01857
1.01707
1.01578
1.01469
1.0138
1.01307
1.01251
1.01209
1.0118
1.01162
1.01153
1.01152
1.01158
1.01169
1.01184
1.01203
1.01224
1.01247
1.01272
1.01298
1.01325
1.01352
1.0138
1.01409
1.01438
1.01468
1.01498
1.01529
1.0156
1.01591
1.01623
1.01654
1.01685
1.01715
1.01743
1.01771
1.01796
1.01819
1.0184
1.01858
1.01872
1.01883
1.01891
1.01895
1.05397
1.05402
1.05411
1.05424
1.05443
1.05466
1.05495
1.05529
1.05568
1.05614
1.05667
1.05727
1.05795
1.05871
1.05956
1.06051
1.06156
1.06272
1.06399
1.06539
1.0669
1.06853
1.07028
1.07216
1.07414
1.07624
1.07843
1.08071
1.08306
1.08548
1.08793
1.09042
1.0929
1.09537
1.0978
1.10017
1.10245
1.10462
1.10666
1.10856
1.11027
1.1118
1.11312
1.11422
1.11507
1.11568
1.11603
1.11612
1.11594
1.11549
1.11476
1.11377
1.11252
1.11102
1.10927
1.10729
1.1051
1.10271
1.10014
1.09742
1.09457
1.09161
1.08858
1.08549
1.08238