/*--------------------------------*- C++ -*----------------------------------*\
| =========                 |                                                 |
| \\      /  F ield         | OpenFOAM: The Open Source CFD Toolbox           |
|  \\    /   O peration     | Version:  2406                                  |
|   \\  /    A nd           | Website:  www.openfoam.com                      |
|    \\/     M anipulation  |                                                 |
\*---------------------------------------------------------------------------*/
FoamFile
{
    version     2.0;
    format      ascii;
    arch        "LSB;label=32;scalar=64";
    class       volScalarField;
    location    "8.75";
    object      D;
}
// * * * * * * * * * * * * * * * * * * * * * * * * * * * * * * * * * * * * * //

dimensions      [0 2 -1 0 0 0 0];

internalField   nonuniform List<scalar> 
14400
(
7.4722e-05
7.46966e-05
7.46707e-05
7.46649e-05
7.46826e-05
7.4714e-05
7.47445e-05
7.47629e-05
7.4767e-05
7.47647e-05
7.47738e-05
7.48158e-05
7.49066e-05
7.50398e-05
7.51688e-05
7.52079e-05
7.50945e-05
7.48849e-05
7.46335e-05
7.43413e-05
7.39685e-05
7.34584e-05
7.27596e-05
7.18429e-05
7.07158e-05
6.94303e-05
6.80748e-05
6.67484e-05
6.55334e-05
6.4481e-05
6.36147e-05
6.29426e-05
6.24709e-05
6.22183e-05
6.22387e-05
6.26815e-05
6.40499e-05
6.91396e-05
0.000111153
0.00013824
0.00013824
0.00013824
0.00013824
0.00013824
0.00013824
0.00013824
0.00013824
0.00013824
0.00013824
0.00013824
0.00013824
0.00013824
0.00013824
0.00013824
0.00013824
0.00013824
0.00013824
0.00013824
0.000138234
0.000100914
6.88046e-05
6.43778e-05
6.32333e-05
6.2987e-05
6.31979e-05
6.37469e-05
6.46099e-05
6.57992e-05
6.73328e-05
6.91986e-05
7.13123e-05
7.35015e-05
7.55496e-05
7.7268e-05
7.85373e-05
7.93067e-05
7.95752e-05
7.93759e-05
7.87706e-05
7.78528e-05
7.67518e-05
7.56325e-05
7.46938e-05
7.41888e-05
7.45568e-05
7.71566e-05
8.9851e-05
0.000137486
9.93177e-05
7.68425e-05
7.24989e-05
7.11332e-05
7.07129e-05
7.0746e-05
7.10367e-05
7.14773e-05
7.19942e-05
7.25306e-05
7.30411e-05
7.34895e-05
7.38465e-05
7.40868e-05
7.41877e-05
7.41317e-05
7.39115e-05
7.35333e-05
7.30145e-05
7.23796e-05
7.16589e-05
7.08894e-05
7.01149e-05
6.9385e-05
6.87541e-05
6.82824e-05
6.80458e-05
6.81646e-05
6.88935e-05
7.09859e-05
7.81613e-05
0.00013165
7.40125e-05
7.39187e-05
7.37961e-05
7.36963e-05
7.36367e-05
7.36123e-05
7.36098e-05
7.36183e-05
7.36355e-05
7.36694e-05
7.37386e-05
7.38674e-05
7.40755e-05
7.43562e-05
7.46397e-05
7.47625e-05
7.45619e-05
7.42118e-05
7.38391e-05
7.34629e-05
7.30416e-05
7.25161e-05
7.18338e-05
7.09665e-05
6.99213e-05
6.87447e-05
6.75123e-05
6.63079e-05
6.52017e-05
6.42395e-05
6.34456e-05
6.28318e-05
6.24099e-05
6.22052e-05
6.22814e-05
6.28088e-05
6.43538e-05
7.00708e-05
0.000121969
0.00013824
0.00013824
0.00013824
0.00013824
0.00013824
0.00013824
0.00013824
0.00013824
0.00013824
0.00013824
0.00013824
0.00013824
0.00013824
0.00013824
0.00013824
0.00013824
0.00013824
0.00013824
0.00013824
0.00013824
0.00011139
6.96029e-05
6.4589e-05
6.33097e-05
6.2992e-05
6.3146e-05
6.36365e-05
6.4429e-05
6.55266e-05
6.69405e-05
6.8659e-05
7.06119e-05
7.26528e-05
7.45856e-05
7.62274e-05
7.74533e-05
7.82034e-05
7.84703e-05
7.82849e-05
7.77112e-05
7.68471e-05
7.58248e-05
7.48083e-05
7.39918e-05
7.36292e-05
7.42065e-05
7.75133e-05
9.64826e-05
0.0001381
0.000110999
7.7613e-05
7.23979e-05
7.08055e-05
7.0248e-05
7.01669e-05
7.03526e-05
7.0696e-05
7.11275e-05
7.15957e-05
7.206e-05
7.24859e-05
7.28417e-05
7.30952e-05
7.32131e-05
7.31675e-05
7.29473e-05
7.25661e-05
7.20535e-05
7.14439e-05
7.07722e-05
7.00741e-05
6.9388e-05
6.87563e-05
6.82268e-05
6.78568e-05
6.77254e-05
6.79707e-05
6.89178e-05
7.16909e-05
8.27028e-05
0.000136966
7.29261e-05
7.26718e-05
7.23474e-05
7.20699e-05
7.18744e-05
7.17556e-05
7.16977e-05
7.16882e-05
7.1724e-05
7.1814e-05
7.19799e-05
7.22551e-05
7.26765e-05
7.3258e-05
7.39124e-05
7.42859e-05
7.38001e-05
7.31008e-05
7.24726e-05
7.19347e-05
7.14261e-05
7.08762e-05
7.02292e-05
6.94557e-05
6.8558e-05
6.75695e-05
6.65444e-05
6.55433e-05
6.46191e-05
6.38106e-05
6.31429e-05
6.26342e-05
6.23053e-05
6.21949e-05
6.23912e-05
6.3132e-05
6.52654e-05
7.35457e-05
0.000135761
0.00013824
0.00013824
0.00013824
0.00013824
0.00013824
0.00013824
0.00013824
0.00013824
0.00013824
0.00013824
0.00013824
0.00013824
0.00013824
0.00013824
0.00013824
0.00013824
0.00013824
0.00013824
0.00013824
0.00013824
0.000128039
7.13748e-05
6.51593e-05
6.35164e-05
6.30274e-05
6.30621e-05
6.344e-05
6.41032e-05
6.50377e-05
6.62418e-05
6.77011e-05
6.93628e-05
7.11185e-05
7.28127e-05
7.42828e-05
7.54025e-05
7.61017e-05
7.63629e-05
7.62134e-05
7.5719e-05
7.4981e-05
7.41312e-05
7.33265e-05
7.27504e-05
7.26582e-05
7.36061e-05
7.80876e-05
0.000109789
0.000138235
0.000128221
7.92392e-05
7.24486e-05
7.03368e-05
6.95005e-05
6.92122e-05
6.92181e-05
6.93995e-05
6.9689e-05
7.00424e-05
7.04258e-05
7.08092e-05
7.11594e-05
7.14343e-05
7.15831e-05
7.15576e-05
7.13394e-05
7.09557e-05
7.04583e-05
6.98967e-05
6.93106e-05
6.87315e-05
6.81888e-05
6.77148e-05
6.73497e-05
6.71483e-05
6.71982e-05
6.76726e-05
6.9045e-05
7.35506e-05
0.000102735
0.000138227
7.20304e-05
7.14378e-05
7.07787e-05
7.02575e-05
6.98979e-05
6.96734e-05
6.95546e-05
6.95236e-05
6.95758e-05
6.97214e-05
6.99885e-05
7.04292e-05
7.11253e-05
7.21842e-05
7.36445e-05
7.49064e-05
7.33771e-05
7.19299e-05
7.08927e-05
7.01342e-05
6.95182e-05
6.89446e-05
6.83473e-05
6.76906e-05
6.69668e-05
6.6192e-05
6.53981e-05
6.46238e-05
6.39066e-05
6.32781e-05
6.27643e-05
6.23903e-05
6.21885e-05
6.22178e-05
6.26138e-05
6.37938e-05
6.79907e-05
0.000100737
0.000138235
0.00013824
0.00013824
0.00013824
0.00013824
0.00013824
0.00013824
0.00013824
0.00013824
0.00013824
0.00013824
0.00013824
0.00013824
0.00013824
0.00013824
0.00013824
0.00013824
0.00013824
0.00013824
0.00013824
0.00013824
0.000138041
8.34656e-05
6.69277e-05
6.39874e-05
6.31395e-05
6.29807e-05
6.31986e-05
6.36918e-05
6.44222e-05
6.53716e-05
6.65189e-05
6.78221e-05
6.92059e-05
7.05612e-05
7.17635e-05
7.27032e-05
7.33095e-05
7.35591e-05
7.34741e-05
7.31168e-05
7.2583e-05
7.19936e-05
7.14908e-05
7.12496e-05
7.15471e-05
7.3067e-05
7.90247e-05
0.000126121
0.00013824
0.000138077
9.20838e-05
7.37193e-05
7.00661e-05
6.87434e-05
6.81715e-05
6.79602e-05
6.79583e-05
6.80924e-05
6.83208e-05
6.8615e-05
6.89504e-05
6.92952e-05
6.95995e-05
6.9792e-05
6.97948e-05
6.95773e-05
6.91862e-05
6.8704e-05
6.81959e-05
6.77031e-05
6.72508e-05
6.68598e-05
6.65543e-05
6.63698e-05
6.63646e-05
6.66453e-05
6.74502e-05
6.94941e-05
7.62834e-05
0.000128017
0.00013824
7.22737e-05
7.07614e-05
6.95149e-05
6.86731e-05
6.81335e-05
6.78041e-05
6.76272e-05
6.75748e-05
6.76398e-05
6.78342e-05
6.8195e-05
6.88042e-05
6.98299e-05
7.16599e-05
7.53209e-05
8.28534e-05
7.43031e-05
7.11105e-05
6.94589e-05
6.8433e-05
6.7702e-05
6.71055e-05
6.65561e-05
6.60075e-05
6.54405e-05
6.4856e-05
6.42687e-05
6.37009e-05
6.31784e-05
6.2727e-05
6.23735e-05
6.21499e-05
6.21038e-05
6.23254e-05
6.3031e-05
6.49224e-05
7.18078e-05
0.00013148
0.00013824
0.00013824
0.00013824
0.00013824
0.00013824
0.00013824
0.00013824
0.00013824
0.00013824
0.00013824
0.00013824
0.00013824
0.00013824
0.00013824
0.00013824
0.00013824
0.00013824
0.00013824
0.00013824
0.00013824
0.00013824
0.00013824
0.000118704
7.02804e-05
6.48202e-05
6.33831e-05
6.29482e-05
6.29639e-05
6.32619e-05
6.37742e-05
6.44646e-05
6.53036e-05
6.62535e-05
6.72604e-05
6.82518e-05
6.91444e-05
6.98603e-05
7.03444e-05
7.05761e-05
7.05725e-05
7.03855e-05
7.00948e-05
6.98033e-05
6.96382e-05
6.9783e-05
7.06077e-05
7.33594e-05
8.58986e-05
0.000137548
0.00013824
0.00013824
0.000126071
7.70038e-05
7.03728e-05
6.8253e-05
6.73038e-05
6.6851e-05
6.66684e-05
6.66615e-05
6.67825e-05
6.70045e-05
6.73077e-05
6.7665e-05
6.80222e-05
6.82864e-05
6.83286e-05
6.80961e-05
6.76669e-05
6.71738e-05
6.66966e-05
6.62746e-05
6.59259e-05
6.56638e-05
6.55085e-05
6.54969e-05
6.57001e-05
6.62706e-05
6.7629e-05
7.17308e-05
9.71998e-05
0.000138212
0.00013824
7.78934e-05
7.15025e-05
6.89184e-05
6.75806e-05
6.68134e-05
6.63661e-05
6.61268e-05
6.60515e-05
6.61294e-05
6.63749e-05
6.68382e-05
6.76488e-05
6.91341e-05
7.25144e-05
8.61411e-05
0.000132977
7.91198e-05
7.11363e-05
6.8451e-05
6.70756e-05
6.62099e-05
6.55781e-05
6.50574e-05
6.45871e-05
6.41376e-05
6.36988e-05
6.32739e-05
6.28745e-05
6.25182e-05
6.22273e-05
6.20299e-05
6.19676e-05
6.21117e-05
6.26178e-05
6.39542e-05
6.85571e-05
0.000105725
0.000138239
0.00013824
0.00013824
0.00013824
0.00013824
0.00013824
0.00013824
0.00013824
0.00013824
0.00013824
0.00013824
0.00013824
0.00013824
0.00013824
0.00013824
0.00013824
0.00013824
0.00013824
0.00013824
0.00013824
0.00013824
0.00013824
0.00013824
0.000137949
8.15048e-05
6.67075e-05
6.39194e-05
6.30429e-05
6.27971e-05
6.28778e-05
6.31718e-05
6.3622e-05
6.41893e-05
6.48373e-05
6.55246e-05
6.6203e-05
6.68201e-05
6.73281e-05
6.76933e-05
6.7904e-05
6.79748e-05
6.79455e-05
6.78794e-05
6.78637e-05
6.8022e-05
6.85692e-05
7.00544e-05
7.51869e-05
0.0001143
0.000138239
0.00013824
0.00013824
0.000138223
0.000100312
7.29391e-05
6.8419e-05
6.68257e-05
6.60706e-05
6.57001e-05
6.55666e-05
6.56041e-05
6.57822e-05
6.60867e-05
6.6502e-05
6.69756e-05
6.73967e-05
6.7511e-05
6.7213e-05
6.6652e-05
6.60785e-05
6.55802e-05
6.51875e-05
6.49063e-05
6.47436e-05
6.47185e-05
6.48774e-05
6.53244e-05
6.63074e-05
6.86099e-05
7.64969e-05
0.000134311
0.00013824
0.00013824
0.000130267
7.70591e-05
6.96003e-05
6.7203e-05
6.60546e-05
6.54358e-05
6.51097e-05
6.50039e-05
6.51005e-05
6.5419e-05
6.60342e-05
6.71798e-05
6.9547e-05
7.67881e-05
0.000130629
0.000138239
0.000111523
7.35616e-05
6.81373e-05
6.61898e-05
6.51307e-05
6.44308e-05
6.39078e-05
6.34803e-05
6.31075e-05
6.2771e-05
6.2466e-05
6.2198e-05
6.19799e-05
6.18328e-05
6.17895e-05
6.1907e-05
6.22992e-05
6.32565e-05
6.59294e-05
7.87957e-05
0.000137781
0.00013824
0.00013824
0.00013824
0.00013824
0.00013824
0.00013824
0.00013824
0.00013824
0.00013824
0.00013824
0.00013824
0.00013824
0.00013824
0.00013824
0.00013824
0.00013824
0.00013824
0.00013824
0.00013824
0.00013824
0.00013824
0.00013824
0.00013824
0.00013824
0.000126921
7.13561e-05
6.51065e-05
6.33995e-05
6.2774e-05
6.2599e-05
6.26731e-05
6.29061e-05
6.32459e-05
6.36542e-05
6.40968e-05
6.45399e-05
6.4951e-05
6.53024e-05
6.55766e-05
6.57703e-05
6.58977e-05
6.59918e-05
6.61064e-05
6.63245e-05
6.67871e-05
6.77919e-05
7.02368e-05
7.89711e-05
0.00013577
0.00013824
0.00013824
0.00013824
0.00013824
0.000137363
8.14847e-05
6.99244e-05
6.70058e-05
6.57795e-05
6.51623e-05
6.48942e-05
6.48634e-05
6.50295e-05
6.53891e-05
6.59616e-05
6.67178e-05
6.76186e-05
6.79433e-05
6.73911e-05
6.6376e-05
6.55564e-05
6.494e-05
6.4517e-05
6.42634e-05
6.41781e-05
6.4281e-05
6.46455e-05
6.54755e-05
6.73919e-05
7.36205e-05
0.000121888
0.00013824
0.00013824
0.00013824
0.00013824
0.000124402
7.47222e-05
6.81187e-05
6.60376e-05
6.50939e-05
6.46099e-05
6.44524e-05
6.45836e-05
6.50382e-05
6.59511e-05
6.79504e-05
7.40257e-05
0.000116737
0.00013824
0.00013824
0.000137112
7.98303e-05
6.88645e-05
6.58913e-05
6.45033e-05
6.36704e-05
6.3102e-05
6.26808e-05
6.23497e-05
6.20808e-05
6.18635e-05
6.16997e-05
6.16013e-05
6.15926e-05
6.17173e-05
6.20668e-05
6.28573e-05
6.47702e-05
7.15963e-05
0.000132031
0.00013824
0.00013824
0.00013824
0.00013824
0.00013824
0.00013824
0.00013824
0.00013824
0.00013824
0.00013824
0.00013824
0.00013824
0.00013824
0.00013824
0.00013824
0.00013824
0.00013824
0.00013824
0.00013824
0.00013824
0.00013824
0.00013824
0.00013824
0.00013824
0.00013824
0.000138238
0.000103853
6.89414e-05
6.4366e-05
6.30113e-05
6.2489e-05
6.23242e-05
6.23538e-05
6.25011e-05
6.27213e-05
6.29822e-05
6.32577e-05
6.35261e-05
6.37713e-05
6.39852e-05
6.41706e-05
6.4343e-05
6.45338e-05
6.47969e-05
6.52265e-05
6.6019e-05
6.77297e-05
7.3082e-05
0.000113908
0.00013824
0.00013824
0.00013824
0.00013824
0.00013824
0.00013824
0.000134442
7.65756e-05
6.87108e-05
6.63437e-05
6.52327e-05
6.47623e-05
6.46591e-05
6.48562e-05
6.5376e-05
6.6388e-05
6.79798e-05
7.15986e-05
7.322e-05
7.09916e-05
6.7484e-05
6.58957e-05
6.49228e-05
6.43633e-05
6.40841e-05
6.40703e-05
6.43423e-05
6.50433e-05
6.67633e-05
7.23708e-05
0.000110733
0.000138239
0.00013824
0.00013824
0.00013824
0.00013824
0.00013824
0.000118796
7.36226e-05
6.74411e-05
6.56581e-05
6.47759e-05
6.45075e-05
6.47161e-05
6.55077e-05
6.71893e-05
7.2786e-05
0.000108396
0.000138238
0.00013824
0.00013824
0.00013824
0.000124778
7.31859e-05
6.66189e-05
6.44394e-05
6.33209e-05
6.2636e-05
6.21791e-05
6.1858e-05
6.16302e-05
6.14795e-05
6.14057e-05
6.14247e-05
6.15726e-05
6.19204e-05
6.26584e-05
6.44021e-05
7.04166e-05
0.000122155
0.00013824
0.00013824
0.00013824
0.00013824
0.00013824
0.00013824
0.00013824
0.00013824
0.00013824
0.00013824
0.00013824
0.00013824
0.00013824
0.00013824
0.00013824
0.00013824
0.00013824
0.00013824
0.00013824
0.00013824
0.00013824
0.00013824
0.00013824
0.00013824
0.00013824
0.00013824
0.00013824
0.000138088
8.38829e-05
6.68551e-05
6.37209e-05
6.26392e-05
6.21777e-05
6.19957e-05
6.1967e-05
6.20313e-05
6.21528e-05
6.23072e-05
6.24774e-05
6.26528e-05
6.28308e-05
6.30182e-05
6.3234e-05
6.35139e-05
6.39226e-05
6.45867e-05
6.58228e-05
6.88359e-05
8.21484e-05
0.000137721
0.00013824
0.00013824
0.00013824
0.00013824
0.00013824
0.00013824
0.00013824
0.000133615
7.72905e-05
6.95212e-05
6.6502e-05
6.55574e-05
6.53193e-05
6.56553e-05
6.66424e-05
6.95932e-05
7.48532e-05
0.000110582
0.000128478
0.000104312
7.35618e-05
6.8421e-05
6.60549e-05
6.5057e-05
6.46178e-05
6.47186e-05
6.53557e-05
6.68878e-05
7.24531e-05
0.000110647
0.000138239
0.00013824
0.00013824
0.00013824
0.00013824
0.00013824
0.00013824
0.00013824
0.00012302
7.43234e-05
6.89477e-05
6.62406e-05
6.56575e-05
6.60873e-05
6.82977e-05
7.33468e-05
0.000113199
0.000138238
0.00013824
0.00013824
0.00013824
0.00013824
0.000138238
0.000105865
7.06495e-05
6.53682e-05
6.35075e-05
6.25544e-05
6.19978e-05
6.16505e-05
6.14418e-05
6.13474e-05
6.13665e-05
6.15281e-05
6.19085e-05
6.26488e-05
6.43217e-05
7.0105e-05
0.00011671
0.00013824
0.00013824
0.00013824
0.00013824
0.00013824
0.00013824
0.00013824
0.00013824
0.00013824
0.00013824
0.00013824
0.00013824
0.00013824
0.00013824
0.00013824
0.00013824
0.00013824
0.00013824
0.00013824
0.00013824
0.00013824
0.00013824
0.00013824
0.00013824
0.00013824
0.00013824
0.00013824
0.00013824
0.00013824
0.000136541
7.43944e-05
6.5538e-05
6.3258e-05
6.23323e-05
6.18826e-05
6.16636e-05
6.15803e-05
6.1583e-05
6.16429e-05
6.17418e-05
6.18711e-05
6.20311e-05
6.22328e-05
6.25017e-05
6.28867e-05
6.34833e-05
6.45052e-05
6.66087e-05
7.33291e-05
0.000128355
0.00013824
0.00013824
0.00013824
0.00013824
0.00013824
0.00013824
0.00013824
0.00013824
0.00013824
0.000136478
9.2174e-05
7.22627e-05
6.93375e-05
6.84362e-05
6.96452e-05
7.26211e-05
9.43804e-05
0.000133795
0.000138239
0.00013824
0.000138237
0.000129641
8.43479e-05
7.13856e-05
6.8269e-05
6.68462e-05
6.74428e-05
6.9876e-05
7.49902e-05
0.000122893
0.000138239
0.00013824
0.00013824
0.00013824
0.00013824
0.00013824
0.00013824
0.00013824
0.00013824
0.00013824
0.000133364
9.3909e-05
7.26253e-05
7.08832e-05
7.21091e-05
8.67961e-05
0.000128548
0.00013824
0.00013824
0.00013824
0.00013824
0.00013824
0.00013824
0.00013824
0.000138221
9.54676e-05
6.94444e-05
6.47199e-05
6.30379e-05
6.22482e-05
6.18124e-05
6.15959e-05
6.15643e-05
6.17127e-05
6.21088e-05
6.301e-05
6.4809e-05
7.06113e-05
0.000119372
0.00013824
0.00013824
0.00013824
0.00013824
0.00013824
0.00013824
0.00013824
0.00013824
0.00013824
0.00013824
0.00013824
0.00013824
0.00013824
0.00013824
0.00013824
0.00013824
0.00013824
0.00013824
0.00013824
0.00013824
0.00013824
0.00013824
0.00013824
0.00013824
0.00013824
0.00013824
0.00013824
0.00013824
0.00013824
0.00013824
0.00013824
0.000133378
7.2222e-05
6.50807e-05
6.30537e-05
6.21372e-05
6.16475e-05
6.13884e-05
6.12691e-05
6.12429e-05
6.12841e-05
6.13821e-05
6.15391e-05
6.17717e-05
6.21192e-05
6.26617e-05
6.35841e-05
6.54218e-05
7.09154e-05
0.000110969
0.000138239
0.00013824
0.00013824
0.00013824
0.00013824
0.00013824
0.00013824
0.00013824
0.00013824
0.00013824
0.00013824
0.000138196
0.000123319
9.64407e-05
8.64262e-05
0.000100164
0.000126505
0.000138213
0.00013824
0.00013824
0.00013824
0.00013824
0.00013824
0.000138019
0.000119089
8.89674e-05
7.63864e-05
8.19428e-05
0.00010822
0.000135726
0.00013824
0.00013824
0.00013824
0.00013824
0.00013824
0.00013824
0.00013824
0.00013824
0.00013824
0.00013824
0.00013824
0.00013824
0.000138213
0.000130843
0.000119686
0.000128341
0.000138118
0.00013824
0.00013824
0.00013824
0.00013824
0.00013824
0.00013824
0.00013824
0.00013824
0.00013824
0.000138214
9.76817e-05
6.97812e-05
6.47796e-05
6.33491e-05
6.26337e-05
6.2343e-05
6.24364e-05
6.28751e-05
6.38325e-05
6.70605e-05
7.42115e-05
0.000129123
0.00013824
0.00013824
0.00013824
0.00013824
0.00013824
0.00013824
0.00013824
0.00013824
0.00013824
0.00013824
0.00013824
0.00013824
0.00013824
0.00013824
0.00013824
0.00013824
0.00013824
0.00013824
0.00013824
0.00013824
0.00013824
0.00013824
0.00013824
0.00013824
0.00013824
0.00013824
0.00013824
0.00013824
0.00013824
0.00013824
0.00013824
0.00013824
0.00013824
0.000132142
7.23282e-05
6.53806e-05
6.31417e-05
6.20799e-05
6.15352e-05
6.12514e-05
6.11267e-05
6.11104e-05
6.11857e-05
6.13568e-05
6.16493e-05
6.21331e-05
6.29719e-05
6.46618e-05
6.94494e-05
9.83291e-05
0.000138231
0.00013824
0.00013824
0.00013824
0.00013824
0.00013824
0.00013824
0.00013824
0.00013824
0.00013824
0.00013824
0.00013824
0.00013824
0.00013824
0.00013822
0.000138078
0.000138231
0.00013824
0.00013824
0.00013824
0.00013824
0.00013824
0.00013824
0.00013824
0.00013824
0.00013824
0.000138156
0.000136702
0.000137866
0.000138239
0.00013824
0.00013824
0.00013824
0.00013824
0.00013824
0.00013824
0.00013824
0.00013824
0.00013824
0.00013824
0.00013824
0.00013824
0.00013824
0.00013824
0.00013824
0.00013824
0.00013824
0.00013824
0.00013824
0.00013824
0.00013824
0.00013824
0.00013824
0.00013824
0.00013824
0.00013824
0.00013824
0.00013824
0.000138231
0.000114052
7.17459e-05
6.76989e-05
6.54011e-05
6.46445e-05
6.53405e-05
6.72403e-05
7.03388e-05
0.00010005
0.000136995
0.00013824
0.00013824
0.00013824
0.00013824
0.00013824
0.00013824
0.00013824
0.00013824
0.00013824
0.00013824
0.00013824
0.00013824
0.00013824
0.00013824
0.00013824
0.00013824
0.00013824
0.00013824
0.00013824
0.00013824
0.00013824
0.00013824
0.00013824
0.00013824
0.00013824
0.00013824
0.00013824
0.00013824
0.00013824
0.00013824
0.00013824
0.00013824
0.00013824
0.00013824
0.00013824
0.000134768
7.65166e-05
6.68195e-05
6.35164e-05
6.2273e-05
6.16758e-05
6.13983e-05
6.13024e-05
6.13585e-05
6.15748e-05
6.19915e-05
6.27691e-05
6.43733e-05
6.9164e-05
9.56256e-05
0.000138218
0.00013824
0.00013824
0.00013824
0.00013824
0.00013824
0.00013824
0.00013824
0.00013824
0.00013824
0.00013824
0.00013824
0.00013824
0.00013824
0.00013824
0.00013824
0.00013824
0.00013824
0.00013824
0.00013824
0.00013824
0.00013824
0.00013824
0.00013824
0.00013824
0.00013824
0.00013824
0.00013824
0.00013824
0.00013824
0.00013824
0.00013824
0.00013824
0.00013824
0.00013824
0.00013824
0.00013824
0.00013824
0.00013824
0.00013824
0.00013824
0.00013824
0.00013824
0.00013824
0.00013824
0.00013824
0.00013824
0.00013824
0.00013824
0.00013824
0.00013824
0.00013824
0.00013824
0.00013824
0.00013824
0.00013824
0.00013824
0.00013824
0.00013824
0.00013824
0.00013824
0.000133024
0.000103846
7.95535e-05
7.40881e-05
8.09348e-05
0.000103106
0.00013014
0.000138237
0.00013824
0.00013824
0.00013824
0.00013824
0.00013824
0.00013824
0.00013824
0.00013824
0.00013824
0.00013824
0.00013824
0.00013824
0.00013824
0.00013824
0.00013824
0.00013824
0.00013824
0.00013824
0.00013824
0.00013824
0.00013824
0.00013824
0.00013824
0.00013824
0.00013824
0.00013824
0.00013824
0.00013824
0.00013824
0.00013824
0.00013824
0.00013824
0.00013824
0.00013824
0.00013824
0.00013824
0.00013824
0.00013758
9.35348e-05
6.90894e-05
6.46509e-05
6.3069e-05
6.24384e-05
6.21554e-05
6.21834e-05
6.25474e-05
6.32979e-05
6.50101e-05
7.01419e-05
0.000104407
0.000138225
0.00013824
0.00013824
0.00013824
0.00013824
0.00013824
0.00013824
0.00013824
0.00013824
0.00013824
0.00013824
0.00013824
0.00013824
0.00013824
0.00013824
0.00013824
0.00013824
0.00013824
0.00013824
0.00013824
0.00013824
0.00013824
0.00013824
0.00013824
0.00013824
0.00013824
0.00013824
0.00013824
0.00013824
0.00013824
0.00013824
0.00013824
0.00013824
0.00013824
0.00013824
0.00013824
0.00013824
0.00013824
0.00013824
0.00013824
0.00013824
0.00013824
0.00013824
0.00013824
0.00013824
0.00013824
0.00013824
0.00013824
0.00013824
0.00013824
0.00013824
0.00013824
0.00013824
0.00013824
0.00013824
0.00013824
0.00013824
0.00013824
0.00013824
0.00013824
0.00013824
0.00013824
0.00013824
0.000138238
0.000137873
0.000136797
0.00013799
0.000138238
0.00013824
0.00013824
0.00013824
0.00013824
0.00013824
0.00013824
0.00013824
0.00013824
0.00013824
0.00013824
0.00013824
0.00013824
0.00013824
0.00013824
0.00013824
0.00013824
0.00013824
0.00013824
0.00013824
0.00013824
0.00013824
0.00013824
0.00013824
0.00013824
0.00013824
0.00013824
0.00013824
0.00013824
0.00013824
0.00013824
0.00013824
0.00013824
0.00013824
0.00013824
0.00013824
0.00013824
0.00013824
0.00013824
0.00013824
0.00013824
0.000138226
0.000121134
7.61742e-05
6.84355e-05
6.62827e-05
6.49988e-05
6.48985e-05
6.61222e-05
6.84696e-05
7.56447e-05
0.000123786
0.000138238
0.00013824
0.00013824
0.00013824
0.00013824
0.00013824
0.00013824
0.00013824
0.00013824
0.00013824
0.00013824
0.00013824
0.00013824
0.00013824
0.00013824
0.00013824
0.00013824
0.00013824
0.00013824
0.00013824
0.00013824
0.00013824
0.00013824
0.00013824
0.00013824
0.00013824
0.00013824
0.00013824
0.00013824
0.00013824
0.00013824
0.00013824
0.00013824
0.00013824
0.00013824
0.00013824
0.00013824
0.00013824
0.00013824
0.00013824
0.00013824
0.00013824
0.00013824
0.00013824
0.00013824
0.00013824
0.00013824
0.00013824
0.00013824
0.00013824
0.00013824
0.00013824
0.00013824
0.00013824
0.00013824
0.00013824
0.00013824
0.00013824
0.00013824
0.00013824
0.00013824
0.00013824
0.00013824
0.00013824
0.00013824
0.00013824
0.00013824
0.00013824
0.00013824
0.00013824
0.00013824
0.00013824
0.00013824
0.00013824
0.00013824
0.00013824
0.00013824
0.00013824
0.00013824
0.00013824
0.00013824
0.00013824
0.00013824
0.00013824
0.00013824
0.00013824
0.00013824
0.00013824
0.00013824
0.00013824
0.00013824
0.00013824
0.00013824
0.00013824
0.00013824
0.00013824
0.00013824
0.00013824
0.00013824
0.00013824
0.00013824
0.00013824
0.00013824
0.00013824
0.00013824
0.00013824
0.00013824
0.00013824
0.00013824
0.00013824
0.00013824
0.000137613
0.000118832
9.40283e-05
7.96354e-05
7.80865e-05
9.00543e-05
0.00011596
0.000137395
0.00013824
0.00013824
0.00013824
0.00013824
0.00013824
0.00013824
0.00013824
0.00013824
0.00013824
0.00013824
0.00013824
0.00013824
0.00013824
0.00013824
0.00013824
0.00013824
0.00013824
0.00013824
0.00013824
0.00013824
0.00013824
0.00013824
0.00013824
0.00013824
0.00013824
0.00013824
0.00013824
0.00013824
0.00013824
0.00013824
0.00013824
0.00013824
0.00013824
0.00013824
0.00013824
0.00013824
0.00013824
0.00013824
0.00013824
0.00013824
0.00013824
0.00013824
0.00013824
0.00013824
0.00013824
0.00013824
0.00013824
0.00013824
0.00013824
0.00013824
0.00013824
0.00013824
0.00013824
0.00013824
0.00013824
0.00013824
0.00013824
0.00013824
0.00013824
0.00013824
0.00013824
0.00013824
0.00013824
0.00013824
0.00013824
0.00013824
0.00013824
0.00013824
0.00013824
0.00013824
0.00013824
0.00013824
0.00013824
0.00013824
0.00013824
0.00013824
0.00013824
0.00013824
0.00013824
0.00013824
0.00013824
0.00013824
0.00013824
0.00013824
0.00013824
0.00013824
0.00013824
0.00013824
0.00013824
0.00013824
0.00013824
0.00013824
0.00013824
0.00013824
0.00013824
0.00013824
0.00013824
0.00013824
0.00013824
0.00013824
0.00013824
0.00013824
0.00013824
0.00013824
0.00013824
0.00013824
0.00013824
0.00013824
0.00013824
0.00013824
0.00013824
0.00013824
0.00013824
0.00013824
0.000138226
0.000137927
0.00013778
0.000138205
0.00013824
0.00013824
0.00013824
0.00013824
0.00013824
0.00013824
0.00013824
0.00013824
0.00013824
0.00013824
0.00013824
0.00013824
0.00013824
0.00013824
0.00013824
0.00013824
0.00013824
0.00013824
0.00013824
0.00013824
0.00013824
0.00013824
0.00013824
0.00013824
0.00013824
0.00013824
0.00013824
0.00013824
0.00013824
0.00013824
0.00013824
0.00013824
0.00013824
0.00013824
0.00013824
0.00013824
0.00013824
0.00013824
0.00013824
0.00013824
0.00013824
0.00013824
0.00013824
0.00013824
0.00013824
0.00013824
0.00013824
0.00013824
0.00013824
0.00013824
0.00013824
0.00013824
0.00013824
0.00013824
0.00013824
0.00013824
0.00013824
0.00013824
0.00013824
0.00013824
0.00013824
0.00013824
0.00013824
0.00013824
0.00013824
0.00013824
0.00013824
0.00013824
0.00013824
0.00013824
0.00013824
0.00013824
0.00013824
0.00013824
0.00013824
0.00013824
0.00013824
0.00013824
0.00013824
0.00013824
0.00013824
0.00013824
0.00013824
0.00013824
0.00013824
0.00013824
0.00013824
0.00013824
0.00013824
0.00013824
0.00013824
0.00013824
0.00013824
0.00013824
0.00013824
0.00013824
0.00013824
0.00013824
0.00013824
0.00013824
0.00013824
0.00013824
0.00013824
0.00013824
0.00013824
0.00013824
0.00013824
0.00013824
0.00013824
0.00013824
0.00013824
0.00013824
0.00013824
0.00013824
0.00013824
0.00013824
0.00013824
0.00013824
0.00013824
0.00013824
0.00013824
0.00013824
0.00013824
0.00013824
0.00013824
0.00013824
0.00013824
0.00013824
0.00013824
0.00013824
0.00013824
0.00013824
0.00013824
0.00013824
0.00013824
0.00013824
0.00013824
0.00013824
0.00013824
0.00013824
0.00013824
0.00013824
0.00013824
0.00013824
0.00013824
0.00013824
0.00013824
0.00013824
0.00013824
0.00013824
0.00013824
0.00013824
0.00013824
0.00013824
0.00013824
0.00013824
0.00013824
0.00013824
0.00013824
0.00013824
0.00013824
0.00013824
0.00013824
0.00013824
0.00013824
0.00013824
0.00013824
0.00013824
0.00013824
0.00013824
0.00013824
0.00013824
0.00013824
0.00013824
0.00013824
0.00013824
0.00013824
0.00013824
0.00013824
0.00013824
0.00013824
0.00013824
0.00013824
0.00013824
0.00013824
0.00013824
0.00013824
0.00013824
0.00013824
0.00013824
0.00013824
0.00013824
0.00013824
0.00013824
0.00013824
0.00013824
0.00013824
0.00013824
0.00013824
0.00013824
0.00013824
0.00013824
0.00013824
0.00013824
0.00013824
0.00013824
0.00013824
0.00013824
0.00013824
0.00013824
0.00013824
0.00013824
0.00013824
0.00013824
0.00013824
0.00013824
0.00013824
0.00013824
0.00013824
0.00013824
0.00013824
0.00013824
0.00013824
0.00013824
0.00013824
0.00013824
0.00013824
0.00013824
0.00013824
0.00013824
0.00013824
0.00013824
0.00013824
0.00013824
0.00013824
0.00013824
0.00013824
0.00013824
0.00013824
0.00013824
0.00013824
0.00013824
0.00013824
0.00013824
0.00013824
0.00013824
0.00013824
0.00013824
0.00013824
0.00013824
0.00013824
0.00013824
0.00013824
0.00013824
0.00013824
0.00013824
0.00013824
0.00013824
0.00013824
0.00013824
0.00013824
0.00013824
0.00013824
0.00013824
0.00013824
0.00013824
0.00013824
0.00013824
0.00013824
0.00013824
0.00013824
0.00013824
0.00013824
0.00013824
0.00013824
0.00013824
0.00013824
0.00013824
0.00013824
0.00013824
0.00013824
0.00013824
0.00013824
0.00013824
0.00013824
0.00013824
0.00013824
0.00013824
0.00013824
0.00013824
0.00013824
0.00013824
0.00013824
0.00013824
0.00013824
0.00013824
0.00013824
0.00013824
0.00013824
0.00013824
0.00013824
0.00013824
0.00013824
0.00013824
0.00013824
0.00013824
0.00013824
0.00013824
0.00013824
0.00013824
0.00013824
0.00013824
0.00013824
0.00013824
0.00013824
0.00013824
0.00013824
0.00013824
0.00013824
0.00013824
0.00013824
0.00013824
0.00013824
0.00013824
0.00013824
0.00013824
0.00013824
0.00013824
0.00013824
0.00013824
0.00013824
0.00013824
0.00013824
0.00013824
0.00013824
0.00013824
0.00013824
0.00013824
0.00013824
0.00013824
0.00013824
0.00013824
0.00013824
0.00013824
0.00013824
0.00013824
0.00013824
0.00013824
0.00013824
0.00013824
0.00013824
0.00013824
0.00013824
0.00013824
0.00013824
0.00013824
0.00013824
0.00013824
0.00013824
0.00013824
0.00013824
0.00013824
0.00013824
0.00013824
0.00013824
0.00013824
0.00013824
0.00013824
0.00013824
0.00013824
0.00013824
0.00013824
0.00013824
0.00013824
0.00013824
0.00013824
0.00013824
0.00013824
0.00013824
0.00013824
0.00013824
0.00013824
0.00013824
0.00013824
0.00013824
0.00013824
0.00013824
0.00013824
0.00013824
0.00013824
0.00013824
0.00013824
0.00013824
0.00013824
0.00013824
0.00013824
0.00013824
0.00013824
0.00013824
0.00013824
0.00013824
0.00013824
0.00013824
0.00013824
0.00013824
0.00013824
0.00013824
0.00013824
0.00013824
0.00013824
0.00013824
0.00013824
0.00013824
0.00013824
0.00013824
0.00013824
0.00013824
0.00013824
0.00013824
0.00013824
0.00013824
0.00013824
0.00013824
0.00013824
0.00013824
0.00013824
0.00013824
0.00013824
0.00013824
0.00013824
0.00013824
0.00013824
0.00013824
0.00013824
0.00013824
0.00013824
0.00013824
0.00013824
0.00013824
0.00013824
0.00013824
0.00013824
0.00013824
0.00013824
0.00013824
0.00013824
0.00013824
0.00013824
0.00013824
0.00013824
0.00013824
0.00013824
0.00013824
0.00013824
0.00013824
0.00013824
0.00013824
0.00013824
0.00013824
0.00013824
0.00013824
0.00013824
0.00013824
0.00013824
0.00013824
0.00013824
0.00013824
0.00013824
0.00013824
0.00013824
0.00013824
0.00013824
0.00013824
0.00013824
0.00013824
0.00013824
0.00013824
0.00013824
0.00013824
0.00013824
0.00013824
0.00013824
0.00013824
0.00013824
0.00013824
0.00013824
0.00013824
0.00013824
0.00013824
0.00013824
0.00013824
0.00013824
0.00013824
0.00013824
0.00013824
0.00013824
0.00013824
0.00013824
0.00013824
0.00013824
0.00013824
0.00013824
0.00013824
0.00013824
0.00013824
0.00013824
0.00013824
0.00013824
0.00013824
0.00013824
0.00013824
0.00013824
0.00013824
0.00013824
0.00013824
0.00013824
0.00013824
0.00013824
0.00013824
0.00013824
0.00013824
0.00013824
0.00013824
0.00013824
0.00013824
0.00013824
0.00013824
0.00013824
0.00013824
0.00013824
0.00013824
0.00013824
0.00013824
0.00013824
0.00013824
0.00013824
0.00013824
0.00013824
0.00013824
0.00013824
0.00013824
0.00013824
0.00013824
0.00013824
0.00013824
0.00013824
0.00013824
0.00013824
0.00013824
0.00013824
0.00013824
0.00013824
0.00013824
0.00013824
0.00013824
0.00013824
0.00013824
0.00013824
0.00013824
0.00013824
0.00013824
0.00013824