/*--------------------------------*- C++ -*----------------------------------*\
| =========                 |                                                 |
| \\      /  F ield         | OpenFOAM: The Open Source CFD Toolbox           |
|  \\    /   O peration     | Version:  2406                                  |
|   \\  /    A nd           | Website:  www.openfoam.com                      |
|    \\/     M anipulation  |                                                 |
\*---------------------------------------------------------------------------*/
FoamFile
{
    version     2.0;
    format      ascii;
    arch        "LSB;label=32;scalar=64";
    class       volScalarField;
    location    "8";
    object      C;
}
// * * * * * * * * * * * * * * * * * * * * * * * * * * * * * * * * * * * * * //

dimensions      [1 -3 0 0 0 0 0];

internalField   nonuniform List<scalar> 
14400
(
0.225111
0.224149
0.22246
0.220405
0.218354
0.216626
0.215461
0.215008
0.215326
0.216379
0.218037
0.220065
0.222123
0.22377
0.22451
0.223902
0.221771
0.218414
0.214362
0.210186
0.206398
0.20343
0.201641
0.20134
0.202804
0.206299
0.212089
0.220441
0.231637
0.245969
0.263749
0.285309
0.310991
0.341132
0.376008
0.415678
0.459464
0.503583
0.535519
0.556928
0.575311
0.591041
0.604334
0.61536
0.624247
0.631095
0.635978
0.638947
0.640037
0.639264
0.636629
0.632115
0.625692
0.617308
0.606891
0.594349
0.579558
0.562361
0.542554
0.519227
0.484201
0.437709
0.393854
0.3546
0.320214
0.290531
0.265245
0.244006
0.226464
0.212282
0.201143
0.192746
0.186813
0.183095
0.181382
0.181518
0.183395
0.186952
0.192164
0.199033
0.207562
0.217738
0.229494
0.242657
0.256854
0.271259
0.283595
0.290034
0.289024
0.282082
0.272473
0.262492
0.252986
0.244382
0.236908
0.230667
0.225674
0.221867
0.219133
0.217312
0.216217
0.215654
0.215454
0.215504
0.215777
0.216343
0.217358
0.219034
0.221606
0.225306
0.230344
0.236894
0.245081
0.25497
0.266543
0.279667
0.294011
0.308853
0.322447
0.330364
0.231559
0.230349
0.228279
0.225818
0.22341
0.221409
0.220071
0.219551
0.21991
0.221114
0.223033
0.225431
0.227951
0.230104
0.231277
0.230825
0.228382
0.224469
0.219817
0.215099
0.210868
0.207561
0.205533
0.205082
0.206479
0.209977
0.215835
0.224316
0.235694
0.250263
0.268332
0.290232
0.316308
0.346903
0.382304
0.422599
0.467023
0.509303
0.538922
0.559869
0.577966
0.593476
0.606602
0.617498
0.626287
0.633061
0.637891
0.640826
0.641899
0.641126
0.638506
0.634026
0.627653
0.619339
0.609017
0.596598
0.581965
0.56497
0.54542
0.522892
0.489814
0.444325
0.400069
0.360245
0.325326
0.29517
0.269464
0.247854
0.229984
0.215515
0.204128
0.195525
0.189431
0.1856
0.183831
0.183966
0.1859
0.189574
0.194967
0.20208
0.210924
0.221487
0.233709
0.247428
0.262291
0.277474
0.290188
0.296265
0.295988
0.289122
0.279059
0.268595
0.25866
0.2497
0.24195
0.235514
0.230405
0.22656
0.223858
0.222124
0.22115
0.220713
0.220609
0.220694
0.220932
0.221407
0.222306
0.223872
0.22637
0.230051
0.23514
0.241815
0.250207
0.260384
0.272336
0.285936
0.300867
0.316387
0.330029
0.33673
0.244963
0.243158
0.240228
0.236899
0.233747
0.231188
0.229498
0.228841
0.229278
0.23078
0.233222
0.236368
0.239845
0.243094
0.245294
0.245308
0.242049
0.236861
0.230924
0.22509
0.21996
0.215973
0.213464
0.212712
0.213965
0.217464
0.223452
0.232182
0.243921
0.258958
0.277599
0.300176
0.327029
0.358494
0.394841
0.436096
0.481157
0.519548
0.545432
0.565654
0.583206
0.598297
0.611098
0.621744
0.630341
0.636971
0.641699
0.644568
0.645608
0.644834
0.642245
0.637829
0.631554
0.623379
0.613241
0.60106
0.586734
0.570133
0.5511
0.529443
0.500129
0.457757
0.412501
0.37155
0.335605
0.304526
0.277995
0.255651
0.237133
0.222098
0.210225
0.201219
0.194811
0.190766
0.188886
0.189022
0.191073
0.194983
0.200735
0.208336
0.217799
0.229123
0.242255
0.257038
0.273109
0.289532
0.302456
0.307954
0.308549
0.302939
0.29226
0.280905
0.270141
0.260489
0.2522
0.245386
0.24006
0.236157
0.233539
0.232007
0.231309
0.231158
0.231272
0.23144
0.231594
0.231854
0.23248
0.233792
0.236113
0.239735
0.244904
0.251814
0.2606
0.271335
0.284011
0.298497
0.314439
0.330885
0.343703
0.348559
0.266318
0.263302
0.258832
0.254063
0.249736
0.246315
0.244089
0.243219
0.243769
0.24571
0.248926
0.253197
0.25816
0.263223
0.267365
0.268606
0.26348
0.255998
0.247976
0.240419
0.233935
0.228929
0.225697
0.224484
0.225513
0.229
0.23517
0.244261
0.256532
0.272263
0.291758
0.315338
0.343335
0.376055
0.413682
0.455904
0.500139
0.532517
0.554864
0.57411
0.590905
0.605408
0.617751
0.628039
0.636361
0.642785
0.647364
0.650138
0.651132
0.650356
0.647813
0.643488
0.637357
0.629381
0.619507
0.607668
0.593776
0.57773
0.559401
0.538639
0.513513
0.476374
0.430713
0.388498
0.351163
0.318759
0.291019
0.267594
0.248121
0.232255
0.219673
0.210085
0.203227
0.198875
0.196843
0.196989
0.199219
0.203485
0.209771
0.218093
0.22847
0.240908
0.25536
0.271661
0.289358
0.307073
0.319082
0.324062
0.325346
0.322392
0.312054
0.299573
0.287655
0.277015
0.267952
0.260598
0.254977
0.251021
0.24858
0.247419
0.247218
0.247589
0.248112
0.248435
0.248419
0.248268
0.248388
0.249231
0.251217
0.254696
0.259946
0.267172
0.276515
0.288045
0.301747
0.317455
0.334648
0.351591
0.361357
0.364776
0.296926
0.291547
0.284591
0.277721
0.271767
0.267183
0.264238
0.263082
0.263773
0.266282
0.270501
0.276233
0.283157
0.290724
0.297822
0.300426
0.292864
0.282059
0.271184
0.261344
0.253087
0.246746
0.242562
0.240735
0.241453
0.244908
0.251305
0.260865
0.273834
0.290482
0.311104
0.336008
0.3655
0.399835
0.439087
0.482464
0.52107
0.546652
0.566957
0.585016
0.600895
0.61468
0.626457
0.636301
0.644278
0.650442
0.654836
0.657489
0.658423
0.657647
0.655162
0.650955
0.645005
0.637281
0.62774
0.616327
0.602975
0.587607
0.570135
0.550462
0.528451
0.498172
0.454701
0.411279
0.372229
0.338123
0.30881
0.28397
0.263248
0.246298
0.2328
0.222465
0.21504
0.210307
0.208094
0.208269
0.210748
0.215486
0.222478
0.231742
0.243306
0.25718
0.273319
0.291535
0.311203
0.329345
0.338986
0.343719
0.345583
0.344693
0.337769
0.324637
0.311445
0.2996
0.289564
0.281532
0.27556
0.271593
0.269471
0.268922
0.269547
0.270809
0.272058
0.272669
0.272322
0.271426
0.270671
0.270726
0.272147
0.275352
0.280647
0.288246
0.298278
0.310795
0.325758
0.342923
0.361358
0.375759
0.381717
0.384369
0.336032
0.327833
0.317608
0.308097
0.300149
0.294146
0.290322
0.288813
0.289673
0.292862
0.298265
0.30569
0.314804
0.324862
0.333226
0.333791
0.328171
0.314568
0.300534
0.288054
0.277708
0.269772
0.264432
0.261847
0.262173
0.265578
0.272245
0.282378
0.296209
0.313995
0.336015
0.362553
0.393852
0.43001
0.470564
0.512429
0.541709
0.56253
0.581292
0.598103
0.61298
0.625961
0.637095
0.646429
0.654009
0.659871
0.664047
0.66656
0.667425
0.666649
0.664231
0.660163
0.654427
0.646998
0.637844
0.626924
0.61419
0.59959
0.583069
0.564578
0.544081
0.52014
0.48457
0.440119
0.399078
0.362941
0.331721
0.305149
0.282893
0.264616
0.250003
0.23877
0.230669
0.225494
0.223083
0.223316
0.226115
0.231446
0.239306
0.24972
0.262721
0.278315
0.296429
0.316752
0.338112
0.354102
0.361592
0.366245
0.368552
0.368643
0.365953
0.355822
0.341678
0.328552
0.317404
0.308579
0.302224
0.298316
0.2967
0.297088
0.299002
0.30172
0.30424
0.305413
0.304412
0.302192
0.300008
0.298828
0.299379
0.302136
0.307415
0.315419
0.326246
0.339874
0.356173
0.374531
0.391944
0.400606
0.404564
0.406613
0.373394
0.369005
0.357108
0.34509
0.33506
0.327491
0.322668
0.320753
0.321816
0.325783
0.332489
0.341697
0.352887
0.364177
0.367756
0.366227
0.363353
0.352374
0.335829
0.320689
0.308091
0.298376
0.291716
0.288247
0.288108
0.291448
0.298434
0.309251
0.32411
0.343251
0.366931
0.395389
0.428765
0.466891
0.508103
0.539954
0.561451
0.580339
0.597579
0.613125
0.62696
0.639089
0.649532
0.658313
0.665456
0.670986
0.674921
0.677278
0.678067
0.677292
0.674951
0.671039
0.665542
0.658441
0.649715
0.639335
0.627271
0.613493
0.597975
0.5807
0.561671
0.540927
0.51427
0.474349
0.431846
0.393564
0.360172
0.331574
0.307507
0.287664
0.271739
0.259456
0.250576
0.244901
0.242281
0.242605
0.245802
0.251842
0.260729
0.27249
0.287157
0.30472
0.325026
0.347421
0.368669
0.380139
0.386596
0.391115
0.393738
0.394588
0.393882
0.389541
0.377841
0.364008
0.351769
0.342074
0.335326
0.331566
0.330668
0.332368
0.336156
0.341115
0.345772
0.348027
0.345788
0.341305
0.336956
0.33398
0.333318
0.335437
0.340626
0.349052
0.360759
0.375508
0.39299
0.411415
0.421804
0.426241
0.429317
0.430905
0.406968
0.406583
0.401023
0.388193
0.376525
0.36741
0.361523
0.359152
0.360469
0.365302
0.373319
0.384147
0.396464
0.401869
0.40127
0.39976
0.397463
0.391954
0.376585
0.359372
0.344558
0.332967
0.324864
0.320403
0.319735
0.323007
0.33037
0.341987
0.358039
0.378737
0.404306
0.434878
0.470297
0.50927
0.541975
0.564153
0.582626
0.599795
0.615561
0.629857
0.642644
0.653904
0.663632
0.671834
0.678518
0.683694
0.687374
0.689565
0.690273
0.6895
0.687244
0.6835
0.67826
0.671511
0.663239
0.653429
0.642066
0.629137
0.614637
0.598574
0.580976
0.561897
0.54129
0.512234
0.470525
0.43038
0.394646
0.363751
0.337603
0.315954
0.29852
0.285032
0.275264
0.269029
0.266187
0.266635
0.270309
0.277179
0.287245
0.300534
0.317066
0.336787
0.359367
0.383284
0.399655
0.407581
0.413532
0.417882
0.420695
0.42209
0.422252
0.42143
0.416543
0.405453
0.392726
0.382165
0.375079
0.371568
0.371555
0.374873
0.381054
0.388792
0.396219
0.398593
0.396107
0.388555
0.381614
0.376309
0.374181
0.375516
0.380543
0.389367
0.402001
0.417464
0.434884
0.445303
0.449791
0.453176
0.455557
0.456787
0.4408
0.440676
0.440279
0.434945
0.423961
0.413807
0.406908
0.40401
0.405678
0.411426
0.4203
0.431367
0.436617
0.436512
0.4355
0.434081
0.432163
0.429706
0.421717
0.404176
0.387439
0.373979
0.364361
0.358815
0.357564
0.360774
0.368581
0.381122
0.398525
0.42093
0.448521
0.481134
0.517379
0.549022
0.570932
0.58848
0.605105
0.620653
0.635012
0.648098
0.659856
0.67025
0.679259
0.686872
0.693086
0.6979
0.701315
0.703335
0.70396
0.70319
0.701024
0.697457
0.692486
0.686103
0.678301
0.669077
0.658426
0.646351
0.632863
0.617985
0.601759
0.584248
0.565537
0.544948
0.514613
0.473721
0.435625
0.402209
0.373732
0.350052
0.33091
0.316058
0.305283
0.298418
0.295336
0.295943
0.300176
0.307994
0.319386
0.334355
0.352884
0.374791
0.399138
0.419795
0.429943
0.436658
0.442068
0.446187
0.44907
0.450823
0.451604
0.451625
0.451142
0.447228
0.439172
0.428341
0.421323
0.418201
0.419044
0.423766
0.431897
0.437729
0.44082
0.441637
0.441207
0.4384
0.432581
0.425115
0.42177
0.422307
0.427103
0.436065
0.449306
0.462706
0.471458
0.475346
0.478519
0.481114
0.482949
0.483898
0.474757
0.474768
0.47485
0.474994
0.471456
0.465125
0.457933
0.45448
0.456594
0.462957
0.469196
0.472654
0.472135
0.471168
0.470136
0.468901
0.467389
0.465576
0.463273
0.454259
0.436813
0.421755
0.410678
0.403962
0.402094
0.405266
0.41359
0.427181
0.44606
0.470149
0.499604
0.533023
0.561505
0.581844
0.598062
0.613729
0.62866
0.642702
0.655735
0.667667
0.678432
0.687981
0.696282
0.70331
0.709054
0.713503
0.716653
0.7185
0.719042
0.718277
0.716204
0.71282
0.708123
0.702112
0.694787
0.686151
0.67621
0.664978
0.652478
0.638745
0.623828
0.607798
0.590741
0.572762
0.552303
0.522224
0.483219
0.447374
0.416428
0.390551
0.36952
0.353141
0.341229
0.333651
0.330305
0.331106
0.335983
0.344869
0.357716
0.37446
0.394978
0.418619
0.441921
0.454322
0.461168
0.467042
0.471896
0.475727
0.478576
0.480529
0.481715
0.48231
0.482536
0.482678
0.481016
0.477002
0.472401
0.469943
0.471141
0.474085
0.476662
0.47754
0.476981
0.477037
0.477859
0.479251
0.478772
0.47678
0.474452
0.47441
0.47888
0.486636
0.494324
0.500072
0.502775
0.505409
0.507824
0.509814
0.511226
0.511958
0.508703
0.508788
0.509007
0.509463
0.510318
0.509558
0.507552
0.506289
0.506907
0.508551
0.50932
0.507929
0.506826
0.505888
0.504976
0.503999
0.502914
0.501724
0.500482
0.498679
0.490839
0.475972
0.464078
0.456144
0.453701
0.456902
0.465791
0.480517
0.500906
0.525967
0.555734
0.579353
0.596786
0.611358
0.625739
0.639715
0.653105
0.66576
0.677558
0.688404
0.698224
0.706962
0.714575
0.721034
0.726316
0.730406
0.733293
0.73497
0.735431
0.734673
0.732695
0.729495
0.725075
0.719436
0.712584
0.704529
0.695285
0.684874
0.673327
0.660687
0.647012
0.632375
0.616868
0.600602
0.583713
0.564207
0.535964
0.499259
0.46607
0.438024
0.414976
0.396924
0.383732
0.375342
0.371696
0.372726
0.37834
0.388407
0.402807
0.421291
0.443518
0.467325
0.480934
0.487527
0.493356
0.498445
0.502746
0.506248
0.508979
0.511003
0.512418
0.513362
0.514002
0.514537
0.515183
0.515849
0.51502
0.514177
0.51411
0.513941
0.51262
0.511735
0.511399
0.51161
0.51241
0.513793
0.515844
0.518174
0.519285
0.520865
0.523869
0.527467
0.529887
0.531647
0.533659
0.535691
0.537553
0.539091
0.540183
0.54075
0.542563
0.542675
0.542928
0.543376
0.544083
0.545079
0.546222
0.546625
0.546117
0.544768
0.543388
0.542265
0.541353
0.540581
0.53988
0.539205
0.538545
0.537925
0.53742
0.537162
0.53682
0.532004
0.523636
0.51485
0.512314
0.515734
0.525061
0.540606
0.562003
0.583753
0.601856
0.615503
0.628208
0.641062
0.653823
0.666288
0.678286
0.689674
0.700333
0.710167
0.719098
0.727066
0.734024
0.739934
0.74477
0.748512
0.751143
0.752655
0.753038
0.75229
0.750407
0.747391
0.743244
0.737972
0.731585
0.724097
0.715528
0.705906
0.695269
0.683665
0.671157
0.657821
0.643752
0.629065
0.613896
0.598408
0.580898
0.555975
0.522374
0.492872
0.467806
0.448022
0.433396
0.424081
0.420093
0.421378
0.427833
0.439143
0.45508
0.474734
0.496913
0.509986
0.516044
0.521395
0.526286
0.530636
0.534394
0.537541
0.54009
0.542083
0.543594
0.544718
0.545574
0.546285
0.546954
0.547606
0.548171
0.548261
0.547587
0.546655
0.545863
0.545372
0.545269
0.545594
0.546379
0.547632
0.549361
0.551517
0.554056
0.556513
0.558365
0.559797
0.561292
0.562871
0.564523
0.566141
0.567607
0.568812
0.569667
0.57011
0.576311
0.576421
0.576655
0.57703
0.577552
0.578183
0.578777
0.579019
0.578706
0.577986
0.577154
0.576391
0.575742
0.575203
0.574758
0.574397
0.574134
0.574012
0.574113
0.574567
0.575568
0.57733
0.576862
0.575664
0.5759
0.579988
0.588995
0.601543
0.614965
0.627296
0.637501
0.64828
0.65948
0.670858
0.682202
0.693327
0.704076
0.714316
0.723933
0.732831
0.740935
0.748181
0.754519
0.759909
0.764319
0.767727
0.770114
0.771467
0.771778
0.77104
0.769254
0.766418
0.762539
0.757624
0.751687
0.744745
0.736823
0.727953
0.718177
0.707547
0.696128
0.683999
0.671256
0.658011
0.6444
0.630581
0.616742
0.602086
0.581479
0.554452
0.528008
0.50684
0.490632
0.480305
0.47593
0.477445
0.484834
0.497179
0.514005
0.531327
0.542092
0.546949
0.551414
0.555725
0.559756
0.563418
0.566653
0.569432
0.571755
0.573646
0.575154
0.576344
0.577291
0.578073
0.578742
0.579307
0.579713
0.579823
0.57958
0.579169
0.578803
0.578621
0.57871
0.57912
0.579879
0.580994
0.582451
0.584198
0.586136
0.588044
0.58972
0.591193
0.592612
0.594024
0.595419
0.596744
0.597923
0.598884
0.599562
0.599912
0.609948
0.610045
0.610241
0.610536
0.610913
0.611325
0.611674
0.611819
0.611681
0.611315
0.610852
0.610401
0.61002
0.609732
0.609551
0.609491
0.609582
0.609875
0.610451
0.611426
0.612958
0.615253
0.618581
0.622712
0.626496
0.631652
0.638649
0.64643
0.653863
0.66206
0.671061
0.680634
0.690575
0.70069
0.710799
0.720742
0.730377
0.739582
0.74825
0.756292
0.763631
0.770205
0.775962
0.780862
0.784871
0.787963
0.790118
0.791322
0.791565
0.790841
0.789148
0.786489
0.782869
0.778298
0.772793
0.766373
0.759066
0.750907
0.74194
0.732219
0.72181
0.710793
0.69926
0.687323
0.675111
0.662774
0.650489
0.638455
0.626739
0.611352
0.592819
0.572537
0.554963
0.543902
0.539158
0.540565
0.548639
0.560426
0.570442
0.57733
0.580299
0.583534
0.586937
0.590334
0.593595
0.596628
0.599368
0.60178
0.603852
0.605594
0.607033
0.60821
0.609175
0.609973
0.610635
0.611169
0.61155
0.611739
0.611738
0.611639
0.61156
0.6116
0.61183
0.612296
0.613023
0.614014
0.615251
0.616688
0.618246
0.619808
0.621277
0.622642
0.62394
0.625192
0.626387
0.627492
0.628459
0.629237
0.629784
0.630065
0.643488
0.643569
0.643728
0.643959
0.644239
0.644531
0.644775
0.644904
0.644884
0.64474
0.644537
0.644342
0.644204
0.644155
0.644223
0.644435
0.644828
0.645456
0.64639
0.647727
0.649584
0.652094
0.655379
0.659456
0.664309
0.669647
0.675316
0.681534
0.688413
0.695935
0.704048
0.712619
0.721497
0.730527
0.739562
0.748464
0.757108
0.765384
0.773194
0.780454
0.787091
0.793045
0.798264
0.802707
0.80634
0.809136
0.811073
0.812138
0.812319
0.81161
0.810009
0.80752
0.804149
0.799908
0.794813
0.788888
0.782161
0.774668
0.766456
0.757579
0.748101
0.738101
0.727669
0.71691
0.705947
0.694918
0.683982
0.67332
0.663135
0.653679
0.643807
0.632406
0.621283
0.612389
0.607586
0.607141
0.609519
0.612877
0.614885
0.615913
0.617697
0.619952
0.622466
0.625078
0.627663
0.63013
0.632412
0.634469
0.63628
0.637843
0.639172
0.64029
0.641226
0.642008
0.642658
0.643182
0.643579
0.643844
0.643996
0.64409
0.644198
0.644388
0.644714
0.645212
0.645903
0.646788
0.647852
0.649058
0.650351
0.651663
0.65294
0.654157
0.655316
0.656416
0.657445
0.658378
0.659182
0.659824
0.66027
0.6605
0.676947
0.677014
0.677146
0.677331
0.677553
0.677785
0.677991
0.678137
0.67821
0.678224
0.678215
0.678226
0.678297
0.678462
0.678751
0.679197
0.67984
0.680729
0.681926
0.683508
0.685558
0.688161
0.691383
0.69524
0.699699
0.704655
0.710046
0.715922
0.722317
0.72922
0.736578
0.744298
0.752266
0.76036
0.768458
0.776443
0.784208
0.791652
0.798688
0.805239
0.811235
0.816619
0.821341
0.825362
0.828645
0.831166
0.832902
0.833838
0.833962
0.83327
0.831759
0.829433
0.8263
0.822371
0.817664
0.812204
0.80602
0.79915
0.791638
0.783538
0.774914
0.765841
0.756404
0.746702
0.736848
0.726967
0.717202
0.707708
0.69866
0.690242
0.682634
0.676146
0.670355
0.664784
0.660503
0.657828
0.655658
0.653881
0.653299
0.65362
0.654625
0.656109
0.657897
0.659848
0.66185
0.663815
0.665681
0.667402
0.668955
0.670327
0.671523
0.672552
0.673431
0.674177
0.674805
0.675324
0.67574
0.676062
0.676312
0.676526
0.676753
0.67704
0.677425
0.677936
0.678589
0.679384
0.68031
0.68134
0.682436
0.683556
0.684661
0.68573
0.68675
0.687711
0.688598
0.689393
0.69007
0.690604
0.690974
0.691164
0.710338
0.710396
0.710508
0.710667
0.710858
0.711065
0.711266
0.711445
0.711596
0.711731
0.711872
0.712051
0.712298
0.712645
0.713122
0.713763
0.714605
0.715693
0.717079
0.71882
0.720978
0.723609
0.726752
0.73042
0.734593
0.739228
0.744293
0.749789
0.755715
0.76205
0.768746
0.775728
0.782909
0.790188
0.797466
0.804644
0.811627
0.818329
0.824669
0.830577
0.83599
0.840854
0.845121
0.848752
0.851714
0.853981
0.855531
0.856348
0.856423
0.855749
0.854325
0.852154
0.849245
0.845611
0.841269
0.836245
0.830567
0.824273
0.817407
0.810021
0.802177
0.793945
0.785404
0.776647
0.767775
0.758901
0.750149
0.741653
0.733553
0.725995
0.719114
0.713034
0.707725
0.703205
0.699327
0.696017
0.693475
0.691717
0.690809
0.690642
0.691076
0.691962
0.693165
0.694568
0.696073
0.697601
0.699093
0.700506
0.701809
0.702989
0.704039
0.704963
0.705768
0.706464
0.707061
0.707568
0.707995
0.708353
0.708662
0.70895
0.709249
0.709593
0.710009
0.710518
0.711132
0.71185
0.712664
0.713555
0.714498
0.715461
0.71642
0.717353
0.718244
0.719079
0.719845
0.720525
0.721099
0.721549
0.721859
0.722017
0.743671
0.743724
0.743825
0.74397
0.744148
0.74435
0.744563
0.744779
0.744999
0.745231
0.745493
0.745806
0.746199
0.746697
0.747329
0.748127
0.749125
0.75036
0.751875
0.753716
0.755926
0.758545
0.761598
0.765095
0.769026
0.773371
0.778108
0.783225
0.788705
0.79452
0.800626
0.806961
0.813452
0.820018
0.826575
0.833039
0.839328
0.845366
0.851082
0.856411
0.861296
0.865686
0.869537
0.872812
0.875479
0.877512
0.878892
0.879602
0.879632
0.878978
0.877637
0.875614
0.872916
0.869558
0.865557
0.860938
0.855729
0.849968
0.843696
0.836963
0.829828
0.822356
0.814621
0.806707
0.798704
0.790713
0.782841
0.7752
0.767906
0.76107
0.754793
0.749151
0.744161
0.739826
0.736103
0.732977
0.730504
0.728703
0.727576
0.727064
0.727073
0.727497
0.728233
0.729186
0.730272
0.731424
0.732586
0.733717
0.734788
0.73578
0.736683
0.737493
0.738214
0.738849
0.739407
0.739893
0.740318
0.740692
0.741034
0.741362
0.741701
0.742074
0.742501
0.742997
0.74357
0.74422
0.744942
0.74572
0.746538
0.747373
0.748205
0.749016
0.749792
0.750518
0.751179
0.751762
0.752252
0.752634
0.752896
0.753029
0.776953
0.777002
0.777099
0.777238
0.777415
0.777623
0.777856
0.778111
0.77839
0.778702
0.77906
0.779484
0.779994
0.780615
0.781371
0.782292
0.783406
0.784746
0.786347
0.788243
0.790466
0.793046
0.795999
0.799334
0.803046
0.807121
0.811545
0.816298
0.82136
0.8267
0.832276
0.838037
0.84392
0.849857
0.855778
0.861609
0.867281
0.872726
0.877881
0.882689
0.887096
0.891057
0.89453
0.89748
0.899877
0.901698
0.902922
0.903535
0.903526
0.902892
0.901631
0.899747
0.897248
0.894148
0.890464
0.88622
0.881445
0.876173
0.870445
0.864308
0.857816
0.85103
0.844018
0.836855
0.829622
0.822407
0.815301
0.808401
0.8018
0.795586
0.789839
0.784614
0.779943
0.775834
0.772282
0.769286
0.766861
0.765014
0.76373
0.762965
0.762655
0.762722
0.763085
0.763669
0.764406
0.765235
0.766109
0.766989
0.767846
0.76866
0.769418
0.770114
0.770745
0.771314
0.771823
0.77228
0.77269
0.773065
0.773418
0.773763
0.774119
0.7745
0.774923
0.775398
0.77593
0.776519
0.777162
0.777846
0.77856
0.779286
0.78001
0.780716
0.781391
0.78202
0.782592
0.783093
0.783512
0.783838
0.784061
0.784174
0.810184
0.810233
0.810329
0.810469
0.810651
0.810871
0.811127
0.811418
0.811749
0.812127
0.812563
0.813074
0.813679
0.814396
0.815249
0.816262
0.817461
0.818872
0.820523
0.822441
0.824651
0.827172
0.830019
0.833196
0.836702
0.840524
0.844651
0.849063
0.853737
0.858643
0.863743
0.868991
0.874334
0.879713
0.885069
0.890338
0.89546
0.900375
0.905028
0.909366
0.913343
0.916915
0.920045
0.9227
0.924853
0.92648
0.927563
0.928088
0.928047
0.927434
0.926249
0.924495
0.922182
0.919321
0.915931
0.912034
0.907658
0.902835
0.897603
0.892008
0.886098
0.87993
0.873566
0.867072
0.860522
0.85399
0.847557
0.841303
0.835305
0.829637
0.824361
0.819525
0.815161
0.811285
0.807904
0.805022
0.802642
0.800761
0.799363
0.798412
0.797861
0.797649
0.797716
0.798001
0.798446
0.799002
0.799627
0.800284
0.800947
0.801596
0.802216
0.802798
0.803339
0.803837
0.804293
0.804712
0.805098
0.805461
0.805809
0.806155
0.80651
0.806886
0.807294
0.807742
0.808233
0.808766
0.809339
0.809943
0.810569
0.811203
0.811834
0.812448
0.813034
0.81358
0.814074
0.814506
0.814867
0.815146
0.815336
0.815433
0.843368
0.843417
0.843514
0.843659
0.843849
0.844084
0.844362
0.844687
0.845061
0.845492
0.845991
0.846572
0.84725
0.848042
0.848968
0.850048
0.851303
0.852757
0.854432
0.856348
0.858523
0.860974
0.863709
0.866731
0.870039
0.873624
0.877472
0.881565
0.885881
0.890392
0.895061
0.89985
0.90471
0.909594
0.914446
0.919215
0.923846
0.928287
0.932489
0.936406
0.939994
0.943215
0.946035
0.948423
0.950353
0.951805
0.952761
0.953209
0.953139
0.952548
0.951435
0.949803
0.947662
0.945024
0.941905
0.938328
0.934317
0.929904
0.925125
0.920021
0.914638
0.909027
0.903243
0.897347
0.891402
0.885475
0.879634
0.873948
0.868482
0.863296
0.858442
0.853964
0.849891
0.846242
0.843028
0.840255
0.837923
0.836027
0.834548
0.833461
0.832726
0.832298
0.83213
0.832171
0.832376
0.832701
0.833111
0.833573
0.834063
0.83456
0.835051
0.835525
0.835976
0.836402
0.836801
0.837176
0.837531
0.837871
0.838203
0.838536
0.838879
0.83924
0.839626
0.840043
0.840492
0.840974
0.841485
0.842019
0.842568
0.843123
0.843674
0.844208
0.844717
0.845191
0.845619
0.845992
0.846302
0.846542
0.846705
0.846788
0.876502
0.876552
0.876653
0.876803
0.877003
0.877252
0.877552
0.877905
0.878315
0.87879
0.879338
0.879973
0.880706
0.881554
0.882532
0.883657
0.884948
0.886423
0.8881
0.889994
0.892121
0.894491
0.89711
0.899981
0.9031
0.90646
0.910047
0.913845
0.917832
0.921981
0.926261
0.930636
0.935065
0.939504
0.943908
0.948229
0.952421
0.956438
0.960236
0.963774
0.967012
0.969917
0.972457
0.974603
0.976333
0.977627
0.978468
0.978846
0.978753
0.978183
0.977138
0.975621
0.97364
0.971207
0.968338
0.965054
0.961378
0.95734
0.952973
0.948314
0.943407
0.938296
0.933033
0.92767
0.922264
0.916874
0.911557
0.906373
0.901377
0.896621
0.892149
0.887998
0.884196
0.880764
0.877712
0.875047
0.87277
0.870874
0.869343
0.868157
0.867284
0.866689
0.866333
0.866178
0.866184
0.866316
0.866542
0.866835
0.867171
0.867531
0.867903
0.868274
0.868639
0.868992
0.869333
0.86966
0.869977
0.870288
0.870596
0.870909
0.871231
0.871569
0.871928
0.872311
0.872719
0.873152
0.873607
0.87408
0.874563
0.875048
0.875529
0.875994
0.876437
0.876847
0.877218
0.87754
0.877808
0.878014
0.878154
0.878226
0.909585
0.909638
0.909742
0.909898
0.910108
0.910371
0.910689
0.911065
0.911504
0.912013
0.9126
0.913275
0.914049
0.914935
0.915948
0.9171
0.918409
0.919887
0.921549
0.923409
0.925476
0.927758
0.93026
0.932982
0.935921
0.939068
0.942412
0.945936
0.94962
0.95344
0.957367
0.961368
0.965409
0.96945
0.973452
0.977373
0.981172
0.984808
0.988244
0.991441
0.994365
0.996984
0.999271
1.0012
1.00275
1.0039
1.00464
1.00496
1.00484
1.00429
1.00331
1.0019
1.00007
0.997826
0.995187
0.992171
0.988801
0.985104
0.981111
0.976856
0.972378
0.967718
0.962922
0.958036
0.953111
0.948198
0.943348
0.93861
0.934034
0.929662
0.925534
0.921683
0.918133
0.914905
0.912009
0.909453
0.907236
0.905354
0.903794
0.902539
0.901563
0.90084
0.900337
0.900023
0.899866
0.899837
0.899907
0.900053
0.900253
0.900492
0.900754
0.901031
0.901313
0.901596
0.901877
0.902155
0.902431
0.902707
0.902985
0.903271
0.903567
0.903877
0.904205
0.904553
0.904921
0.905309
0.905713
0.90613
0.906554
0.906979
0.907398
0.907804
0.908188
0.908544
0.908865
0.909144
0.909374
0.909552
0.909673
0.909734
0.942617
0.942671
0.942778
0.942941
0.943159
0.943433
0.943767
0.944162
0.944624
0.945159
0.945774
0.946478
0.94728
0.948191
0.949223
0.950388
0.951699
0.953166
0.954802
0.956616
0.958615
0.960805
0.96319
0.965767
0.968533
0.97148
0.974596
0.977867
0.981273
0.984791
0.988397
0.992061
0.995752
0.999436
1.00308
1.00664
1.01008
1.01338
1.01649
1.01938
1.02202
1.02438
1.02644
1.02818
1.02956
1.03059
1.03123
1.0315
1.03137
1.03084
1.02992
1.02861
1.02691
1.02484
1.02241
1.01964
1.01655
1.01316
1.00951
1.00562
1.00153
0.997277
0.9929
0.988442
0.983947
0.97946
0.975025
0.970686
0.966485
0.962459
0.958643
0.955065
0.951749
0.948712
0.945966
0.943518
0.941368
0.939512
0.937941
0.93664
0.935591
0.93477
0.934152
0.933711
0.933422
0.933258
0.933196
0.933216
0.933298
0.933428
0.933593
0.933781
0.933986
0.934202
0.934424
0.934652
0.934885
0.935123
0.935368
0.935622
0.935888
0.936168
0.936463
0.936775
0.937104
0.937448
0.937806
0.938173
0.938545
0.938916
0.939281
0.939634
0.939968
0.940276
0.940554
0.940795
0.940994
0.941148
0.941252
0.941305
0.975594
0.975649
0.975761
0.975928
0.976153
0.976437
0.976783
0.977193
0.977672
0.978225
0.978859
0.979582
0.980401
0.981325
0.982366
0.983531
0.984832
0.986278
0.987877
0.989636
0.991563
0.993659
0.995926
0.998363
1.00096
1.00372
1.00663
1.00966
1.01281
1.01606
1.01937
1.02273
1.0261
1.02946
1.03278
1.03602
1.03915
1.04214
1.04495
1.04757
1.04996
1.05209
1.05394
1.0555
1.05674
1.05765
1.05821
1.05843
1.05828
1.05778
1.05692
1.05569
1.05412
1.05222
1.04998
1.04743
1.0446
1.04149
1.03815
1.03459
1.03085
1.02696
1.02296
1.01888
1.01477
1.01067
1.00661
1.00263
0.998761
0.995047
0.991514
0.988187
0.985086
0.982229
0.979626
0.977284
0.975205
0.973385
0.971818
0.970491
0.96939
0.968496
0.96779
0.967248
0.966851
0.966576
0.966404
0.966316
0.966296
0.96633
0.966407
0.966515
0.966648
0.9668
0.966966
0.967144
0.967333
0.967532
0.967741
0.967962
0.968195
0.968442
0.968704
0.968981
0.969271
0.969575
0.969889
0.97021
0.970535
0.970859
0.971177
0.971483
0.971772
0.97204
0.97228
0.972488
0.97266
0.972792
0.972882
0.972927
1.00852
1.00857
1.00869
1.00886
1.00909
1.00938
1.00973
1.01015
1.01064
1.01121
1.01186
1.01259
1.01342
1.01434
1.01538
1.01654
1.01782
1.01924
1.02079
1.02249
1.02434
1.02634
1.02849
1.03079
1.03324
1.03582
1.03853
1.04134
1.04426
1.04725
1.0503
1.05338
1.05647
1.05954
1.06256
1.06551
1.06835
1.07107
1.07362
1.07599
1.07814
1.08007
1.08174
1.08314
1.08424
1.08505
1.08554
1.08572
1.08556
1.08508
1.08427
1.08313
1.08168
1.07992
1.07786
1.07551
1.07291
1.07006
1.067
1.06374
1.06031
1.05675
1.05309
1.04936
1.0456
1.04184
1.03811
1.03445
1.03089
1.02745
1.02418
1.02108
1.01818
1.01549
1.01303
1.01079
1.00878
1.00701
1.00545
1.00412
1.00298
1.00204
1.00126
1.00064
1.00016
0.999792
0.999527
0.999348
0.99924
0.99919
0.999188
0.999225
0.999292
0.999384
0.999496
0.999626
0.999771
0.99993
1.0001
1.00029
1.00049
1.0007
1.00093
1.00117
1.00143
1.00169
1.00196
1.00224
1.00253
1.00281
1.00308
1.00335
1.0036
1.00383
1.00404
1.00422
1.00437
1.00448
1.00456
1.0046
1.04138
1.04144
1.04155
1.04173
1.04196
1.04226
1.04262
1.04305
1.04354
1.04411
1.04477
1.0455
1.04633
1.04725
1.04828
1.04942
1.05068
1.05205
1.05356
1.0552
1.05697
1.05887
1.06091
1.06308
1.06538
1.06779
1.07031
1.07293
1.07563
1.07839
1.08119
1.08402
1.08685
1.08966
1.09242
1.0951
1.09769
1.10015
1.10247
1.10462
1.10657
1.1083
1.10981
1.11106
1.11205
1.11277
1.1132
1.11333
1.11317
1.11271
1.11195
1.11089
1.10954
1.10791
1.10601
1.10386
1.10147
1.09885
1.09604
1.09305
1.08991
1.08665
1.08329
1.07987
1.07642
1.07297
1.06954
1.06617
1.06288
1.05971
1.05666
1.05378
1.05106
1.04853
1.0462
1.04406
1.04213
1.0404
1.03887
1.03754
1.03639
1.0354
1.03458
1.0339
1.03335
1.03291
1.03256
1.03231
1.03213
1.032
1.03193
1.0319
1.03191
1.03195
1.03201
1.03209
1.03219
1.03231
1.03245
1.0326
1.03277
1.03295
1.03314
1.03335
1.03357
1.0338
1.03403
1.03428
1.03452
1.03476
1.035
1.03523
1.03545
1.03564
1.03582
1.03598
1.0361
1.0362
1.03627
1.0363
1.07419
1.07425
1.07436
1.07454
1.07478
1.07507
1.07544
1.07587
1.07637
1.07694
1.07759
1.07832
1.07915
1.08006
1.08107
1.08219
1.08341
1.08474
1.0862
1.08777
1.08946
1.09127
1.0932
1.09524
1.0974
1.09965
1.102
1.10443
1.10693
1.10948
1.11206
1.11466
1.11726
1.11983
1.12235
1.12479
1.12715
1.12939
1.13149
1.13344
1.1352
1.13677
1.13813
1.13925
1.14014
1.14077
1.14114
1.14125
1.14108
1.14063
1.13992
1.13893
1.13768
1.13618
1.13443
1.13244
1.13024
1.12784
1.12526
1.12251
1.11963
1.11664
1.11356
1.11042
1.10725
1.10407
1.10091
1.0978
1.09477
1.09182
1.089
1.0863
1.08376
1.08138
1.07916
1.07713
1.07527
1.0736