/*--------------------------------*- C++ -*----------------------------------*\
| =========                 |                                                 |
| \\      /  F ield         | OpenFOAM: The Open Source CFD Toolbox           |
|  \\    /   O peration     | Version:  2406                                  |
|   \\  /    A nd           | Website:  www.openfoam.com                      |
|    \\/     M anipulation  |                                                 |
\*---------------------------------------------------------------------------*/
FoamFile
{
    version     2.0;
    format      ascii;
    arch        "LSB;label=32;scalar=64";
    class       volScalarField;
    location    "8";
    object      C_0;
}
// * * * * * * * * * * * * * * * * * * * * * * * * * * * * * * * * * * * * * //

dimensions      [1 -3 0 0 0 0 0];

internalField   nonuniform List<scalar> 
14400
(
0.225169
0.224206
0.222516
0.220459
0.218406
0.216677
0.215511
0.215059
0.215378
0.216434
0.218094
0.220126
0.222188
0.223839
0.224581
0.223975
0.221844
0.218486
0.214432
0.210255
0.206466
0.203499
0.201712
0.201414
0.202884
0.206387
0.212187
0.220552
0.231761
0.24611
0.263909
0.28549
0.311197
0.341366
0.376273
0.415976
0.45979
0.503881
0.535779
0.55718
0.575561
0.591287
0.604578
0.615601
0.624487
0.631334
0.636215
0.639183
0.640272
0.639499
0.636863
0.63235
0.625927
0.617544
0.607128
0.594587
0.579798
0.562602
0.542798
0.519489
0.484488
0.437993
0.394115
0.354833
0.320419
0.29071
0.265401
0.24414
0.226579
0.212381
0.201227
0.192817
0.186874
0.183147
0.18143
0.181562
0.183438
0.186995
0.19221
0.199083
0.207618
0.217802
0.229567
0.24274
0.256948
0.271365
0.283708
0.290149
0.289139
0.282192
0.272573
0.262582
0.253068
0.244456
0.236976
0.23073
0.225732
0.221922
0.219186
0.217363
0.216267
0.215704
0.215504
0.215554
0.215827
0.216393
0.21741
0.219088
0.221662
0.225366
0.230408
0.236963
0.245157
0.255053
0.266636
0.27977
0.294124
0.308977
0.322578
0.330495
0.231623
0.230411
0.228339
0.225876
0.223466
0.221465
0.220126
0.219606
0.219966
0.221173
0.223095
0.225497
0.228021
0.230178
0.231355
0.230905
0.228462
0.224547
0.219892
0.215173
0.210941
0.207634
0.205608
0.205161
0.206563
0.21007
0.215937
0.22443
0.235823
0.250407
0.268495
0.290417
0.316518
0.34714
0.382571
0.422899
0.467353
0.509596
0.539178
0.560121
0.578214
0.593722
0.606845
0.617739
0.626526
0.633299
0.638128
0.641062
0.642134
0.641361
0.638741
0.634261
0.627888
0.619575
0.609254
0.596836
0.582204
0.565211
0.545663
0.523145
0.490097
0.44462
0.400337
0.360483
0.325536
0.295353
0.269624
0.247992
0.230103
0.215617
0.204216
0.1956
0.189495
0.185657
0.183882
0.184014
0.185947
0.189622
0.195017
0.202135
0.210984
0.221555
0.233785
0.247515
0.262388
0.277583
0.290304
0.296382
0.296105
0.289235
0.279163
0.26869
0.258746
0.249778
0.242022
0.23558
0.230467
0.226619
0.223915
0.222179
0.221205
0.220768
0.220663
0.220749
0.220987
0.221463
0.222362
0.22393
0.22643
0.230115
0.235207
0.241888
0.250286
0.260472
0.272432
0.286042
0.300984
0.316514
0.330162
0.336861
0.245039
0.243232
0.240299
0.236967
0.233813
0.231252
0.229562
0.228904
0.229343
0.230847
0.233293
0.236443
0.239925
0.24318
0.245385
0.245403
0.242142
0.236951
0.23101
0.225174
0.220043
0.216056
0.213548
0.212799
0.214058
0.217564
0.223562
0.232304
0.244057
0.25911
0.277771
0.300369
0.327247
0.358739
0.395114
0.436398
0.481479
0.519832
0.545687
0.565905
0.583453
0.598542
0.611341
0.621985
0.63058
0.637209
0.641935
0.644803
0.645843
0.645068
0.64248
0.638063
0.631789
0.623614
0.613477
0.601297
0.586972
0.570374
0.551342
0.529687
0.500404
0.458063
0.412779
0.371797
0.335823
0.304717
0.278162
0.255796
0.237259
0.222208
0.21032
0.201302
0.194884
0.19083
0.188944
0.189077
0.191127
0.195038
0.200792
0.208398
0.217867
0.229199
0.24234
0.257133
0.273214
0.289648
0.302576
0.308074
0.30867
0.30306
0.292372
0.281007
0.270235
0.260575
0.25228
0.24546
0.24013
0.236223
0.233604
0.232071
0.231373
0.231221
0.231336
0.231505
0.231659
0.231919
0.232546
0.233859
0.236181
0.239806
0.244979
0.251894
0.260687
0.271429
0.284114
0.29861
0.314562
0.331017
0.343836
0.34869
0.266412
0.263392
0.258918
0.254144
0.249814
0.246392
0.244164
0.243295
0.243845
0.24579
0.24901
0.253286
0.258255
0.263326
0.267476
0.268724
0.263594
0.256106
0.248079
0.240518
0.234031
0.229024
0.225793
0.224584
0.225618
0.229112
0.235291
0.244394
0.25668
0.272427
0.291941
0.315543
0.343565
0.376312
0.413968
0.456214
0.50045
0.532787
0.555118
0.574359
0.591151
0.605652
0.617992
0.628279
0.636599
0.643021
0.6476
0.650373
0.651365
0.65059
0.648046
0.643722
0.637591
0.629616
0.619743
0.607904
0.594014
0.577968
0.559641
0.538881
0.513774
0.476673
0.431
0.388757
0.351393
0.318962
0.291197
0.26775
0.248258
0.232375
0.219779
0.210178
0.203311
0.198951
0.196912
0.197055
0.199284
0.203551
0.20984
0.218166
0.22855
0.240995
0.255456
0.271767
0.289474
0.307198
0.319206
0.324186
0.32547
0.322518
0.312177
0.299687
0.287761
0.277112
0.268042
0.260683
0.255057
0.251099
0.248656
0.247494
0.247295
0.247667
0.248191
0.248514
0.248498
0.248347
0.248466
0.249309
0.251296
0.254778
0.260031
0.267263
0.276612
0.288149
0.30186
0.317579
0.334781
0.351729
0.361489
0.364908
0.297043
0.291657
0.284695
0.277819
0.271861
0.267274
0.264328
0.263172
0.263865
0.266376
0.270599
0.276338
0.28327
0.290847
0.297955
0.30056
0.293
0.282187
0.271306
0.261461
0.2532
0.246858
0.242675
0.24085
0.241573
0.245036
0.251441
0.261013
0.273996
0.290661
0.311303
0.33623
0.365747
0.40011
0.439391
0.482794
0.521358
0.546906
0.567207
0.585264
0.60114
0.614923
0.626697
0.636539
0.644515
0.650678
0.65507
0.657723
0.658656
0.65788
0.655394
0.651187
0.645238
0.637515
0.627974
0.616562
0.603211
0.587845
0.570374
0.550703
0.528696
0.498453
0.455005
0.411556
0.372476
0.338341
0.309003
0.284141
0.263399
0.246432
0.23292
0.222573
0.215138
0.210397
0.208178
0.20835
0.210827
0.215567
0.222561
0.23183
0.243399
0.257281
0.27343
0.291656
0.311334
0.329478
0.339115
0.343848
0.345712
0.344822
0.337903
0.324765
0.311564
0.299711
0.289669
0.28163
0.275655
0.271685
0.269562
0.269013
0.26964
0.270904
0.272155
0.272767
0.272419
0.271522
0.270765
0.27082
0.27224
0.275447
0.280746
0.288349
0.298388
0.310913
0.325884
0.343059
0.361502
0.375895
0.381849
0.3845
0.336158
0.327963
0.317731
0.308214
0.300261
0.294254
0.290429
0.288921
0.289782
0.292974
0.298382
0.305813
0.314935
0.325003
0.333368
0.333931
0.32832
0.314717
0.300677
0.288191
0.277841
0.269903
0.264564
0.261981
0.262311
0.265723
0.2724
0.282545
0.296391
0.314194
0.336234
0.362795
0.39412
0.430304
0.470882
0.512732
0.54197
0.562781
0.58154
0.598348
0.613222
0.626201
0.637333
0.646666
0.654244
0.660105
0.66428
0.666792
0.667656
0.66688
0.664463
0.660394
0.654659
0.647231
0.638077
0.627158
0.614425
0.599826
0.583307
0.564817
0.544321
0.520399
0.484876
0.440413
0.399344
0.363178
0.331932
0.305338
0.283062
0.264768
0.250141
0.238895
0.230784
0.225601
0.223185
0.223414
0.226212
0.231544
0.239406
0.249826
0.262832
0.278434
0.296556
0.316889
0.338257
0.354239
0.361726
0.366377
0.368684
0.368775
0.36609
0.355966
0.341815
0.328681
0.317525
0.308694
0.302334
0.298424
0.296808
0.297197
0.299114
0.301836
0.304359
0.305536
0.304532
0.302309
0.300122
0.298939
0.299489
0.302247
0.307529
0.315537
0.326372
0.340007
0.356313
0.374679
0.392085
0.400737
0.404695
0.406744
0.373518
0.369137
0.357247
0.345226
0.335192
0.327619
0.322795
0.32088
0.321944
0.325914
0.332626
0.341838
0.353035
0.364328
0.367901
0.366374
0.363506
0.352544
0.335995
0.320849
0.308247
0.29853
0.29187
0.288402
0.288267
0.291615
0.298611
0.30944
0.324315
0.343473
0.367174
0.395656
0.429057
0.467207
0.508428
0.54023
0.561701
0.580586
0.597824
0.613367
0.6272
0.639327
0.649769
0.658548
0.66569
0.671218
0.675153
0.677509
0.678297
0.677522
0.675181
0.671269
0.665772
0.658672
0.649946
0.639567
0.627504
0.613727
0.59821
0.580936
0.561909
0.541165
0.514544
0.474664
0.432134
0.393822
0.360404
0.331783
0.307696
0.287836
0.271897
0.259601
0.250711
0.245029
0.242403
0.242723
0.245919
0.25196
0.26085
0.272616
0.287289
0.30486
0.325174
0.347577
0.368821
0.380279
0.386734
0.391252
0.393873
0.394723
0.394016
0.389682
0.377995
0.364155
0.351908
0.342206
0.335453
0.331691
0.330794
0.332497
0.336289
0.341254
0.345915
0.348179
0.345932
0.341446
0.337091
0.334111
0.333446
0.335566
0.340757
0.349188
0.360901
0.375657
0.393141
0.411562
0.421938
0.426372
0.429448
0.431037
0.407095
0.406712
0.401164
0.388346
0.376678
0.367558
0.36167
0.3593
0.360619
0.365454
0.373477
0.384305
0.396626
0.402021
0.401419
0.399912
0.397618
0.392124
0.376774
0.359556
0.344738
0.333145
0.325042
0.320583
0.319919
0.323198
0.330571
0.342201
0.35827
0.378986
0.404576
0.435174
0.47062
0.509612
0.542259
0.564401
0.582872
0.600038
0.615802
0.630096
0.642881
0.65414
0.663866
0.672067
0.678749
0.683925
0.687604
0.689794
0.690502
0.689728
0.687472
0.683728
0.678488
0.67174
0.663469
0.653659
0.642297
0.629369
0.614871
0.598809
0.581212
0.562135
0.541537
0.512523
0.470827
0.43066
0.394902
0.363984
0.337816
0.316151
0.298701
0.285201
0.275422
0.26918
0.266332
0.266776
0.27045
0.27732
0.28739
0.300683
0.317222
0.336951
0.359537
0.383455
0.399807
0.407726
0.413674
0.418022
0.420834
0.422227
0.422389
0.421566
0.41669
0.405617
0.392883
0.382316
0.375225
0.371712
0.3717
0.375023
0.381208
0.388956
0.396375
0.398743
0.396264
0.38872
0.381771
0.37646
0.374328
0.375663
0.380692
0.38952
0.402163
0.41763
0.435037
0.445442
0.449923
0.453307
0.455688
0.456918
0.440929
0.440806
0.440415
0.435093
0.424133
0.413973
0.407077
0.404181
0.40585
0.411599
0.420479
0.431534
0.436775
0.436663
0.435653
0.434237
0.432323
0.429872
0.421907
0.404379
0.387643
0.374185
0.364567
0.359022
0.357775
0.360992
0.36881
0.381366
0.398786
0.42121
0.44882
0.48146
0.517728
0.549308
0.571177
0.588723
0.605346
0.620893
0.635249
0.648334
0.660091
0.670483
0.679491
0.687103
0.693315
0.698128
0.701543
0.703563
0.704187
0.703417
0.70125
0.697684
0.692713
0.68633
0.678529
0.669305
0.658655
0.646582
0.633095
0.618218
0.601994
0.584484
0.565775
0.545211
0.514923
0.474023
0.435906
0.402469
0.373973
0.350276
0.331119
0.316254
0.305468
0.298594
0.295506
0.29611
0.300342
0.308161
0.319557
0.334531
0.353066
0.374981
0.399334
0.419964
0.430095
0.436807
0.442214
0.44633
0.449212
0.450963
0.451743
0.451762
0.451279
0.447378
0.439339
0.42851
0.421485
0.418361
0.419205
0.423937
0.43206
0.437877
0.440961
0.441772
0.441349
0.438551
0.432751
0.425283
0.421934
0.422472
0.427269
0.436233
0.449485
0.46286
0.471598
0.475478
0.47865
0.481245
0.48308
0.484029
0.474888
0.4749
0.474983
0.475131
0.471609
0.465298
0.458121
0.454669
0.456786
0.46314
0.469362
0.47281
0.472285
0.47132
0.470291
0.46906
0.467552
0.465744
0.463455
0.454472
0.437038
0.421991
0.410914
0.4042
0.402333
0.405513
0.41385
0.427459
0.446354
0.470462
0.499929
0.53337
0.561791
0.582085
0.598301
0.613968
0.628897
0.642938
0.655969
0.6679
0.678664
0.688212
0.696511
0.703539
0.709281
0.71373
0.716879
0.718725
0.719267
0.718502
0.716429
0.713045
0.708348
0.702338
0.695013
0.686378
0.676438
0.665207
0.652708
0.638976
0.624061
0.608032
0.590978
0.573001
0.552577
0.522549
0.48353
0.447663
0.416701
0.390808
0.369761
0.353367
0.341444
0.333857
0.330504
0.331302
0.336178
0.345065
0.357916
0.374665
0.395186
0.41883
0.442107
0.454482
0.461324
0.467194
0.472044
0.475873
0.47872
0.480671
0.481856
0.482449
0.482674
0.482815
0.481164
0.477159
0.47257
0.470116
0.471308
0.474238
0.476805
0.477671
0.477111
0.477168
0.477989
0.479383
0.478918
0.476939
0.474626
0.474591
0.479059
0.486803
0.494476
0.500207
0.502907
0.50554
0.507955
0.509944
0.511357
0.512089
0.508836
0.508922
0.509141
0.509597
0.510453
0.509707
0.50771
0.506452
0.507069
0.508708
0.509468
0.508077
0.506977
0.506042
0.505133
0.50416
0.503079
0.501895
0.500659
0.498876
0.491067
0.476239
0.464346
0.456413
0.453969
0.457177
0.466083
0.480831
0.501235
0.526311
0.55606
0.579632
0.597023
0.611594
0.625974
0.639949
0.653338
0.665991
0.677788
0.688633
0.698452
0.707189
0.714802
0.72126
0.726541
0.73063
0.733517
0.735193
0.735654
0.734896
0.732918
0.729718
0.725298
0.719659
0.712808
0.704754
0.695511
0.6851
0.673554
0.660916
0.647242
0.632606
0.617101
0.600838
0.583952
0.564485
0.536295
0.499576
0.466379
0.438317
0.415251
0.397185
0.38398
0.37558
0.371928
0.372953
0.378568
0.388636
0.40304
0.421526
0.443746
0.467532
0.481107
0.487691
0.493515
0.4986
0.502897
0.506397
0.509125
0.511146
0.51256
0.513502
0.514141
0.514675
0.515318
0.515988
0.515167
0.514325
0.514254
0.514073
0.512749
0.511865
0.511529
0.51174
0.51254
0.513923
0.515973
0.518312
0.519433
0.521017
0.524019
0.527609
0.530016
0.531778
0.533789
0.535821
0.537683
0.539221
0.540314
0.540881
0.542698
0.54281
0.543063
0.543511
0.544218
0.545213
0.546356
0.546763
0.546255
0.544908
0.543534
0.542414
0.541505
0.540736
0.540038
0.539367
0.538711
0.538097
0.537597
0.537345
0.537023
0.532238
0.52392
0.515146
0.512605
0.516033
0.525377
0.540956
0.562344
0.584046
0.602116
0.615735
0.628439
0.641293
0.654053
0.666517
0.678514
0.689901
0.70056
0.710393
0.719323
0.727291
0.734247
0.740157
0.744993
0.748733
0.751365
0.752876
0.753259
0.75251
0.750628
0.747612
0.743465
0.738194
0.731807
0.724319
0.715751
0.70613
0.695494
0.683891
0.671384
0.658049
0.643983
0.629298
0.614131
0.598645
0.581175
0.556298
0.522717
0.493205
0.468118
0.44832
0.433681
0.424354
0.420358
0.42164
0.428094
0.439405
0.455348
0.474997
0.497138
0.510176
0.516216
0.521561
0.526447
0.530793
0.534547
0.537691
0.540237
0.542228
0.543737
0.54486
0.545714
0.546422
0.54709
0.54774
0.548302
0.548391
0.547716
0.546785
0.545992
0.545502
0.545399
0.545724
0.546509
0.547761
0.54949
0.551645
0.554183
0.556638
0.558491
0.559924
0.561421
0.563001
0.564652
0.566271
0.567737
0.568942
0.569797
0.57024
0.576447
0.576558
0.576791
0.577166
0.577689
0.57832
0.578913
0.579156
0.578845
0.578128
0.5773
0.57654
0.575894
0.575359
0.574917
0.57456
0.574301
0.574183
0.574289
0.574749
0.575756
0.577527
0.577092
0.575922
0.576191
0.580296
0.589303
0.601829
0.615224
0.627527
0.637726
0.648505
0.659706
0.671084
0.682427
0.693552
0.704301
0.71454
0.724156
0.733054
0.741158
0.748403
0.75474
0.760129
0.764539
0.767946
0.770333
0.771686
0.771996
0.771259
0.769472
0.766637
0.762757
0.757843
0.751906
0.744965
0.737044
0.728175
0.7184
0.707771
0.696353
0.684225
0.671483
0.65824
0.64463
0.630813
0.616976
0.60235
0.581782
0.554819
0.528349
0.507176
0.490958
0.480613
0.476227
0.477741
0.485132
0.49747
0.514303
0.531563
0.542292
0.547129
0.551587
0.555892
0.559919
0.563577
0.566808
0.569584
0.571904
0.573793
0.575298
0.576486
0.577432
0.578211
0.578879
0.579442
0.579846
0.579955
0.57971
0.5793
0.578934
0.578752
0.57884
0.57925
0.580009
0.581123
0.58258
0.584326
0.586263
0.588171
0.589847
0.59132
0.59274
0.594152
0.595548
0.596873
0.598053
0.599013
0.599691
0.600042
0.610085
0.610182
0.610379
0.610673
0.611051
0.611464
0.611813
0.61196
0.611823
0.611459
0.610999
0.610551
0.610173
0.609889
0.609711
0.609655
0.609749
0.610047
0.610627
0.611606
0.613143
0.615443
0.618775
0.622925
0.626734
0.631899
0.63889
0.646649
0.654077
0.662278
0.67128
0.680854
0.690796
0.700911
0.71102
0.720963
0.730598
0.739802
0.74847
0.756511
0.76385
0.770423
0.77618
0.78108
0.785088
0.78818
0.790334
0.791538
0.791781
0.791057
0.789364
0.786705
0.783085
0.778515
0.77301
0.76659
0.759284
0.751126
0.742159
0.73244
0.722032
0.711015
0.699484
0.687548
0.675337
0.663002
0.650717
0.638685
0.62698
0.611636
0.593151
0.572903
0.555327
0.544234
0.539477
0.540888
0.548973
0.560716
0.570681
0.577529
0.580484
0.583713
0.58711
0.590502
0.593759
0.596787
0.599524
0.601933
0.604002
0.605741
0.607178
0.608353
0.609316
0.610112
0.610773
0.611304
0.611684
0.611872
0.61187
0.611771
0.611691
0.611731
0.61196
0.612427
0.613153
0.614144
0.61538
0.616817
0.618374
0.619935
0.621405
0.62277
0.624069
0.62532
0.626516
0.627621
0.628588
0.629367
0.629913
0.630194
0.643626
0.643707
0.643867
0.644098
0.644379
0.644671
0.644916
0.645046
0.645028
0.644886
0.644686
0.644493
0.644358
0.644312
0.644383
0.644599
0.644995
0.645627
0.646565
0.647906
0.649768
0.652282
0.65557
0.659652
0.664506
0.669847
0.675519
0.681742
0.688622
0.696147
0.704262
0.712834
0.721713
0.730744
0.739779
0.748681
0.757325
0.765601
0.77341
0.78067
0.787307
0.79326
0.798479
0.802922
0.806554
0.80935
0.811287
0.812352
0.812532
0.811823
0.810223
0.807734
0.804363
0.800122
0.795028
0.789103
0.782376
0.774884
0.766673
0.757796
0.748319
0.73832
0.727889
0.717131
0.706169
0.69514
0.684206
0.673544
0.663359
0.653902
0.644061
0.632685
0.621583
0.612704
0.607896
0.607428
0.609779
0.613107
0.615081
0.616102
0.617881
0.620129
0.622639
0.625246
0.627827
0.63029
0.632568
0.634622
0.63643
0.637991
0.639318
0.640434
0.641368
0.642148
0.642796
0.643319
0.643714
0.643978
0.644129
0.644222
0.644329
0.644519
0.644844
0.645343
0.646033
0.646918
0.647981
0.649186
0.650479
0.651791
0.653068
0.654285
0.655444
0.656544
0.657573
0.658507
0.659311
0.659952
0.660399
0.660629
0.677086
0.677154
0.677286
0.677472
0.677694
0.677927
0.678133
0.678281
0.678356
0.678371
0.678365
0.678378
0.678452
0.67862
0.678912
0.679361
0.680007
0.680899
0.6821
0.683685
0.685739
0.688346
0.691571
0.695431
0.699894
0.704852
0.710246
0.716125
0.722523
0.729428
0.736787
0.744509
0.752477
0.760572
0.768671
0.776656
0.784421
0.791865
0.798901
0.805451
0.811447
0.816831
0.821553
0.825573
0.828857
0.831377
0.833113
0.834049
0.834173
0.833481
0.831971
0.829645
0.826511
0.822582
0.817876
0.812417
0.806233
0.799363
0.791851
0.783752
0.775129
0.766057
0.75662
0.746919
0.737065
0.727185
0.71742
0.707927
0.698878
0.690459
0.68285
0.676359
0.67058
0.665028
0.660747
0.658055
0.655859
0.654076
0.65349
0.653806
0.654807
0.656286
0.658069
0.660016
0.662014
0.663976
0.665838
0.667556
0.669106
0.670476
0.671669
0.672696
0.673573
0.674317
0.674943
0.675461
0.675875
0.676197
0.676445
0.676659
0.676885
0.677171
0.677556
0.678066
0.678719
0.679514
0.680439
0.681469
0.682564
0.683684
0.684789
0.685858
0.686878
0.687839
0.688727
0.689521
0.690198
0.690733
0.691103
0.691292
0.710479
0.710537
0.71065
0.710808
0.711
0.711207
0.711409
0.71159
0.711743
0.711879
0.712023
0.712203
0.712453
0.712802
0.713282
0.713926
0.714771
0.715863
0.717251
0.718996
0.721158
0.723792
0.726938
0.730609
0.734785
0.739422
0.74449
0.749988
0.755917
0.762254
0.768951
0.775935
0.783116
0.790397
0.797675
0.804853
0.811837
0.818538
0.824879
0.830787
0.8362
0.841063
0.84533
0.848961
0.851923
0.85419
0.855739
0.856557
0.856631
0.855957
0.854533
0.852363
0.849454
0.84582
0.841479
0.836454
0.830777
0.824483
0.817618
0.810233
0.802389
0.794157
0.785617
0.77686
0.767989
0.759115
0.750363
0.741866
0.733766
0.726207
0.719325
0.713243
0.707932
0.703408
0.699527
0.696216
0.693671
0.691908
0.690996
0.690826
0.691255
0.692137
0.693336
0.694735
0.696236
0.697761
0.69925
0.70066
0.701961
0.703138
0.704186
0.705108
0.70591
0.706604
0.7072
0.707706
0.708131
0.708488
0.708796
0.709083
0.709382
0.709725
0.71014
0.710649
0.711262
0.71198
0.712794
0.713684
0.714626
0.71559
0.716548
0.717481
0.718371
0.719207
0.719973
0.720653
0.721227
0.721677
0.721987
0.722145
0.743813
0.743865
0.743967
0.744112
0.744291
0.744493
0.744707
0.744925
0.745147
0.74538
0.745643
0.745959
0.746354
0.746855
0.74749
0.74829
0.74929
0.750528
0.752047
0.753891
0.756104
0.758725
0.761781
0.765281
0.769215
0.773562
0.778302
0.783421
0.788903
0.79472
0.800827
0.807163
0.813656
0.820223
0.82678
0.833245
0.839534
0.845572
0.851288
0.856617
0.861502
0.865892
0.869744
0.873018
0.875685
0.877718
0.879098
0.879808
0.879838
0.879183
0.877843
0.87582
0.873123
0.869765
0.865764
0.861145
0.855937
0.850175
0.843904
0.837171
0.830037
0.822565
0.81483
0.806916
0.798914
0.790923
0.78305
0.775409
0.768114
0.761277
0.754999
0.749355
0.744363
0.740025
0.7363
0.733172
0.730696
0.728891
0.727761
0.727245
0.72725
0.727671
0.728403
0.729352
0.730435
0.731583
0.732743
0.733871
0.73494
0.735929
0.736829
0.737638
0.738357
0.73899
0.739546
0.740031
0.740454
0.740828
0.741168
0.741495
0.741833
0.742206
0.742632
0.743127
0.7437
0.74435
0.745071
0.745849
0.746666
0.747501
0.748333
0.749144
0.74992
0.750645
0.751307
0.75189
0.75238
0.752761
0.753023
0.753157
0.777095
0.777145
0.777241
0.777381
0.777559
0.777768
0.778001
0.778258
0.778538
0.778852
0.779212
0.779637
0.780149
0.780772
0.781531
0.782454
0.783571
0.784913
0.786517
0.788415
0.790642
0.793224
0.79618
0.799518
0.803232
0.80731
0.811735
0.816491
0.821554
0.826896
0.832474
0.838236
0.84412
0.850058
0.855979
0.861811
0.867483
0.872928
0.878084
0.882892
0.887299
0.89126
0.894733
0.897683
0.900081
0.901901
0.903125
0.903738
0.90373
0.903096
0.901834
0.899951
0.897452
0.894352
0.890668
0.886425
0.881649
0.876378
0.87065
0.864513
0.858021
0.851235
0.844224
0.83706
0.829828
0.822612
0.815507
0.808606
0.802003
0.795789
0.79004
0.784814
0.78014
0.776029
0.772475
0.769476
0.767049
0.765199
0.763911
0.763144
0.76283
0.762894
0.763254
0.763834
0.764568
0.765394
0.766265
0.767143
0.767997
0.768809
0.769565
0.770258
0.770888
0.771455
0.771963
0.772418
0.772827
0.773201
0.773552
0.773897
0.774251
0.774632
0.775055
0.775529
0.77606
0.776649
0.777291
0.777975
0.778688
0.779415
0.780138
0.780844
0.781518
0.782147
0.782719
0.783221
0.78364
0.783966
0.784188
0.784302
0.810327
0.810376
0.810472
0.810613
0.810796
0.811016
0.811273
0.811566
0.811897
0.812276
0.812714
0.813228
0.813834
0.814553
0.815409
0.816424
0.817625
0.819038
0.820691
0.822612
0.824824
0.827349
0.830198
0.833378
0.836885
0.84071
0.844838
0.849252
0.853928
0.858836
0.863937
0.869186
0.87453
0.879911
0.885267
0.890537
0.895659
0.900575
0.905228
0.909566
0.913543
0.917115
0.920245
0.9229
0.925053
0.92668
0.927763
0.928289
0.928247
0.927635
0.926449
0.924696
0.922383
0.919522
0.916132
0.912236
0.907859
0.903036
0.897805
0.892209
0.8863
0.880132
0.873768
0.867274
0.860724
0.854192
0.847758
0.841504
0.835505
0.829836
0.824558
0.819721
0.815355
0.811477
0.808094
0.805209
0.802827
0.800943
0.799542
0.798589
0.798034
0.797819
0.797883
0.798165
0.798607
0.799161
0.799782
0.800437
0.801098
0.801744
0.802362
0.802943
0.803482
0.803978
0.804433
0.80485
0.805235
0.805597
0.805944
0.806288
0.806642
0.807018
0.807426
0.807873
0.808363
0.808896
0.809468
0.810072
0.810697
0.811331
0.811961
0.812576
0.813161
0.813707
0.814201
0.814633
0.814994
0.815273
0.815463
0.81556
0.843511
0.84356
0.843658
0.843803
0.843994
0.844229
0.844509
0.844834
0.845209
0.845642
0.846143
0.846725
0.847405
0.848199
0.849126
0.850208
0.851466
0.852923
0.854599
0.856517
0.858695
0.861148
0.863885
0.86691
0.87022
0.873807
0.877656
0.881752
0.88607
0.890581
0.895252
0.900042
0.904904
0.909788
0.914641
0.91941
0.924042
0.928484
0.932686
0.936603
0.940191
0.943413
0.946232
0.94862
0.950551
0.952003
0.952959
0.953406
0.953337
0.952746
0.951633
0.950001
0.94786
0.945222
0.942103
0.938526
0.934515
0.930103
0.925324
0.92022
0.914837
0.909226
0.903442
0.897545
0.8916
0.885673
0.879832
0.874145
0.868678
0.86349
0.858636
0.854156
0.850081
0.846431
0.843215
0.840439
0.838105
0.836206
0.834725
0.833635
0.832897
0.832467
0.832295
0.832334
0.832535
0.832858
0.833266
0.833726
0.834213
0.834708
0.835197
0.835669
0.836119
0.836542
0.83694
0.837314
0.837667
0.838006
0.838338
0.83867
0.839012
0.839372
0.839757
0.840173
0.840622
0.841103
0.841614
0.842148
0.842697
0.843251
0.843801
0.844336
0.844845
0.845318
0.845745
0.846119
0.846429
0.846668
0.846832
0.846914
0.876646
0.876696
0.876797
0.876948
0.877148
0.877398
0.877699
0.878052
0.878464
0.878939
0.87949
0.880126
0.880861
0.88171
0.88269
0.883817
0.88511
0.886587
0.888266
0.890162
0.892291
0.894663
0.897284
0.900157
0.903279
0.90664
0.910229
0.914029
0.918017
0.922168
0.926449
0.930825
0.935255
0.939695
0.944099
0.948421
0.952614
0.956632
0.96043
0.963968
0.967207
0.970112
0.972651
0.974798
0.976528
0.977821
0.978663
0.979041
0.978948
0.978378
0.977333
0.975817
0.973836
0.971403
0.968534
0.965249
0.961573
0.957535
0.953168
0.94851
0.943602
0.938492
0.933228
0.927865
0.922459
0.917068
0.911751
0.906566
0.90157
0.896812
0.892339
0.888187
0.884383
0.880949
0.877895
0.875229
0.872949
0.87105
0.869517
0.868328
0.867453
0.866855
0.866497
0.866339
0.866343
0.866472
0.866696
0.866986
0.86732
0.867679
0.868048
0.868418
0.868781
0.869133
0.869472
0.869798
0.870114
0.870423
0.870731
0.871042
0.871363
0.871701
0.872059
0.872441
0.872849
0.873282
0.873736
0.874208
0.874691
0.875176
0.875656
0.876121
0.876564
0.876974
0.877344
0.877667
0.877934
0.87814
0.878281
0.878352
0.909729
0.909782
0.909886
0.910043
0.910253
0.910516
0.910835
0.911212
0.911653
0.912163
0.912751
0.913427
0.914203
0.915091
0.916105
0.917259
0.918569
0.920049
0.921714
0.923575
0.925644
0.927928
0.930432
0.933156
0.936097
0.939246
0.942591
0.946117
0.949802
0.953624
0.957552
0.961554
0.965596
0.969638
0.97364
0.977562
0.981362
0.984999
0.988434
0.991632
0.994556
0.997176
0.999463
1.00139
1.00294
1.00409
1.00483
1.00515
1.00503
1.00449
1.00351
1.0021
1.00026
0.998019
0.99538
0.992363
0.988994
0.985297
0.981304
0.977049
0.972571
0.967911
0.963114
0.958228
0.953303
0.948389
0.943538
0.9388
0.934222
0.92985
0.925721
0.921868
0.918317
0.915086
0.912189
0.909631
0.907412
0.905528
0.903966
0.902708
0.90173
0.901004
0.900499
0.900183
0.900024
0.899992
0.90006
0.900204
0.900402
0.900639
0.9009
0.901174
0.901455
0.901736
0.902016
0.902293
0.902567
0.902842
0.90312
0.903404
0.903699
0.904009
0.904336
0.904683
0.905051
0.905438
0.905841
0.906258
0.906682
0.907106
0.907525
0.90793
0.908315
0.90867
0.908991
0.90927
0.9095
0.909678
0.909799
0.90986
0.942761
0.942815
0.942923
0.943086
0.943304
0.943579
0.943913
0.94431
0.944773
0.945309
0.945925
0.94663
0.947433
0.948346
0.94938
0.950546
0.951859
0.953328
0.954965
0.956781
0.958781
0.960974
0.96336
0.965939
0.968707
0.971655
0.974773
0.978045
0.981452
0.984972
0.988579
0.992244
0.995936
0.999621
1.00326
1.00682
1.01027
1.01357
1.01668
1.01957
1.02221
1.02457
1.02663
1.02836
1.02975
1.03077
1.03142
1.03168
1.03155
1.03103
1.03011
1.0288
1.0271
1.02503
1.0226
1.01983
1.01674
1.01335
1.0097
1.00581
1.00172
0.997467
0.993089
0.988631
0.984135
0.979648
0.975212
0.970873
0.966671
0.962644
0.958826
0.955247
0.95193
0.948891
0.946144
0.943693
0.941541
0.939683
0.93811
0.936808
0.935756
0.934932
0.934312
0.93387
0.933578
0.933412
0.933348
0.933366
0.933446
0.933575
0.933737
0.933924
0.934127
0.934341
0.934563
0.934789
0.935021
0.935258
0.935502
0.935755
0.93602
0.936299
0.936594
0.936905
0.937233
0.937577
0.937934
0.9383
0.938672
0.939043
0.939408
0.93976
0.940094
0.940402
0.94068
0.940921
0.94112
0.941273
0.941377
0.94143
0.975738
0.975793
0.975905
0.976073
0.976298
0.976583
0.976929
0.97734
0.97782
0.978374
0.979009
0.979733
0.980553
0.98148
0.982521
0.983688
0.984991
0.986438
0.988039
0.9898
0.991728
0.993826
0.996094
0.998533
1.00114
1.0039
1.0068
1.00984
1.01299
1.01623
1.01955
1.02291
1.02628
1.02965
1.03296
1.0362
1.03933
1.04232
1.04514
1.04775
1.05014
1.05227
1.05413
1.05568
1.05692
1.05783
1.0584
1.05861
1.05847
1.05797
1.0571
1.05588
1.05431
1.0524
1.05017
1.04762
1.04478
1.04168
1.03833
1.03477
1.03103
1.02715
1.02314
1.01907
1.01496
1.01085
1.00679
1.00281
0.998943
0.995228
0.991694
0.988365
0.985264
0.982405
0.979801
0.977457
0.975375
0.973554
0.971985
0.970656
0.969553
0.968657
0.967949
0.967405
0.967006
0.966729
0.966555
0.966465
0.966443
0.966476
0.966551
0.966657
0.966789
0.966939
0.967104
0.967281
0.967469
0.967666
0.967874
0.968094
0.968327
0.968573
0.968834
0.96911
0.9694
0.969703
0.970017
0.970338
0.970662
0.970986
0.971303
0.971609
0.971898
0.972165
0.972405
0.972613
0.972785
0.972917
0.973007
0.973052
1.00866
1.00872
1.00883
1.009
1.00923
1.00953
1.00988
1.0103
1.01079
1.01136
1.01201
1.01274
1.01357
1.0145
1.01554
1.01669
1.01798
1.01939
1.02095
1.02265
1.0245
1.02651
1.02866
1.03096
1.03341
1.03599
1.0387
1.04152
1.04443
1.04742
1.05047
1.05356
1.05665
1.05972
1.06274
1.06569
1.06853
1.07125
1.0738
1.07617
1.07833
1.08025
1.08192
1.08332
1.08443
1.08523
1.08573
1.0859
1.08575
1.08526
1.08445
1.08332
1.08186
1.0801
1.07804
1.0757
1.07309
1.07025
1.06718
1.06392
1.0605
1.05694
1.05327
1.04954
1.04578
1.04202
1.03829
1.03463
1.03107
1.02763
1.02436
1.02126
1.01835
1.01566
1.0132
1.01096
1.00895
1.00717
1.00562
1.00428
1.00314
1.0022
1.00142
1.0008
1.00031
0.999943
0.999677
0.999496
0.999386
0.999335
0.999332
0.999366
0.999432
0.999523
0.999634
0.999762
0.999906
1.00006
1.00024
1.00042
1.00062
1.00083
1.00106
1.0013
1.00155
1.00182
1.00209
1.00237
1.00265
1.00293
1.00321
1.00347
1.00372
1.00396
1.00416
1.00434
1.00449
1.0046
1.00468
1.00472
1.04152
1.04158
1.0417
1.04187
1.04211
1.0424
1.04276
1.04319
1.04369
1.04426
1.04492
1.04565
1.04648
1.04741
1.04844
1.04958
1.05083
1.05221
1.05372
1.05536
1.05713
1.05904
1.06108
1.06325
1.06554
1.06796
1.07048
1.0731
1.0758
1.07856
1.08137
1.0842
1.08703
1.08983
1.09259
1.09528
1.09787
1.10033
1.10265
1.1048
1.10675
1.10848
1.10999
1.11124
1.11223
1.11295
1.11338
1.11351
1.11335
1.11289
1.11213
1.11107
1.10972
1.10809
1.1062
1.10404
1.10165
1.09903
1.09622
1.09323
1.09009
1.08683
1.08347
1.08005
1.0766
1.07315
1.06972
1.06634
1.06306
1.05988
1.05684
1.05395
1.05123
1.0487
1.04636
1.04423
1.0423
1.04057
1.03904
1.0377
1.03654
1.03556
1.03474
1.03405
1.0335
1.03306
1.03271
1.03246
1.03227
1.03215
1.03207
1.03204
1.03205
1.03209
1.03215
1.03223
1.03233
1.03245
1.03258
1.03273
1.0329
1.03308
1.03327
1.03348
1.0337
1.03393
1.03416
1.0344
1.03465
1.03489
1.03513
1.03536
1.03557
1.03577
1.03595
1.0361
1.03623
1.03633
1.03639
1.03643
1.07433
1.07439
1.07451
1.07468
1.07492
1.07522
1.07558
1.07601
1.07651
1.07709
1.07774
1.07847
1.0793
1.08021
1.08122
1.08234
1.08356
1.0849
1.08635
1.08793
1.08962
1.09143
1.09336
1.09541
1.09756
1.09982
1.10217
1.1046
1.1071
1.10965
1.11223
1.11483
1.11743
1.12
1.12252
1.12497
1.12733
1.12957
1.13167
1.13361
1.13538
1.13695
1.13831
1.13943
1.14032
1.14095
1.14132
1.14142
1.14126
1.14081
1.1401
1.13911
1.13786
1.13636
1.13461
1.13262
1.13042
1.12802
1.12543
1.12269
1.11981
1.11682
1.11374
1.1106
1.10742
1.10425
1.10109
1.09798
1.09494
1.092
1.08917
1.08647
1.08393
1.08154
1.07933
1.07729
1.07544
1.07376
1.07226
1.07094
1.06978
1.06877