/*--------------------------------*- C++ -*----------------------------------*\
| =========                 |                                                 |
| \\      /  F ield         | OpenFOAM: The Open Source CFD Toolbox           |
|  \\    /   O peration     | Version:  2406                                  |
|   \\  /    A nd           | Website:  www.openfoam.com                      |
|    \\/     M anipulation  |                                                 |
\*---------------------------------------------------------------------------*/
FoamFile
{
    version     2.0;
    format      ascii;
    arch        "LSB;label=32;scalar=64";
    class       volScalarField;
    location    "8";
    object      C_0_0;
}
// * * * * * * * * * * * * * * * * * * * * * * * * * * * * * * * * * * * * * //

dimensions      [1 -3 0 0 0 0 0];

internalField   nonuniform List<scalar> 
14400
(
0.225227
0.224263
0.222572
0.220513
0.218458
0.216728
0.215562
0.21511
0.21543
0.216488
0.218151
0.220187
0.222252
0.223907
0.224653
0.224048
0.221918
0.218558
0.214503
0.210324
0.206534
0.203567
0.201783
0.201489
0.202964
0.206475
0.212285
0.220662
0.231886
0.246251
0.264069
0.285672
0.311403
0.3416
0.376537
0.416274
0.460117
0.504178
0.536039
0.557433
0.57581
0.591533
0.604822
0.615843
0.624727
0.631572
0.636452
0.639419
0.640508
0.639734
0.637099
0.632586
0.626163
0.61778
0.607365
0.594825
0.580038
0.562844
0.543042
0.51975
0.484774
0.438277
0.394376
0.355066
0.320624
0.29089
0.265557
0.244275
0.226695
0.212479
0.201311
0.192889
0.186935
0.1832
0.181477
0.181606
0.183481
0.187039
0.192257
0.199134
0.207675
0.217866
0.22964
0.242823
0.257042
0.27147
0.283822
0.290264
0.289254
0.282301
0.272673
0.262673
0.25315
0.244531
0.237044
0.230793
0.22579
0.221977
0.219238
0.217414
0.216317
0.215753
0.215553
0.215604
0.215877
0.216444
0.217462
0.219142
0.221718
0.225425
0.230472
0.237032
0.245232
0.255137
0.266728
0.279872
0.294237
0.309101
0.32271
0.330627
0.231686
0.230472
0.228399
0.225935
0.223523
0.22152
0.220181
0.219661
0.220023
0.221231
0.223157
0.225563
0.228091
0.230252
0.231433
0.230986
0.228542
0.224625
0.219968
0.215247
0.211014
0.207708
0.205683
0.20524
0.206647
0.210162
0.21604
0.224544
0.235951
0.250552
0.268659
0.290603
0.316728
0.347378
0.382839
0.423199
0.467682
0.50989
0.539435
0.560373
0.578463
0.593968
0.607089
0.617981
0.626766
0.633537
0.638365
0.641298
0.64237
0.641596
0.638976
0.634496
0.628123
0.619811
0.609491
0.597074
0.582444
0.565452
0.545907
0.523399
0.490381
0.444915
0.400606
0.360722
0.325746
0.295537
0.269784
0.248131
0.230222
0.21572
0.204303
0.195675
0.18956
0.185714
0.183933
0.184062
0.185993
0.189669
0.195067
0.20219
0.211045
0.221623
0.233862
0.247602
0.262486
0.277692
0.29042
0.2965
0.296223
0.289348
0.279268
0.268785
0.258832
0.249857
0.242094
0.235647
0.230529
0.226678
0.223971
0.222235
0.221259
0.220822
0.220718
0.220804
0.221043
0.221519
0.222419
0.223988
0.22649
0.230178
0.235275
0.241961
0.250366
0.260559
0.272528
0.286148
0.301101
0.316642
0.330295
0.336992
0.245116
0.243305
0.24037
0.237035
0.233879
0.231316
0.229625
0.228968
0.229408
0.230915
0.233364
0.236518
0.240006
0.243267
0.245477
0.245498
0.242236
0.237042
0.231098
0.225258
0.220126
0.216138
0.213632
0.212886
0.21415
0.217665
0.223672
0.232426
0.244193
0.259263
0.277943
0.300563
0.327465
0.358984
0.395388
0.436701
0.4818
0.520116
0.545941
0.566156
0.583701
0.598787
0.611584
0.622225
0.630818
0.637446
0.642171
0.645039
0.646078
0.645303
0.642714
0.638297
0.632024
0.62385
0.613713
0.601534
0.587211
0.570614
0.551584
0.529932
0.500679
0.458368
0.413057
0.372045
0.336041
0.304909
0.278329
0.255942
0.237386
0.222317
0.210415
0.201384
0.194956
0.190895
0.189003
0.189133
0.191181
0.195093
0.20085
0.20846
0.217936
0.229275
0.242424
0.257228
0.27332
0.289764
0.302696
0.308195
0.308791
0.30318
0.292484
0.28111
0.270329
0.260661
0.252359
0.245535
0.2402
0.23629
0.233668
0.232135
0.231436
0.231285
0.231401
0.231569
0.231724
0.231985
0.232612
0.233925
0.23625
0.239877
0.245054
0.251974
0.260773
0.271524
0.284217
0.298723
0.314685
0.331149
0.343969
0.348821
0.266507
0.263483
0.259004
0.254226
0.249893
0.246468
0.24424
0.24337
0.243922
0.245869
0.249093
0.253375
0.25835
0.263429
0.267587
0.268843
0.263707
0.256214
0.248182
0.240617
0.234128
0.229119
0.22589
0.224684
0.225722
0.229224
0.235413
0.244528
0.256827
0.272592
0.292125
0.315749
0.343795
0.37657
0.414254
0.456525
0.500762
0.533058
0.555371
0.574609
0.591398
0.605896
0.618234
0.628518
0.636837
0.643258
0.647835
0.650608
0.6516
0.650824
0.64828
0.643956
0.637825
0.62985
0.619978
0.60814
0.594251
0.578207
0.559882
0.539123
0.514035
0.476973
0.431287
0.389017
0.351624
0.319165
0.291376
0.267907
0.248396
0.232496
0.219885
0.210272
0.203394
0.199026
0.196982
0.197122
0.19935
0.203617
0.209909
0.21824
0.228629
0.241082
0.255552
0.271873
0.289591
0.307324
0.319331
0.324311
0.325595
0.322644
0.3123
0.299802
0.287866
0.27721
0.268133
0.260768
0.255138
0.251177
0.248733
0.247571
0.247371
0.247744
0.248269
0.248593
0.248577
0.248426
0.248545
0.249388
0.251376
0.25486
0.260117
0.267353
0.276709
0.288254
0.301974
0.317702
0.334914
0.351866
0.361621
0.36504
0.29716
0.291768
0.284799
0.277918
0.271955
0.267366
0.264418
0.263262
0.263956
0.266471
0.270699
0.276443
0.283383
0.290969
0.298089
0.300694
0.293136
0.282315
0.271428
0.261578
0.253314
0.24697
0.242787
0.240965
0.241693
0.245163
0.251578
0.261162
0.274159
0.290841
0.311502
0.336452
0.365994
0.400385
0.439696
0.483124
0.521646
0.54716
0.567458
0.585511
0.601385
0.615165
0.626937
0.636777
0.644752
0.650913
0.655305
0.657957
0.658889
0.658113
0.655627
0.65142
0.645471
0.637748
0.628208
0.616797
0.603448
0.588082
0.570613
0.550943
0.528942
0.498733
0.45531
0.411832
0.372723
0.33856
0.309197
0.284312
0.263551
0.246567
0.23304
0.222681
0.215235
0.210487
0.208263
0.208431
0.210907
0.215647
0.222645
0.231918
0.243494
0.257383
0.27354
0.291776
0.311465
0.329612
0.339244
0.343977
0.34584
0.344951
0.338037
0.324893
0.311684
0.299823
0.289773
0.281729
0.275749
0.271777
0.269653
0.269104
0.269733
0.270999
0.272252
0.272866
0.272517
0.271618
0.27086
0.270913
0.272334
0.275543
0.280845
0.288453
0.298498
0.311031
0.326011
0.343195
0.361647
0.376032
0.38198
0.384632
0.336283
0.328093
0.317855
0.308331
0.300373
0.294363
0.290536
0.289028
0.289891
0.293086
0.298498
0.305936
0.315067
0.325144
0.333511
0.334072
0.328469
0.314867
0.30082
0.288329
0.277974
0.270035
0.264696
0.262115
0.26245
0.265869
0.272555
0.282712
0.296573
0.314393
0.336453
0.363037
0.394387
0.430599
0.471201
0.513035
0.542231
0.563032
0.581788
0.598593
0.613465
0.626442
0.637572
0.646903
0.654479
0.660339
0.664513
0.667025
0.667888
0.667112
0.664694
0.660626
0.654891
0.647463
0.63831
0.627391
0.61466
0.600062
0.583544
0.565055
0.544561
0.520658
0.485181
0.440706
0.39961
0.363416
0.332144
0.305527
0.283231
0.26492
0.250278
0.23902
0.230899
0.225709
0.223287
0.223513
0.22631
0.231642
0.239507
0.249931
0.262944
0.278553
0.296684
0.317026
0.338402
0.354376
0.361859
0.36651
0.368817
0.368907
0.366226
0.35611
0.341952
0.32881
0.317645
0.308809
0.302444
0.298532
0.296916
0.297306
0.299226
0.301952
0.304479
0.305659
0.304652
0.302427
0.300236
0.299051
0.299599
0.302358
0.307643
0.315656
0.326497
0.34014
0.356454
0.374827
0.392226
0.400868
0.404826
0.406875
0.373642
0.369269
0.357387
0.345363
0.335324
0.327747
0.322921
0.321006
0.322072
0.326046
0.332762
0.34198
0.353184
0.36448
0.368046
0.366521
0.363659
0.352714
0.336162
0.32101
0.308403
0.298684
0.292023
0.288558
0.288427
0.291782
0.298787
0.30963
0.324519
0.343695
0.367417
0.395923
0.42935
0.467523
0.508753
0.540505
0.561952
0.580834
0.598068
0.613609
0.62744
0.639565
0.650005
0.658783
0.665923
0.671451
0.675384
0.67774
0.678528
0.677752
0.675412
0.671499
0.666003
0.658903
0.650178
0.639799
0.627737
0.613962
0.598446
0.581173
0.562147
0.541404
0.514818
0.474979
0.432422
0.394081
0.360637
0.331993
0.307886
0.288009
0.272055
0.259747
0.250846
0.245156
0.242525
0.242842
0.246037
0.252079
0.260972
0.272742
0.287421
0.305
0.325322
0.347733
0.368972
0.38042
0.386872
0.391389
0.394009
0.394858
0.39415
0.389825
0.378149
0.364303
0.352047
0.342339
0.335581
0.331816
0.33092
0.332627
0.336423
0.341394
0.346058
0.348331
0.346076
0.341587
0.337226
0.334242
0.333574
0.335694
0.340888
0.349323
0.361044
0.375807
0.393293
0.41171
0.422072
0.426504
0.429579
0.431168
0.407221
0.406841
0.401305
0.388499
0.376831
0.367707
0.361817
0.359448
0.360769
0.365607
0.373634
0.384464
0.396787
0.402173
0.401569
0.400064
0.397773
0.392295
0.376963
0.359741
0.344919
0.333324
0.325221
0.320763
0.320103
0.323389
0.330773
0.342416
0.358501
0.379235
0.404846
0.43547
0.470944
0.509953
0.542544
0.564649
0.583118
0.600282
0.616043
0.630336
0.643119
0.654375
0.664101
0.672299
0.678981
0.684156
0.687834
0.690024
0.690731
0.689957
0.687701
0.683957
0.678717
0.671969
0.663699
0.65389
0.642529
0.629602
0.615105
0.599044
0.581448
0.562373
0.541783
0.512812
0.47113
0.43094
0.395157
0.364217
0.33803
0.316347
0.298883
0.28537
0.275581
0.26933
0.266477
0.266918
0.27059
0.277462
0.287535
0.300833
0.317378
0.337114
0.359708
0.383627
0.399959
0.407871
0.413816
0.418163
0.420973
0.422365
0.422526
0.421703
0.416837
0.405781
0.393039
0.382467
0.375371
0.371855
0.371845
0.375174
0.381362
0.38912
0.39653
0.398892
0.396422
0.388885
0.381928
0.376612
0.374475
0.375809
0.380841
0.389674
0.402325
0.417796
0.43519
0.445581
0.450055
0.453439
0.45582
0.457049
0.441059
0.440936
0.44055
0.435242
0.424305
0.41414
0.407246
0.404351
0.406023
0.411773
0.420659
0.431701
0.436932
0.436814
0.435806
0.434393
0.432483
0.430037
0.422098
0.404583
0.387848
0.374391
0.364774
0.359229
0.357986
0.361211
0.36904
0.381611
0.399047
0.421489
0.44912
0.481786
0.518076
0.549594
0.571421
0.588966
0.605588
0.621133
0.635487
0.64857
0.660325
0.670716
0.679723
0.687333
0.693545
0.698357
0.701771
0.70379
0.704414
0.703644
0.701477
0.697911
0.69294
0.686558
0.678757
0.669534
0.658885
0.646812
0.633327
0.618451
0.602228
0.58472
0.566014
0.545474
0.515233
0.474326
0.436187
0.40273
0.374215
0.350501
0.331328
0.31645
0.305653
0.298771
0.295677
0.296278
0.300508
0.308329
0.319728
0.334707
0.353249
0.375171
0.399529
0.420133
0.430247
0.436956
0.44236
0.446474
0.449353
0.451103
0.451881
0.4519
0.451417
0.447528
0.439505
0.428679
0.421647
0.418522
0.419367
0.424108
0.432224
0.438026
0.441101
0.441906
0.441491
0.438703
0.432921
0.425451
0.422099
0.422638
0.427435
0.436401
0.449664
0.463014
0.471737
0.47561
0.478782
0.481377
0.483211
0.48416
0.47502
0.475032
0.475115
0.475269
0.471761
0.465471
0.458309
0.454858
0.456978
0.463323
0.469527
0.472966
0.472435
0.471473
0.470447
0.469219
0.467715
0.465913
0.463637
0.454684
0.437263
0.422228
0.411151
0.404438
0.402574
0.40576
0.414111
0.427737
0.446649
0.470775
0.500254
0.533716
0.562076
0.582326
0.598541
0.614206
0.629135
0.643174
0.656203
0.668133
0.678895
0.688442
0.69674
0.703767
0.709509
0.713956
0.717105
0.718951
0.719492
0.718727
0.716654
0.71327
0.708574
0.702563
0.695239
0.686604
0.676665
0.665436
0.652938
0.639207
0.624293
0.608266
0.591214
0.573241
0.552851
0.522875
0.48384
0.447953
0.416975
0.391064
0.370002
0.353594
0.34166
0.334063
0.330704
0.331499
0.336373
0.345262
0.358117
0.37487
0.395395
0.419041
0.442293
0.454642
0.461479
0.467346
0.472193
0.476019
0.478864
0.480813
0.481996
0.482588
0.482812
0.482952
0.481312
0.477317
0.47274
0.470288
0.471474
0.474391
0.476947
0.477801
0.47724
0.477299
0.478119
0.479516
0.479065
0.477098
0.4748
0.474773
0.479238
0.486971
0.494627
0.500342
0.503038
0.505671
0.508086
0.510075
0.511487
0.512219
0.508969
0.509055
0.509275
0.509731
0.510588
0.509856
0.507868
0.506615
0.507231
0.508866
0.509615
0.508225
0.507128
0.506196
0.50529
0.504321
0.503245
0.502065
0.500835
0.499074
0.491295
0.476508
0.464614
0.456683
0.454238
0.457454
0.466375
0.481147
0.501563
0.526657
0.556387
0.579912
0.59726
0.61183
0.62621
0.640184
0.653571
0.666223
0.678019
0.688863
0.698681
0.707417
0.715028
0.721485
0.726766
0.730854
0.73374
0.735416
0.735877
0.735119
0.733141
0.729941
0.725521
0.719883
0.713032
0.704979
0.695736
0.685327
0.673782
0.661144
0.647472
0.632838
0.617335
0.601074
0.58419
0.564763
0.536626
0.499893
0.466688
0.438611
0.415527
0.397446
0.384229
0.375819
0.37216
0.373182
0.378795
0.388865
0.403273
0.421762
0.443974
0.467738
0.48128
0.487855
0.493674
0.498754
0.503048
0.506545
0.509271
0.51129
0.512702
0.513643
0.51428
0.514812
0.515453
0.516127
0.515314
0.514474
0.514398
0.514206
0.512878
0.511995
0.511659
0.511871
0.51267
0.514054
0.516102
0.51845
0.519581
0.521169
0.524169
0.527751
0.530146
0.531908
0.53392
0.535952
0.537814
0.539351
0.540444
0.541011
0.542832
0.542945
0.543199
0.543646
0.544353
0.545347
0.54649
0.546901
0.546393
0.545048
0.543679
0.542563
0.541657
0.540891
0.540197
0.53953
0.538878
0.538268
0.537774
0.537528
0.537226
0.532472
0.524204
0.515443
0.512896
0.516332
0.525694
0.541307
0.562685
0.58434
0.602376
0.615967
0.628671
0.641524
0.654283
0.666747
0.678743
0.69013
0.700787
0.710619
0.719549
0.727515
0.734471
0.74038
0.745215
0.748955
0.751586
0.753097
0.75348
0.752731
0.750849
0.747833
0.743686
0.738415
0.732029
0.724542
0.715974
0.706354
0.695719
0.684117
0.671611
0.658278
0.644213
0.62953
0.614366
0.598882
0.581451
0.556621
0.52306
0.49354
0.468431
0.448618
0.433968
0.424627
0.420623
0.421902
0.428357
0.439667
0.455617
0.475261
0.497363
0.510367
0.516388
0.521728
0.526608
0.53095
0.534701
0.537842
0.540385
0.542374
0.54388
0.545001
0.545853
0.54656
0.547225
0.547874
0.548433
0.54852
0.547846
0.546915
0.546122
0.545632
0.545529
0.545855
0.546639
0.547891
0.549619
0.551774
0.554309
0.556764
0.558617
0.560052
0.561549
0.56313
0.564782
0.566401
0.567867
0.569072
0.569927
0.57037
0.576583
0.576694
0.576928
0.577303
0.577825
0.578456
0.57905
0.579294
0.578985
0.578271
0.577447
0.57669
0.576047
0.575515
0.575077
0.574723
0.574468
0.574355
0.574466
0.574931
0.575943
0.577724
0.577322
0.57618
0.576481
0.580604
0.589612
0.602115
0.615483
0.627758
0.637951
0.648731
0.659932
0.67131
0.682653
0.693777
0.704526
0.714765
0.72438
0.733277
0.74138
0.748625
0.754961
0.760349
0.764759
0.768166
0.770552
0.771904
0.772215
0.771477
0.76969
0.766855
0.762976
0.758062
0.752126
0.745185
0.737264
0.728396
0.718622
0.707994
0.696577
0.684451
0.67171
0.658469
0.644861
0.631046
0.61721
0.602613
0.582084
0.555186
0.528691
0.507512
0.491285
0.480921
0.476525
0.478039
0.485432
0.49776
0.514601
0.531798
0.542491
0.547308
0.55176
0.55606
0.560081
0.563735
0.566963
0.569736
0.572053
0.573939
0.575442
0.576628
0.577572
0.57835
0.579016
0.579577
0.579978
0.580086
0.579841
0.579431
0.579064
0.578882
0.578971
0.57938
0.580139
0.581253
0.582709
0.584455
0.586391
0.588298
0.589974
0.591448
0.592869
0.594281
0.595678
0.597003
0.598182
0.599143
0.599821
0.600171
0.610223
0.61032
0.610516
0.610811
0.611189
0.611602
0.611952
0.6121
0.611965
0.611604
0.611147
0.610702
0.610327
0.610046
0.609871
0.609818
0.609917
0.610218
0.610803
0.611787
0.613329
0.615634
0.618969
0.623137
0.626971
0.632146
0.639131
0.646867
0.65429
0.662495
0.671499
0.681074
0.691017
0.701132
0.711241
0.721184
0.730819
0.740023
0.74869
0.756731
0.764069
0.770642
0.776398
0.781297
0.785305
0.788397
0.790551
0.791755
0.791997
0.791273
0.78958
0.786921
0.783302
0.778732
0.773227
0.766808
0.759502
0.751344
0.742379
0.73266
0.722253
0.711238
0.699707
0.687773
0.675563
0.66323
0.650946
0.638915
0.62722
0.61192
0.593483
0.573269
0.555691
0.544566
0.539797
0.541212
0.549306
0.561006
0.570921
0.577727
0.580669
0.583892
0.587283
0.59067
0.593922
0.596947
0.59968
0.602086
0.604152
0.605888
0.607323
0.608496
0.609457
0.610251
0.61091
0.61144
0.611818
0.612005
0.612003
0.611902
0.611822
0.611861
0.612091
0.612557
0.613283
0.614273
0.615509
0.616945
0.618502
0.620063
0.621533
0.622898
0.624197
0.625449
0.626645
0.62775
0.628717
0.629496
0.630042
0.630324
0.643765
0.643846
0.644006
0.644237
0.644518
0.644811
0.645057
0.645189
0.645172
0.645032
0.644835
0.644645
0.644512
0.64447
0.644544
0.644762
0.645163
0.645798
0.64674
0.648085
0.649951
0.652469
0.655762
0.659848
0.664704
0.670047
0.675722
0.68195
0.688832
0.69636
0.704476
0.71305
0.721929
0.73096
0.739996
0.748898
0.757542
0.765817
0.773627
0.780886
0.787523
0.793475
0.798694
0.803136
0.806769
0.809564
0.811501
0.812565
0.812746
0.812037
0.810437
0.807948
0.804577
0.800336
0.795242
0.789318
0.782591
0.7751
0.766889
0.758013
0.748538
0.738539
0.728109
0.717352
0.706391
0.695363
0.684429
0.673768
0.663583
0.654125
0.644314
0.632962
0.621882
0.613019
0.608206
0.607715
0.610038
0.613337
0.615276
0.616292
0.618064
0.620307
0.622811
0.625414
0.627991
0.63045
0.632725
0.634776
0.636581
0.63814
0.639464
0.640577
0.641509
0.642288
0.642934
0.643455
0.643849
0.644112
0.644262
0.644354
0.644461
0.64465
0.644975
0.645473
0.646163
0.647047
0.64811
0.649315
0.650607
0.65192
0.653196
0.654413
0.655572
0.656673
0.657702
0.658635
0.65944
0.660081
0.660528
0.660757
0.677226
0.677294
0.677426
0.677612
0.677835
0.678068
0.678276
0.678425
0.678501
0.678519
0.678514
0.67853
0.678607
0.678777
0.679072
0.679524
0.680174
0.681069
0.682274
0.683863
0.68592
0.688531
0.69176
0.695623
0.700088
0.70505
0.710446
0.716328
0.722728
0.729636
0.736997
0.744719
0.752689
0.760785
0.768883
0.776869
0.784634
0.792078
0.799115
0.805664
0.81166
0.817043
0.821766
0.825785
0.829069
0.831589
0.833325
0.83426
0.834385
0.833692
0.832182
0.829856
0.826722
0.822794
0.818088
0.812629
0.806446
0.799576
0.792065
0.783967
0.775344
0.766272
0.756837
0.747137
0.737283
0.727403
0.717639
0.708146
0.699096
0.690677
0.683065
0.676572
0.670804
0.665271
0.660992
0.658281
0.656059
0.65427
0.653681
0.653992
0.654988
0.656462
0.658241
0.660184
0.662177
0.664136
0.665995
0.66771
0.669257
0.670625
0.671815
0.67284
0.673715
0.674458
0.675082
0.675598
0.676011
0.676331
0.676579
0.676792
0.677017
0.677303
0.677687
0.678197
0.678849
0.679644
0.680568
0.681597
0.682693
0.683812
0.684918
0.685986
0.687006
0.687967
0.688855
0.689649
0.690326
0.690861
0.691231
0.691421
0.71062
0.710678
0.710791
0.71095
0.711143
0.71135
0.711553
0.711735
0.71189
0.712028
0.712173
0.712356
0.712608
0.71296
0.713443
0.71409
0.714938
0.716032
0.717424
0.719172
0.721337
0.723975
0.727124
0.730798
0.734977
0.739617
0.744686
0.750187
0.756118
0.762457
0.769156
0.776141
0.783324
0.790605
0.797884
0.805062
0.812046
0.818748
0.825088
0.830996
0.836409
0.841273
0.84554
0.84917
0.852132
0.854398
0.855948
0.856765
0.85684
0.856166
0.854742
0.852572
0.849663
0.846029
0.841688
0.836664
0.830987
0.824694
0.817829
0.810444
0.802601
0.794369
0.78583
0.777074
0.768202
0.759329
0.750577
0.74208
0.73398
0.726419
0.719535
0.713452
0.708139
0.703611
0.699727
0.696414
0.693866
0.6921
0.691184
0.691009
0.691434
0.692312
0.693507
0.694902
0.6964
0.697921
0.699407
0.700814
0.702112
0.703287
0.704333
0.705252
0.706053
0.706745
0.707339
0.707843
0.708267
0.708623
0.70893
0.709216
0.709514
0.709856
0.710272
0.71078
0.711392
0.71211
0.712923
0.713813
0.714755
0.715718
0.716676
0.717609
0.7185
0.719335
0.720102
0.720781
0.721355
0.721805
0.722115
0.722274
0.743955
0.744007
0.744109
0.744255
0.744434
0.744637
0.744852
0.745071
0.745294
0.745529
0.745794
0.746112
0.746509
0.747012
0.74765
0.748453
0.749456
0.750697
0.752218
0.754065
0.756282
0.758906
0.761965
0.765467
0.769404
0.773753
0.778495
0.783617
0.789101
0.79492
0.801028
0.807366
0.813859
0.820427
0.826986
0.83345
0.83974
0.845778
0.851494
0.856824
0.861709
0.866099
0.86995
0.873224
0.875891
0.877924
0.879304
0.880013
0.880044
0.879389
0.878049
0.876026
0.873329
0.869971
0.865971
0.861352
0.856144
0.850383
0.844111
0.83738
0.830245
0.822774
0.81504
0.807126
0.799124
0.791133
0.78326
0.775618
0.768322
0.761485
0.755205
0.749559
0.744565
0.740225
0.736496
0.733366
0.730887
0.729079
0.727946
0.727426
0.727428
0.727844
0.728573
0.729518
0.730598
0.731743
0.732899
0.734025
0.735091
0.736078
0.736976
0.737783
0.738499
0.739131
0.739685
0.740169
0.740591
0.740963
0.741302
0.741629
0.741966
0.742338
0.742763
0.743258
0.74383
0.74448
0.7452
0.745978
0.746795
0.747629
0.748461
0.749272
0.750048
0.750773
0.751435
0.752018
0.752507
0.752889
0.753151
0.753285
0.777237
0.777287
0.777384
0.777525
0.777703
0.777912
0.778147
0.778404
0.778686
0.779001
0.779363
0.77979
0.780304
0.78093
0.781691
0.782616
0.783735
0.785081
0.786687
0.788588
0.790818
0.793402
0.796361
0.799701
0.803418
0.807498
0.811926
0.816683
0.821749
0.827092
0.832672
0.838435
0.84432
0.850259
0.856181
0.862013
0.867686
0.873131
0.878287
0.883095
0.887503
0.891463
0.894936
0.897886
0.900284
0.902104
0.903328
0.903941
0.903933
0.903299
0.902038
0.900154
0.897655
0.894555
0.890872
0.886629
0.881854
0.876582
0.870855
0.864718
0.858227
0.851441
0.844429
0.837266
0.830033
0.822818
0.815712
0.80881
0.802207
0.795992
0.790242
0.785014
0.780338
0.776225
0.772668
0.769667
0.767237
0.765384
0.764093
0.763322
0.763006
0.763065
0.763422
0.764
0.76473
0.765553
0.766422
0.767296
0.768148
0.768958
0.769712
0.770403
0.771031
0.771596
0.772102
0.772556
0.772964
0.773337
0.773687
0.77403
0.774384
0.774764
0.775186
0.775659
0.77619
0.776779
0.77742
0.778104
0.778817
0.779543
0.780266
0.780972
0.781646
0.782275
0.782847
0.783348
0.783767
0.784093
0.784316
0.784429
0.81047
0.810519
0.810616
0.810757
0.81094
0.811162
0.811419
0.811713
0.812046
0.812426
0.812866
0.813381
0.813989
0.81471
0.815568
0.816586
0.817789
0.819204
0.82086
0.822783
0.824998
0.827525
0.830377
0.833559
0.837068
0.840895
0.845026
0.849442
0.854119
0.859028
0.864131
0.869382
0.874727
0.880108
0.885465
0.890736
0.895858
0.900774
0.905428
0.909767
0.913743
0.917316
0.920446
0.923101
0.925254
0.926881
0.927964
0.928489
0.928448
0.927835
0.92665
0.924897
0.922583
0.919723
0.916334
0.912437
0.90806
0.903238
0.898007
0.892411
0.886502
0.880335
0.87397
0.867477
0.860926
0.854394
0.84796
0.841704
0.835705
0.830034
0.824756
0.819917
0.815549
0.811669
0.808284
0.805397
0.803012
0.801125
0.799721
0.798765
0.798207
0.797989
0.79805
0.798329
0.798768
0.799319
0.799938
0.80059
0.801249
0.801893
0.802509
0.803088
0.803625
0.804119
0.804572
0.804988
0.805372
0.805732
0.806078
0.806422
0.806775
0.80715
0.807557
0.808003
0.808493
0.809025
0.809597
0.810201
0.810825
0.811459
0.812089
0.812703
0.813289
0.813834
0.814329
0.814761
0.815121
0.8154
0.81559
0.815687
0.843655
0.843704
0.843802
0.843948
0.844139
0.844375
0.844655
0.844982
0.845358
0.845792
0.846294
0.846878
0.847559
0.848355
0.849285
0.850369
0.851629
0.853088
0.854767
0.856687
0.858867
0.861322
0.864062
0.867089
0.870401
0.873989
0.877841
0.881938
0.886258
0.890771
0.895443
0.900234
0.905097
0.909982
0.914836
0.919606
0.924238
0.92868
0.932883
0.9368
0.940389
0.94361
0.94643
0.948818
0.950749
0.952201
0.953157
0.953604
0.953535
0.952944
0.951831
0.950199
0.948059
0.94542
0.942302
0.938724
0.934714
0.930301
0.925523
0.920419
0.915036
0.909425
0.903641
0.897744
0.891799
0.885871
0.880029
0.874342
0.868874
0.863685
0.85883
0.854348
0.850272
0.846619
0.843401
0.840624
0.838287
0.836385
0.834902
0.833809
0.833068
0.832635
0.832461
0.832496
0.832695
0.833016
0.833421
0.833878
0.834363
0.834857
0.835343
0.835814
0.836261
0.836684
0.83708
0.837452
0.837804
0.838142
0.838472
0.838804
0.839145
0.839504
0.839889
0.840304
0.840752
0.841233
0.841743
0.842276
0.842825
0.843379
0.843929
0.844463
0.844972
0.845445
0.845872
0.846245
0.846555
0.846795
0.846958
0.847041
0.876789
0.87684
0.876941
0.877093
0.877293
0.877544
0.877845
0.8782
0.878612
0.879089
0.879641
0.880279
0.881015
0.881866
0.882848
0.883977
0.885272
0.886751
0.888432
0.890331
0.892462
0.894835
0.897459
0.900334
0.903457
0.90682
0.910411
0.914212
0.918202
0.922354
0.926637
0.931014
0.935445
0.939886
0.944291
0.948614
0.952807
0.956825
0.960624
0.964162
0.967401
0.970306
0.972846
0.974992
0.976723
0.978016
0.978858
0.979236
0.979143
0.978574
0.977529
0.976012
0.974031
0.971598
0.968729
0.965445
0.961769
0.957731
0.953364
0.948706
0.943798
0.938688
0.933424
0.928061
0.922654
0.917263
0.911945
0.90676
0.901762
0.897004
0.892529
0.888375
0.88457
0.881134
0.878078
0.87541
0.873128
0.871227
0.869691
0.8685
0.867622
0.867022
0.866661
0.8665
0.866501
0.866629
0.86685
0.867138
0.86747
0.867827
0.868194
0.868562
0.868924
0.869274
0.869611
0.869936
0.870251
0.870559
0.870865
0.871176
0.871496
0.871833
0.87219
0.872571
0.872979
0.873411
0.873865
0.874336
0.874819
0.875304
0.875783
0.876249
0.876691
0.877101
0.877471
0.877793
0.87806
0.878267
0.878407
0.878478
0.909873
0.909926
0.910031
0.910188
0.910398
0.910662
0.910982
0.91136
0.911802
0.912313
0.912902
0.91358
0.914357
0.915247
0.916262
0.917419
0.91873
0.920212
0.921879
0.923742
0.925813
0.928099
0.930605
0.933331
0.936273
0.939424
0.942771
0.946298
0.949985
0.953807
0.957736
0.96174
0.965783
0.969826
0.973829
0.977751
0.981551
0.985189
0.988625
0.991823
0.994747
0.997367
0.999654
1.00158
1.00313
1.00428
1.00502
1.00534
1.00523
1.00468
1.0037
1.00229
1.00046
0.998212
0.995572
0.992556
0.989186
0.98549
0.981497
0.977242
0.972763
0.968103
0.963306
0.95842
0.953495
0.94858
0.943729
0.93899
0.934411
0.930037
0.925907
0.922053
0.918501
0.915268
0.912369
0.909809
0.907588
0.905702
0.904138
0.902877
0.901897
0.901169
0.900661
0.900343
0.900181
0.900147
0.900213
0.900355
0.900551
0.900786
0.901045
0.901318
0.901597
0.901877
0.902155
0.90243
0.902704
0.902977
0.903254
0.903537
0.903831
0.90414
0.904467
0.904813
0.90518
0.905567
0.90597
0.906386
0.906809
0.907234
0.907652
0.908057
0.908441
0.908797
0.909117
0.909396
0.909626
0.909804
0.909925
0.909986
0.942905
0.942959
0.943067
0.94323
0.943449
0.943725
0.94406
0.944457
0.944921
0.945458
0.946075
0.946782
0.947586
0.948501
0.949536
0.950705
0.952018
0.953489
0.955129
0.956946
0.958948
0.961142
0.96353
0.966111
0.968881
0.971831
0.97495
0.978223
0.981632
0.985153
0.988761
0.992428
0.99612
0.999805
1.00345
1.00701
1.01046
1.01375
1.01687
1.01976
1.0224
1.02476
1.02682
1.02855
1.02994
1.03096
1.03161
1.03187
1.03174
1.03122
1.0303
1.02899
1.02729
1.02522
1.02279
1.02002
1.01693
1.01354
1.00989
1.006
1.00191
0.997656
0.993278
0.988819
0.984324
0.979835
0.975399
0.971059
0.966856
0.962828
0.95901
0.955429
0.95211
0.94907
0.946321
0.943868
0.941714
0.939855
0.93828
0.936975
0.935921
0.935095
0.934473
0.934028
0.933734
0.933566
0.9335
0.933516
0.933595
0.933721
0.933882
0.934067
0.934269
0.934481
0.934701
0.934927
0.935157
0.935393
0.935636
0.935888
0.936152
0.93643
0.936724
0.937035
0.937363
0.937706
0.938062
0.938428
0.938799
0.93917
0.939535
0.939887
0.94022
0.940528
0.940806
0.941046
0.941245
0.941399
0.941503
0.941555
0.975882
0.975938
0.976049
0.976217
0.976443
0.976729
0.977075
0.977487
0.977968
0.978523
0.97916
0.979884
0.980706
0.981634
0.982677
0.983845
0.985149
0.986598
0.988201
0.989963
0.991893
0.993992
0.996263
0.998703
1.00131
1.00407
1.00698
1.01001
1.01317
1.01641
1.01973
1.02309
1.02647
1.02983
1.03315
1.03639
1.03952
1.04251
1.04532
1.04794
1.05033
1.05246
1.05431
1.05587
1.05711
1.05802
1.05859
1.0588
1.05866
1.05815
1.05729
1.05607
1.0545
1.05259
1.05035
1.04781
1.04497
1.04187
1.03852
1.03496
1.03122
1.02733
1.02333
1.01926
1.01515
1.01104
1.00697
1.00299
0.999125
0.99541
0.991874
0.988544
0.985441
0.982581
0.979975
0.977629
0.975546
0.973723
0.972152
0.970821
0.969716
0.968818
0.968107
0.967562
0.96716
0.966882
0.966705
0.966614
0.966591
0.966621
0.966694
0.9668
0.96693
0.967079
0.967242
0.967418
0.967604
0.967801
0.968008
0.968227
0.968459
0.968704
0.968965
0.96924
0.969529
0.969832
0.970145
0.970465
0.970789
0.971112
0.971429
0.971735
0.972024
0.972291
0.972531
0.972738
0.97291
0.973042
0.973132
0.973177
1.0088
1.00886
1.00897
1.00915
1.00938
1.00967
1.01003
1.01045
1.01094
1.01151
1.01216
1.01289
1.01372
1.01465
1.01569
1.01685
1.01814
1.01955
1.02111
1.02281
1.02467
1.02667
1.02883
1.03113
1.03358
1.03616
1.03887
1.04169
1.04461
1.0476
1.05065
1.05373
1.05682
1.0599
1.06292
1.06587
1.06872
1.07143
1.07398
1.07635
1.07851
1.08044
1.08211
1.0835
1.08461
1.08542
1.08591
1.08608
1.08593
1.08545
1.08464
1.0835
1.08205
1.08028
1.07822
1.07588
1.07328
1.07043
1.06736
1.0641
1.06068
1.05712
1.05346
1.04973
1.04596
1.0422
1.03847
1.03481
1.03124
1.02781
1.02453
1.02143
1.01853
1.01584
1.01337
1.01113
1.00912
1.00734
1.00578
1.00444
1.0033
1.00235
1.00158
1.00095
1.00046
1.00009
0.999826
0.999644
0.999533
0.99948
0.999475
0.999508
0.999572
0.999661
0.999771
0.999899
1.00004
1.0002
1.00037
1.00055
1.00075
1.00096
1.00119
1.00143
1.00168
1.00195
1.00222
1.0025
1.00278
1.00306
1.00334
1.0036
1.00385
1.00408
1.00429
1.00447
1.00461
1.00473
1.00481
1.00484
1.04167
1.04173
1.04184
1.04202
1.04225
1.04255
1.04291
1.04334
1.04384
1.04441
1.04506
1.0458
1.04663
1.04756
1.04859
1.04973
1.05099
1.05237
1.05388
1.05552
1.05729
1.0592
1.06124
1.06341
1.06571
1.06813
1.07065
1.07327
1.07597
1.07873
1.08154
1.08437
1.0872
1.09001
1.09277
1.09546
1.09805
1.10051
1.10283
1.10498
1.10693
1.10867
1.11017
1.11142
1.11242
1.11313
1.11356
1.11369
1.11353
1.11307
1.11231
1.11125
1.1099
1.10828
1.10638
1.10422
1.10183
1.09921
1.0964
1.09341
1.09027
1.08701
1.08365
1.08023
1.07678
1.07332
1.06989
1.06652
1.06323
1.06006
1.05701
1.05412
1.05141
1.04887
1.04653
1.0444
1.04246
1.04073
1.0392
1.03786
1.0367
1.03572
1.03489
1.03421
1.03365
1.03321
1.03286
1.0326
1.03242
1.03229
1.03222
1.03218
1.03219
1.03222
1.03228
1.03236
1.03246
1.03258
1.03272
1.03287
1.03303
1.03321
1.0334
1.03361
1.03383
1.03405
1.03429
1.03453
1.03477
1.03502
1.03525
1.03548
1.0357
1.03589
1.03607
1.03623
1.03635
1.03645
1.03652
1.03655
1.07447
1.07453
1.07465
1.07483
1.07506
1.07536
1.07573
1.07616
1.07666
1.07723
1.07789
1.07862
1.07945
1.08036
1.08138
1.08249
1.08372
1.08506
1.08651
1.08808
1.08978
1.09159
1.09352
1.09557
1.09773
1.09999
1.10234
1.10477
1.10727
1.10982
1.11241
1.11501
1.1176
1.12017
1.12269
1.12515
1.1275
1.12974
1.13185
1.13379
1.13556
1.13713
1.13848
1.13961
1.1405
1.14113
1.1415
1.1416
1.14143
1.14099
1.14028
1.13929
1.13804
1.13654
1.13479
1.1328
1.1306
1.1282
1.12561
1.12287
1.11999
1.11699
1.11391
1.11077
1.1076
1.10442
1.10126
1.09815
1.09511
1.09217
1.08934
1.08664
1.0841
1.08171
1.0795
1.07746
1.0756