/*--------------------------------*- C++ -*----------------------------------*\
| =========                 |                                                 |
| \\      /  F ield         | OpenFOAM: The Open Source CFD Toolbox           |
|  \\    /   O peration     | Version:  2406                                  |
|   \\  /    A nd           | Website:  www.openfoam.com                      |
|    \\/     M anipulation  |                                                 |
\*---------------------------------------------------------------------------*/
FoamFile
{
    version     2.0;
    format      ascii;
    arch        "LSB;label=32;scalar=64";
    class       volScalarField;
    location    "8";
    object      D;
}
// * * * * * * * * * * * * * * * * * * * * * * * * * * * * * * * * * * * * * //

dimensions      [0 2 -1 0 0 0 0];

internalField   nonuniform List<scalar> 
14400
(
7.08606e-05
7.08017e-05
7.0716e-05
7.06354e-05
7.05754e-05
7.05377e-05
7.05178e-05
7.05112e-05
7.05181e-05
7.0545e-05
7.06034e-05
7.07048e-05
7.0852e-05
7.10223e-05
7.11501e-05
7.11312e-05
7.08975e-05
7.05246e-05
7.00912e-05
6.9624e-05
6.91103e-05
6.85243e-05
6.78469e-05
6.70776e-05
6.62377e-05
6.5366e-05
6.45086e-05
6.37077e-05
6.29953e-05
6.23926e-05
6.19141e-05
6.15737e-05
6.13937e-05
6.1419e-05
6.17533e-05
6.26795e-05
6.52643e-05
7.59363e-05
0.000137159
0.00013824
0.00013824
0.00013824
0.00013824
0.00013824
0.00013824
0.00013824
0.00013824
0.00013824
0.00013824
0.00013824
0.00013824
0.00013824
0.00013824
0.00013824
0.00013824
0.00013824
0.00013824
0.00013824
0.00013824
0.000130478
7.08959e-05
6.45503e-05
6.28404e-05
6.22521e-05
6.21567e-05
6.23702e-05
6.28281e-05
6.35107e-05
6.44155e-05
6.55403e-05
6.68638e-05
6.83255e-05
6.98147e-05
7.11862e-05
7.23012e-05
7.30653e-05
7.34411e-05
7.34422e-05
7.31241e-05
7.25772e-05
7.19204e-05
7.12936e-05
7.08588e-05
7.08358e-05
7.16678e-05
7.49367e-05
9.0839e-05
0.000137893
0.000102245
7.50872e-05
7.02629e-05
6.86833e-05
6.80559e-05
6.78663e-05
6.79241e-05
6.81327e-05
6.84306e-05
6.87722e-05
6.91206e-05
6.94433e-05
6.97113e-05
6.98966e-05
6.99738e-05
6.99236e-05
6.97396e-05
6.9432e-05
6.9023e-05
6.85417e-05
6.80196e-05
6.74897e-05
6.69859e-05
6.65435e-05
6.6201e-05
6.60056e-05
6.60276e-05
6.6396e-05
6.74139e-05
7.00654e-05
7.93554e-05
0.000135814
7.04656e-05
7.03437e-05
7.01722e-05
7.0011e-05
6.98867e-05
6.98036e-05
6.97572e-05
6.97427e-05
6.97599e-05
6.98154e-05
6.9922e-05
7.00948e-05
7.03421e-05
7.06453e-05
7.09208e-05
7.0987e-05
7.06631e-05
7.01559e-05
6.96155e-05
6.90821e-05
6.85389e-05
6.79543e-05
6.73046e-05
6.6584e-05
6.58073e-05
6.50057e-05
6.42179e-05
6.34807e-05
6.28236e-05
6.22678e-05
6.18291e-05
6.15243e-05
6.1379e-05
6.1445e-05
6.1844e-05
6.29356e-05
6.63869e-05
8.63527e-05
0.000138144
0.00013824
0.00013824
0.00013824
0.00013824
0.00013824
0.00013824
0.00013824
0.00013824
0.00013824
0.00013824
0.00013824
0.00013824
0.00013824
0.00013824
0.00013824
0.00013824
0.00013824
0.00013824
0.00013824
0.00013824
0.000136226
7.39854e-05
6.52339e-05
6.30527e-05
6.23218e-05
6.21574e-05
6.23212e-05
6.27311e-05
6.33584e-05
6.41943e-05
6.52317e-05
6.6448e-05
6.7788e-05
6.91551e-05
7.04217e-05
7.14616e-05
7.21836e-05
7.25482e-05
7.2566e-05
7.22902e-05
7.1809e-05
7.12368e-05
7.07074e-05
7.03779e-05
7.04729e-05
7.14866e-05
7.54648e-05
9.87229e-05
0.000138187
0.000114849
7.60129e-05
7.0334e-05
6.85397e-05
6.77976e-05
6.75239e-05
6.751e-05
6.76546e-05
6.78966e-05
6.81928e-05
6.85091e-05
6.88153e-05
6.90817e-05
6.9277e-05
6.93681e-05
6.93279e-05
6.91466e-05
6.88399e-05
6.84388e-05
6.7978e-05
6.7491e-05
6.7009e-05
6.65621e-05
6.61815e-05
6.5903e-05
6.57739e-05
6.58695e-05
6.63387e-05
6.75727e-05
7.11784e-05
8.89554e-05
0.000138028
6.99484e-05
6.96685e-05
6.93103e-05
6.89928e-05
6.87532e-05
6.85925e-05
6.85018e-05
6.84733e-05
6.85056e-05
6.86059e-05
6.87908e-05
6.90854e-05
6.95184e-05
7.01003e-05
7.07505e-05
7.11082e-05
7.04592e-05
6.96008e-05
6.88287e-05
6.81676e-05
6.75709e-05
6.69878e-05
6.63832e-05
6.57419e-05
6.50683e-05
6.43815e-05
6.37091e-05
6.30795e-05
6.2518e-05
6.20451e-05
6.16792e-05
6.14411e-05
6.13639e-05
6.15122e-05
6.20397e-05
6.34306e-05
6.8333e-05
0.000108989
0.000138239
0.00013824
0.00013824
0.00013824
0.00013824
0.00013824
0.00013824
0.00013824
0.00013824
0.00013824
0.00013824
0.00013824
0.00013824
0.00013824
0.00013824
0.00013824
0.00013824
0.00013824
0.00013824
0.00013824
0.00013824
0.000138205
9.13926e-05
6.71624e-05
6.35139e-05
6.24709e-05
6.21695e-05
6.22376e-05
6.25572e-05
6.30835e-05
6.37967e-05
6.46818e-05
6.57133e-05
6.68437e-05
6.7996e-05
6.90708e-05
6.99661e-05
7.06027e-05
7.09422e-05
7.09915e-05
7.07982e-05
7.04425e-05
7.00285e-05
6.96788e-05
6.95446e-05
6.98617e-05
7.12032e-05
7.63098e-05
0.000113357
0.000138239
0.000131927
7.82488e-05
7.07491e-05
6.83959e-05
6.74003e-05
6.69645e-05
6.68234e-05
6.68596e-05
6.70092e-05
6.72316e-05
6.74971e-05
6.77785e-05
6.80464e-05
6.82636e-05
6.8384e-05
6.83635e-05
6.81835e-05
6.78729e-05
6.74795e-05
6.70486e-05
6.6616e-05
6.62096e-05
6.58539e-05
6.55747e-05
6.54047e-05
6.53928e-05
6.56252e-05
6.6287e-05
6.7915e-05
7.32451e-05
0.000112187
0.000138239
6.98391e-05
6.91666e-05
6.84585e-05
6.79026e-05
6.751e-05
6.72547e-05
6.7112e-05
6.70661e-05
6.71128e-05
6.72605e-05
6.75336e-05
6.79779e-05
6.8672e-05
6.97373e-05
7.13078e-05
7.30398e-05
7.08671e-05
6.91527e-05
6.79752e-05
6.71271e-05
6.64563e-05
6.58691e-05
6.53109e-05
6.47543e-05
6.41922e-05
6.36319e-05
6.30894e-05
6.25846e-05
6.21378e-05
6.17687e-05
6.14982e-05
6.13533e-05
6.13785e-05
6.16629e-05
6.24271e-05
6.44023e-05
7.14858e-05
0.000132767
0.00013824
0.00013824
0.00013824
0.00013824
0.00013824
0.00013824
0.00013824
0.00013824
0.00013824
0.00013824
0.00013824
0.00013824
0.00013824
0.00013824
0.00013824
0.00013824
0.00013824
0.00013824
0.00013824
0.00013824
0.00013824
0.00013824
0.000119132
6.97797e-05
6.4232e-05
6.27305e-05
6.22205e-05
6.21473e-05
6.23414e-05
6.27349e-05
6.3294e-05
6.39945e-05
6.48078e-05
6.5693e-05
6.65918e-05
6.74329e-05
6.81435e-05
6.86649e-05
6.89673e-05
6.90557e-05
6.89693e-05
6.8775e-05
6.85618e-05
6.84416e-05
6.85685e-05
6.92196e-05
7.11379e-05
7.78458e-05
0.00013006
0.00013824
0.000138217
9.93808e-05
7.28823e-05
6.8547e-05
6.70577e-05
6.6377e-05
6.60676e-05
6.59721e-05
6.60162e-05
6.61586e-05
6.63724e-05
6.66343e-05
6.69159e-05
6.71744e-05
6.73456e-05
6.73568e-05
6.7167e-05
6.68338e-05
6.64325e-05
6.60223e-05
6.56407e-05
6.53116e-05
6.50539e-05
6.48893e-05
6.48497e-05
6.49912e-05
6.54265e-05
6.64217e-05
6.88105e-05
7.69653e-05
0.000134573
0.00013824
7.14998e-05
6.93954e-05
6.79442e-05
6.70183e-05
6.64289e-05
6.60643e-05
6.58647e-05
6.57992e-05
6.58583e-05
6.60524e-05
6.64179e-05
6.70364e-05
6.80931e-05
7.00618e-05
7.46452e-05
8.91591e-05
7.33418e-05
6.91686e-05
6.72895e-05
6.61804e-05
6.54093e-05
6.48029e-05
6.42775e-05
6.37912e-05
6.33264e-05
6.28801e-05
6.24591e-05
6.20757e-05
6.1746e-05
6.14889e-05
6.13288e-05
6.13015e-05
6.14707e-05
6.19788e-05
6.32587e-05
6.76212e-05
0.00010305
0.000138238
0.00013824
0.00013824
0.00013824
0.00013824
0.00013824
0.00013824
0.00013824
0.00013824
0.00013824
0.00013824
0.00013824
0.00013824
0.00013824
0.00013824
0.00013824
0.00013824
0.00013824
0.00013824
0.00013824
0.00013824
0.00013824
0.00013824
0.000137673
7.8167e-05
6.58441e-05
6.32468e-05
6.23712e-05
6.20932e-05
6.21279e-05
6.23682e-05
6.27615e-05
6.32737e-05
6.38732e-05
6.45242e-05
6.51834e-05
6.58021e-05
6.63329e-05
6.67387e-05
6.70014e-05
6.71273e-05
6.71474e-05
6.71153e-05
6.71068e-05
6.72296e-05
6.76627e-05
6.88201e-05
7.23533e-05
9.16952e-05
0.000138116
0.00013824
0.00013824
0.00013198
7.67753e-05
6.93283e-05
6.70121e-05
6.59607e-05
6.54317e-05
6.51864e-05
6.51229e-05
6.51923e-05
6.53679e-05
6.56297e-05
6.59522e-05
6.62905e-05
6.65555e-05
6.6625e-05
6.63913e-05
6.59886e-05
6.5539e-05
6.5119e-05
6.47656e-05
6.4497e-05
6.43268e-05
6.42748e-05
6.43777e-05
6.47103e-05
6.54537e-05
6.71568e-05
7.25404e-05
0.000112664
0.000138239
0.00013824
8.39622e-05
7.1715e-05
6.81515e-05
6.65572e-05
6.5684e-05
6.51782e-05
6.49096e-05
6.48202e-05
6.48923e-05
6.51389e-05
6.56147e-05
6.64598e-05
6.80912e-05
7.22985e-05
9.47514e-05
0.000137326
8.25506e-05
7.01993e-05
6.69861e-05
6.54843e-05
6.45652e-05
6.3912e-05
6.33959e-05
6.29561e-05
6.25642e-05
6.22093e-05
6.1891e-05
6.16162e-05
6.13977e-05
6.12553e-05
6.12195e-05
6.13407e-05
6.1718e-05
6.25965e-05
6.48449e-05
7.37319e-05
0.000136532
0.00013824
0.00013824
0.00013824
0.00013824
0.00013824
0.00013824
0.00013824
0.00013824
0.00013824
0.00013824
0.00013824
0.00013824
0.00013824
0.00013824
0.00013824
0.00013824
0.00013824
0.00013824
0.00013824
0.00013824
0.00013824
0.00013824
0.00013824
0.00013824
0.000121481
7.00913e-05
6.43201e-05
6.27212e-05
6.2132e-05
6.19658e-05
6.20368e-05
6.22639e-05
6.26001e-05
6.30106e-05
6.34628e-05
6.39241e-05
6.4362e-05
6.47472e-05
6.50591e-05
6.52897e-05
6.54477e-05
6.55593e-05
6.567e-05
6.585e-05
6.62143e-05
6.69929e-05
6.88303e-05
7.487e-05
0.000122419
0.00013824
0.00013824
0.00013824
0.000138239
0.000113225
7.344e-05
6.78246e-05
6.59601e-05
6.50816e-05
6.46444e-05
6.44649e-05
6.44704e-05
6.46292e-05
6.49265e-05
6.53458e-05
6.58532e-05
6.63239e-05
6.65506e-05
6.61553e-05
6.55622e-05
6.49746e-05
6.44851e-05
6.41211e-05
6.38872e-05
6.37895e-05
6.38497e-05
6.41185e-05
6.47092e-05
6.59635e-05
6.93424e-05
8.63013e-05
0.000138044
0.00013824
0.00013824
0.000137221
8.28128e-05
7.00091e-05
6.68102e-05
6.54306e-05
6.46995e-05
6.43289e-05
6.4205e-05
6.42969e-05
6.46212e-05
6.52667e-05
6.64798e-05
6.92108e-05
7.88871e-05
0.000136512
0.00013824
0.00012374
7.39327e-05
6.74129e-05
6.51765e-05
6.40063e-05
6.32598e-05
6.27211e-05
6.22999e-05
6.19548e-05
6.16677e-05
6.14327e-05
6.1253e-05
6.11404e-05
6.11186e-05
6.12309e-05
6.15611e-05
6.22987e-05
6.40462e-05
7.01256e-05
0.000124691
0.00013824
0.00013824
0.00013824
0.00013824
0.00013824
0.00013824
0.00013824
0.00013824
0.00013824
0.00013824
0.00013824
0.00013824
0.00013824
0.00013824
0.00013824
0.00013824
0.00013824
0.00013824
0.00013824
0.00013824
0.00013824
0.00013824
0.00013824
0.00013824
0.00013824
0.000138215
9.18743e-05
6.71352e-05
6.3482e-05
6.235e-05
6.1913e-05
6.17919e-05
6.18525e-05
6.20283e-05
6.22777e-05
6.25698e-05
6.28781e-05
6.31804e-05
6.34593e-05
6.37042e-05
6.39146e-05
6.41016e-05
6.4291e-05
6.45275e-05
6.48874e-05
6.55168e-05
6.6776e-05
7.01101e-05
8.68822e-05
0.000138021
0.00013824
0.00013824
0.00013824
0.00013824
0.00013821
9.56611e-05
7.12839e-05
6.68452e-05
6.52315e-05
6.4483e-05
6.41501e-05
6.40935e-05
6.42657e-05
6.46672e-05
6.53126e-05
6.62554e-05
6.73242e-05
6.83189e-05
6.70982e-05
6.59039e-05
6.49368e-05
6.42499e-05
6.38103e-05
6.35787e-05
6.35436e-05
6.37357e-05
6.42485e-05
6.52826e-05
6.7633e-05
7.60135e-05
0.000135608
0.00013824
0.00013824
0.00013824
0.00013824
0.000136064
7.77876e-05
6.86909e-05
6.60222e-05
6.47974e-05
6.42343e-05
6.40468e-05
6.41803e-05
6.46582e-05
6.56719e-05
6.78108e-05
7.49733e-05
0.00013108
0.00013824
0.00013824
0.000138219
9.63942e-05
6.99058e-05
6.54921e-05
6.38173e-05
6.28936e-05
6.22866e-05
6.18508e-05
6.1526e-05
6.12857e-05
6.11191e-05
6.10271e-05
6.10231e-05
6.11413e-05
6.14565e-05
6.21428e-05
6.37155e-05
6.88478e-05
0.000108435
0.000138239
0.00013824
0.00013824
0.00013824
0.00013824
0.00013824
0.00013824
0.00013824
0.00013824
0.00013824
0.00013824
0.00013824
0.00013824
0.00013824
0.00013824
0.00013824
0.00013824
0.00013824
0.00013824
0.00013824
0.00013824
0.00013824
0.00013824
0.00013824
0.00013824
0.00013824
0.00013824
0.000136276
7.35769e-05
6.50892e-05
6.29114e-05
6.20574e-05
6.16922e-05
6.15727e-05
6.15952e-05
6.17044e-05
6.18663e-05
6.20571e-05
6.22599e-05
6.24641e-05
6.26654e-05
6.2868e-05
6.30863e-05
6.33495e-05
6.37103e-05
6.42704e-05
6.52555e-05
6.73307e-05
7.39486e-05
0.000127219
0.00013824
0.00013824
0.00013824
0.00013824
0.00013824
0.00013824
0.000138123
8.98265e-05
7.06808e-05
6.64502e-05
6.497e-05
6.43552e-05
6.42187e-05
6.44579e-05
6.5141e-05
6.64245e-05
6.91464e-05
7.31154e-05
8.12779e-05
7.25825e-05
6.83232e-05
6.5935e-05
6.46567e-05
6.40011e-05
6.37228e-05
6.37535e-05
6.41563e-05
6.52157e-05
6.7488e-05
7.46025e-05
0.000132385
0.00013824
0.00013824
0.00013824
0.00013824
0.00013824
0.00013824
0.000135423
7.80619e-05
6.91578e-05
6.60369e-05
6.49677e-05
6.46067e-05
6.48641e-05
6.57637e-05
6.80623e-05
7.4483e-05
0.000128244
0.00013824
0.00013824
0.00013824
0.00013824
0.000136989
7.72291e-05
6.69548e-05
6.41749e-05
6.29016e-05
6.21443e-05
6.16446e-05
6.13087e-05
6.10962e-05
6.09902e-05
6.09913e-05
6.11185e-05
6.1432e-05
6.20922e-05
6.36056e-05
6.8338e-05
9.95019e-05
0.000138235
0.00013824
0.00013824
0.00013824
0.00013824
0.00013824
0.00013824
0.00013824
0.00013824
0.00013824
0.00013824
0.00013824
0.00013824
0.00013824
0.00013824
0.00013824
0.00013824
0.00013824
0.00013824
0.00013824
0.00013824
0.00013824
0.00013824
0.00013824
0.00013824
0.00013824
0.00013824
0.00013824
0.00013824
0.000128205
7.07752e-05
6.44075e-05
6.25954e-05
6.18312e-05
6.148e-05
6.13363e-05
6.13109e-05
6.13592e-05
6.14547e-05
6.1582e-05
6.17337e-05
6.19097e-05
6.21175e-05
6.23763e-05
6.27236e-05
6.32328e-05
6.40708e-05
6.57227e-05
7.0503e-05
0.000103125
0.000138236
0.00013824
0.00013824
0.00013824
0.00013824
0.00013824
0.00013824
0.00013824
0.000138137
9.70495e-05
7.1808e-05
6.70734e-05
6.56292e-05
6.53322e-05
6.57798e-05
6.75164e-05
7.17902e-05
8.96123e-05
0.000129615
0.000137753
0.000126686
8.3066e-05
7.07178e-05
6.65461e-05
6.52114e-05
6.47676e-05
6.4905e-05
6.58031e-05
6.92519e-05
7.81908e-05
0.000133867
0.00013824
0.00013824
0.00013824
0.00013824
0.00013824
0.00013824
0.00013824
0.00013824
0.000136993
9.08041e-05
7.15829e-05
6.8215e-05
6.69169e-05
6.7854e-05
7.08147e-05
8.19164e-05
0.000133133
0.00013824
0.00013824
0.00013824
0.00013824
0.00013824
0.00013824
0.000132472
7.30458e-05
6.57729e-05
6.35586e-05
6.24338e-05
6.17652e-05
6.13663e-05
6.11613e-05
6.11201e-05
6.12493e-05
6.15835e-05
6.22592e-05
6.37538e-05
6.86612e-05
9.97428e-05
0.000138232
0.00013824
0.00013824
0.00013824
0.00013824
0.00013824
0.00013824
0.00013824
0.00013824
0.00013824
0.00013824
0.00013824
0.00013824
0.00013824
0.00013824
0.00013824
0.00013824
0.00013824
0.00013824
0.00013824
0.00013824
0.00013824
0.00013824
0.00013824
0.00013824
0.00013824
0.00013824
0.00013824
0.00013824
0.00013824
0.00013824
0.000118712
6.99399e-05
6.41187e-05
6.24099e-05
6.16729e-05
6.13077e-05
6.11275e-05
6.10608e-05
6.10689e-05
6.11331e-05
6.1247e-05
6.14132e-05
6.16429e-05
6.19624e-05
6.24274e-05
6.31533e-05
6.44596e-05
6.76445e-05
8.2328e-05
0.000137918
0.00013824
0.00013824
0.00013824
0.00013824
0.00013824
0.00013824
0.00013824
0.00013824
0.00013824
0.000138224
0.000119005
7.69916e-05
7.10626e-05
7.01766e-05
7.1444e-05
8.04481e-05
0.00012069
0.000138166
0.00013824
0.00013824
0.00013824
0.000137944
0.000113676
7.4861e-05
7.03604e-05
6.90923e-05
6.96699e-05
7.23931e-05
0.000101294
0.000137364
0.00013824
0.00013824
0.00013824
0.00013824
0.00013824
0.00013824
0.00013824
0.00013824
0.00013824
0.00013824
0.000138187
0.000120581
8.91798e-05
7.70175e-05
8.55143e-05
0.000115114
0.000137872
0.00013824
0.00013824
0.00013824
0.00013824
0.00013824
0.00013824
0.00013824
0.00013824
0.00012993
7.27039e-05
6.60631e-05
6.36321e-05
6.24519e-05
6.18645e-05
6.16358e-05
6.16899e-05
6.20814e-05
6.2912e-05
6.46607e-05
6.98679e-05
0.000109583
0.000138236
0.00013824
0.00013824
0.00013824
0.00013824
0.00013824
0.00013824
0.00013824
0.00013824
0.00013824
0.00013824
0.00013824
0.00013824
0.00013824
0.00013824
0.00013824
0.00013824
0.00013824
0.00013824
0.00013824
0.00013824
0.00013824
0.00013824
0.00013824
0.00013824
0.00013824
0.00013824
0.00013824
0.00013824
0.00013824
0.00013824
0.00013824
0.00013824
0.000115206
6.97713e-05
6.40619e-05
6.2397e-05
6.16378e-05
6.1224e-05
6.10115e-05
6.0921e-05
6.09216e-05
6.10062e-05
6.11797e-05
6.1459e-05
6.18839e-05
6.25571e-05
6.36959e-05
6.60897e-05
7.43796e-05
0.000135623
0.00013824
0.00013824
0.00013824
0.00013824
0.00013824
0.00013824
0.00013824
0.00013824
0.00013824
0.00013824
0.00013824
0.00013824
0.000137008
0.00012086
0.000111572
0.000123835
0.000137742
0.00013824
0.00013824
0.00013824
0.00013824
0.00013824
0.00013824
0.00013824
0.000135935
0.000116183
0.00010163
0.000109683
0.000130805
0.000138235
0.00013824
0.00013824
0.00013824
0.00013824
0.00013824
0.00013824
0.00013824
0.00013824
0.00013824
0.00013824
0.00013824
0.00013824
0.00013824
0.000138162
0.00013698
0.00013807
0.00013824
0.00013824
0.00013824
0.00013824
0.00013824
0.00013824
0.00013824
0.00013824
0.00013824
0.00013824
0.00013824
0.000133947
7.96364e-05
6.84022e-05
6.46189e-05
6.33616e-05
6.30361e-05
6.32989e-05
6.46448e-05
6.78511e-05
7.59001e-05
0.000126709
0.00013824
0.00013824
0.00013824
0.00013824
0.00013824
0.00013824
0.00013824
0.00013824
0.00013824
0.00013824
0.00013824
0.00013824
0.00013824
0.00013824
0.00013824
0.00013824
0.00013824
0.00013824
0.00013824
0.00013824
0.00013824
0.00013824
0.00013824
0.00013824
0.00013824
0.00013824
0.00013824
0.00013824
0.00013824
0.00013824
0.00013824
0.00013824
0.00013824
0.00013824
0.00013824
0.000119309
7.03538e-05
6.45758e-05
6.2732e-05
6.17896e-05
6.13297e-05
6.10878e-05
6.10015e-05
6.10592e-05
6.12677e-05
6.16588e-05
6.23018e-05
6.34842e-05
6.5842e-05
7.30935e-05
0.000132974
0.00013824
0.00013824
0.00013824
0.00013824
0.00013824
0.00013824
0.00013824
0.00013824
0.00013824
0.00013824
0.00013824
0.00013824
0.00013824
0.00013824
0.00013824
0.00013824
0.00013824
0.00013824
0.00013824
0.00013824
0.00013824
0.00013824
0.00013824
0.00013824
0.00013824
0.00013824
0.00013824
0.000138235
0.000138239
0.00013824
0.00013824
0.00013824
0.00013824
0.00013824
0.00013824
0.00013824
0.00013824
0.00013824
0.00013824
0.00013824
0.00013824
0.00013824
0.00013824
0.00013824
0.00013824
0.00013824
0.00013824
0.00013824
0.00013824
0.00013824
0.00013824
0.00013824
0.00013824
0.00013824
0.00013824
0.00013824
0.00013824
0.00013824
0.00013824
0.000137881
0.000110802
7.39674e-05
6.90292e-05
6.83529e-05
6.92547e-05
7.74653e-05
0.000112834
0.000137559
0.00013824
0.00013824
0.00013824
0.00013824
0.00013824
0.00013824
0.00013824
0.00013824
0.00013824
0.00013824
0.00013824
0.00013824
0.00013824
0.00013824
0.00013824
0.00013824
0.00013824
0.00013824
0.00013824
0.00013824
0.00013824
0.00013824
0.00013824
0.00013824
0.00013824
0.00013824
0.00013824
0.00013824
0.00013824
0.00013824
0.00013824
0.00013824
0.00013824
0.00013824
0.00013824
0.00013824
0.00013824
0.000129565
7.42946e-05
6.67687e-05
6.34762e-05
6.24135e-05
6.18097e-05
6.15422e-05
6.1564e-05
6.18759e-05
6.25837e-05
6.38158e-05
6.71881e-05
7.62414e-05
0.000134372
0.00013824
0.00013824
0.00013824
0.00013824
0.00013824
0.00013824
0.00013824
0.00013824
0.00013824
0.00013824
0.00013824
0.00013824
0.00013824
0.00013824
0.00013824
0.00013824
0.00013824
0.00013824
0.00013824
0.00013824
0.00013824
0.00013824
0.00013824
0.00013824
0.00013824
0.00013824
0.00013824
0.00013824
0.00013824
0.00013824
0.00013824
0.00013824
0.00013824
0.00013824
0.00013824
0.00013824
0.00013824
0.00013824
0.00013824
0.00013824
0.00013824
0.00013824
0.00013824
0.00013824
0.00013824
0.00013824
0.00013824
0.00013824
0.00013824
0.00013824
0.00013824
0.00013824
0.00013824
0.00013824
0.00013824
0.00013824
0.00013824
0.00013824
0.00013824
0.00013824
0.00013824
0.00013824
0.000136847
0.000124073
0.000118912
0.000127789
0.000137787
0.00013824
0.00013824
0.00013824
0.00013824
0.00013824
0.00013824
0.00013824
0.00013824
0.00013824
0.00013824
0.00013824
0.00013824
0.00013824
0.00013824
0.00013824
0.00013824
0.00013824
0.00013824
0.00013824
0.00013824
0.00013824
0.00013824
0.00013824
0.00013824
0.00013824
0.00013824
0.00013824
0.00013824
0.00013824
0.00013824
0.00013824
0.00013824
0.00013824
0.00013824
0.00013824
0.00013824
0.00013824
0.00013824
0.00013824
0.00013824
0.00013717
9.99135e-05
6.98914e-05
6.64723e-05
6.40537e-05
6.31395e-05
6.30826e-05
6.37445e-05
6.60329e-05
6.98137e-05
9.52218e-05
0.000137387
0.00013824
0.00013824
0.00013824
0.00013824
0.00013824
0.00013824
0.00013824
0.00013824
0.00013824
0.00013824
0.00013824
0.00013824
0.00013824
0.00013824
0.00013824
0.00013824
0.00013824
0.00013824
0.00013824
0.00013824
0.00013824
0.00013824
0.00013824
0.00013824
0.00013824
0.00013824
0.00013824
0.00013824
0.00013824
0.00013824
0.00013824
0.00013824
0.00013824
0.00013824
0.00013824
0.00013824
0.00013824
0.00013824
0.00013824
0.00013824
0.00013824
0.00013824
0.00013824
0.00013824
0.00013824
0.00013824
0.00013824
0.00013824
0.00013824
0.00013824
0.00013824
0.00013824
0.00013824
0.00013824
0.00013824
0.00013824
0.00013824
0.00013824
0.00013824
0.00013824
0.00013824
0.00013824
0.00013824
0.00013824
0.00013824
0.00013824
0.00013824
0.00013824
0.00013824
0.00013824
0.00013824
0.00013824
0.00013824
0.00013824
0.00013824
0.00013824
0.00013824
0.00013824
0.00013824
0.00013824
0.00013824
0.00013824
0.00013824
0.00013824
0.00013824
0.00013824
0.00013824
0.00013824
0.00013824
0.00013824
0.00013824
0.00013824
0.00013824
0.00013824
0.00013824
0.00013824
0.00013824
0.00013824
0.00013824
0.00013824
0.00013824
0.00013824
0.00013824
0.00013824
0.00013824
0.00013824
0.00013824
0.00013824
0.00013824
0.000138237
0.000129499
9.94762e-05
7.40778e-05
6.91757e-05
6.88917e-05
7.10535e-05
9.05513e-05
0.000124939
0.000138229
0.00013824
0.00013824
0.00013824
0.00013824
0.00013824
0.00013824
0.00013824
0.00013824
0.00013824
0.00013824
0.00013824
0.00013824
0.00013824
0.00013824
0.00013824
0.00013824
0.00013824
0.00013824
0.00013824
0.00013824
0.00013824
0.00013824
0.00013824
0.00013824
0.00013824
0.00013824
0.00013824
0.00013824
0.00013824
0.00013824
0.00013824
0.00013824
0.00013824
0.00013824
0.00013824
0.00013824
0.00013824
0.00013824
0.00013824
0.00013824
0.00013824
0.00013824
0.00013824
0.00013824
0.00013824
0.00013824
0.00013824
0.00013824
0.00013824
0.00013824
0.00013824
0.00013824
0.00013824
0.00013824
0.00013824
0.00013824
0.00013824
0.00013824
0.00013824
0.00013824
0.00013824
0.00013824
0.00013824
0.00013824
0.00013824
0.00013824
0.00013824
0.00013824
0.00013824
0.00013824
0.00013824
0.00013824
0.00013824
0.00013824
0.00013824
0.00013824
0.00013824
0.00013824
0.00013824
0.00013824
0.00013824
0.00013824
0.00013824
0.00013824
0.00013824
0.00013824
0.00013824
0.00013824
0.00013824
0.00013824
0.00013824
0.00013824
0.00013824
0.00013824
0.00013824
0.00013824
0.00013824
0.00013824
0.00013824
0.00013824
0.00013824
0.00013824
0.00013824
0.00013824
0.00013824
0.00013824
0.00013824
0.00013824
0.00013824
0.00013824
0.00013824
0.00013824
0.000138236
0.000137177
0.000129886
0.000127714
0.000134893
0.000138212
0.00013824
0.00013824
0.00013824
0.00013824
0.00013824
0.00013824
0.00013824
0.00013824
0.00013824
0.00013824
0.00013824
0.00013824
0.00013824
0.00013824
0.00013824
0.00013824
0.00013824
0.00013824
0.00013824
0.00013824
0.00013824
0.00013824
0.00013824
0.00013824
0.00013824
0.00013824
0.00013824
0.00013824
0.00013824
0.00013824
0.00013824
0.00013824
0.00013824
0.00013824
0.00013824
0.00013824
0.00013824
0.00013824
0.00013824
0.00013824
0.00013824
0.00013824
0.00013824
0.00013824
0.00013824
0.00013824
0.00013824
0.00013824
0.00013824
0.00013824
0.00013824
0.00013824
0.00013824
0.00013824
0.00013824
0.00013824
0.00013824
0.00013824
0.00013824
0.00013824
0.00013824
0.00013824
0.00013824
0.00013824
0.00013824
0.00013824
0.00013824
0.00013824
0.00013824
0.00013824
0.00013824
0.00013824
0.00013824
0.00013824
0.00013824
0.00013824
0.00013824
0.00013824
0.00013824
0.00013824
0.00013824
0.00013824
0.00013824
0.00013824
0.00013824
0.00013824
0.00013824
0.00013824
0.00013824
0.00013824
0.00013824
0.00013824
0.00013824
0.00013824
0.00013824
0.00013824
0.00013824
0.00013824
0.00013824
0.00013824
0.00013824
0.00013824
0.00013824
0.00013824
0.00013824
0.00013824
0.00013824
0.00013824
0.00013824
0.00013824
0.00013824
0.00013824
0.00013824
0.00013824
0.00013824
0.00013824
0.00013824
0.00013824
0.00013824
0.00013824
0.00013824
0.00013824
0.00013824
0.00013824
0.00013824
0.00013824
0.00013824
0.00013824
0.00013824
0.00013824
0.00013824
0.00013824
0.00013824
0.00013824
0.00013824
0.00013824
0.00013824
0.00013824
0.00013824
0.00013824
0.00013824
0.00013824
0.00013824
0.00013824
0.00013824
0.00013824
0.00013824
0.00013824
0.00013824
0.00013824
0.00013824
0.00013824
0.00013824
0.00013824
0.00013824
0.00013824
0.00013824
0.00013824
0.00013824
0.00013824
0.00013824
0.00013824
0.00013824
0.00013824
0.00013824
0.00013824
0.00013824
0.00013824
0.00013824
0.00013824
0.00013824
0.00013824
0.00013824
0.00013824
0.00013824
0.00013824
0.00013824
0.00013824
0.00013824
0.00013824
0.00013824
0.00013824
0.00013824
0.00013824
0.00013824
0.00013824
0.00013824
0.00013824
0.00013824
0.00013824
0.00013824
0.00013824
0.00013824
0.00013824
0.00013824
0.00013824
0.00013824
0.00013824
0.00013824
0.00013824
0.00013824
0.00013824
0.00013824
0.00013824
0.00013824
0.00013824
0.00013824
0.00013824
0.00013824
0.00013824
0.00013824
0.00013824
0.00013824
0.00013824
0.00013824
0.00013824
0.00013824
0.00013824
0.00013824
0.00013824
0.00013824
0.00013824
0.00013824
0.00013824
0.00013824
0.00013824
0.00013824
0.00013824
0.00013824
0.00013824
0.00013824
0.00013824
0.00013824
0.00013824
0.00013824
0.00013824
0.00013824
0.00013824
0.00013824
0.00013824
0.00013824
0.00013824
0.00013824
0.00013824
0.00013824
0.00013824
0.00013824
0.00013824
0.00013824
0.00013824
0.00013824
0.00013824
0.00013824
0.00013824
0.00013824
0.00013824
0.00013824
0.00013824
0.00013824
0.00013824
0.00013824
0.00013824
0.00013824
0.00013824
0.00013824
0.00013824
0.00013824
0.00013824
0.00013824
0.00013824
0.00013824
0.00013824
0.00013824
0.00013824
0.00013824
0.00013824
0.00013824
0.00013824
0.00013824
0.00013824
0.00013824
0.00013824
0.00013824
0.00013824
0.00013824
0.00013824
0.00013824
0.00013824
0.00013824
0.00013824
0.00013824
0.00013824
0.00013824
0.00013824
0.00013824
0.00013824
0.00013824
0.00013824
0.00013824
0.00013824
0.00013824
0.00013824
0.00013824
0.00013824
0.00013824
0.00013824
0.00013824
0.00013824
0.00013824
0.00013824
0.00013824
0.00013824
0.00013824
0.00013824
0.00013824
0.00013824
0.00013824
0.00013824
0.00013824
0.00013824
0.00013824
0.00013824
0.00013824
0.00013824
0.00013824
0.00013824
0.00013824
0.00013824
0.00013824
0.00013824
0.00013824
0.00013824
0.00013824
0.00013824
0.00013824
0.00013824
0.00013824
0.00013824
0.00013824
0.00013824
0.00013824
0.00013824
0.00013824
0.00013824
0.00013824
0.00013824
0.00013824
0.00013824
0.00013824
0.00013824
0.00013824
0.00013824
0.00013824
0.00013824
0.00013824
0.00013824
0.00013824
0.00013824
0.00013824
0.00013824
0.00013824
0.00013824
0.00013824
0.00013824
0.00013824
0.00013824
0.00013824
0.00013824
0.00013824
0.00013824
0.00013824
0.00013824
0.00013824
0.00013824
0.00013824
0.00013824
0.00013824
0.00013824
0.00013824
0.00013824
0.00013824
0.00013824
0.00013824
0.00013824
0.00013824
0.00013824
0.00013824
0.00013824
0.00013824
0.00013824
0.00013824
0.00013824
0.00013824
0.00013824
0.00013824
0.00013824
0.00013824
0.00013824
0.00013824
0.00013824
0.00013824
0.00013824
0.00013824
0.00013824
0.00013824
0.00013824
0.00013824
0.00013824
0.00013824
0.00013824
0.00013824
0.00013824
0.00013824
0.00013824
0.00013824
0.00013824
0.00013824
0.00013824
0.00013824
0.00013824
0.00013824
0.00013824
0.00013824
0.00013824
0.00013824
0.00013824
0.00013824
0.00013824
0.00013824
0.00013824
0.00013824
0.00013824
0.00013824
0.00013824
0.00013824
0.00013824
0.00013824
0.00013824
0.00013824
0.00013824
0.00013824
0.00013824
0.00013824
0.00013824
0.00013824
0.00013824
0.00013824
0.00013824
0.00013824
0.00013824
0.00013824
0.00013824
0.00013824
0.00013824
0.00013824
0.00013824
0.00013824
0.00013824
0.00013824
0.00013824
0.00013824
0.00013824
0.00013824
0.00013824
0.00013824
0.00013824
0.00013824
0.00013824
0.00013824
0.00013824
0.00013824
0.00013824
0.00013824
0.00013824
0.00013824
0.00013824
0.00013824
0.00013824
0.00013824
0.00013824
0.00013824
0.00013824
0.00013824
0.00013824
0.00013824
0.00013824
0.00013824
0.00013824
0.00013824
0.00013824
0.00013824
0.00013824
0.00013824
0.00013824
0.00013824
0.00013824
0.00013824
0.00013824
0.00013824
0.00013824
0.00013824
0.00013824
0.00013824
0.00013824
0.00013824
0.00013824
0.00013824
0.00013824
0.00013824
0.00013824
0.00013824
0.00013824
0.00013824
0.00013824
0.00013824
0.00013824
0.00013824
0.00013824
0.00013824
0.00013824
0.00013824
0.00013824
0.00013824
0.00013824
0.00013824
0.00013824
0.00013824
0.00013824
0.00013824
0.00013824
0.00013824
0.00013824
0.00013824
0.00013824
0.00013824
0.00013824
0.00013824
0.00013824
0.00013824
0.00013824
0.00013824
0.00013824
0.00013824
0.00013824
0.00013824
0.00013824
0.00013824
0.00013824
0.00013824
0.00013824
0.00013824
0.00013824
0.00013824
0.00013824
0.00013824
0.00013824
0.00013824
0.00013824
0.00013824
0.00013824
0.00013824
0.00013824
0.00013824
0.00013824
0.00013824
0.00013824
0.00013824
0.00013824
0.00013824
0.00013824
0.00013824
0.00013824
0.00013824
0.00013824
0.00013824
0.00013824
0.00013824
0.00013824
0.00013824
0.00013824
0.00013824
0.00013824
0.00013824
0.00013824
0.00013824
0.00013824
0.00013824
0.00013824
0.00013824
0.00013824
0.00013824
0.00013824
0.00013824
0.00013824
0.00013824
0.00013824
0.00013824
0.00013824
0.00013824
0.00013824
0.00013824
0.00013824
0.00013824
0.00013824
0.00013824
0.00013824
0.00013824
0.00013824
0.00013824
0.00013824
0.00013824
0.00013824
0.00013824
0.00013824
0.00013824
0.00013824
0.00013824
0.00013824
0.00013824
0.00013824
0.00013824
0.00013824
0.00013824
0.00013824
0.00013824
0.00013824
0.00013824
0.00013824
0.00013824
0.00013824
0.00013824
0.00013824
0.00013824
0.00013824
0.00013824
0.00013824
0.00013824
0.00013824
0.00013824
0.00013824
0.00013824
0.00013824
0.00013824
0.00013824
0.00013824
0.00013824
0.00013824
0.00013824
0.00013824
0.00013824
0.00013824
0.00013824
0.00013824
0.00013824
0.00013824
0.00013824
0.00013824
0.00013824
0.00013824
0.00013824
0.00013824
0.00013824
0.00013824
0.00013824
0.00013824
0.00013824
0.00013824
0.00013824
0.00013824
0.00013824
0.00013824
0.00013824
0.00013824
0.00013824
0.00013824
0.00013824
0.00013824
0.00013824
0.00013824
0.00013824
0.00013824
0.00013824
0.00013824
0.00013824
0.00013824
0.00013824