/*--------------------------------*- C++ -*----------------------------------*\
| =========                 |                                                 |
| \\      /  F ield         | OpenFOAM: The Open Source CFD Toolbox           |
|  \\    /   O peration     | Version:  2406                                  |
|   \\  /    A nd           | Website:  www.openfoam.com                      |
|    \\/     M anipulation  |                                                 |
\*---------------------------------------------------------------------------*/
FoamFile
{
    version     2.0;
    format      ascii;
    arch        "LSB;label=32;scalar=64";
    class       volScalarField;
    location    "8";
    object      Da;
}
// * * * * * * * * * * * * * * * * * * * * * * * * * * * * * * * * * * * * * //

dimensions      [0 2 -1 0 0 0 0];

internalField   nonuniform List<scalar> 
14400
(
4.82307e-05
4.82047e-05
4.81671e-05
4.81316e-05
4.81053e-05
4.80888e-05
4.80802e-05
4.80773e-05
4.80803e-05
4.80922e-05
4.81178e-05
4.81625e-05
4.82273e-05
4.83025e-05
4.8359e-05
4.83508e-05
4.82479e-05
4.80835e-05
4.78924e-05
4.76863e-05
4.74595e-05
4.72005e-05
4.69009e-05
4.65602e-05
4.6188e-05
4.58016e-05
4.54213e-05
4.5066e-05
4.475e-05
4.44825e-05
4.42701e-05
4.41189e-05
4.40385e-05
4.40489e-05
4.41957e-05
4.46028e-05
4.57364e-05
5.03874e-05
7.74993e-05
7.8e-05
7.8e-05
7.8e-05
7.8e-05
7.8e-05
7.8e-05
7.8e-05
7.8e-05
7.8e-05
7.8e-05
7.8e-05
7.8e-05
7.8e-05
7.8e-05
7.8e-05
7.8e-05
7.8e-05
7.8e-05
7.8e-05
7.8e-05
7.44935e-05
4.8221e-05
4.54272e-05
4.4675e-05
4.44166e-05
4.43756e-05
4.4471e-05
4.46744e-05
4.49774e-05
4.53789e-05
4.58779e-05
4.64649e-05
4.71131e-05
4.77732e-05
4.83808e-05
4.88744e-05
4.92123e-05
4.93782e-05
4.93781e-05
4.92366e-05
4.89937e-05
4.8702e-05
4.84235e-05
4.82299e-05
4.82183e-05
4.85848e-05
5.00274e-05
5.70437e-05
7.78454e-05
6.20785e-05
5.00926e-05
4.79618e-05
4.72643e-05
4.69875e-05
4.69043e-05
4.69305e-05
4.70233e-05
4.71556e-05
4.73072e-05
4.74616e-05
4.76046e-05
4.77234e-05
4.78055e-05
4.78396e-05
4.78174e-05
4.7736e-05
4.75998e-05
4.74186e-05
4.72054e-05
4.69741e-05
4.67392e-05
4.65158e-05
4.63195e-05
4.61673e-05
4.60803e-05
4.60893e-05
4.62515e-05
4.67005e-05
4.78702e-05
5.19649e-05
7.69176e-05
4.80552e-05
4.80014e-05
4.79258e-05
4.78547e-05
4.77999e-05
4.77633e-05
4.77429e-05
4.77365e-05
4.77441e-05
4.77686e-05
4.78156e-05
4.78919e-05
4.80011e-05
4.8135e-05
4.82568e-05
4.82862e-05
4.81434e-05
4.79196e-05
4.76812e-05
4.74458e-05
4.72059e-05
4.69475e-05
4.66601e-05
4.63411e-05
4.59969e-05
4.56416e-05
4.52922e-05
4.49652e-05
4.46737e-05
4.44271e-05
4.42324e-05
4.40968e-05
4.40319e-05
4.40604e-05
4.42357e-05
4.47161e-05
4.6232e-05
5.49526e-05
7.7955e-05
7.8e-05
7.8e-05
7.8e-05
7.8e-05
7.8e-05
7.8e-05
7.8e-05
7.8e-05
7.8e-05
7.8e-05
7.8e-05
7.8e-05
7.8e-05
7.8e-05
7.8e-05
7.8e-05
7.8e-05
7.8e-05
7.8e-05
7.8e-05
7.70736e-05
4.9549e-05
4.57257e-05
4.47684e-05
4.44473e-05
4.43758e-05
4.44492e-05
4.46314e-05
4.49098e-05
4.52807e-05
4.57409e-05
4.62804e-05
4.68746e-05
4.74806e-05
4.80418e-05
4.85023e-05
4.88217e-05
4.89827e-05
4.899e-05
4.88672e-05
4.86533e-05
4.83991e-05
4.81637e-05
4.80167e-05
4.80574e-05
4.85042e-05
5.02604e-05
6.05243e-05
7.79762e-05
6.76471e-05
5.05012e-05
4.79928e-05
4.72003e-05
4.68728e-05
4.67524e-05
4.67468e-05
4.68112e-05
4.69187e-05
4.70501e-05
4.71903e-05
4.7326e-05
4.7444e-05
4.75305e-05
4.75709e-05
4.75531e-05
4.74728e-05
4.7337e-05
4.71594e-05
4.69553e-05
4.67395e-05
4.65259e-05
4.63277e-05
4.61588e-05
4.60351e-05
4.59774e-05
4.6019e-05
4.62258e-05
4.67703e-05
4.83611e-05
5.6191e-05
7.79048e-05
4.78251e-05
4.77014e-05
4.75432e-05
4.7403e-05
4.72972e-05
4.72262e-05
4.71862e-05
4.71737e-05
4.71879e-05
4.72322e-05
4.73139e-05
4.74441e-05
4.76354e-05
4.78926e-05
4.818e-05
4.8338e-05
4.80517e-05
4.76727e-05
4.73318e-05
4.70399e-05
4.67763e-05
4.65185e-05
4.62511e-05
4.59672e-05
4.56688e-05
4.53644e-05
4.50663e-05
4.47871e-05
4.4538e-05
4.43282e-05
4.41657e-05
4.40598e-05
4.4025e-05
4.40898e-05
4.43219e-05
4.49348e-05
4.70941e-05
6.49575e-05
7.79997e-05
7.8e-05
7.8e-05
7.8e-05
7.8e-05
7.8e-05
7.8e-05
7.8e-05
7.8e-05
7.8e-05
7.8e-05
7.8e-05
7.8e-05
7.8e-05
7.8e-05
7.8e-05
7.8e-05
7.8e-05
7.8e-05
7.8e-05
7.8e-05
7.79835e-05
5.71796e-05
4.65758e-05
4.4972e-05
4.45131e-05
4.4381e-05
4.44119e-05
4.45541e-05
4.47877e-05
4.51042e-05
4.54968e-05
4.59544e-05
4.64556e-05
4.69665e-05
4.74428e-05
4.78393e-05
4.8121e-05
4.8271e-05
4.82923e-05
4.8206e-05
4.80477e-05
4.78635e-05
4.77077e-05
4.76472e-05
4.77862e-05
4.8378e-05
5.06331e-05
6.69883e-05
7.79994e-05
7.51975e-05
5.14869e-05
4.81751e-05
4.71359e-05
4.66963e-05
4.65041e-05
4.64421e-05
4.64585e-05
4.6525e-05
4.66237e-05
4.67413e-05
4.6866e-05
4.69847e-05
4.70809e-05
4.71342e-05
4.71251e-05
4.70454e-05
4.69079e-05
4.67337e-05
4.65429e-05
4.63512e-05
4.61711e-05
4.60134e-05
4.58896e-05
4.58139e-05
4.58081e-05
4.59103e-05
4.62023e-05
4.6921e-05
4.9274e-05
6.64539e-05
7.79996e-05
4.77746e-05
4.74776e-05
4.71648e-05
4.69192e-05
4.67458e-05
4.6633e-05
4.65699e-05
4.65497e-05
4.65703e-05
4.66356e-05
4.67563e-05
4.69526e-05
4.72594e-05
4.77302e-05
4.84239e-05
4.91873e-05
4.82296e-05
4.74727e-05
4.69526e-05
4.6578e-05
4.62816e-05
4.6022e-05
4.57751e-05
4.55287e-05
4.52798e-05
4.50316e-05
4.47911e-05
4.45673e-05
4.43692e-05
4.42054e-05
4.40852e-05
4.40206e-05
4.40311e-05
4.41559e-05
4.44924e-05
4.53624e-05
4.84801e-05
7.55146e-05
7.8e-05
7.8e-05
7.8e-05
7.8e-05
7.8e-05
7.8e-05
7.8e-05
7.8e-05
7.8e-05
7.8e-05
7.8e-05
7.8e-05
7.8e-05
7.8e-05
7.8e-05
7.8e-05
7.8e-05
7.8e-05
7.8e-05
7.8e-05
7.8e-05
7.8e-05
6.94644e-05
4.77328e-05
4.52886e-05
4.46273e-05
4.44031e-05
4.43716e-05
4.44582e-05
4.46329e-05
4.48811e-05
4.51918e-05
4.55525e-05
4.59451e-05
4.63435e-05
4.67164e-05
4.70311e-05
4.72619e-05
4.73955e-05
4.74342e-05
4.73953e-05
4.73085e-05
4.72133e-05
4.71592e-05
4.72143e-05
4.75011e-05
4.83478e-05
5.13098e-05
7.43709e-05
7.8e-05
7.79898e-05
6.07969e-05
4.91152e-05
4.72015e-05
4.65438e-05
4.62433e-05
4.61067e-05
4.60648e-05
4.60845e-05
4.61477e-05
4.62424e-05
4.63584e-05
4.6483e-05
4.65974e-05
4.66732e-05
4.66781e-05
4.65941e-05
4.64467e-05
4.62691e-05
4.60875e-05
4.59185e-05
4.57727e-05
4.56585e-05
4.55854e-05
4.55675e-05
4.56296e-05
4.58215e-05
4.62608e-05
4.73151e-05
5.09113e-05
7.63614e-05
7.8e-05
4.85038e-05
4.75762e-05
4.69354e-05
4.65265e-05
4.62661e-05
4.61051e-05
4.60169e-05
4.5988e-05
4.60141e-05
4.60998e-05
4.62613e-05
4.65346e-05
4.70015e-05
4.78712e-05
4.98937e-05
5.62764e-05
4.93178e-05
4.74773e-05
4.66476e-05
4.61576e-05
4.58169e-05
4.55488e-05
4.53164e-05
4.51013e-05
4.48955e-05
4.46979e-05
4.45113e-05
4.43414e-05
4.41952e-05
4.40811e-05
4.40098e-05
4.39972e-05
4.40714e-05
4.42949e-05
4.4858e-05
4.67757e-05
6.22916e-05
7.7999e-05
7.8e-05
7.8e-05
7.8e-05
7.8e-05
7.8e-05
7.8e-05
7.8e-05
7.8e-05
7.8e-05
7.8e-05
7.8e-05
7.8e-05
7.8e-05
7.8e-05
7.8e-05
7.8e-05
7.8e-05
7.8e-05
7.8e-05
7.8e-05
7.8e-05
7.8e-05
7.77357e-05
5.13605e-05
4.59943e-05
4.48542e-05
4.4469e-05
4.43471e-05
4.43631e-05
4.44701e-05
4.46447e-05
4.48719e-05
4.51379e-05
4.54265e-05
4.57188e-05
4.5993e-05
4.62281e-05
4.64077e-05
4.65238e-05
4.65792e-05
4.65876e-05
4.65727e-05
4.65683e-05
4.66218e-05
4.68124e-05
4.7323e-05
4.8882e-05
5.74038e-05
7.79445e-05
7.8e-05
7.8e-05
7.52152e-05
5.08334e-05
4.75454e-05
4.65225e-05
4.60581e-05
4.58245e-05
4.57162e-05
4.56883e-05
4.57191e-05
4.57968e-05
4.59127e-05
4.60553e-05
4.62049e-05
4.6322e-05
4.63527e-05
4.62494e-05
4.60713e-05
4.58725e-05
4.56867e-05
4.55303e-05
4.54114e-05
4.53359e-05
4.53126e-05
4.53577e-05
4.55043e-05
4.58323e-05
4.65839e-05
4.89593e-05
6.6647e-05
7.79997e-05
7.8e-05
5.39801e-05
4.85955e-05
4.70245e-05
4.63208e-05
4.59353e-05
4.5712e-05
4.55933e-05
4.55538e-05
4.55857e-05
4.56946e-05
4.59047e-05
4.6278e-05
4.69984e-05
4.88548e-05
5.87448e-05
7.7589e-05
5.33632e-05
4.79292e-05
4.65115e-05
4.58481e-05
4.5442e-05
4.51534e-05
4.49252e-05
4.47307e-05
4.45573e-05
4.44002e-05
4.42592e-05
4.41374e-05
4.40405e-05
4.39772e-05
4.3961e-05
4.40141e-05
4.41801e-05
4.45668e-05
4.55541e-05
4.94321e-05
7.72067e-05
7.8e-05
7.8e-05
7.8e-05
7.8e-05
7.8e-05
7.8e-05
7.8e-05
7.8e-05
7.8e-05
7.8e-05
7.8e-05
7.8e-05
7.8e-05
7.8e-05
7.8e-05
7.8e-05
7.8e-05
7.8e-05
7.8e-05
7.8e-05
7.8e-05
7.8e-05
7.8e-05
7.8e-05
7.04977e-05
4.7869e-05
4.5327e-05
4.46227e-05
4.43635e-05
4.42908e-05
4.43228e-05
4.44238e-05
4.45731e-05
4.47551e-05
4.49557e-05
4.51602e-05
4.53542e-05
4.55249e-05
4.56629e-05
4.57648e-05
4.58344e-05
4.58834e-05
4.59319e-05
4.6011e-05
4.61714e-05
4.65149e-05
4.73259e-05
4.99923e-05
7.09818e-05
7.8e-05
7.8e-05
7.8e-05
7.79998e-05
6.69013e-05
4.93584e-05
4.688e-05
4.60566e-05
4.56686e-05
4.54755e-05
4.53963e-05
4.53988e-05
4.5469e-05
4.56005e-05
4.57858e-05
4.60099e-05
4.62177e-05
4.63174e-05
4.61432e-05
4.58812e-05
4.56216e-05
4.54052e-05
4.52442e-05
4.51407e-05
4.50973e-05
4.51237e-05
4.5242e-05
4.55024e-05
4.60555e-05
4.7544e-05
5.4991e-05
7.79109e-05
7.8e-05
7.8e-05
7.75405e-05
5.34671e-05
4.78398e-05
4.64302e-05
4.58218e-05
4.54991e-05
4.53355e-05
4.52808e-05
4.53213e-05
4.54645e-05
4.57495e-05
4.6285e-05
4.74897e-05
5.17492e-05
7.7224e-05
7.8e-05
7.15556e-05
4.95763e-05
4.66979e-05
4.57103e-05
4.51934e-05
4.48636e-05
4.46256e-05
4.44394e-05
4.42868e-05
4.41597e-05
4.40557e-05
4.39761e-05
4.3926e-05
4.39162e-05
4.39655e-05
4.4111e-05
4.44362e-05
4.52063e-05
4.7884e-05
7.18933e-05
7.8e-05
7.8e-05
7.8e-05
7.8e-05
7.8e-05
7.8e-05
7.8e-05
7.8e-05
7.8e-05
7.8e-05
7.8e-05
7.8e-05
7.8e-05
7.8e-05
7.8e-05
7.8e-05
7.8e-05
7.8e-05
7.8e-05
7.8e-05
7.8e-05
7.8e-05
7.8e-05
7.8e-05
7.8e-05
7.79882e-05
5.73672e-05
4.65607e-05
4.49567e-05
4.44588e-05
4.42667e-05
4.42138e-05
4.42411e-05
4.43193e-05
4.44301e-05
4.45596e-05
4.46963e-05
4.48303e-05
4.49537e-05
4.50621e-05
4.51551e-05
4.52376e-05
4.53211e-05
4.54253e-05
4.5584e-05
4.58617e-05
4.64175e-05
4.78876e-05
5.52616e-05
7.79009e-05
7.8e-05
7.8e-05
7.8e-05
7.8e-05
7.79863e-05
5.91284e-05
4.84028e-05
4.64459e-05
4.57337e-05
4.5403e-05
4.52561e-05
4.52311e-05
4.53072e-05
4.54845e-05
4.57697e-05
4.61857e-05
4.6657e-05
4.70926e-05
4.65573e-05
4.60301e-05
4.56034e-05
4.52999e-05
4.51058e-05
4.50034e-05
4.49877e-05
4.50723e-05
4.52982e-05
4.57538e-05
4.67894e-05
5.04762e-05
7.68119e-05
7.8e-05
7.8e-05
7.8e-05
7.8e-05
7.70186e-05
5.12554e-05
4.72556e-05
4.6081e-05
4.55412e-05
4.52926e-05
4.52097e-05
4.52687e-05
4.54796e-05
4.59267e-05
4.68708e-05
5.00317e-05
7.47975e-05
7.8e-05
7.8e-05
7.79906e-05
5.94395e-05
4.77924e-05
4.58471e-05
4.51082e-05
4.47004e-05
4.44324e-05
4.42398e-05
4.40963e-05
4.399e-05
4.39162e-05
4.38754e-05
4.38735e-05
4.39255e-05
4.40645e-05
4.43672e-05
4.50603e-05
4.73187e-05
6.46711e-05
7.79997e-05
7.8e-05
7.8e-05
7.8e-05
7.8e-05
7.8e-05
7.8e-05
7.8e-05
7.8e-05
7.8e-05
7.8e-05
7.8e-05
7.8e-05
7.8e-05
7.8e-05
7.8e-05
7.8e-05
7.8e-05
7.8e-05
7.8e-05
7.8e-05
7.8e-05
7.8e-05
7.8e-05
7.8e-05
7.8e-05
7.8e-05
7.7091e-05
4.93711e-05
4.56623e-05
4.47057e-05
4.43298e-05
4.4169e-05
4.41167e-05
4.4127e-05
4.41757e-05
4.42476e-05
4.43322e-05
4.44221e-05
4.45124e-05
4.46015e-05
4.4691e-05
4.47874e-05
4.49035e-05
4.50627e-05
4.53099e-05
4.57447e-05
4.6661e-05
4.95822e-05
7.30932e-05
7.8e-05
7.8e-05
7.8e-05
7.8e-05
7.8e-05
7.8e-05
7.79469e-05
5.6542e-05
4.81346e-05
4.62704e-05
4.56167e-05
4.53456e-05
4.52855e-05
4.5391e-05
4.56922e-05
4.6259e-05
4.74573e-05
4.92099e-05
5.27665e-05
4.89752e-05
4.70932e-05
4.60423e-05
4.54781e-05
4.5189e-05
4.50662e-05
4.50796e-05
4.5257e-05
4.57236e-05
4.67224e-05
4.98572e-05
7.53607e-05
7.8e-05
7.8e-05
7.8e-05
7.8e-05
7.8e-05
7.8e-05
7.67264e-05
5.1364e-05
4.74597e-05
4.60871e-05
4.5615e-05
4.54554e-05
4.55691e-05
4.59662e-05
4.6977e-05
4.98111e-05
7.35265e-05
7.8e-05
7.8e-05
7.8e-05
7.8e-05
7.74297e-05
5.09918e-05
4.64879e-05
4.5264e-05
4.47025e-05
4.43683e-05
4.41477e-05
4.39994e-05
4.39054e-05
4.38585e-05
4.38588e-05
4.39147e-05
4.4053e-05
4.43444e-05
4.50115e-05
4.70921e-05
6.07172e-05
7.79977e-05
7.8e-05
7.8e-05
7.8e-05
7.8e-05
7.8e-05
7.8e-05
7.8e-05
7.8e-05
7.8e-05
7.8e-05
7.8e-05
7.8e-05
7.8e-05
7.8e-05
7.8e-05
7.8e-05
7.8e-05
7.8e-05
7.8e-05
7.8e-05
7.8e-05
7.8e-05
7.8e-05
7.8e-05
7.8e-05
7.8e-05
7.8e-05
7.8e-05
7.34537e-05
4.81708e-05
4.53657e-05
4.45668e-05
4.42297e-05
4.40749e-05
4.40118e-05
4.40009e-05
4.40225e-05
4.40649e-05
4.41213e-05
4.41885e-05
4.42663e-05
4.43582e-05
4.44724e-05
4.46257e-05
4.48503e-05
4.52199e-05
4.59485e-05
4.80555e-05
6.24073e-05
7.7998e-05
7.8e-05
7.8e-05
7.8e-05
7.8e-05
7.8e-05
7.8e-05
7.8e-05
7.79529e-05
5.97195e-05
4.86322e-05
4.65411e-05
4.59069e-05
4.57762e-05
4.59734e-05
4.67359e-05
4.86242e-05
5.64332e-05
7.41441e-05
7.77777e-05
7.28421e-05
5.35473e-05
4.8149e-05
4.63089e-05
4.57222e-05
4.55266e-05
4.55872e-05
4.59829e-05
4.74998e-05
5.1404e-05
7.60233e-05
7.8e-05
7.8e-05
7.8e-05
7.8e-05
7.8e-05
7.8e-05
7.8e-05
7.8e-05
7.74336e-05
5.69516e-05
4.85325e-05
4.70434e-05
4.64702e-05
4.68836e-05
4.81922e-05
5.30383e-05
7.57052e-05
7.8e-05
7.8e-05
7.8e-05
7.8e-05
7.8e-05
7.8e-05
7.53908e-05
4.9171e-05
4.59664e-05
4.49904e-05
4.44948e-05
4.41998e-05
4.40239e-05
4.39333e-05
4.39149e-05
4.39716e-05
4.41188e-05
4.44163e-05
4.50762e-05
4.72353e-05
6.08179e-05
7.79961e-05
7.8e-05
7.8e-05
7.8e-05
7.8e-05
7.8e-05
7.8e-05
7.8e-05
7.8e-05
7.8e-05
7.8e-05
7.8e-05
7.8e-05
7.8e-05
7.8e-05
7.8e-05
7.8e-05
7.8e-05
7.8e-05
7.8e-05
7.8e-05
7.8e-05
7.8e-05
7.8e-05
7.8e-05
7.8e-05
7.8e-05
7.8e-05
7.8e-05
7.8e-05
7.8e-05
6.92226e-05
4.78029e-05
4.52383e-05
4.44844e-05
4.41591e-05
4.39982e-05
4.3919e-05
4.38898e-05
4.38935e-05
4.3922e-05
4.39724e-05
4.40459e-05
4.41474e-05
4.42885e-05
4.44936e-05
4.48135e-05
4.5389e-05
4.67895e-05
5.32152e-05
7.78522e-05
7.8e-05
7.8e-05
7.8e-05
7.8e-05
7.8e-05
7.8e-05
7.8e-05
7.8e-05
7.8e-05
7.79926e-05
6.94311e-05
5.08826e-05
4.83032e-05
4.7913e-05
4.84715e-05
5.23909e-05
7.01819e-05
7.79661e-05
7.8e-05
7.8e-05
7.8e-05
7.78644e-05
6.70587e-05
4.99565e-05
4.79926e-05
4.74326e-05
4.76881e-05
4.88884e-05
6.15678e-05
7.7599e-05
7.8e-05
7.8e-05
7.8e-05
7.8e-05
7.8e-05
7.8e-05
7.8e-05
7.8e-05
7.8e-05
7.8e-05
7.79754e-05
7.01341e-05
5.62341e-05
5.089e-05
5.46181e-05
6.77094e-05
7.78313e-05
7.8e-05
7.8e-05
7.8e-05
7.8e-05
7.8e-05
7.8e-05
7.8e-05
7.8e-05
7.42386e-05
4.90137e-05
4.60876e-05
4.50214e-05
4.45012e-05
4.42428e-05
4.4142e-05
4.41654e-05
4.43368e-05
4.47026e-05
4.54673e-05
4.77679e-05
6.51636e-05
7.7998e-05
7.8e-05
7.8e-05
7.8e-05
7.8e-05
7.8e-05
7.8e-05
7.8e-05
7.8e-05
7.8e-05
7.8e-05
7.8e-05
7.8e-05
7.8e-05
7.8e-05
7.8e-05
7.8e-05
7.8e-05
7.8e-05
7.8e-05
7.8e-05
7.8e-05
7.8e-05
7.8e-05
7.8e-05
7.8e-05
7.8e-05
7.8e-05
7.8e-05
7.8e-05
7.8e-05
7.8e-05
7.8e-05
6.76618e-05
4.77276e-05
4.5212e-05
4.4477e-05
4.41427e-05
4.39607e-05
4.38671e-05
4.38273e-05
4.38276e-05
4.38651e-05
4.39418e-05
4.40652e-05
4.42528e-05
4.45494e-05
4.50505e-05
4.61034e-05
4.97414e-05
7.68053e-05
7.8e-05
7.8e-05
7.8e-05
7.8e-05
7.8e-05
7.8e-05
7.8e-05
7.8e-05
7.8e-05
7.8e-05
7.8e-05
7.8e-05
7.74372e-05
7.02506e-05
6.61375e-05
7.15701e-05
7.77716e-05
7.8e-05
7.8e-05
7.8e-05
7.8e-05
7.8e-05
7.8e-05
7.79999e-05
7.69513e-05
6.81749e-05
6.1734e-05
6.52945e-05
7.46609e-05
7.79978e-05
7.8e-05
7.8e-05
7.8e-05
7.8e-05
7.8e-05
7.8e-05
7.8e-05
7.8e-05
7.8e-05
7.8e-05
7.8e-05
7.8e-05
7.8e-05
7.79642e-05
7.74251e-05
7.79219e-05
7.79999e-05
7.8e-05
7.8e-05
7.8e-05
7.8e-05
7.8e-05
7.8e-05
7.8e-05
7.8e-05
7.8e-05
7.8e-05
7.60439e-05
5.19878e-05
4.71182e-05
4.54507e-05
4.49018e-05
4.47589e-05
4.48733e-05
4.54581e-05
4.68731e-05
5.0332e-05
7.27876e-05
7.79998e-05
7.8e-05
7.8e-05
7.8e-05
7.8e-05
7.8e-05
7.8e-05
7.8e-05
7.8e-05
7.8e-05
7.8e-05
7.8e-05
7.8e-05
7.8e-05
7.8e-05
7.8e-05
7.8e-05
7.8e-05
7.8e-05
7.8e-05
7.8e-05
7.8e-05
7.8e-05
7.8e-05
7.8e-05
7.8e-05
7.8e-05
7.8e-05
7.8e-05
7.8e-05
7.8e-05
7.8e-05
7.8e-05
7.8e-05
7.8e-05
6.9473e-05
4.79814e-05
4.54305e-05
4.46232e-05
4.42092e-05
4.40066e-05
4.38998e-05
4.38619e-05
4.38874e-05
4.39795e-05
4.41523e-05
4.44361e-05
4.49563e-05
4.59899e-05
4.91772e-05
7.55975e-05
7.8e-05
7.8e-05
7.8e-05
7.8e-05
7.8e-05
7.8e-05
7.8e-05
7.8e-05
7.8e-05
7.8e-05
7.8e-05
7.8e-05
7.8e-05
7.8e-05
7.8e-05
7.79998e-05
7.8e-05
7.8e-05
7.8e-05
7.8e-05
7.8e-05
7.8e-05
7.8e-05
7.8e-05
7.8e-05
7.8e-05
7.79999e-05
7.79976e-05
7.79997e-05
7.8e-05
7.8e-05
7.8e-05
7.8e-05
7.8e-05
7.8e-05
7.8e-05
7.8e-05
7.8e-05
7.8e-05
7.8e-05
7.8e-05
7.8e-05
7.8e-05
7.8e-05
7.8e-05
7.8e-05
7.8e-05
7.8e-05
7.8e-05
7.8e-05
7.8e-05
7.8e-05
7.8e-05
7.8e-05
7.8e-05
7.8e-05
7.8e-05
7.8e-05
7.8e-05
7.78313e-05
6.57342e-05
4.95154e-05
4.73987e-05
4.71021e-05
4.74957e-05
5.1003e-05
6.66204e-05
7.76763e-05
7.8e-05
7.8e-05
7.8e-05
7.8e-05
7.8e-05
7.8e-05
7.8e-05
7.8e-05
7.8e-05
7.8e-05
7.8e-05
7.8e-05
7.8e-05
7.8e-05
7.8e-05
7.8e-05
7.8e-05
7.8e-05
7.8e-05
7.8e-05
7.8e-05
7.8e-05
7.8e-05
7.8e-05
7.8e-05
7.8e-05
7.8e-05
7.8e-05
7.8e-05
7.8e-05
7.8e-05
7.8e-05
7.8e-05
7.8e-05
7.8e-05
7.8e-05
7.8e-05
7.40495e-05
4.96427e-05
4.63939e-05
4.49517e-05
4.44831e-05
4.42162e-05
4.40989e-05
4.41089e-05
4.42462e-05
4.45586e-05
4.51025e-05
4.65815e-05
5.05118e-05
7.62258e-05
7.8e-05
7.8e-05
7.8e-05
7.8e-05
7.8e-05
7.8e-05
7.8e-05
7.8e-05
7.8e-05
7.8e-05
7.8e-05
7.8e-05
7.8e-05
7.8e-05
7.8e-05
7.8e-05
7.8e-05
7.8e-05
7.8e-05
7.8e-05
7.8e-05
7.8e-05
7.8e-05
7.8e-05
7.8e-05
7.8e-05
7.8e-05
7.8e-05
7.8e-05
7.8e-05
7.8e-05
7.8e-05
7.8e-05
7.8e-05
7.8e-05
7.8e-05
7.8e-05
7.8e-05
7.8e-05
7.8e-05
7.8e-05
7.8e-05
7.8e-05
7.8e-05
7.8e-05
7.8e-05
7.8e-05
7.8e-05
7.8e-05
7.8e-05
7.8e-05
7.8e-05
7.8e-05
7.8e-05
7.8e-05
7.8e-05
7.8e-05
7.8e-05
7.8e-05
7.8e-05
7.8e-05
7.79998e-05
7.73478e-05
7.16197e-05
6.93226e-05
7.32651e-05
7.77838e-05
7.79999e-05
7.8e-05
7.8e-05
7.8e-05
7.8e-05
7.8e-05
7.8e-05
7.8e-05
7.8e-05
7.8e-05
7.8e-05
7.8e-05
7.8e-05
7.8e-05
7.8e-05
7.8e-05
7.8e-05
7.8e-05
7.8e-05
7.8e-05
7.8e-05
7.8e-05
7.8e-05
7.8e-05
7.8e-05
7.8e-05
7.8e-05
7.8e-05
7.8e-05
7.8e-05
7.8e-05
7.8e-05
7.8e-05
7.8e-05
7.8e-05
7.8e-05
7.8e-05
7.8e-05
7.8e-05
7.8e-05
7.74935e-05
6.08618e-05
4.77765e-05
4.62651e-05
4.51967e-05
4.48005e-05
4.47764e-05
4.50653e-05
4.6071e-05
4.7744e-05
5.8825e-05
7.76012e-05
7.8e-05
7.8e-05
7.8e-05
7.8e-05
7.8e-05
7.8e-05
7.8e-05
7.8e-05
7.8e-05
7.8e-05
7.8e-05
7.8e-05
7.8e-05
7.8e-05
7.8e-05
7.8e-05
7.8e-05
7.8e-05
7.8e-05
7.8e-05
7.8e-05
7.8e-05
7.8e-05
7.8e-05
7.8e-05
7.8e-05
7.8e-05
7.8e-05
7.8e-05
7.8e-05
7.8e-05
7.8e-05
7.8e-05
7.8e-05
7.8e-05
7.8e-05
7.8e-05
7.8e-05
7.8e-05
7.8e-05
7.8e-05
7.8e-05
7.8e-05
7.8e-05
7.8e-05
7.8e-05
7.8e-05
7.8e-05
7.8e-05
7.8e-05
7.8e-05
7.8e-05
7.8e-05
7.8e-05
7.8e-05
7.8e-05
7.8e-05
7.8e-05
7.8e-05
7.8e-05
7.8e-05
7.8e-05
7.8e-05
7.8e-05
7.8e-05
7.8e-05
7.8e-05
7.8e-05
7.8e-05
7.8e-05
7.8e-05
7.8e-05
7.8e-05
7.8e-05
7.8e-05
7.8e-05
7.8e-05
7.8e-05
7.8e-05
7.8e-05
7.8e-05
7.8e-05
7.8e-05
7.8e-05
7.8e-05
7.8e-05
7.8e-05
7.8e-05
7.8e-05
7.8e-05
7.8e-05
7.8e-05
7.8e-05
7.8e-05
7.8e-05
7.8e-05
7.8e-05
7.8e-05
7.8e-05
7.8e-05
7.8e-05
7.8e-05
7.8e-05
7.8e-05
7.8e-05
7.8e-05
7.8e-05
7.8e-05
7.8e-05
7.79984e-05
7.40367e-05
6.06876e-05
4.95306e-05
4.7455e-05
4.73334e-05
4.82575e-05
5.67499e-05
7.20228e-05
7.79948e-05
7.8e-05
7.8e-05
7.8e-05
7.8e-05
7.8e-05
7.8e-05
7.8e-05
7.8e-05
7.8e-05
7.8e-05
7.8e-05
7.8e-05
7.8e-05
7.8e-05
7.8e-05
7.8e-05
7.8e-05
7.8e-05
7.8e-05
7.8e-05
7.8e-05
7.8e-05
7.8e-05
7.8e-05
7.8e-05
7.8e-05
7.8e-05
7.8e-05
7.8e-05
7.8e-05
7.8e-05
7.8e-05
7.8e-05
7.8e-05
7.8e-05
7.8e-05
7.8e-05
7.8e-05
7.8e-05
7.8e-05
7.8e-05
7.8e-05
7.8e-05
7.8e-05
7.8e-05
7.8e-05
7.8e-05
7.8e-05
7.8e-05
7.8e-05
7.8e-05
7.8e-05
7.8e-05
7.8e-05
7.8e-05
7.8e-05
7.8e-05
7.8e-05
7.8e-05
7.8e-05
7.8e-05
7.8e-05
7.8e-05
7.8e-05
7.8e-05
7.8e-05
7.8e-05
7.8e-05
7.8e-05
7.8e-05
7.8e-05
7.8e-05
7.8e-05
7.8e-05
7.8e-05
7.8e-05
7.8e-05
7.8e-05
7.8e-05
7.8e-05
7.8e-05
7.8e-05
7.8e-05
7.8e-05
7.8e-05
7.8e-05
7.8e-05
7.8e-05
7.8e-05
7.8e-05
7.8e-05
7.8e-05
7.8e-05
7.8e-05
7.8e-05
7.8e-05
7.8e-05
7.8e-05
7.8e-05
7.8e-05
7.8e-05
7.8e-05
7.8e-05
7.8e-05
7.8e-05
7.8e-05
7.8e-05
7.8e-05
7.8e-05
7.8e-05
7.8e-05
7.8e-05
7.7998e-05
7.74949e-05
7.41874e-05
7.322e-05
7.64452e-05
7.79866e-05
7.8e-05
7.8e-05
7.8e-05
7.8e-05
7.8e-05
7.8e-05
7.8e-05
7.8e-05
7.8e-05
7.8e-05
7.8e-05
7.8e-05
7.8e-05
7.8e-05
7.8e-05
7.8e-05
7.8e-05
7.8e-05
7.8e-05
7.8e-05
7.8e-05
7.8e-05
7.8e-05
7.8e-05
7.8e-05
7.8e-05
7.8e-05
7.8e-05
7.8e-05
7.8e-05
7.8e-05
7.8e-05
7.8e-05
7.8e-05
7.8e-05
7.8e-05
7.8e-05
7.8e-05
7.8e-05
7.8e-05
7.8e-05
7.8e-05
7.8e-05
7.8e-05
7.8e-05
7.8e-05
7.8e-05
7.8e-05
7.8e-05
7.8e-05
7.8e-05
7.8e-05
7.8e-05
7.8e-05
7.8e-05
7.8e-05
7.8e-05
7.8e-05
7.8e-05
7.8e-05
7.8e-05
7.8e-05
7.8e-05
7.8e-05
7.8e-05
7.8e-05
7.8e-05
7.8e-05
7.8e-05
7.8e-05
7.8e-05
7.8e-05
7.8e-05
7.8e-05
7.8e-05
7.8e-05
7.8e-05
7.8e-05
7.8e-05
7.8e-05
7.8e-05
7.8e-05
7.8e-05
7.8e-05
7.8e-05
7.8e-05
7.8e-05
7.8e-05
7.8e-05
7.8e-05
7.8e-05
7.8e-05
7.8e-05
7.8e-05
7.8e-05
7.8e-05
7.8e-05
7.8e-05
7.8e-05
7.8e-05
7.8e-05
7.8e-05
7.8e-05
7.8e-05
7.8e-05
7.8e-05
7.8e-05
7.8e-05
7.8e-05
7.8e-05
7.8e-05
7.8e-05
7.8e-05
7.8e-05
7.8e-05
7.8e-05
7.8e-05
7.8e-05
7.8e-05
7.8e-05
7.8e-05
7.8e-05
7.8e-05
7.8e-05
7.8e-05
7.8e-05
7.8e-05
7.8e-05
7.8e-05
7.8e-05
7.8e-05
7.8e-05
7.8e-05
7.8e-05
7.8e-05
7.8e-05
7.8e-05
7.8e-05
7.8e-05
7.8e-05
7.8e-05
7.8e-05
7.8e-05
7.8e-05
7.8e-05
7.8e-05
7.8e-05
7.8e-05
7.8e-05
7.8e-05
7.8e-05
7.8e-05
7.8e-05
7.8e-05
7.8e-05
7.8e-05
7.8e-05
7.8e-05
7.8e-05
7.8e-05
7.8e-05
7.8e-05
7.8e-05
7.8e-05
7.8e-05
7.8e-05
7.8e-05
7.8e-05
7.8e-05
7.8e-05
7.8e-05
7.8e-05
7.8e-05
7.8e-05
7.8e-05
7.8e-05
7.8e-05
7.8e-05
7.8e-05
7.8e-05
7.8e-05
7.8e-05
7.8e-05
7.8e-05
7.8e-05
7.8e-05
7.8e-05
7.8e-05
7.8e-05
7.8e-05
7.8e-05
7.8e-05
7.8e-05
7.8e-05
7.8e-05
7.8e-05
7.8e-05
7.8e-05
7.8e-05
7.8e-05
7.8e-05
7.8e-05
7.8e-05
7.8e-05
7.8e-05
7.8e-05
7.8e-05
7.8e-05
7.8e-05
7.8e-05
7.8e-05
7.8e-05
7.8e-05
7.8e-05
7.8e-05
7.8e-05
7.8e-05
7.8e-05
7.8e-05
7.8e-05
7.8e-05
7.8e-05
7.8e-05
7.8e-05
7.8e-05
7.8e-05
7.8e-05
7.8e-05
7.8e-05
7.8e-05
7.8e-05
7.8e-05
7.8e-05
7.8e-05
7.8e-05
7.8e-05
7.8e-05
7.8e-05
7.8e-05
7.8e-05
7.8e-05
7.8e-05
7.8e-05
7.8e-05
7.8e-05
7.8e-05
7.8e-05
7.8e-05
7.8e-05
7.8e-05
7.8e-05
7.8e-05
7.8e-05
7.8e-05
7.8e-05
7.8e-05
7.8e-05
7.8e-05
7.8e-05
7.8e-05
7.8e-05
7.8e-05
7.8e-05
7.8e-05
7.8e-05
7.8e-05
7.8e-05
7.8e-05
7.8e-05
7.8e-05
7.8e-05
7.8e-05
7.8e-05
7.8e-05
7.8e-05
7.8e-05
7.8e-05
7.8e-05
7.8e-05
7.8e-05
7.8e-05
7.8e-05
7.8e-05
7.8e-05
7.8e-05
7.8e-05
7.8e-05
7.8e-05
7.8e-05
7.8e-05
7.8e-05
7.8e-05
7.8e-05
7.8e-05
7.8e-05
7.8e-05
7.8e-05
7.8e-05
7.8e-05
7.8e-05
7.8e-05
7.8e-05
7.8e-05
7.8e-05
7.8e-05
7.8e-05
7.8e-05
7.8e-05
7.8e-05
7.8e-05
7.8e-05
7.8e-05
7.8e-05
7.8e-05
7.8e-05
7.8e-05
7.8e-05
7.8e-05
7.8e-05
7.8e-05
7.8e-05
7.8e-05
7.8e-05
7.8e-05
7.8e-05
7.8e-05
7.8e-05
7.8e-05
7.8e-05
7.8e-05
7.8e-05
7.8e-05
7.8e-05
7.8e-05
7.8e-05
7.8e-05
7.8e-05
7.8e-05
7.8e-05
7.8e-05
7.8e-05
7.8e-05
7.8e-05
7.8e-05
7.8e-05
7.8e-05
7.8e-05
7.8e-05
7.8e-05
7.8e-05
7.8e-05
7.8e-05
7.8e-05
7.8e-05
7.8e-05
7.8e-05
7.8e-05
7.8e-05
7.8e-05
7.8e-05
7.8e-05
7.8e-05
7.8e-05
7.8e-05
7.8e-05
7.8e-05
7.8e-05
7.8e-05
7.8e-05
7.8e-05
7.8e-05
7.8e-05
7.8e-05
7.8e-05
7.8e-05
7.8e-05
7.8e-05
7.8e-05
7.8e-05
7.8e-05
7.8e-05
7.8e-05
7.8e-05
7.8e-05
7.8e-05
7.8e-05
7.8e-05
7.8e-05
7.8e-05
7.8e-05
7.8e-05
7.8e-05
7.8e-05
7.8e-05
7.8e-05
7.8e-05
7.8e-05
7.8e-05
7.8e-05
7.8e-05
7.8e-05
7.8e-05
7.8e-05
7.8e-05
7.8e-05
7.8e-05
7.8e-05
7.8e-05
7.8e-05
7.8e-05
7.8e-05
7.8e-05
7.8e-05
7.8e-05
7.8e-05
7.8e-05
7.8e-05
7.8e-05
7.8e-05
7.8e-05
7.8e-05
7.8e-05
7.8e-05
7.8e-05
7.8e-05
7.8e-05
7.8e-05
7.8e-05
7.8e-05
7.8e-05
7.8e-05
7.8e-05
7.8e-05
7.8e-05
7.8e-05
7.8e-05
7.8e-05
7.8e-05
7.8e-05
7.8e-05
7.8e-05
7.8e-05
7.8e-05
7.8e-05
7.8e-05
7.8e-05
7.8e-05
7.8e-05
7.8e-05
7.8e-05
7.8e-05
7.8e-05
7.8e-05
7.8e-05
7.8e-05
7.8e-05
7.8e-05
7.8e-05
7.8e-05
7.8e-05
7.8e-05
7.8e-05
7.8e-05
7.8e-05
7.8e-05
7.8e-05
7.8e-05
7.8e-05
7.8e-05
7.8e-05
7.8e-05
7.8e-05
7.8e-05
7.8e-05
7.8e-05
7.8e-05
7.8e-05
7.8e-05
7.8e-05
7.8e-05
7.8e-05
7.8e-05
7.8e-05
7.8e-05
7.8e-05
7.8e-05
7.8e-05
7.8e-05
7.8e-05
7.8e-05
7.8e-05
7.8e-05
7.8e-05
7.8e-05
7.8e-05
7.8e-05
7.8e-05
7.8e-05
7.8e-05
7.8e-05
7.8e-05
7.8e-05
7.8e-05
7.8e-05
7.8e-05
7.8e-05
7.8e-05
7.8e-05
7.8e-05
7.8e-05
7.8e-05
7.8e-05
7.8e-05
7.8e-05
7.8e-05
7.8e-05
7.8e-05
7.8e-05
7.8e-05
7.8e-05
7.8e-05
7.8e-05
7.8e-05
7.8e-05
7.8e-05
7.8e-05
7.8e-05
7.8e-05
7.8e-05
7.8e-05
7.8e-05
7.8e-05
7.8e-05
7.8e-05
7.8e-05
7.8e-05
7.8e-05
7.8e-05
7.8e-05
7.8e-05
7.8e-05
7.8e-05
7.8e-05
7.8e-05
7.8e-05
7.8e-05
7.8e-05
7.8e-05
7.8e-05
7.8e-05
7.8e-05
7.8e-05
7.8e-05
7.8e-05
7.8e-05
7.8e-05
7.8e-05
7.8e-05
7.8e-05
7.8e-05
7.8e-05
7.8e-05
7.8e-05
7.8e-05
7.8e-05
7.8e-05
7.8e-05
7.8e-05
7.8e-05
7.8e-05
7.8e-05
7.8e-05
7.8e-05
7.8e-05
7.8e-05
7.8e-05
7.8e-05
7.8e-05
7.8e-05
7.8e-05
7.8e-05
7.8e-05
7.8e-05
7.8e-05
7.8e-05
7.8e-05
7.8e-05
7.8e-05
7.8e-05
7.8e-05
7.8e-05
7.8e-05
7.8e-05
7.8e-05
7.8e-05
7.8e-05
7.8e-05
7.8e-05
7.8e-05
7.8e-05
7.8e-05
7.8e-05
7.8e-05
7.8e-05
7.8e-05
7.8e-05
7.8e-05
7.8e-05
7.8e-05
7.8e-05
7.8e-05
7.8e-05
7.8e-05
7.8e-05
7.8e-05
7.8e-05
7.8e-05
7.8e-05
7.8e-05
7.8e-05
7.8e-05
7.8e-05
7.8e-05
7.8e-05
7.8e-05
7.8e-05
7.8e-05
7.8e-05
7.8e-05
7.8e-05
7.8e-05
7.8e-05
7.8e-05
7.8e-05
7.8e-05
7.8e-05
7.8e-05
7.8e-05
7.8e-05
7.8e-05
7.8e-05
7.8e-05
7.8e-05
7.8e-05
7.8e-05
7.8e-05
7.8e-05
7.8e-05
7.8e-05
7.8e-05
7.8e-05
7.8e-05
7.8e-05
7.8e-05
7.8e-05
7.8e-05
7.8e-05
7.8e-05
7.8e-05
7.8e-05
7.8e-05
7.8e-05
7.8e-05
7.8e-05
7.8e-05
7.8e-05
7.8e-05
7.8e-05
7.8e-05
7.8e-05
7.8e-05
7.8e-05
7.8e-05
7.8e-05
7.8e-05
7.8e-05
7.8e-05
7.8e-05
7.8e-05
7.8e-05
7.8e-05
7.8e-05
7.8e-05
7.8e-05
7.8e-05
7.8e-05
7.8e-05
7.8e-05
7.8e-05
7.8e-05
7.8e-05
7.8e-05
7.8e-05
7.8e-05
7.8e-05
7.8e-05
7.8e-05
7.8e-05
7.8e-05
7.8e-05
7.8e-05
7.8e-05
7.8e-05
7.8e-05
7.8e-05
7.8e-05
7.8e-05
7.8e-05
7.8e-05
7.8e-05
7.8e-05
7.8e-05
7.8e-05
7.8e-05
7.8e-05
7.8e-05
7.8e-05
7.8e-05
7.8e-05
7.8e-05
7.8e-05
7.8e-05
7.8e-05
7.8e-05
7.8e-05
7.8e-05
7.8e-05
7.8e-05
7.8e-05
7.8e-05
7.8e-05
7.8e-05
7.8e-05
7.8e-05
7.8e-05
7.8e-05
7.8e-05
7.8e-05
7.8e-05
7.8e-05
7.8e-05
7.8e-05
7.8e-05
7.8e-05
7.8e-05
7.8e-05
7.8e-05
7.8e-05
7.8e-05
7.8e-05
7.8e-05
7.8e-05
7.8e-05
7.8e-05
7.8e-05
7.8e-05
7.8e-05
7.8e-05
7.8e-05
7.8e-05
7.8e-05
7.8e-05
7.8e-05
7.8e-05
7.8e-05
7.8e-05
7.8e-05
7.8e-05
7.8e-05
7.8e-05
7.8e-05
7.8e-05
7.8e-05
7.8e-05
7.8e-05
7.8e-05
7.8e-05
7.8e-05
7.8e-05
7.8e-05
7.8e-05
7.8e-05
7.8e-05
7.8e-05
7.8e-05
7.8e-05
7.8e-05
7.8e-05
7.8e-05
7.8e-05
7.8e-05
7.8e-05
7.8e-05
7.8e-05
7.8e-05
7.8e-05
7.8e-05
7.8e-05
7.8e-05
7.8e-05
7.8e-05
7.8e-05
7.8e-05
7.8e-05
7.8e-05
7.8e-05
7.8e-05
7.8e-05
7.8e-05
7.8e-05
7.8e-05
7.8e-05
7.8e-05
7.8e-05
7.8e-05
7.8e-05
7.8e-05
7.8e-05
7.8e-05
7.8e-05
7.8e-05
7.8e-05
7.8e-05
7.8e-05
7.8e-05
7.8e-05
7.8e-05
7.8e-05
7.8e-05
7.8e-05
7.8e-05
7.8e-05
7.8e-05
7.8e-05
7.8e-05
7.8e-05
7.8e-05
7.8e-05
7.8e-05
7.8e-05
7.8e-05
7.8e-05
7.8e-05
7.8e-05
7.8e-05
7.8e-05
7.8e-05
7.8e-05
7.8e-05
7.8e-05
7.8e-05
7.8e-05
7.8e-05
7.8e-05
7.8e-05
7.8e-05
7.8e-05
7.8e-05
7.8e-05
7.8e-05
7.8e-05
7.8e-05
7.8e-05
7.8e-05
7.8e-05
7.8e-05
7.8e-05
7.8e-05
7.8e-05
7.8e-05
7.8e-05
7.8e-05
7.8e-05
7.8e-05
7.8e-05
7.8e-05
7.8e-05
7.8e-05
7.8e-05
7.8e-05
7.8e-05
7.8e-05
7.8e-05
7.8e-05
7.8e-05
7.8e-05
7.8e-05
7.8e-05
7.8e-05
7.8e-05
7.8e-05
7.8e-05
7.8e-05
7.8e-05
7.8e-05
7.8e-05
7.8e-05
7.8e-05
7.8e-05
7.8e-05
7.8e-05
7.8e-05
7.8e-05
7.8e-05
7.8e-05
7.8e-05
7.8e-05
7.8e-05
7.8e-05
7.8e-05
7.8e-05
7.8e-05
7.8e-05
7.8e-05
7.8e-05
7.8e-05
7.8e-05
7.8e-05
7.8e-05
7.8e-05
7.8e-05
7.8e-05
7.8e-05
7.8e-05
7.8e-05
7.8e-05
7.8e-05
7.8e-05
7.8e-05
7.8e-05
7.8e-05
7.8e-05
7.8e-05
7.8e-05
7.8e-05
7.8e-05
7.8e-05
7.8e-05
7.8e-05
7.8e-05
7.8e-05
7.8e-05
7.8e-05
7.8e-05
7.8e-05
7.8e-05
7.8e-05
7.8e-05
7.8e-05
7.8e-05
7.8e-05
7.8e-05
7.8e-05
7.8e-05
7.8e-05
7.8e-05
7.8e-05
7.8e-05
7.8e-05
7.8e-05
7.8e-05
7.8e-05
7.8e-05
7.8e-05
7.8e-05
7.8e-05
7.8e-05
7.8e-05
7.8e-05
7.8e-05
7.8e-05
7.8e-05
7.8e-05
7.8e-05
7.8e-05
7.8e-05
7.8e-05
7.8e-05
7.8e-05
7.8e-05
7.8e-05
7.8e-05
7.8e-05
7.8e-05
7.8e-05
7.8e-05
7.8e-05
7.8e-05
7.8e-05
7.8e-05
7.8e-05
7.8e-05
7.8e-05
7.8e-05
7.8e-05
7.8e-05
7.8e-05
7.8e-05
7.8e-05
7.8e-05
7.8e-05
7.8e-05
7.8e-05
7.8e-05
7.8e-05
7.8e-05
7.8e-05
7.8e-05
7.8e-05
7.8e-05
7.8e-05
7.8e-05
7.8e-05
7.8e-05
7.8e-05
7.8e-05
7.8e-05
7.8e-05
7.8e-05
7.8e-05
7.8e-05
7.8e-05
7.8e-05
7.8e-05
7.8e-05
7.8e-05
7.8e-05
7.8e-05
7.8e-05
7.8e-05
7.8e-05
7.8e-05
7.8e-05
7.8e-05
7.8e-05
7.8e-05
7.8e-05
7.8e-05
7.8e-05
7.8e-05
7.8e-05
7.8e-05
7.8e-05
7.8e-05
7.8e-05
7.8e-05
7.8e-05
7.8e-05
7.8e-05
7.8e-05
7.8e-05
7.8e-05
7.8e-05
7.8e-05
7.8e-05
7.8e-05
7.8e-05
7.8e-05
7.8e-05
7.8e-05
7.8e-05
7.8e-05
7.8e-05
7.8e-05
7.8e-05
7.8e-05
7.8e-05
7.8e-05
7.8e-05
7.8e-05
7.8e-05
7.8e-05
7.8e-05
7.8e-05
7.8e-05
7.8e-05
7.8e-05
7.8e-05
7.8e-05
7.8e-05
7.8e-05
7.8e-05
7.8e-05
7.8e-05
7.8e-05
7.8e-05
7.8e-05
7.8e-05
7.8e-05
7.8e-05
7.8e-05
7.8e-05
7.8e-05
7.8e-05
7.8e-05
7.8e-05
7.8e-05
7.8e-05
7.8e-05
7.8e-05
7.8e-05
7.8e-05
7.8e-05
7.8e-05
7.8e-05
7.8e-05
7.8e-05
7.8e-05
7.8e-05
7.8e-05
7.8e-05
7.8e-05
7.8e-05
7.8e-05
7.8e-05
7.8e-05
7.8e-05
7.8e-05
7.8e-05
7.8e-05
7.8e-05
7.8e-05
7.8e-05
7.8e-05
7.8e-05
7.8e-05
7.8e-05
7.8e-05
7.8e-05
7.8e-05
7.8e-05
7.8e-05
7.8e-05
7.8e-05
7.8e-05
7.8e-05
7.8e-05
7.8e-05
7.8e-05
7.8e-05
7.8e-05
7.8e-05
7.8e-05
7.8e-05
7.8e-05
7.8e-05
7.8e-05
7.8e-05
7.8e-05
7.8e-05
7.8e-05
7.8e-05
7.8e-05
7.8e-05
7.8e-05
7.8e-05
7.8e-05
7.8e-05
7.8e-05
7.8e-05
7.8e-05
7.8e-05
7.8e-05
7.8e-05
7.8e-05
7.8e-05
7.8e-05
7.8e-05
7.8e-05
7.8e-05
7.8e-05
7.8e-05
7.8e-05
7.8e-05
7.8e-05
7.8e-05
7.8e-05
7.8e-05
7.8e-05
7.8e-05
7.8e-05
7.8e-05
7.8e-05
7.8e-05
7.8e-05
7.8e-05
7.8e-05
7.8e-05
7.8e-05
7.8e-05
7.8e-05
7.8e-05
7.8e-05
7.8e-05
7.8e-05
7.8e-05
7.8e-05
7.8e-05
7.8e-05
7.8e-05
7.8e-05
7.8e-05
7.8e-05
7.8e-05
7.8e-05
7.8e-05
7.8e-05
7.8e-05
7.8e-05
7.8e-05
7.8e-05
7.8e-05
7.8e-05
7.8e-05
7.8e-05
7.8e-05
7.8e-05
7.8e-05
7.8e-05
7.8e-05
7.8e-05
7.8e-05
7.8e-05
7.8e-05
7.8e-05
7.8e-05
7.8e-05
7.8e-05
7.8e-05
7.8e-05
7.8e-05
7.8e-05
7.8e-05
7.8e-05
7.8e-05
7.8e-05
7.8e-05
7.8e-05
7.8e-05
7.8e-05
7.8e-05
7.8e-05
7.8e-05
7.8e-05
7.8e-05
7.8e-05
7.8e-05
7.8e-05
7.8e-05
7.8e-05
7.8e-05
7.8e-05
7.8e-05
7.8e-05
7.8e-05
7.8e-05
7.8e-05
7.8e-05
7.8e-05