/*--------------------------------*- C++ -*----------------------------------*\
| =========                 |                                                 |
| \\      /  F ield         | OpenFOAM: The Open Source CFD Toolbox           |
|  \\    /   O peration     | Version:  2406                                  |
|   \\  /    A nd           | Website:  www.openfoam.com                      |
|    \\/     M anipulation  |                                                 |
\*---------------------------------------------------------------------------*/
FoamFile
{
    version     2.0;
    format      ascii;
    arch        "LSB;label=32;scalar=64";
    class       volScalarField;
    location    "8.7";
    object      C_0;
}
// * * * * * * * * * * * * * * * * * * * * * * * * * * * * * * * * * * * * * //

dimensions      [1 -3 0 0 0 0 0];

internalField   nonuniform List<scalar> 
14400
(
0.218513
0.217662
0.216161
0.21432
0.212462
0.210872
0.209761
0.209261
0.209422
0.210211
0.211507
0.213099
0.214685
0.21588
0.216258
0.215455
0.213335
0.210139
0.206312
0.202339
0.198663
0.195655
0.193627
0.192851
0.193576
0.196053
0.20054
0.207308
0.21664
0.228829
0.244179
0.263011
0.285653
0.312441
0.343687
0.379621
0.420191
0.464039
0.499773
0.523878
0.542775
0.558929
0.572577
0.583897
0.593027
0.600073
0.605112
0.608199
0.609372
0.608648
0.606028
0.601497
0.595022
0.586551
0.576012
0.563306
0.548306
0.530844
0.510706
0.48424
0.446242
0.402236
0.361796
0.32611
0.295163
0.268688
0.246349
0.227796
0.212684
0.200677
0.191441
0.184654
0.180019
0.177282
0.176247
0.176775
0.178779
0.182214
0.187069
0.193355
0.201093
0.210283
0.22088
0.232736
0.245512
0.258473
0.269759
0.275875
0.274888
0.268706
0.260254
0.251433
0.243009
0.235379
0.228758
0.22324
0.218834
0.215483
0.213079
0.211477
0.210509
0.210003
0.20981
0.209833
0.210048
0.21052
0.211387
0.212839
0.21509
0.218351
0.222821
0.228662
0.235997
0.244887
0.255318
0.267161
0.280114
0.293551
0.3061
0.313808
0.224183
0.223117
0.221282
0.21908
0.216901
0.215062
0.213791
0.213229
0.213426
0.214351
0.215883
0.217804
0.219793
0.221415
0.222146
0.221453
0.219062
0.215383
0.211024
0.206564
0.202483
0.199165
0.196918
0.196007
0.196677
0.19917
0.203737
0.210641
0.22016
0.232583
0.248214
0.267372
0.290389
0.317596
0.349297
0.385677
0.426551
0.470219
0.504218
0.526929
0.545517
0.561437
0.574904
0.586086
0.595112
0.602079
0.607062
0.610114
0.611269
0.610543
0.607939
0.603441
0.597018
0.58862
0.578178
0.5656
0.550766
0.533521
0.513666
0.488715
0.452241
0.40805
0.36722
0.33108
0.299679
0.272776
0.250043
0.231131
0.215696
0.2034
0.193914
0.186923
0.182134
0.179296
0.178214
0.178748
0.180812
0.184362
0.189392
0.195916
0.203959
0.213529
0.224587
0.236996
0.250438
0.264181
0.275938
0.281805
0.281504
0.275234
0.266296
0.256992
0.248144
0.240163
0.233268
0.227552
0.223025
0.219623
0.217233
0.215697
0.214827
0.214425
0.214312
0.214365
0.214552
0.214949
0.215722
0.21709
0.219292
0.222558
0.227097
0.23308
0.240632
0.24982
0.260633
0.272952
0.286484
0.300568
0.313378
0.320194
0.236038
0.234465
0.231879
0.228901
0.226048
0.223696
0.222099
0.221407
0.221675
0.222872
0.224877
0.227467
0.230294
0.23285
0.234413
0.234047
0.230971
0.226188
0.220688
0.215218
0.210315
0.20637
0.20368
0.202497
0.203049
0.205565
0.210279
0.217444
0.227325
0.240207
0.256391
0.276196
0.299954
0.327997
0.360612
0.397923
0.439433
0.481793
0.512073
0.532938
0.550929
0.566396
0.579517
0.590433
0.599255
0.60607
0.610945
0.613926
0.615045
0.614317
0.611743
0.60731
0.600988
0.592732
0.582481
0.570151
0.555638
0.538808
0.519489
0.496743
0.46347
0.419663
0.378164
0.341117
0.308805
0.281048
0.257532
0.237912
0.221839
0.208978
0.199004
0.19161
0.186516
0.183476
0.182299
0.182845
0.18503
0.188815
0.194196
0.201197
0.209849
0.22017
0.23213
0.2456
0.260266
0.275321
0.28756
0.29298
0.293542
0.288043
0.278427
0.268239
0.258575
0.249914
0.242488
0.236395
0.23164
0.228156
0.225815
0.224436
0.22379
0.223626
0.223697
0.223818
0.223937
0.224158
0.22471
0.225878
0.227954
0.231206
0.235864
0.24211
0.250078
0.259837
0.271381
0.284595
0.29918
0.314362
0.326904
0.331949
0.255076
0.252488
0.248556
0.244285
0.240356
0.237206
0.235108
0.234215
0.234584
0.236186
0.238902
0.242511
0.246655
0.250771
0.253924
0.254455
0.249843
0.243058
0.235686
0.228643
0.22249
0.217598
0.214239
0.212637
0.212997
0.215524
0.220436
0.227967
0.238371
0.251923
0.268919
0.289678
0.314531
0.343801
0.377759
0.416472
0.459102
0.496857
0.522082
0.541702
0.558865
0.573701
0.586334
0.596872
0.605404
0.612002
0.616721
0.619601
0.620669
0.619938
0.617408
0.613068
0.606892
0.598841
0.588862
0.576886
0.562827
0.546582
0.528032
0.507046
0.478564
0.437446
0.394842
0.35639
0.322713
0.293687
0.269014
0.248349
0.231342
0.217657
0.206975
0.198998
0.193457
0.190121
0.188804
0.189372
0.191743
0.195882
0.201794
0.209508
0.219065
0.23049
0.243759
0.258741
0.275052
0.291559
0.303487
0.308475
0.309753
0.30656
0.296755
0.285391
0.274577
0.264946
0.256767
0.250145
0.245085
0.241519
0.239302
0.238219
0.237987
0.238262
0.238676
0.238925
0.238907
0.238787
0.238919
0.239707
0.241527
0.244701
0.24949
0.256092
0.264643
0.275213
0.287786
0.302216
0.3181
0.334155
0.344539
0.348065
0.282715
0.278105
0.271965
0.265773
0.260324
0.256077
0.253298
0.252132
0.252631
0.254766
0.258419
0.263382
0.269312
0.275656
0.281396
0.28371
0.276273
0.266381
0.256367
0.247203
0.239393
0.23325
0.228998
0.226825
0.226906
0.229421
0.234564
0.242552
0.253623
0.268041
0.286097
0.308102
0.334377
0.365218
0.400801
0.440813
0.482765
0.51333
0.534493
0.55292
0.569129
0.583209
0.595247
0.605318
0.613488
0.619813
0.624335
0.627087
0.628091
0.627356
0.624883
0.620662
0.61467
0.606877
0.597239
0.585703
0.572202
0.556663
0.539003
0.519139
0.495483
0.460409
0.417094
0.377024
0.341624
0.310952
0.284767
0.262738
0.244519
0.229773
0.218185
0.209466
0.203361
0.19965
0.198159
0.198764
0.201389
0.206004
0.212621
0.221274
0.23201
0.244861
0.259807
0.276697
0.295014
0.312605
0.322707
0.327467
0.32934
0.328362
0.320928
0.308578
0.296439
0.285629
0.276521
0.269251
0.263843
0.260231
0.258263
0.25769
0.258156
0.259188
0.260225
0.260704
0.260418
0.259666
0.259058
0.259187
0.260547
0.263527
0.26842
0.275436
0.284709
0.296296
0.310143
0.326018
0.343211
0.358278
0.364939
0.367582
0.319854
0.311773
0.302474
0.293746
0.286365
0.280747
0.277118
0.27561
0.276267
0.279052
0.283844
0.290434
0.298461
0.307279
0.315107
0.315777
0.30923
0.29598
0.282867
0.271191
0.261398
0.253736
0.248383
0.24549
0.245202
0.247673
0.253075
0.261602
0.273477
0.288951
0.308303
0.331831
0.359829
0.392541
0.430007
0.471257
0.506737
0.530137
0.549235
0.566357
0.58152
0.594761
0.606126
0.615664
0.623417
0.629426
0.633719
0.636323
0.637251
0.636513
0.634107
0.630025
0.62425
0.616758
0.607515
0.596483
0.583616
0.568864
0.552178
0.533517
0.512849
0.485186
0.444705
0.403217
0.365831
0.333172
0.30514
0.281447
0.261754
0.245727
0.233055
0.223457
0.216688
0.212543
0.210862
0.211531
0.214481
0.219692
0.227177
0.236977
0.24914
0.263698
0.280615
0.299673
0.320008
0.336651
0.34457
0.349337
0.351724
0.35186
0.348603
0.337646
0.324393
0.31232
0.302172
0.29417
0.288394
0.284806
0.283262
0.283488
0.285063
0.287354
0.289519
0.290425
0.289617
0.287714
0.285862
0.284931
0.285548
0.288166
0.293104
0.300568
0.310674
0.32345
0.338744
0.356044
0.373619
0.383623
0.387675
0.389741
0.356928
0.351622
0.339717
0.328288
0.318733
0.311554
0.306941
0.305035
0.305879
0.309422
0.31551
0.323897
0.334046
0.344588
0.348949
0.347279
0.343518
0.33083
0.315092
0.300829
0.288857
0.279466
0.272829
0.269078
0.268336
0.270734
0.276421
0.285571
0.298388
0.315106
0.335984
0.361293
0.391261
0.425949
0.464788
0.503339
0.529313
0.548451
0.565951
0.581754
0.595833
0.608187
0.618833
0.627794
0.635092
0.640753
0.644794
0.647233
0.648079
0.647338
0.645007
0.641081
0.635548
0.628389
0.619581
0.609099
0.596914
0.582998
0.567327
0.549888
0.530684
0.508986
0.477203
0.435144
0.395656
0.360724
0.330542
0.304901
0.283486
0.265969
0.252043
0.241439
0.233921
0.229298
0.227422
0.228189
0.231542
0.237466
0.245976
0.257116
0.270929
0.287432
0.306535
0.327788
0.349207
0.362094
0.368866
0.373587
0.37636
0.377316
0.376673
0.371328
0.358402
0.345283
0.334101
0.325313
0.319165
0.315687
0.314773
0.316147
0.319363
0.323618
0.327847
0.329558
0.327739
0.323761
0.319957
0.317457
0.316991
0.319043
0.32395
0.33188
0.342893
0.356984
0.373763
0.391865
0.404081
0.409188
0.412346
0.413967
0.390297
0.389287
0.382189
0.369131
0.357498
0.34874
0.343053
0.340712
0.341775
0.346167
0.353618
0.363784
0.375265
0.381879
0.381795
0.38001
0.377263
0.369612
0.352956
0.336367
0.32214
0.310862
0.302783
0.298052
0.296782
0.299087
0.305097
0.314964
0.328867
0.347015
0.369636
0.39696
0.429091
0.465667
0.504458
0.532075
0.551021
0.568386
0.584365
0.598876
0.611869
0.623322
0.633227
0.641585
0.648406
0.653698
0.657472
0.659736
0.660494
0.659751
0.657503
0.653746
0.648471
0.641668
0.633322
0.623419
0.611944
0.598888
0.584245
0.568024
0.550249
0.530964
0.507572
0.472318
0.431294
0.39397
0.36141
0.333578
0.310209
0.290996
0.27565
0.263911
0.25556
0.250417
0.248344
0.249248
0.253083
0.259835
0.269526
0.282191
0.297856
0.316497
0.337914
0.361158
0.379883
0.388854
0.395158
0.399785
0.402813
0.404366
0.404633
0.403766
0.397509
0.384441
0.372547
0.362972
0.356467
0.353173
0.35309
0.355931
0.361325
0.368138
0.375682
0.378623
0.375209
0.36802
0.361592
0.357059
0.355183
0.356456
0.361268
0.36967
0.381546
0.396878
0.414247
0.426743
0.432609
0.436104
0.438553
0.439813
0.423755
0.423539
0.422042
0.414944
0.402324
0.39239
0.385586
0.38281
0.384106
0.3894
0.39801
0.409109
0.41587
0.416765
0.415502
0.413694
0.411204
0.407641
0.396189
0.378045
0.361623
0.34836
0.338709
0.332898
0.331042
0.33325
0.339636
0.350323
0.365459
0.385215
0.409748
0.439231
0.473492
0.510706
0.53846
0.557182
0.573982
0.589708
0.604247
0.617514
0.629447
0.640005
0.649165
0.656915
0.663247
0.668162
0.67166
0.673743
0.674412
0.673668
0.671507
0.667927
0.662923
0.656489
0.64862
0.639309
0.628556
0.616363
0.602741
0.587715
0.571325
0.553634
0.534733
0.509727
0.472166
0.433126
0.398181
0.367993
0.342467
0.32136
0.304419
0.291411
0.282133
0.27642
0.274145
0.275225
0.279619
0.287321
0.298347
0.312714
0.330403
0.351268
0.374693
0.397592
0.410119
0.41731
0.423128
0.427584
0.430739
0.432704
0.433643
0.433769
0.433088
0.427571
0.417037
0.407038
0.400312
0.397234
0.398141
0.402475
0.410043
0.417974
0.422023
0.423297
0.422159
0.418092
0.409944
0.403529
0.400112
0.400405
0.405122
0.414003
0.426257
0.441863
0.452638
0.458139
0.461399
0.464066
0.465948
0.466921
0.457429
0.457387
0.457378
0.456358
0.451031
0.441876
0.434166
0.431133
0.432563
0.438529
0.44695
0.451771
0.452383
0.451137
0.449755
0.448061
0.445947
0.443366
0.438508
0.425121
0.407472
0.392343
0.38105
0.374106
0.371629
0.37375
0.380586
0.392209
0.408709
0.430217
0.456647
0.488052
0.522938
0.549161
0.56709
0.582929
0.598019
0.612215
0.625402
0.637487
0.648399
0.658087
0.666516
0.673661
0.679506
0.684042
0.687263
0.689165
0.689744
0.689
0.68693
0.683533
0.678805
0.672747
0.665359
0.656643
0.646607
0.635266
0.622641
0.608769
0.593701
0.577508
0.560284
0.542084
0.516276
0.478171
0.441247
0.408679
0.380851
0.35766
0.338942
0.324516
0.314208
0.307865
0.305376
0.306665
0.311696
0.320464
0.332976
0.349213
0.369058
0.392109
0.416678
0.432784
0.440673
0.447131
0.45246
0.456683
0.459854
0.462069
0.463465
0.464225
0.464582
0.464666
0.461331
0.455706
0.449592
0.446717
0.448663
0.453386
0.45754
0.460009
0.459991
0.459963
0.46081
0.46123
0.459081
0.455103
0.450773
0.45
0.45469
0.463902
0.474091
0.481732
0.485666
0.488327
0.490783
0.492812
0.494253
0.495001
0.491145
0.491201
0.491369
0.491772
0.492063
0.489568
0.486211
0.483992
0.48489
0.487322
0.489182
0.488413
0.48695
0.485646
0.484319
0.482846
0.481159
0.479243
0.47715
0.471814
0.45894
0.442949
0.430109
0.422114
0.419009
0.421063
0.428453
0.441128
0.459039
0.482346
0.509993
0.541441
0.564633
0.580782
0.595311
0.609426
0.622948
0.635733
0.647659
0.658632
0.668574
0.677428
0.685149
0.691706
0.697074
0.701238
0.704185
0.705908
0.7064
0.705659
0.703682
0.700468
0.696018
0.690335
0.683425
0.675296
0.665964
0.655452
0.643789
0.631021
0.617203
0.602412
0.58674
0.570297
0.55298
0.527552
0.490627
0.456064
0.425944
0.400517
0.379842
0.363846
0.352395
0.345354
0.342627
0.34415
0.349885
0.359822
0.373949
0.392161
0.414077
0.438363
0.45672
0.465759
0.472364
0.47808
0.482899
0.486833
0.489925
0.492252
0.493923
0.495084
0.495918
0.496641
0.497515
0.497052
0.495404
0.494386
0.494829
0.495823
0.495692
0.494735
0.494397
0.494593
0.495406
0.496799
0.498863
0.499583
0.499624
0.500794
0.504089
0.508681
0.5128
0.51474
0.5167
0.51872
0.520592
0.522146
0.523253
0.523828
0.524806
0.524901
0.525126
0.525551
0.526266
0.527396
0.527806
0.52735
0.527062
0.52617
0.52425
0.522678
0.521359
0.520176
0.519029
0.517847
0.516599
0.515299
0.514014
0.512866
0.508657
0.499056
0.485589
0.477128
0.473414
0.475408
0.48351
0.497323
0.516265
0.540841
0.565493
0.584574
0.598125
0.611081
0.623946
0.636515
0.648616
0.660108
0.67087
0.680807
0.689838
0.697902
0.704948
0.71094
0.715847
0.71965
0.722332
0.723881
0.72429
0.723553
0.72167
0.718639
0.714464
0.70915
0.702709
0.695153
0.686503
0.676787
0.666043
0.65432
0.641679
0.628197
0.613966
0.599096
0.583709
0.567614
0.543872
0.509877
0.478148
0.450482
0.427716
0.410019
0.397323
0.389504
0.386508
0.388282
0.394763
0.405926
0.421719
0.441785
0.464661
0.483332
0.493066
0.499299
0.504942
0.509927
0.514222
0.517825
0.520763
0.52309
0.52489
0.526271
0.527364
0.528309
0.529241
0.530213
0.531167
0.531452
0.530825
0.529744
0.528895
0.528373
0.528269
0.528606
0.529421
0.530725
0.532552
0.534921
0.53773
0.54022
0.542132
0.543417
0.544627
0.546087
0.547674
0.549262
0.55072
0.551926
0.552785
0.553231
0.558373
0.558471
0.558684
0.559039
0.559553
0.560197
0.560758
0.560946
0.560281
0.559145
0.557874
0.55669
0.55563
0.554671
0.553774
0.552913
0.55209
0.551339
0.550738
0.550421
0.550589
0.54913
0.544521
0.538149
0.534001
0.535978
0.544925
0.559653
0.577323
0.593941
0.607922
0.618806
0.630041
0.641471
0.652876
0.664071
0.674894
0.685212
0.694908
0.703887
0.71207
0.719392
0.725801
0.731257
0.735726
0.739183
0.74161
0.742994
0.743324
0.742595
0.740805
0.737954
0.734048
0.729095
0.723107
0.716102
0.708106
0.699151
0.689278
0.678538
0.666996
0.65473
0.641832
0.62841
0.61459
0.600515
0.586132
0.565326
0.536761
0.5077
0.482944
0.463551
0.449573
0.440892
0.43758
0.439619
0.446829
0.459124
0.476375
0.497196
0.513755
0.52289
0.528293
0.533428
0.538179
0.542464
0.546238
0.549483
0.552211
0.554456
0.556276
0.557747
0.558956
0.559992
0.560921
0.561758
0.562428
0.562718
0.562554
0.56214
0.56177
0.561594
0.561701
0.562142
0.562946
0.564127
0.565681
0.567568
0.569655
0.57165
0.573318
0.574702
0.575988
0.577308
0.578645
0.579936
0.581099
0.582053
0.582729
0.58308
0.591841
0.591926
0.592101
0.592367
0.592711
0.593079
0.593345
0.59335
0.592946
0.592245
0.591412
0.590577
0.589802
0.589103
0.588482
0.587943
0.587509
0.587228
0.58718
0.587489
0.58833
0.589939
0.591961
0.592281
0.593402
0.59733
0.604639
0.614319
0.624571
0.633484
0.642334
0.651844
0.661764
0.671884
0.682017
0.691997
0.701679
0.710937
0.719662
0.727763
0.735162
0.741795
0.747609
0.752561
0.756615
0.759746
0.761933
0.76316
0.763417
0.762698
0.761
0.758326
0.75468
0.750073
0.744521
0.738044
0.73067
0.722433
0.713378
0.703557
0.693037
0.681895
0.670222
0.658124
0.645726
0.633169
0.620618
0.608227
0.591658
0.570243
0.544943
0.524515
0.50947
0.499819
0.496124
0.498467
0.506221
0.518938
0.536191
0.548404
0.555363
0.559535
0.563785
0.567943
0.571882
0.575513
0.578782
0.581659
0.584141
0.586246
0.588011
0.589484
0.590723
0.59178
0.592694
0.593469
0.594068
0.594425
0.594532
0.594491
0.594453
0.594529
0.5948
0.595313
0.596096
0.597156
0.598478
0.600014
0.601665
0.603285
0.604761
0.606085
0.607318
0.60851
0.609662
0.610738
0.611688
0.612457
0.612999
0.613279
0.625225
0.625292
0.625426
0.625617
0.625845
0.626062
0.626195
0.626162
0.625909
0.625478
0.624951
0.624406
0.623898
0.623457
0.623107
0.622868
0.622776
0.622882
0.623264
0.624026
0.625302
0.627253
0.630039
0.633895
0.6385
0.643423
0.648749
0.654452
0.660813
0.668078
0.676012
0.684472
0.693286
0.702285
0.711311
0.720222
0.728888
0.737194
0.745041
0.752341
0.759021
0.765018
0.770279
0.774761
0.778429
0.781254
0.783216
0.784297
0.784487
0.78378
0.782172
0.779668
0.776272
0.771997
0.76686
0.760883
0.754096
0.746534
0.738243
0.729276
0.7197
0.70959
0.699036
0.68814
0.677021
0.665817
0.654686
0.643815
0.633433
0.621854
0.607228
0.590932
0.575937
0.565323
0.561171
0.563803
0.571306
0.579931
0.586832
0.590396
0.593032
0.596099
0.59937
0.602676
0.605891
0.608925
0.611717
0.614229
0.616448
0.618377
0.620037
0.621457
0.622671
0.623712
0.624605
0.625355
0.625951
0.62638
0.626657
0.626841
0.62702
0.627271
0.627656
0.628214
0.628968
0.629923
0.631062
0.632344
0.633706
0.635064
0.636355
0.637559
0.638687
0.639753
0.640754
0.641666
0.642456
0.643089
0.643531
0.643759
0.65854
0.658592
0.658693
0.658832
0.658988
0.659129
0.659211
0.659192
0.659052
0.658808
0.658506
0.658198
0.657925
0.657723
0.657619
0.657647
0.657844
0.658262
0.658969
0.660048
0.6616
0.66373
0.666535
0.670073
0.674235
0.678857
0.683874
0.689346
0.695368
0.702001
0.709164
0.716747
0.724622
0.732657
0.740722
0.748692
0.756456
0.763911
0.770966
0.77754
0.783563
0.788976
0.793728
0.797775
0.801084
0.803626
0.805378
0.806325
0.806455
0.805761
0.804242
0.8019
0.798744
0.794784
0.790039
0.784533
0.778295
0.771364
0.763783
0.755606
0.746897
0.73773
0.728191
0.718377
0.708402
0.698391
0.688492
0.678874
0.669728
0.661276
0.653705
0.644941
0.636081
0.628938
0.624893
0.624205
0.625725
0.627364
0.627517
0.628545
0.630271
0.632459
0.634919
0.637499
0.640082
0.64258
0.644931
0.647093
0.649044
0.650779
0.652304
0.653634
0.654791
0.655794
0.656659
0.657394
0.658003
0.658489
0.658873
0.659197
0.659515
0.65988
0.660338
0.660919
0.661641
0.662506
0.663501
0.664597
0.66575
0.66691
0.668037
0.669108
0.670118
0.671063
0.671935
0.672716
0.673383
0.673911
0.674278
0.674466
0.691803
0.691844
0.691922
0.692028
0.692147
0.692255
0.692328
0.692345
0.692296
0.692195
0.69207
0.691954
0.691883
0.691888
0.692001
0.692256
0.692691
0.693353
0.694301
0.695599
0.69732
0.699534
0.702296
0.705627
0.709484
0.713796
0.718529
0.723691
0.729312
0.735396
0.741895
0.748729
0.755799
0.763
0.770225
0.777369
0.784334
0.791029
0.797372
0.803289
0.808716
0.813596
0.81788
0.821528
0.824506
0.826786
0.828346
0.82917
0.829246
0.828568
0.827134
0.824948
0.822018
0.818355
0.813979
0.808914
0.80319
0.796843
0.789918
0.782467
0.774552
0.766243
0.757621
0.748778
0.739816
0.730854
0.72202
0.713459
0.705329
0.697797
0.691022
0.685139
0.680262
0.676106
0.672561
0.669591
0.667255
0.665931
0.665567
0.665996
0.667046
0.668548
0.670348
0.672319
0.674358
0.676383
0.678334
0.680167
0.681857
0.68339
0.684764
0.685986
0.687065
0.688013
0.688842
0.689561
0.690176
0.690699
0.69115
0.691558
0.691962
0.692397
0.692896
0.693483
0.69417
0.694958
0.695839
0.696792
0.697786
0.69879
0.699774
0.70072
0.701613
0.702446
0.703206
0.70388
0.704449
0.704895
0.705203
0.705361
0.725024
0.725058
0.725124
0.725213
0.725315
0.725417
0.725502
0.725562
0.725594
0.725608
0.725623
0.725665
0.725763
0.725945
0.726242
0.726685
0.72731
0.72816
0.729282
0.730726
0.732546
0.734788
0.737488
0.740657
0.744277
0.748316
0.752753
0.757579
0.762792
0.768376
0.774291
0.780474
0.786845
0.79332
0.79981
0.806225
0.812481
0.818498
0.824203
0.829528
0.834415
0.83881
0.842669
0.845952
0.848627
0.850667
0.852051
0.852762
0.852791
0.85213
0.850779
0.848741
0.846023
0.84264
0.838609
0.833955
0.828706
0.8229
0.816579
0.809793
0.802601
0.795069
0.787273
0.779296
0.771233
0.763188
0.755274
0.747613
0.740333
0.73356
0.727411
0.721974
0.717286
0.71327
0.709865
0.707051
0.704888
0.703483
0.702825
0.702826
0.703371
0.704337
0.705606
0.707072
0.708648
0.71026
0.711853
0.713384
0.714826
0.716159
0.717378
0.71848
0.719469
0.720352
0.721137
0.72183
0.722441
0.722982
0.723469
0.723925
0.724377
0.72485
0.725367
0.725946
0.726597
0.727319
0.728106
0.728945
0.729813
0.730689
0.731551
0.732383
0.73317
0.733901
0.734564
0.735148
0.735637
0.736018
0.73628
0.736413
0.758211
0.758242
0.758302
0.758385
0.758485
0.758593
0.758702
0.758807
0.75891
0.759019
0.759149
0.759322
0.75956
0.759889
0.760336
0.760931
0.761705
0.762696
0.76394
0.765478
0.767349
0.769585
0.772212
0.775236
0.778651
0.78244
0.786587
0.791079
0.7959
0.801026
0.80642
0.812029
0.817788
0.823626
0.829469
0.83524
0.840868
0.84628
0.851413
0.856206
0.860605
0.864561
0.868033
0.870984
0.873382
0.875204
0.876427
0.877038
0.877025
0.876383
0.875111
0.873212
0.870695
0.867572
0.863862
0.859589
0.85478
0.849472
0.843704
0.837525
0.83099
0.82416
0.817104
0.8099
0.802631
0.79539
0.788275
0.781386
0.774829
0.768701
0.763089
0.758058
0.753635
0.749806
0.746548
0.743859
0.741762
0.740288
0.739423
0.739112
0.739276
0.739824
0.740665
0.741716
0.742901
0.744157
0.745434
0.746692
0.747902
0.749045
0.750108
0.751086
0.751979
0.75279
0.753522
0.754181
0.754777
0.755318
0.755819
0.756297
0.75677
0.757258
0.757777
0.758339
0.758951
0.759614
0.760323
0.761067
0.761832
0.762601
0.763359
0.76409
0.764782
0.765423
0.766003
0.76651
0.766932
0.76726
0.767484
0.767598
0.791366
0.791397
0.791456
0.79154
0.791647
0.79177
0.791906
0.792055
0.792219
0.792408
0.792633
0.792912
0.793265
0.793714
0.794282
0.794997
0.795885
0.796977
0.798304
0.799897
0.801786
0.803993
0.806537
0.809424
0.81265
0.816206
0.820077
0.824249
0.828702
0.833409
0.838335
0.843434
0.848651
0.853927
0.859198
0.8644
0.869468
0.874342
0.878963
0.883278
0.887238
0.890797
0.893919
0.896568
0.898715
0.900338
0.901416
0.901936
0.901888
0.901266
0.900069
0.898302
0.895972
0.893092
0.88968
0.885758
0.881354
0.876502
0.871241
0.865614
0.859673
0.853476
0.847084
0.840568
0.834003
0.827468
0.821048
0.814829
0.808895
0.803325
0.798188
0.793534
0.789392
0.785768
0.782662
0.780075
0.778013
0.776483
0.775466
0.774923
0.774796
0.775017
0.775515
0.776224
0.777082
0.778034
0.779034
0.780048
0.781046
0.782009
0.782922
0.783778
0.784573
0.785306
0.785979
0.786597
0.787166
0.787694
0.788192
0.788673
0.789149
0.789636
0.790144
0.790682
0.791255
0.791864
0.792504
0.793169
0.793847
0.794526
0.795193
0.795837
0.796445
0.797008
0.797515
0.797956
0.798323
0.798606
0.7988
0.798898
0.824491
0.824523
0.824584
0.824674
0.824791
0.824932
0.825097
0.825286
0.825505
0.82576
0.826064
0.826429
0.826875
0.827419
0.828083
0.828889
0.829861
0.831023
0.832402
0.834021
0.835903
0.838065
0.840519
0.843272
0.84632
0.849656
0.853267
0.857139
0.861249
0.865573
0.870077
0.87472
0.879456
0.884234
0.888998
0.893693
0.898264
0.902657
0.90682
0.910706
0.91427
0.917472
0.920277
0.922653
0.924573
0.926016
0.926964
0.927404
0.927325
0.926723
0.925599
0.923954
0.921799
0.919144
0.916007
0.912409
0.908377
0.903943
0.899142
0.894017
0.888614
0.882985
0.877188
0.871286
0.865343
0.859431
0.853621
0.847986
0.842596
0.837516
0.832802
0.828497
0.82463
0.821215
0.818258
0.815764
0.813734
0.812164
0.811036
0.810319
0.809968
0.809932
0.810156
0.810585
0.811169
0.811861
0.812622
0.813419
0.814226
0.815022
0.815794
0.816531
0.817227
0.817881
0.818492
0.819062
0.819596
0.820101
0.820583
0.821052
0.821519
0.821992
0.82248
0.82299
0.823523
0.824082
0.824662
0.825257
0.825861
0.826462
0.827051
0.827619
0.828154
0.828648
0.829092
0.829477
0.829796
0.830043
0.83021
0.830295
0.857585
0.857618
0.857684
0.857782
0.857912
0.858072
0.858263
0.858489
0.858753
0.859064
0.859431
0.859867
0.860386
0.861004
0.861741
0.862615
0.863645
0.864854
0.86626
0.867883
0.86974
0.871844
0.874204
0.876824
0.879702
0.88283
0.886198
0.889789
0.893584
0.897558
0.90168
0.905914
0.91022
0.914553
0.918866
0.92311
0.927237
0.931201
0.934954
0.938455
0.941664
0.944544
0.947063
0.949193
0.950909
0.95219
0.953021
0.953389
0.953284
0.952704
0.951647
0.950118
0.948124
0.945677
0.942794
0.939494
0.935803
0.931749
0.927368
0.922697
0.91778
0.912663
0.907399
0.902043
0.896653
0.891291
0.886019
0.880898
0.875987
0.871342
0.867008
0.863024
0.859416
0.856202
0.853392
0.85099
0.848996
0.847403
0.846195
0.845347
0.844825
0.844587
0.84459
0.844791
0.845147
0.845619
0.846173
0.84678
0.847416
0.848061
0.8487
0.849324
0.849925
0.850499
0.851045
0.851563
0.852057
0.852529
0.852986
0.853435
0.853881
0.854333
0.854796
0.855273
0.855767
0.856278
0.856803
0.857338
0.857876
0.85841
0.858932
0.859432
0.859904
0.860338
0.860727
0.861064
0.861343
0.861557
0.861703
0.861777
0.890645
0.890681
0.890752
0.890859
0.891001
0.891179
0.891395
0.891653
0.891956
0.892312
0.89273
0.893221
0.893797
0.894472
0.895262
0.896184
0.897253
0.898486
0.899901
0.901511
0.903329
0.905367
0.907629
0.910119
0.912833
0.915765
0.918904
0.922235
0.925739
0.929393
0.93317
0.937036
0.940956
0.944892
0.948802
0.952644
0.956375
0.959954
0.96334
0.966496
0.969386
0.971977
0.974239
0.976147
0.977679
0.978815
0.979541
0.979845
0.97972
0.979161
0.978169
0.976747
0.974903
0.972648
0.969997
0.96697
0.96359
0.959884
0.955884
0.951624
0.947145
0.942488
0.937702
0.932833
0.927936
0.923062
0.918266
0.9136
0.909114
0.904856
0.900864
0.897173
0.893808
0.890785
0.888117
0.885807
0.883856
0.882256
0.880995
0.880051
0.879397
0.879001
0.878828
0.878842
0.879009
0.879295
0.879672
0.880113
0.880596
0.881104
0.881623
0.88214
0.88265
0.883146
0.883626
0.88409
0.884538
0.884973
0.885398
0.885819
0.886239
0.886664
0.887096
0.887539
0.887994
0.88846
0.888935
0.889416
0.889896
0.890371
0.890833
0.891276
0.891691
0.892073
0.892415
0.89271
0.892954
0.893141
0.893268
0.893332
0.92367
0.923708
0.923784
0.923899
0.924054
0.924249
0.924486
0.924771
0.925106
0.925499
0.925957
0.92649
0.927108
0.927825
0.928653
0.929605
0.930696
0.931938
0.933345
0.93493
0.9367
0.938665
0.940827
0.943189
0.945746
0.948493
0.951418
0.954508
0.957745
0.961107
0.96457
0.968104
0.971678
0.975258
0.978807
0.982288
0.985665
0.9889
0.991958
0.994804
0.997407
0.999738
1.00177
1.00348
1.00484
1.00585
1.00648
1.00673
1.00659
1.00605
1.00512
1.0038
1.00209
1.00001
0.997577
0.9948
0.991703
0.988313
0.984659
0.980771
0.976687
0.972444
0.968085
0.963654
0.959195
0.954755
0.950382
0.94612
0.942014
0.938102
0.934421
0.930998
0.927857
0.925015
0.922483
0.920266
0.918364
0.916771
0.915477
0.914464
0.913711
0.913192
0.912878
0.912741
0.912751
0.912881
0.913106
0.913403
0.913753
0.914138
0.914545
0.914964
0.915387
0.915808
0.916223
0.916631
0.917032
0.917426
0.917816
0.918204
0.918593
0.918986
0.919386
0.919793
0.920209
0.920632
0.921061
0.921493
0.921922
0.922345
0.922754
0.923145
0.923512
0.923848
0.924149
0.924408
0.924621
0.924785
0.924896
0.924952
0.956656
0.956697
0.956778
0.956901
0.957066
0.957275
0.957531
0.957838
0.958198
0.958619
0.959108
0.959672
0.960322
0.961067
0.961919
0.962888
0.963986
0.965225
0.966614
0.968162
0.969877
0.971764
0.973826
0.976063
0.97847
0.981042
0.983767
0.986634
0.989625
0.992721
0.995898
0.999132
1.00239
1.00565
1.00888
1.01204
1.0151
1.01802
1.02079
1.02335
1.0257
1.0278
1.02962
1.03115
1.03237
1.03326
1.03381
1.03401
1.03385
1.03334
1.03246
1.03123
1.02965
1.02774
1.0255
1.02295
1.02011
1.01701
1.01367
1.01011
1.00639
1.00252
0.998542
0.994501
0.990434
0.986382
0.982387
0.978486
0.974719
0.971119
0.967717
0.96454
0.961607
0.958935
0.956534
0.95441
0.952562
0.950988
0.949678
0.948618
0.947791
0.947177
0.946752
0.946492
0.946373
0.946373
0.946469
0.946641
0.946873
0.947149
0.947456
0.947785
0.948127
0.948476
0.948828
0.949181
0.949533
0.949884
0.950235
0.950587
0.950942
0.951302
0.951667
0.952039
0.952417
0.9528
0.953186
0.953572
0.953955
0.954331
0.954694
0.95504
0.955363
0.955659
0.955923
0.956151
0.956338
0.956482
0.956579
0.956628
0.989602
0.989644
0.98973
0.98986
0.990034
0.990256
0.990526
0.99085
0.99123
0.991672
0.992183
0.99277
0.99344
0.994203
0.995067
0.996042
0.997137
0.998361
0.999722
1.00123
1.00288
1.00469
1.00665
1.00877
1.01103
1.01344
1.01598
1.01864
1.0214
1.02425
1.02717
1.03013
1.03311
1.03608
1.03902
1.04189
1.04466
1.04731
1.04981
1.05213
1.05424
1.05613
1.05777
1.05914
1.06022
1.06101
1.06148
1.06164
1.06147
1.06098
1.06016
1.05902
1.05756
1.05579
1.05373
1.05138
1.04878
1.04594
1.04288
1.03964
1.03623
1.03269
1.02906
1.02537
1.02166
1.01795
1.0143
1.01072
1.00726
1.00394
1.00079
0.997837
0.995097
0.992584
0.990309
0.988276
0.986488
0.984941
0.983628
0.982539
0.981659
0.980972
0.98046
0.980101
0.979877
0.979767
0.979754
0.97982
0.97995
0.980129
0.980346
0.980592
0.980859
0.98114
0.981432
0.98173
0.982034
0.982341
0.982653
0.982968
0.983288
0.983612
0.983943
0.984278
0.984619
0.984964
0.98531
0.985655
0.985996
0.986329
0.986651
0.986957
0.987242
0.987503
0.987735
0.987935
0.988099
0.988225
0.98831
0.988353
1.0225
1.02255
1.02264
1.02277
1.02296
1.02319
1.02347
1.0238
1.0242
1.02466
1.02518
1.02578
1.02647
1.02724
1.0281
1.02908
1.03016
1.03136
1.03269
1.03414
1.03573
1.03746
1.03932
1.04132
1.04345
1.0457
1.04806
1.05053
1.05309
1.05572
1.0584
1.06111
1.06384
1.06655
1.06922
1.07183
1.07435
1.07675
1.07901
1.08111
1.08301
1.08471
1.08618
1.08741
1.08837
1.08907
1.08948
1.0896
1.08942
1.08895
1.08818
1.08711
1.08576
1.08413
1.08223
1.08008
1.07769
1.07509
1.07229
1.06932
1.0662
1.06297
1.05965
1.05627
1.05287
1.04948
1.04612
1.04284
1.03965
1.03659
1.03367
1.03092
1.02836
1.026
1.02384
1.0219
1.02017
1.01866
1.01735
1.01625
1.01533
1.01459
1.01401
1.01358
1.01327
1.01307
1.01296
1.01294
1.01298
1.01307
1.01321
1.01338
1.01358
1.01379
1.01403
1.01428
1.01453
1.0148
1.01507
1.01534
1.01563
1.01592
1.01621
1.01651
1.01682
1.01713
1.01743
1.01774
1.01804
1.01834
1.01862
1.01889
1.01915
1.01937
1.01958
1.01975
1.0199
1.02001
1.02008
1.02012
1.05536
1.05541
1.0555
1.05564
1.05583
1.05607
1.05636
1.0567
1.05711
1.05757
1.05811
1.05872
1.0594
1.06018
1.06104
1.062
1.06306
1.06423
1.06552
1.06692
1.06845
1.07009
1.07186
1.07374
1.07574
1.07785
1.08005
1.08234
1.08471
1.08713
1.0896
1.09209
1.09458
1.09706
1.09949
1.10186
1.10415
1.10633
1.10838
1.11027
1.11199
1.11352
1.11484
1.11594
1.1168
1.11741
1.11776
1.11785
1.11767
1.11722
1.11649
1.1155
1.11425
1.11274
1.11099
1.10902
1.10682
1.10443
1.10186
1.09914
1.09629
1.09333
1.09029
1.08719
1.08408