/*--------------------------------*- C++ -*----------------------------------*\
| =========                 |                                                 |
| \\      /  F ield         | OpenFOAM: The Open Source CFD Toolbox           |
|  \\    /   O peration     | Version:  2406                                  |
|   \\  /    A nd           | Website:  www.openfoam.com                      |
|    \\/     M anipulation  |                                                 |
\*---------------------------------------------------------------------------*/
FoamFile
{
    version     2.0;
    format      ascii;
    arch        "LSB;label=32;scalar=64";
    class       volScalarField;
    location    "8.7";
    object      D;
}
// * * * * * * * * * * * * * * * * * * * * * * * * * * * * * * * * * * * * * //

dimensions      [0 2 -1 0 0 0 0];

internalField   nonuniform List<scalar> 
14400
(
7.4455e-05
7.44273e-05
7.43971e-05
7.4386e-05
7.43982e-05
7.44247e-05
7.44515e-05
7.44682e-05
7.44723e-05
7.4472e-05
7.44843e-05
7.45304e-05
7.46249e-05
7.47606e-05
7.48894e-05
7.49245e-05
7.48028e-05
7.45816e-05
7.43168e-05
7.40111e-05
7.36261e-05
7.31074e-05
7.24056e-05
7.14937e-05
7.03816e-05
6.91219e-05
6.78011e-05
6.65142e-05
6.53387e-05
6.43224e-05
6.3487e-05
6.28406e-05
6.23901e-05
6.21557e-05
6.21928e-05
6.26542e-05
6.40521e-05
6.92564e-05
0.000113291
0.00013824
0.00013824
0.00013824
0.00013824
0.00013824
0.00013824
0.00013824
0.00013824
0.00013824
0.00013824
0.00013824
0.00013824
0.00013824
0.00013824
0.00013824
0.00013824
0.00013824
0.00013824
0.00013824
0.000138236
0.000102869
6.89142e-05
6.43628e-05
6.31897e-05
6.2925e-05
6.31169e-05
6.3643e-05
6.44765e-05
6.56276e-05
6.71136e-05
6.89244e-05
7.09833e-05
7.31276e-05
7.51466e-05
7.68508e-05
7.81168e-05
7.88898e-05
7.91668e-05
7.89802e-05
7.8392e-05
7.74962e-05
7.64222e-05
7.53342e-05
7.44287e-05
7.39565e-05
7.43563e-05
7.6998e-05
8.98588e-05
0.000137515
9.94435e-05
7.67144e-05
7.23406e-05
7.09596e-05
7.05242e-05
7.0541e-05
7.08151e-05
7.12395e-05
7.17414e-05
7.2265e-05
7.27652e-05
7.3206e-05
7.35579e-05
7.37951e-05
7.38947e-05
7.38389e-05
7.36204e-05
7.32459e-05
7.27332e-05
7.21073e-05
7.1399e-05
7.06454e-05
6.98896e-05
6.91803e-05
6.85705e-05
6.81193e-05
6.79016e-05
6.80382e-05
6.87857e-05
7.09066e-05
7.81573e-05
0.000131939
7.37667e-05
7.36708e-05
7.35446e-05
7.344e-05
7.33756e-05
7.33467e-05
7.33408e-05
7.33476e-05
7.33647e-05
7.34001e-05
7.3472e-05
7.3604e-05
7.3815e-05
7.40974e-05
7.43803e-05
7.44991e-05
7.42899e-05
7.39283e-05
7.35428e-05
7.31538e-05
7.27217e-05
7.21887e-05
7.15047e-05
7.06433e-05
6.96132e-05
6.84608e-05
6.72601e-05
6.60912e-05
6.50205e-05
6.40909e-05
6.33253e-05
6.27354e-05
6.23336e-05
6.21467e-05
6.22409e-05
6.27915e-05
6.43813e-05
7.02329e-05
0.000123889
0.00013824
0.00013824
0.00013824
0.00013824
0.00013824
0.00013824
0.00013824
0.00013824
0.00013824
0.00013824
0.00013824
0.00013824
0.00013824
0.00013824
0.00013824
0.00013824
0.00013824
0.00013824
0.00013824
0.00013824
0.000113295
6.97063e-05
6.45804e-05
6.32709e-05
6.29337e-05
6.30687e-05
6.35372e-05
6.43019e-05
6.53642e-05
6.67342e-05
6.84018e-05
7.03024e-05
7.22979e-05
7.41988e-05
7.5823e-05
7.70429e-05
7.77953e-05
7.80704e-05
7.78983e-05
7.73431e-05
7.65026e-05
7.55088e-05
7.45243e-05
7.37408e-05
7.341e-05
7.40176e-05
7.7367e-05
9.65688e-05
0.000138106
0.000111189
7.74955e-05
7.22513e-05
7.0645e-05
7.00742e-05
6.99792e-05
7.01504e-05
7.04797e-05
7.0898e-05
7.13546e-05
7.18091e-05
7.22275e-05
7.25779e-05
7.28279e-05
7.29442e-05
7.28988e-05
7.26808e-05
7.23038e-05
7.17978e-05
7.11975e-05
7.05379e-05
6.98545e-05
6.91853e-05
6.85717e-05
6.80606e-05
6.77084e-05
6.75935e-05
6.78546e-05
6.88201e-05
7.16386e-05
8.29545e-05
0.000137078
7.27197e-05
7.24636e-05
7.21365e-05
7.18557e-05
7.16565e-05
7.15343e-05
7.14736e-05
7.14625e-05
7.1498e-05
7.15887e-05
7.1756e-05
7.20327e-05
7.24552e-05
7.3037e-05
7.36908e-05
7.40621e-05
7.35656e-05
7.28548e-05
7.22152e-05
7.16668e-05
7.11496e-05
7.05945e-05
6.99475e-05
6.91803e-05
6.82962e-05
6.73282e-05
6.63289e-05
6.53565e-05
6.44612e-05
6.36796e-05
6.30358e-05
6.25478e-05
6.22372e-05
6.21441e-05
6.23605e-05
6.31368e-05
6.53979e-05
7.45969e-05
0.000136562
0.00013824
0.00013824
0.00013824
0.00013824
0.00013824
0.00013824
0.00013824
0.00013824
0.00013824
0.00013824
0.00013824
0.00013824
0.00013824
0.00013824
0.00013824
0.00013824
0.00013824
0.00013824
0.00013824
0.00013824
0.000129499
7.15568e-05
6.51819e-05
6.34902e-05
6.29767e-05
6.29918e-05
6.3349e-05
6.39874e-05
6.48915e-05
6.60583e-05
6.74742e-05
6.90898e-05
7.08024e-05
7.24624e-05
7.39103e-05
7.50197e-05
7.57182e-05
7.59868e-05
7.58514e-05
7.53772e-05
7.46647e-05
7.38445e-05
7.30713e-05
7.25264e-05
7.24633e-05
7.34387e-05
7.79604e-05
0.000109964
0.000138235
0.000128432
7.91542e-05
7.23261e-05
7.01994e-05
6.93522e-05
6.90534e-05
6.90486e-05
6.92195e-05
6.94991e-05
6.98433e-05
7.02187e-05
7.05954e-05
7.09403e-05
7.12116e-05
7.13586e-05
7.13334e-05
7.11175e-05
7.07384e-05
7.02477e-05
6.96947e-05
6.9119e-05
6.8552e-05
6.80227e-05
6.75629e-05
6.72118e-05
6.70241e-05
6.70869e-05
6.75741e-05
6.89626e-05
7.35186e-05
0.00010329
0.000138229
7.18777e-05
7.1281e-05
7.06186e-05
7.00948e-05
6.97326e-05
6.95056e-05
6.93848e-05
6.93524e-05
6.94039e-05
6.95493e-05
6.98164e-05
7.02572e-05
7.09532e-05
7.20126e-05
7.34782e-05
7.47583e-05
7.31973e-05
7.17335e-05
7.06862e-05
6.99199e-05
6.9298e-05
6.87213e-05
6.81245e-05
6.7473e-05
6.67595e-05
6.59998e-05
6.52249e-05
6.44718e-05
6.37763e-05
6.31685e-05
6.26739e-05
6.23171e-05
6.21314e-05
6.21773e-05
6.25941e-05
6.38146e-05
6.8193e-05
0.000103469
0.000138237
0.00013824
0.00013824
0.00013824
0.00013824
0.00013824
0.00013824
0.00013824
0.00013824
0.00013824
0.00013824
0.00013824
0.00013824
0.00013824
0.00013824
0.00013824
0.00013824
0.00013824
0.00013824
0.00013824
0.00013824
0.000138119
8.5672e-05
6.71004e-05
6.39869e-05
6.31001e-05
6.29199e-05
6.31186e-05
6.35906e-05
6.42961e-05
6.5216e-05
6.63293e-05
6.75959e-05
6.89438e-05
7.02677e-05
7.14467e-05
7.2373e-05
7.2976e-05
7.32312e-05
7.31597e-05
7.28224e-05
7.23131e-05
7.17512e-05
7.12762e-05
7.10617e-05
7.13845e-05
7.29312e-05
7.89324e-05
0.000126341
0.00013824
0.000138093
9.24393e-05
7.36504e-05
6.99586e-05
6.86258e-05
6.80465e-05
6.78279e-05
6.78189e-05
6.79464e-05
6.81687e-05
6.84574e-05
6.8788e-05
6.91287e-05
6.94299e-05
6.96209e-05
6.96241e-05
6.94086e-05
6.90213e-05
6.85446e-05
6.8043e-05
6.75579e-05
6.71144e-05
6.67328e-05
6.64371e-05
6.62626e-05
6.62672e-05
6.65582e-05
6.73753e-05
6.94382e-05
7.62855e-05
0.000128456
0.00013824
7.22007e-05
7.06634e-05
6.9406e-05
6.85594e-05
6.80171e-05
6.76857e-05
6.75072e-05
6.74535e-05
6.75175e-05
6.77109e-05
6.80709e-05
6.86795e-05
6.97064e-05
7.15449e-05
7.52548e-05
8.30593e-05
7.42082e-05
7.09692e-05
6.93049e-05
6.82724e-05
6.7537e-05
6.69382e-05
6.63892e-05
6.58439e-05
6.52837e-05
6.47094e-05
6.41351e-05
6.35822e-05
6.30754e-05
6.26395e-05
6.2301e-05
6.20918e-05
6.20605e-05
6.22996e-05
6.30311e-05
6.49787e-05
7.20923e-05
0.000132812
0.00013824
0.00013824
0.00013824
0.00013824
0.00013824
0.00013824
0.00013824
0.00013824
0.00013824
0.00013824
0.00013824
0.00013824
0.00013824
0.00013824
0.00013824
0.00013824
0.00013824
0.00013824
0.00013824
0.00013824
0.00013824
0.00013824
0.000120501
7.04758e-05
6.48447e-05
6.33575e-05
6.28988e-05
6.28966e-05
6.31769e-05
6.36695e-05
6.43376e-05
6.51517e-05
6.60752e-05
6.70559e-05
6.80236e-05
6.88974e-05
6.96014e-05
7.00815e-05
7.03171e-05
7.03244e-05
7.01536e-05
6.98828e-05
6.96126e-05
6.94691e-05
6.96349e-05
7.04823e-05
7.32793e-05
8.61434e-05
0.000137606
0.00013824
0.00013824
0.000126442
7.69744e-05
7.02996e-05
6.81687e-05
6.72125e-05
6.67537e-05
6.65659e-05
6.65544e-05
6.66717e-05
6.68905e-05
6.71911e-05
6.75463e-05
6.7902e-05
6.81654e-05
6.82084e-05
6.79768e-05
6.75499e-05
6.706e-05
6.65867e-05
6.61696e-05
6.58266e-05
6.55708e-05
6.5422e-05
6.54172e-05
6.56277e-05
6.62078e-05
6.75853e-05
7.17627e-05
9.81143e-05
0.000138218
0.00013824
7.8071e-05
7.14798e-05
6.88556e-05
6.75069e-05
6.67361e-05
6.62867e-05
6.60459e-05
6.59692e-05
6.60458e-05
6.62899e-05
6.67519e-05
6.75622e-05
6.90528e-05
7.2474e-05
8.65284e-05
0.000133362
7.91615e-05
7.10516e-05
6.83445e-05
6.69604e-05
6.609e-05
6.54559e-05
6.49352e-05
6.44669e-05
6.40217e-05
6.35896e-05
6.31734e-05
6.27844e-05
6.24396e-05
6.21604e-05
6.1975e-05
6.19253e-05
6.20849e-05
6.26155e-05
6.40077e-05
6.8829e-05
0.00010871
0.000138239
0.00013824
0.00013824
0.00013824
0.00013824
0.00013824
0.00013824
0.00013824
0.00013824
0.00013824
0.00013824
0.00013824
0.00013824
0.00013824
0.00013824
0.00013824
0.00013824
0.00013824
0.00013824
0.00013824
0.00013824
0.00013824
0.00013824
0.000138066
8.37033e-05
6.68831e-05
6.3921e-05
6.30087e-05
6.27449e-05
6.28103e-05
6.30886e-05
6.35219e-05
6.40714e-05
6.47013e-05
6.53711e-05
6.60338e-05
6.66386e-05
6.71387e-05
6.75012e-05
6.77147e-05
6.7793e-05
6.7775e-05
6.77226e-05
6.77219e-05
6.78958e-05
6.84596e-05
6.99668e-05
7.51526e-05
0.000114797
0.000138239
0.00013824
0.00013824
0.000138226
0.000101072
7.29691e-05
6.83811e-05
6.67697e-05
6.60046e-05
6.56278e-05
6.54905e-05
6.55255e-05
6.57021e-05
6.60062e-05
6.6422e-05
6.68966e-05
6.73183e-05
6.74342e-05
6.71353e-05
6.65738e-05
6.6001e-05
6.55041e-05
6.5114e-05
6.48363e-05
6.46778e-05
6.46572e-05
6.4821e-05
6.52734e-05
6.6267e-05
6.86044e-05
7.66835e-05
0.000134756
0.00013824
0.00013824
0.000130928
7.71622e-05
6.95801e-05
6.71609e-05
6.60078e-05
6.53864e-05
6.50583e-05
6.49508e-05
6.5046e-05
6.53631e-05
6.59766e-05
6.71225e-05
6.94995e-05
7.68037e-05
0.000131078
0.000138239
0.000112302
7.35715e-05
6.80784e-05
6.61113e-05
6.5045e-05
6.43425e-05
6.38191e-05
6.33927e-05
6.30228e-05
6.26907e-05
6.23919e-05
6.21314e-05
6.19221e-05
6.17845e-05
6.17513e-05
6.18807e-05
6.22914e-05
6.32934e-05
6.61753e-05
8.12364e-05
0.000137986
0.00013824
0.00013824
0.00013824
0.00013824
0.00013824
0.00013824
0.00013824
0.00013824
0.00013824
0.00013824
0.00013824
0.00013824
0.00013824
0.00013824
0.00013824
0.00013824
0.00013824
0.00013824
0.00013824
0.00013824
0.00013824
0.00013824
0.00013824
0.00013824
0.000128475
7.1544e-05
6.51343e-05
6.33867e-05
6.27411e-05
6.2551e-05
6.26112e-05
6.28304e-05
6.31568e-05
6.35525e-05
6.39835e-05
6.44168e-05
6.48204e-05
6.51673e-05
6.54402e-05
6.5636e-05
6.57684e-05
6.58698e-05
6.59935e-05
6.62222e-05
6.66974e-05
6.77197e-05
7.02058e-05
7.91945e-05
0.000136024
0.00013824
0.00013824
0.00013824
0.00013824
0.000137507
8.21264e-05
6.99905e-05
6.69962e-05
6.57443e-05
6.51154e-05
6.48423e-05
6.48097e-05
6.49754e-05
6.53369e-05
6.59145e-05
6.66776e-05
6.75831e-05
6.79126e-05
6.73555e-05
6.63319e-05
6.55097e-05
6.48909e-05
6.44686e-05
6.42175e-05
6.41351e-05
6.42417e-05
6.46109e-05
6.54453e-05
6.73776e-05
7.36908e-05
0.000123013
0.00013824
0.00013824
0.00013824
0.00013824
0.000125339
7.47813e-05
6.81101e-05
6.60201e-05
6.50713e-05
6.4583e-05
6.44227e-05
6.45529e-05
6.50077e-05
6.59191e-05
6.7926e-05
7.4068e-05
0.000117692
0.00013824
0.00013824
0.000137313
8.04584e-05
6.88852e-05
6.58452e-05
6.44441e-05
6.36076e-05
6.30385e-05
6.26181e-05
6.22889e-05
6.20231e-05
6.18104e-05
6.16526e-05
6.15617e-05
6.15617e-05
6.16961e-05
6.20571e-05
6.28687e-05
6.48446e-05
7.19723e-05
0.000133608
0.00013824
0.00013824
0.00013824
0.00013824
0.00013824
0.00013824
0.00013824
0.00013824
0.00013824
0.00013824
0.00013824
0.00013824
0.00013824
0.00013824
0.00013824
0.00013824
0.00013824
0.00013824
0.00013824
0.00013824
0.00013824
0.00013824
0.00013824
0.00013824
0.00013824
0.000138239
0.000106652
6.91905e-05
6.44153e-05
6.30123e-05
6.24663e-05
6.22848e-05
6.23006e-05
6.24362e-05
6.26465e-05
6.28992e-05
6.31683e-05
6.34321e-05
6.36747e-05
6.38881e-05
6.40751e-05
6.42508e-05
6.44465e-05
6.47159e-05
6.51541e-05
6.59599e-05
6.7698e-05
7.31364e-05
0.000114851
0.00013824
0.00013824
0.00013824
0.00013824
0.00013824
0.00013824
0.000135001
7.69208e-05
6.88045e-05
6.63511e-05
6.52104e-05
6.47321e-05
6.46273e-05
6.48247e-05
6.53499e-05
6.6381e-05
6.80028e-05
7.16742e-05
7.33076e-05
7.10727e-05
6.74859e-05
6.58878e-05
6.49005e-05
6.43393e-05
6.40623e-05
6.40511e-05
6.43274e-05
6.50395e-05
6.67677e-05
7.24687e-05
0.000112219
0.00013824
0.00013824
0.00013824
0.00013824
0.00013824
0.00013824
0.000120073
7.37195e-05
6.74769e-05
6.56737e-05
6.47761e-05
6.45009e-05
6.47111e-05
6.5513e-05
6.71944e-05
7.28704e-05
0.000109689
0.000138239
0.00013824
0.00013824
0.00013824
0.00012583
7.32653e-05
6.66042e-05
6.44045e-05
6.32798e-05
6.25934e-05
6.21366e-05
6.18169e-05
6.15915e-05
6.14444e-05
6.13758e-05
6.14025e-05
6.15611e-05
6.19217e-05
6.26721e-05
6.44503e-05
7.06456e-05
0.000125058
0.00013824
0.00013824
0.00013824
0.00013824
0.00013824
0.00013824
0.00013824
0.00013824
0.00013824
0.00013824
0.00013824
0.00013824
0.00013824
0.00013824
0.00013824
0.00013824
0.00013824
0.00013824
0.00013824
0.00013824
0.00013824
0.00013824
0.00013824
0.00013824
0.00013824
0.00013824
0.00013824
0.000138156
8.661e-05
6.71738e-05
6.37966e-05
6.26548e-05
6.21648e-05
6.19645e-05
6.19229e-05
6.19779e-05
6.20927e-05
6.22423e-05
6.24093e-05
6.25831e-05
6.2761e-05
6.29497e-05
6.31679e-05
6.34513e-05
6.3865e-05
6.45375e-05
6.57936e-05
6.89004e-05
8.31593e-05
0.000137839
0.00013824
0.00013824
0.00013824
0.00013824
0.00013824
0.00013824
0.00013824
0.000134374
7.79868e-05
6.96732e-05
6.65162e-05
6.55575e-05
6.53194e-05
6.56544e-05
6.66544e-05
6.97211e-05
7.51362e-05
0.000112073
0.000129405
0.000105922
7.3705e-05
6.85515e-05
6.60759e-05
6.50713e-05
6.46354e-05
6.47396e-05
6.53833e-05
6.6974e-05
7.25864e-05
0.000112356
0.000138239
0.00013824
0.00013824
0.00013824
0.00013824
0.00013824
0.00013824
0.00013824
0.000124434
7.45842e-05
6.91126e-05
6.6292e-05
6.56845e-05
6.61283e-05
6.84492e-05
7.34717e-05
0.000114739
0.000138239
0.00013824
0.00013824
0.00013824
0.00013824
0.000138239
0.000107693
7.07942e-05
6.5377e-05
6.34917e-05
6.25329e-05
6.19748e-05
6.16286e-05
6.14219e-05
6.13303e-05
6.13543e-05
6.15263e-05
6.19262e-05
6.26988e-05
6.43936e-05
7.03405e-05
0.000119967
0.00013824
0.00013824
0.00013824
0.00013824
0.00013824
0.00013824
0.00013824
0.00013824
0.00013824
0.00013824
0.00013824
0.00013824
0.00013824
0.00013824
0.00013824
0.00013824
0.00013824
0.00013824
0.00013824
0.00013824
0.00013824
0.00013824
0.00013824
0.00013824
0.00013824
0.00013824
0.00013824
0.00013824
0.00013824
0.000137219
7.59992e-05
6.5816e-05
6.33426e-05
6.23564e-05
6.18756e-05
6.16388e-05
6.1545e-05
6.15411e-05
6.15966e-05
6.16931e-05
6.18214e-05
6.19814e-05
6.21843e-05
6.24552e-05
6.28431e-05
6.34448e-05
6.44767e-05
6.66055e-05
7.34342e-05
0.000129356
0.00013824
0.00013824
0.00013824
0.00013824
0.00013824
0.00013824
0.00013824
0.00013824
0.00013824
0.000136845
9.39284e-05
7.23879e-05
6.94572e-05
6.85677e-05
6.97604e-05
7.27485e-05
9.61742e-05
0.00013445
0.000138239
0.00013824
0.000138238
0.000130573
8.60001e-05
7.15393e-05
6.84341e-05
6.70022e-05
6.76211e-05
7.00474e-05
7.56735e-05
0.00012445
0.00013824
0.00013824
0.00013824
0.00013824
0.00013824
0.00013824
0.00013824
0.00013824
0.00013824
0.00013824
0.000134113
9.59579e-05
7.2863e-05
7.10073e-05
7.22943e-05
8.86955e-05
0.000129512
0.00013824
0.00013824
0.00013824
0.00013824
0.00013824
0.00013824
0.00013824
0.000138228
9.76967e-05
6.96492e-05
6.47525e-05
6.30467e-05
6.22503e-05
6.18161e-05
6.16017e-05
6.15717e-05
6.1724e-05
6.21375e-05
6.30952e-05
6.50703e-05
7.09373e-05
0.000122669
0.00013824
0.00013824
0.00013824
0.00013824
0.00013824
0.00013824
0.00013824
0.00013824
0.00013824
0.00013824
0.00013824
0.00013824
0.00013824
0.00013824
0.00013824
0.00013824
0.00013824
0.00013824
0.00013824
0.00013824
0.00013824
0.00013824
0.00013824
0.00013824
0.00013824
0.00013824
0.00013824
0.00013824
0.00013824
0.00013824
0.00013824
0.000135078
7.31025e-05
6.53395e-05
6.31491e-05
6.21636e-05
6.16436e-05
6.13708e-05
6.12434e-05
6.12127e-05
6.12516e-05
6.13487e-05
6.1506e-05
6.17402e-05
6.20904e-05
6.26363e-05
6.35677e-05
6.54334e-05
7.1063e-05
0.000112894
0.00013824
0.00013824
0.00013824
0.00013824
0.00013824
0.00013824
0.00013824
0.00013824
0.00013824
0.00013824
0.00013824
0.00013821
0.000124488
9.80804e-05
8.79767e-05
0.0001018
0.000127598
0.000138222
0.00013824
0.00013824
0.00013824
0.00013824
0.00013824
0.000138088
0.000120478
9.07976e-05
7.75209e-05
8.36133e-05
0.000110008
0.000136329
0.00013824
0.00013824
0.00013824
0.00013824
0.00013824
0.00013824
0.00013824
0.00013824
0.00013824
0.00013824
0.00013824
0.00013824
0.000138222
0.000131949
0.000121267
0.000129586
0.000138159
0.00013824
0.00013824
0.00013824
0.00013824
0.00013824
0.00013824
0.00013824
0.00013824
0.00013824
0.000138225
0.000100345
7.00106e-05
6.4863e-05
6.34014e-05
6.26928e-05
6.24055e-05
6.24986e-05
6.29334e-05
6.39265e-05
6.74252e-05
7.64177e-05
0.000131424
0.00013824
0.00013824
0.00013824
0.00013824
0.00013824
0.00013824
0.00013824
0.00013824
0.00013824
0.00013824
0.00013824
0.00013824
0.00013824
0.00013824
0.00013824
0.00013824
0.00013824
0.00013824
0.00013824
0.00013824
0.00013824
0.00013824
0.00013824
0.00013824
0.00013824
0.00013824
0.00013824
0.00013824
0.00013824
0.00013824
0.00013824
0.00013824
0.00013824
0.000134265
7.34614e-05
6.57476e-05
6.32389e-05
6.21055e-05
6.15403e-05
6.12438e-05
6.11129e-05
6.10944e-05
6.11691e-05
6.13407e-05
6.1636e-05
6.21261e-05
6.29707e-05
6.46911e-05
6.96592e-05
0.000100685
0.000138235
0.00013824
0.00013824
0.00013824
0.00013824
0.00013824
0.00013824
0.00013824
0.00013824
0.00013824
0.00013824
0.00013824
0.00013824
0.00013824
0.000138226
0.000138124
0.000138234
0.00013824
0.00013824
0.00013824
0.00013824
0.00013824
0.00013824
0.00013824
0.00013824
0.00013824
0.000138183
0.000137116
0.000137982
0.000138239
0.00013824
0.00013824
0.00013824
0.00013824
0.00013824
0.00013824
0.00013824
0.00013824
0.00013824
0.00013824
0.00013824
0.00013824
0.00013824
0.00013824
0.00013824
0.00013824
0.00013824
0.00013824
0.00013824
0.00013824
0.00013824
0.00013824
0.00013824
0.00013824
0.00013824
0.00013824
0.00013824
0.00013824
0.000138235
0.000116893
7.21839e-05
6.79541e-05
6.57102e-05
6.49422e-05
6.56632e-05
6.75047e-05
7.06836e-05
0.000104136
0.000137593
0.00013824
0.00013824
0.00013824
0.00013824
0.00013824
0.00013824
0.00013824
0.00013824
0.00013824
0.00013824
0.00013824
0.00013824
0.00013824
0.00013824
0.00013824
0.00013824
0.00013824
0.00013824
0.00013824
0.00013824
0.00013824
0.00013824
0.00013824
0.00013824
0.00013824
0.00013824
0.00013824
0.00013824
0.00013824
0.00013824
0.00013824
0.00013824
0.00013824
0.00013824
0.00013824
0.000136147
7.93159e-05
6.72138e-05
6.36052e-05
6.23286e-05
6.16967e-05
6.14078e-05
6.13101e-05
6.13659e-05
6.15823e-05
6.2006e-05
6.28084e-05
6.44249e-05
6.9401e-05
9.8366e-05
0.000138228
0.00013824
0.00013824
0.00013824
0.00013824
0.00013824
0.00013824
0.00013824
0.00013824
0.00013824
0.00013824
0.00013824
0.00013824
0.00013824
0.00013824
0.00013824
0.00013824
0.00013824
0.00013824
0.00013824
0.00013824
0.00013824
0.00013824
0.00013824
0.00013824
0.00013824
0.00013824
0.00013824
0.00013824
0.00013824
0.00013824
0.00013824
0.00013824
0.00013824
0.00013824
0.00013824
0.00013824
0.00013824
0.00013824
0.00013824
0.00013824
0.00013824
0.00013824
0.00013824
0.00013824
0.00013824
0.00013824
0.00013824
0.00013824
0.00013824
0.00013824
0.00013824
0.00013824
0.00013824
0.00013824
0.00013824
0.00013824
0.00013824
0.00013824
0.00013824
0.00013824
0.000134381
0.000106794
8.23204e-05
7.61713e-05
8.40018e-05
0.000106385
0.000132075
0.000138239
0.00013824
0.00013824
0.00013824
0.00013824
0.00013824
0.00013824
0.00013824
0.00013824
0.00013824
0.00013824
0.00013824
0.00013824
0.00013824
0.00013824
0.00013824
0.00013824
0.00013824
0.00013824
0.00013824
0.00013824
0.00013824
0.00013824
0.00013824
0.00013824
0.00013824
0.00013824
0.00013824
0.00013824
0.00013824
0.00013824
0.00013824
0.00013824
0.00013824
0.00013824
0.00013824
0.00013824
0.00013824
0.000137913
9.75552e-05
6.94259e-05
6.49582e-05
6.31572e-05
6.2499e-05
6.22195e-05
6.22477e-05
6.26074e-05
6.33766e-05
6.52662e-05
7.04056e-05
0.000107536
0.000138232
0.00013824
0.00013824
0.00013824
0.00013824
0.00013824
0.00013824
0.00013824
0.00013824
0.00013824
0.00013824
0.00013824
0.00013824
0.00013824
0.00013824
0.00013824
0.00013824
0.00013824
0.00013824
0.00013824
0.00013824
0.00013824
0.00013824
0.00013824
0.00013824
0.00013824
0.00013824
0.00013824
0.00013824
0.00013824
0.00013824
0.00013824
0.00013824
0.00013824
0.00013824
0.00013824
0.00013824
0.00013824
0.00013824
0.00013824
0.00013824
0.00013824
0.00013824
0.00013824
0.00013824
0.00013824
0.00013824
0.00013824
0.00013824
0.00013824
0.00013824
0.00013824
0.00013824
0.00013824
0.00013824
0.00013824
0.00013824
0.00013824
0.00013824
0.00013824
0.00013824
0.00013824
0.00013824
0.000138239
0.00013804
0.000137421
0.000138111
0.000138239
0.00013824
0.00013824
0.00013824
0.00013824
0.00013824
0.00013824
0.00013824
0.00013824
0.00013824
0.00013824
0.00013824
0.00013824
0.00013824
0.00013824
0.00013824
0.00013824
0.00013824
0.00013824
0.00013824
0.00013824
0.00013824
0.00013824
0.00013824
0.00013824
0.00013824
0.00013824
0.00013824
0.00013824
0.00013824
0.00013824
0.00013824
0.00013824
0.00013824
0.00013824
0.00013824
0.00013824
0.00013824
0.00013824
0.00013824
0.00013824
0.000138234
0.000123871
7.92622e-05
6.87506e-05
6.65808e-05
6.5337e-05
6.52327e-05
6.64253e-05
6.87676e-05
7.81337e-05
0.000126061
0.000138239
0.00013824
0.00013824
0.00013824
0.00013824
0.00013824
0.00013824
0.00013824
0.00013824
0.00013824
0.00013824
0.00013824
0.00013824
0.00013824
0.00013824
0.00013824
0.00013824
0.00013824
0.00013824
0.00013824
0.00013824
0.00013824
0.00013824
0.00013824
0.00013824
0.00013824
0.00013824
0.00013824
0.00013824
0.00013824
0.00013824
0.00013824
0.00013824
0.00013824
0.00013824
0.00013824
0.00013824
0.00013824
0.00013824
0.00013824
0.00013824
0.00013824
0.00013824
0.00013824
0.00013824
0.00013824
0.00013824
0.00013824
0.00013824
0.00013824
0.00013824
0.00013824
0.00013824
0.00013824
0.00013824
0.00013824
0.00013824
0.00013824
0.00013824
0.00013824
0.00013824
0.00013824
0.00013824
0.00013824
0.00013824
0.00013824
0.00013824
0.00013824
0.00013824
0.00013824
0.00013824
0.00013824
0.00013824
0.00013824
0.00013824
0.00013824
0.00013824
0.00013824
0.00013824
0.00013824
0.00013824
0.00013824
0.00013824
0.00013824
0.00013824
0.00013824
0.00013824
0.00013824
0.00013824
0.00013824
0.00013824
0.00013824
0.00013824
0.00013824
0.00013824
0.00013824
0.00013824
0.00013824
0.00013824
0.00013824
0.00013824
0.00013824
0.00013824
0.00013824
0.00013824
0.00013824
0.00013824
0.00013824
0.00013824
0.00013824
0.00013824
0.000137954
0.000121747
9.7611e-05
8.2808e-05
8.10534e-05
9.34476e-05
0.000118761
0.000137808
0.00013824
0.00013824
0.00013824
0.00013824
0.00013824
0.00013824
0.00013824
0.00013824
0.00013824
0.00013824
0.00013824
0.00013824
0.00013824
0.00013824
0.00013824
0.00013824
0.00013824
0.00013824
0.00013824
0.00013824
0.00013824
0.00013824
0.00013824
0.00013824
0.00013824
0.00013824
0.00013824
0.00013824
0.00013824
0.00013824
0.00013824
0.00013824
0.00013824
0.00013824
0.00013824
0.00013824
0.00013824
0.00013824
0.00013824
0.00013824
0.00013824
0.00013824
0.00013824
0.00013824
0.00013824
0.00013824
0.00013824
0.00013824
0.00013824
0.00013824
0.00013824
0.00013824
0.00013824
0.00013824
0.00013824
0.00013824
0.00013824
0.00013824
0.00013824
0.00013824
0.00013824
0.00013824
0.00013824
0.00013824
0.00013824
0.00013824
0.00013824
0.00013824
0.00013824
0.00013824
0.00013824
0.00013824
0.00013824
0.00013824
0.00013824
0.00013824
0.00013824
0.00013824
0.00013824
0.00013824
0.00013824
0.00013824
0.00013824
0.00013824
0.00013824
0.00013824
0.00013824
0.00013824
0.00013824
0.00013824
0.00013824
0.00013824
0.00013824
0.00013824
0.00013824
0.00013824
0.00013824
0.00013824
0.00013824
0.00013824
0.00013824
0.00013824
0.00013824
0.00013824
0.00013824
0.00013824
0.00013824
0.00013824
0.00013824
0.00013824
0.00013824
0.00013824
0.00013824
0.00013824
0.000138233
0.000138084
0.000138006
0.000138223
0.00013824
0.00013824
0.00013824
0.00013824
0.00013824
0.00013824
0.00013824
0.00013824
0.00013824
0.00013824
0.00013824
0.00013824
0.00013824
0.00013824
0.00013824
0.00013824
0.00013824
0.00013824
0.00013824
0.00013824
0.00013824
0.00013824
0.00013824
0.00013824
0.00013824
0.00013824
0.00013824
0.00013824
0.00013824
0.00013824
0.00013824
0.00013824
0.00013824
0.00013824
0.00013824
0.00013824
0.00013824
0.00013824
0.00013824
0.00013824
0.00013824
0.00013824
0.00013824
0.00013824
0.00013824
0.00013824
0.00013824
0.00013824
0.00013824
0.00013824
0.00013824
0.00013824
0.00013824
0.00013824
0.00013824
0.00013824
0.00013824
0.00013824
0.00013824
0.00013824
0.00013824
0.00013824
0.00013824
0.00013824
0.00013824
0.00013824
0.00013824
0.00013824
0.00013824
0.00013824
0.00013824
0.00013824
0.00013824
0.00013824
0.00013824
0.00013824
0.00013824
0.00013824
0.00013824
0.00013824
0.00013824
0.00013824
0.00013824
0.00013824
0.00013824
0.00013824
0.00013824
0.00013824
0.00013824
0.00013824
0.00013824
0.00013824
0.00013824
0.00013824
0.00013824
0.00013824
0.00013824
0.00013824
0.00013824
0.00013824
0.00013824
0.00013824
0.00013824
0.00013824
0.00013824
0.00013824
0.00013824
0.00013824
0.00013824
0.00013824
0.00013824
0.00013824
0.00013824
0.00013824
0.00013824
0.00013824
0.00013824
0.00013824
0.00013824
0.00013824
0.00013824
0.00013824
0.00013824
0.00013824
0.00013824
0.00013824
0.00013824
0.00013824
0.00013824
0.00013824
0.00013824
0.00013824
0.00013824
0.00013824
0.00013824
0.00013824
0.00013824
0.00013824
0.00013824
0.00013824
0.00013824
0.00013824
0.00013824
0.00013824
0.00013824
0.00013824
0.00013824
0.00013824
0.00013824
0.00013824
0.00013824
0.00013824
0.00013824
0.00013824
0.00013824
0.00013824
0.00013824
0.00013824
0.00013824
0.00013824
0.00013824
0.00013824
0.00013824
0.00013824
0.00013824
0.00013824
0.00013824
0.00013824
0.00013824
0.00013824
0.00013824
0.00013824
0.00013824
0.00013824
0.00013824
0.00013824
0.00013824
0.00013824
0.00013824
0.00013824
0.00013824
0.00013824
0.00013824
0.00013824
0.00013824
0.00013824
0.00013824
0.00013824
0.00013824
0.00013824
0.00013824
0.00013824
0.00013824
0.00013824
0.00013824
0.00013824
0.00013824
0.00013824
0.00013824
0.00013824
0.00013824
0.00013824
0.00013824
0.00013824
0.00013824
0.00013824
0.00013824
0.00013824
0.00013824
0.00013824
0.00013824
0.00013824
0.00013824
0.00013824
0.00013824
0.00013824
0.00013824
0.00013824
0.00013824
0.00013824
0.00013824
0.00013824
0.00013824
0.00013824
0.00013824
0.00013824
0.00013824
0.00013824
0.00013824
0.00013824
0.00013824
0.00013824
0.00013824
0.00013824
0.00013824
0.00013824
0.00013824
0.00013824
0.00013824
0.00013824
0.00013824
0.00013824
0.00013824
0.00013824
0.00013824
0.00013824
0.00013824
0.00013824
0.00013824
0.00013824
0.00013824
0.00013824
0.00013824
0.00013824
0.00013824
0.00013824
0.00013824
0.00013824
0.00013824
0.00013824
0.00013824
0.00013824
0.00013824
0.00013824
0.00013824
0.00013824
0.00013824
0.00013824
0.00013824
0.00013824
0.00013824
0.00013824
0.00013824
0.00013824
0.00013824
0.00013824
0.00013824
0.00013824
0.00013824
0.00013824
0.00013824
0.00013824
0.00013824
0.00013824
0.00013824
0.00013824
0.00013824
0.00013824
0.00013824
0.00013824
0.00013824
0.00013824
0.00013824
0.00013824
0.00013824
0.00013824
0.00013824
0.00013824
0.00013824
0.00013824
0.00013824
0.00013824
0.00013824
0.00013824
0.00013824
0.00013824
0.00013824
0.00013824
0.00013824
0.00013824
0.00013824
0.00013824
0.00013824
0.00013824
0.00013824
0.00013824
0.00013824
0.00013824
0.00013824
0.00013824
0.00013824
0.00013824
0.00013824
0.00013824
0.00013824
0.00013824
0.00013824
0.00013824
0.00013824
0.00013824
0.00013824
0.00013824
0.00013824
0.00013824
0.00013824
0.00013824
0.00013824
0.00013824
0.00013824
0.00013824
0.00013824
0.00013824
0.00013824
0.00013824
0.00013824
0.00013824
0.00013824
0.00013824
0.00013824
0.00013824
0.00013824
0.00013824
0.00013824
0.00013824
0.00013824
0.00013824
0.00013824
0.00013824
0.00013824
0.00013824
0.00013824
0.00013824
0.00013824
0.00013824
0.00013824
0.00013824
0.00013824
0.00013824
0.00013824
0.00013824
0.00013824
0.00013824
0.00013824
0.00013824
0.00013824
0.00013824
0.00013824
0.00013824
0.00013824
0.00013824
0.00013824
0.00013824
0.00013824
0.00013824
0.00013824
0.00013824
0.00013824
0.00013824
0.00013824
0.00013824
0.00013824
0.00013824
0.00013824
0.00013824
0.00013824
0.00013824
0.00013824
0.00013824
0.00013824
0.00013824
0.00013824
0.00013824
0.00013824
0.00013824
0.00013824
0.00013824
0.00013824
0.00013824
0.00013824
0.00013824
0.00013824
0.00013824
0.00013824
0.00013824
0.00013824
0.00013824
0.00013824
0.00013824
0.00013824
0.00013824
0.00013824
0.00013824
0.00013824
0.00013824
0.00013824
0.00013824
0.00013824
0.00013824
0.00013824
0.00013824
0.00013824
0.00013824
0.00013824
0.00013824
0.00013824
0.00013824
0.00013824
0.00013824
0.00013824
0.00013824
0.00013824
0.00013824
0.00013824
0.00013824
0.00013824
0.00013824
0.00013824
0.00013824
0.00013824
0.00013824
0.00013824
0.00013824
0.00013824
0.00013824
0.00013824
0.00013824
0.00013824
0.00013824
0.00013824
0.00013824
0.00013824
0.00013824
0.00013824
0.00013824
0.00013824
0.00013824
0.00013824
0.00013824
0.00013824
0.00013824
0.00013824
0.00013824
0.00013824
0.00013824
0.00013824
0.00013824
0.00013824
0.00013824
0.00013824
0.00013824
0.00013824
0.00013824
0.00013824
0.00013824
0.00013824
0.00013824
0.00013824
0.00013824
0.00013824
0.00013824
0.00013824
0.00013824
0.00013824
0.00013824
0.00013824
0.00013824
0.00013824
0.00013824
0.00013824
0.00013824
0.00013824
0.00013824
0.00013824
0.00013824
0.00013824
0.00013824
0.00013824
0.00013824
0.00013824
0.00013824
0.00013824
0.00013824
0.00013824
0.00013824
0.00013824
0.00013824
0.00013824
0.00013824
0.00013824
0.00013824
0.00013824
0.00013824
0.00013824
0.00013824
0.00013824
0.00013824
0.00013824
0.00013824
0.00013824
0.00013824
0.00013824
0.00013824
0.00013824
0.00013824
0.00013824
0.00013824
0.00013824
0.00013824
0.00013824
0.00013824
0.00013824
0.00013824
0.00013824
0.00013824
0.00013824
0.00013824
0.00013824
0.00013824
0.00013824
0.00013824
0.00013824
0.00013824
0.00013824
0.00013824
0.00013824
0.00013824
0.00013824
0.00013824
0.00013824
0.00013824