/*--------------------------------*- C++ -*----------------------------------*\
| =========                 |                                                 |
| \\      /  F ield         | OpenFOAM: The Open Source CFD Toolbox           |
|  \\    /   O peration     | Version:  2406                                  |
|   \\  /    A nd           | Website:  www.openfoam.com                      |
|    \\/     M anipulation  |                                                 |
\*---------------------------------------------------------------------------*/
FoamFile
{
    version     2.0;
    format      ascii;
    arch        "LSB;label=32;scalar=64";
    class       volScalarField;
    location    "8.7";
    object      Da;
}
// * * * * * * * * * * * * * * * * * * * * * * * * * * * * * * * * * * * * * //

dimensions      [0 2 -1 0 0 0 0];

internalField   nonuniform List<scalar> 
14400
(
4.98203e-05
4.98082e-05
4.9795e-05
4.97903e-05
4.9796e-05
4.98079e-05
4.98199e-05
4.98274e-05
4.98292e-05
4.98289e-05
4.98343e-05
4.98544e-05
4.98961e-05
4.99559e-05
5.00129e-05
5.00285e-05
4.99751e-05
4.98779e-05
4.97614e-05
4.96269e-05
4.94573e-05
4.92284e-05
4.89183e-05
4.85151e-05
4.80229e-05
4.7465e-05
4.68796e-05
4.63091e-05
4.57879e-05
4.53371e-05
4.49666e-05
4.46797e-05
4.44797e-05
4.43753e-05
4.43909e-05
4.4594e-05
4.52106e-05
4.75057e-05
6.68784e-05
7.79999e-05
7.8e-05
7.8e-05
7.8e-05
7.8e-05
7.8e-05
7.8e-05
7.8e-05
7.8e-05
7.8e-05
7.8e-05
7.8e-05
7.8e-05
7.8e-05
7.8e-05
7.8e-05
7.8e-05
7.8e-05
7.8e-05
7.79983e-05
6.22801e-05
4.73548e-05
4.53486e-05
4.48314e-05
4.47152e-05
4.48009e-05
4.50344e-05
4.54041e-05
4.59146e-05
4.65734e-05
4.73762e-05
4.82886e-05
4.92383e-05
5.0132e-05
5.08859e-05
5.14456e-05
5.17871e-05
5.19091e-05
5.18261e-05
5.15653e-05
5.11684e-05
5.06925e-05
5.02103e-05
4.98086e-05
4.95984e-05
4.97737e-05
5.09395e-05
5.66162e-05
7.76785e-05
6.08471e-05
5.08128e-05
4.8881e-05
4.82713e-05
4.80795e-05
4.80877e-05
4.82095e-05
4.83978e-05
4.86203e-05
4.88523e-05
4.90738e-05
4.9269e-05
4.94248e-05
4.95297e-05
4.95738e-05
4.95491e-05
4.94525e-05
4.92868e-05
4.90599e-05
4.87829e-05
4.84693e-05
4.81355e-05
4.78006e-05
4.74863e-05
4.72158e-05
4.70155e-05
4.69184e-05
4.6978e-05
4.73076e-05
4.82437e-05
5.14449e-05
7.52025e-05
4.95152e-05
4.94729e-05
4.94172e-05
4.93712e-05
4.9343e-05
4.93304e-05
4.93279e-05
4.9331e-05
4.93386e-05
4.93542e-05
4.93858e-05
4.9444e-05
4.95371e-05
4.96619e-05
4.9787e-05
4.98396e-05
4.97476e-05
4.95882e-05
4.94184e-05
4.92471e-05
4.90565e-05
4.88213e-05
4.8519e-05
4.81381e-05
4.76821e-05
4.71717e-05
4.66396e-05
4.61214e-05
4.56467e-05
4.52344e-05
4.48947e-05
4.4633e-05
4.44545e-05
4.43711e-05
4.44119e-05
4.46542e-05
4.53549e-05
4.7935e-05
7.15732e-05
7.8e-05
7.8e-05
7.8e-05
7.8e-05
7.8e-05
7.8e-05
7.8e-05
7.8e-05
7.8e-05
7.8e-05
7.8e-05
7.8e-05
7.8e-05
7.8e-05
7.8e-05
7.8e-05
7.8e-05
7.8e-05
7.8e-05
7.79999e-05
6.68906e-05
4.77051e-05
4.54445e-05
4.48671e-05
4.47189e-05
4.47794e-05
4.49875e-05
4.53267e-05
4.57977e-05
4.64052e-05
4.71444e-05
4.79868e-05
4.88708e-05
4.97123e-05
5.0431e-05
5.09704e-05
5.13029e-05
5.14241e-05
5.13475e-05
5.11013e-05
5.07287e-05
5.02883e-05
4.98517e-05
4.9504e-05
4.93563e-05
4.96235e-05
5.1102e-05
5.95784e-05
7.79407e-05
6.60357e-05
5.11575e-05
4.8841e-05
4.81317e-05
4.788e-05
4.78386e-05
4.79149e-05
4.80611e-05
4.82465e-05
4.84488e-05
4.86502e-05
4.88354e-05
4.89905e-05
4.91012e-05
4.91527e-05
4.91326e-05
4.90361e-05
4.88693e-05
4.86454e-05
4.83796e-05
4.80876e-05
4.77849e-05
4.74884e-05
4.72164e-05
4.69897e-05
4.68332e-05
4.67817e-05
4.68964e-05
4.73223e-05
4.8566e-05
5.35536e-05
7.74814e-05
4.90507e-05
4.89375e-05
4.87931e-05
4.86692e-05
4.85813e-05
4.85274e-05
4.85007e-05
4.84959e-05
4.85116e-05
4.85516e-05
4.86255e-05
4.87478e-05
4.89344e-05
4.91915e-05
4.94805e-05
4.96447e-05
4.94258e-05
4.91121e-05
4.88299e-05
4.8588e-05
4.83598e-05
4.81147e-05
4.78287e-05
4.74893e-05
4.7098e-05
4.66692e-05
4.62265e-05
4.57954e-05
4.53985e-05
4.50518e-05
4.47662e-05
4.45496e-05
4.44115e-05
4.43696e-05
4.44643e-05
4.48058e-05
4.57991e-05
4.9818e-05
7.72272e-05
7.8e-05
7.8e-05
7.8e-05
7.8e-05
7.8e-05
7.8e-05
7.8e-05
7.8e-05
7.8e-05
7.8e-05
7.8e-05
7.8e-05
7.8e-05
7.8e-05
7.8e-05
7.8e-05
7.8e-05
7.8e-05
7.8e-05
7.8e-05
7.40732e-05
4.85191e-05
4.57089e-05
4.49635e-05
4.47376e-05
4.47451e-05
4.49039e-05
4.51872e-05
4.55881e-05
4.61054e-05
4.67331e-05
4.74492e-05
4.82081e-05
4.89433e-05
4.95842e-05
5.0075e-05
5.03838e-05
5.05021e-05
5.04417e-05
5.02312e-05
4.99152e-05
4.95513e-05
4.92082e-05
4.8966e-05
4.89368e-05
4.93667e-05
5.13634e-05
6.54948e-05
7.79979e-05
7.36556e-05
5.18892e-05
4.8873e-05
4.79337e-05
4.75598e-05
4.74282e-05
4.74265e-05
4.75025e-05
4.76265e-05
4.7779e-05
4.79453e-05
4.81121e-05
4.82648e-05
4.83849e-05
4.84499e-05
4.84387e-05
4.83432e-05
4.81755e-05
4.79583e-05
4.77135e-05
4.74586e-05
4.72075e-05
4.69729e-05
4.67691e-05
4.66133e-05
4.65297e-05
4.65569e-05
4.67717e-05
4.73847e-05
4.9396e-05
6.2528e-05
7.7995e-05
4.86762e-05
4.84126e-05
4.812e-05
4.78886e-05
4.77287e-05
4.76284e-05
4.75751e-05
4.75609e-05
4.75837e-05
4.76479e-05
4.7766e-05
4.79608e-05
4.82684e-05
4.87366e-05
4.93841e-05
4.99491e-05
4.92606e-05
4.86144e-05
4.81519e-05
4.78136e-05
4.75389e-05
4.72842e-05
4.70204e-05
4.67322e-05
4.64164e-05
4.608e-05
4.57366e-05
4.54029e-05
4.50945e-05
4.4825e-05
4.46055e-05
4.44471e-05
4.43643e-05
4.43838e-05
4.45671e-05
4.51047e-05
4.70318e-05
6.25124e-05
7.79988e-05
7.8e-05
7.8e-05
7.8e-05
7.8e-05
7.8e-05
7.8e-05
7.8e-05
7.8e-05
7.8e-05
7.8e-05
7.8e-05
7.8e-05
7.8e-05
7.8e-05
7.8e-05
7.8e-05
7.8e-05
7.8e-05
7.8e-05
7.8e-05
7.79436e-05
5.46658e-05
4.65503e-05
4.51819e-05
4.47917e-05
4.47129e-05
4.48016e-05
4.50112e-05
4.53241e-05
4.57319e-05
4.62255e-05
4.67869e-05
4.73842e-05
4.79707e-05
4.84929e-05
4.89029e-05
4.91695e-05
4.92821e-05
4.92499e-05
4.90999e-05
4.88738e-05
4.86242e-05
4.8413e-05
4.83171e-05
4.84586e-05
4.9141e-05
5.17915e-05
7.27313e-05
7.8e-05
7.79343e-05
5.77411e-05
4.94559e-05
4.7826e-05
4.72373e-05
4.69816e-05
4.68853e-05
4.68817e-05
4.69383e-05
4.70368e-05
4.71647e-05
4.7311e-05
4.74618e-05
4.7595e-05
4.76795e-05
4.76809e-05
4.75856e-05
4.74142e-05
4.72033e-05
4.69813e-05
4.67666e-05
4.65702e-05
4.64011e-05
4.627e-05
4.61924e-05
4.6194e-05
4.63222e-05
4.66828e-05
4.75937e-05
5.06174e-05
7.36564e-05
7.8e-05
4.88153e-05
4.81371e-05
4.75818e-05
4.72078e-05
4.69683e-05
4.68219e-05
4.67431e-05
4.67194e-05
4.67477e-05
4.68332e-05
4.69924e-05
4.72614e-05
4.77152e-05
4.85274e-05
5.01649e-05
5.36019e-05
4.97036e-05
4.82741e-05
4.75391e-05
4.7083e-05
4.67582e-05
4.64936e-05
4.6251e-05
4.60098e-05
4.57619e-05
4.55077e-05
4.52532e-05
4.50082e-05
4.47835e-05
4.45902e-05
4.44399e-05
4.43468e-05
4.43323e-05
4.44373e-05
4.47594e-05
4.56175e-05
4.87503e-05
7.55439e-05
7.8e-05
7.8e-05
7.8e-05
7.8e-05
7.8e-05
7.8e-05
7.8e-05
7.8e-05
7.8e-05
7.8e-05
7.8e-05
7.8e-05
7.8e-05
7.8e-05
7.8e-05
7.8e-05
7.8e-05
7.8e-05
7.8e-05
7.8e-05
7.8e-05
7.8e-05
7.00819e-05
4.80412e-05
4.55599e-05
4.49048e-05
4.47031e-05
4.4703e-05
4.48276e-05
4.50462e-05
4.53425e-05
4.57034e-05
4.61127e-05
4.65473e-05
4.6976e-05
4.73631e-05
4.76747e-05
4.78871e-05
4.79911e-05
4.79938e-05
4.79176e-05
4.77971e-05
4.76767e-05
4.76123e-05
4.76847e-05
4.80582e-05
4.92924e-05
5.49634e-05
7.77173e-05
7.8e-05
7.8e-05
7.27691e-05
5.09233e-05
4.79752e-05
4.70338e-05
4.66116e-05
4.6409e-05
4.63263e-05
4.63214e-05
4.63734e-05
4.64702e-05
4.66032e-05
4.67603e-05
4.69175e-05
4.7034e-05
4.7053e-05
4.69506e-05
4.67618e-05
4.65451e-05
4.63358e-05
4.61512e-05
4.59993e-05
4.5886e-05
4.582e-05
4.58175e-05
4.59102e-05
4.61662e-05
4.67742e-05
4.86171e-05
6.02245e-05
7.79899e-05
7.8e-05
5.13984e-05
4.84945e-05
4.73364e-05
4.67409e-05
4.64004e-05
4.62019e-05
4.60955e-05
4.60616e-05
4.60956e-05
4.62035e-05
4.64077e-05
4.67659e-05
4.74245e-05
4.89347e-05
5.51271e-05
7.58274e-05
5.18866e-05
4.8308e-05
4.71125e-05
4.65012e-05
4.61167e-05
4.58365e-05
4.56064e-05
4.53993e-05
4.52023e-05
4.50111e-05
4.48268e-05
4.46544e-05
4.45015e-05
4.43775e-05
4.42951e-05
4.42725e-05
4.43424e-05
4.45758e-05
4.51887e-05
4.73099e-05
6.48173e-05
7.79997e-05
7.8e-05
7.8e-05
7.8e-05
7.8e-05
7.8e-05
7.8e-05
7.8e-05
7.8e-05
7.8e-05
7.8e-05
7.8e-05
7.8e-05
7.8e-05
7.8e-05
7.8e-05
7.8e-05
7.8e-05
7.8e-05
7.8e-05
7.8e-05
7.8e-05
7.8e-05
7.7919e-05
5.3795e-05
4.6454e-05
4.51527e-05
4.47511e-05
4.46352e-05
4.46648e-05
4.47885e-05
4.49808e-05
4.52244e-05
4.55036e-05
4.58004e-05
4.6094e-05
4.63618e-05
4.65832e-05
4.67436e-05
4.68378e-05
4.68721e-05
4.68636e-05
4.68399e-05
4.68389e-05
4.69151e-05
4.71635e-05
4.78287e-05
5.01183e-05
6.76166e-05
7.79997e-05
7.8e-05
7.8e-05
7.79938e-05
6.15388e-05
4.91504e-05
4.71257e-05
4.64143e-05
4.60766e-05
4.59103e-05
4.58498e-05
4.58654e-05
4.59435e-05
4.60779e-05
4.62617e-05
4.64714e-05
4.66577e-05
4.67089e-05
4.65768e-05
4.63287e-05
4.60755e-05
4.58558e-05
4.56833e-05
4.55604e-05
4.54901e-05
4.54808e-05
4.5553e-05
4.57527e-05
4.61914e-05
4.72228e-05
5.07845e-05
7.64409e-05
7.8e-05
7.8e-05
7.47395e-05
5.10001e-05
4.76547e-05
4.65865e-05
4.60771e-05
4.58026e-05
4.56577e-05
4.56102e-05
4.56524e-05
4.57926e-05
4.60638e-05
4.65702e-05
4.76204e-05
5.08458e-05
7.48147e-05
7.79996e-05
6.65015e-05
4.94175e-05
4.69928e-05
4.61242e-05
4.56533e-05
4.53429e-05
4.51116e-05
4.49231e-05
4.47595e-05
4.46125e-05
4.44802e-05
4.43647e-05
4.42718e-05
4.42106e-05
4.41955e-05
4.42521e-05
4.44328e-05
4.48735e-05
4.61377e-05
5.26916e-05
7.78807e-05
7.8e-05
7.8e-05
7.8e-05
7.8e-05
7.8e-05
7.8e-05
7.8e-05
7.8e-05
7.8e-05
7.8e-05
7.8e-05
7.8e-05
7.8e-05
7.8e-05
7.8e-05
7.8e-05
7.8e-05
7.8e-05
7.8e-05
7.8e-05
7.8e-05
7.8e-05
7.8e-05
7.8e-05
7.36171e-05
4.85136e-05
4.56878e-05
4.49172e-05
4.46328e-05
4.45494e-05
4.45766e-05
4.46741e-05
4.48189e-05
4.49943e-05
4.51854e-05
4.53773e-05
4.5556e-05
4.57095e-05
4.58302e-05
4.59166e-05
4.59749e-05
4.60194e-05
4.60737e-05
4.61743e-05
4.63838e-05
4.68349e-05
4.79318e-05
5.18928e-05
7.70096e-05
7.8e-05
7.8e-05
7.8e-05
7.8e-05
7.767e-05
5.31697e-05
4.78323e-05
4.65123e-05
4.59601e-05
4.56827e-05
4.55622e-05
4.55479e-05
4.56212e-05
4.57808e-05
4.60359e-05
4.63728e-05
4.67728e-05
4.69182e-05
4.66722e-05
4.62202e-05
4.5857e-05
4.55836e-05
4.53969e-05
4.52858e-05
4.52493e-05
4.52962e-05
4.54592e-05
4.58278e-05
4.66811e-05
4.94676e-05
7.12207e-05
7.8e-05
7.8e-05
7.8e-05
7.8e-05
7.22569e-05
4.99501e-05
4.70046e-05
4.60812e-05
4.56621e-05
4.54465e-05
4.53758e-05
4.54334e-05
4.56344e-05
4.60373e-05
4.69239e-05
4.96356e-05
6.88759e-05
7.79999e-05
7.8e-05
7.7582e-05
5.24326e-05
4.73458e-05
4.60052e-05
4.53866e-05
4.5017e-05
4.47655e-05
4.45796e-05
4.44341e-05
4.43165e-05
4.42223e-05
4.41522e-05
4.41117e-05
4.41113e-05
4.41703e-05
4.43293e-05
4.4687e-05
4.55572e-05
4.86919e-05
7.58873e-05
7.8e-05
7.8e-05
7.8e-05
7.8e-05
7.8e-05
7.8e-05
7.8e-05
7.8e-05
7.8e-05
7.8e-05
7.8e-05
7.8e-05
7.8e-05
7.8e-05
7.8e-05
7.8e-05
7.8e-05
7.8e-05
7.8e-05
7.8e-05
7.8e-05
7.8e-05
7.8e-05
7.8e-05
7.8e-05
7.79995e-05
6.39152e-05
4.74709e-05
4.53691e-05
4.47511e-05
4.45108e-05
4.44314e-05
4.44389e-05
4.44994e-05
4.45927e-05
4.47048e-05
4.4824e-05
4.49408e-05
4.50481e-05
4.51425e-05
4.5225e-05
4.53025e-05
4.53888e-05
4.55076e-05
4.57009e-05
4.60565e-05
4.68235e-05
4.92233e-05
6.76211e-05
7.79998e-05
7.8e-05
7.8e-05
7.8e-05
7.8e-05
7.8e-05
7.65447e-05
5.08818e-05
4.73068e-05
4.62265e-05
4.57236e-05
4.55126e-05
4.54663e-05
4.55536e-05
4.57854e-05
4.62403e-05
4.69556e-05
4.85761e-05
4.92972e-05
4.831e-05
4.67282e-05
4.60224e-05
4.55867e-05
4.53387e-05
4.52162e-05
4.52111e-05
4.5333e-05
4.56472e-05
4.64107e-05
4.89263e-05
6.64333e-05
7.79998e-05
7.8e-05
7.8e-05
7.8e-05
7.8e-05
7.8e-05
6.99142e-05
4.94791e-05
4.67226e-05
4.59267e-05
4.55306e-05
4.54093e-05
4.55021e-05
4.58561e-05
4.65993e-05
4.91045e-05
6.53236e-05
7.79995e-05
7.8e-05
7.8e-05
7.8e-05
7.24689e-05
4.92792e-05
4.63393e-05
4.5368e-05
4.48712e-05
4.45678e-05
4.4366e-05
4.42246e-05
4.41249e-05
4.40597e-05
4.40291e-05
4.40406e-05
4.41102e-05
4.42689e-05
4.46e-05
4.53843e-05
4.81143e-05
7.20478e-05
7.8e-05
7.8e-05
7.8e-05
7.8e-05
7.8e-05
7.8e-05
7.8e-05
7.8e-05
7.8e-05
7.8e-05
7.8e-05
7.8e-05
7.8e-05
7.8e-05
7.8e-05
7.8e-05
7.8e-05
7.8e-05
7.8e-05
7.8e-05
7.8e-05
7.8e-05
7.8e-05
7.8e-05
7.8e-05
7.8e-05
7.8e-05
7.79606e-05
5.50575e-05
4.65762e-05
4.50944e-05
4.45924e-05
4.43772e-05
4.42894e-05
4.42716e-05
4.42963e-05
4.43473e-05
4.44137e-05
4.44876e-05
4.45645e-05
4.46431e-05
4.47264e-05
4.48228e-05
4.49479e-05
4.51305e-05
4.54274e-05
4.59817e-05
4.73505e-05
5.36094e-05
7.7818e-05
7.8e-05
7.8e-05
7.8e-05
7.8e-05
7.8e-05
7.8e-05
7.8e-05
7.62593e-05
5.13364e-05
4.76883e-05
4.62991e-05
4.58761e-05
4.57708e-05
4.59189e-05
4.63603e-05
4.77106e-05
5.00959e-05
6.63692e-05
7.40545e-05
6.36448e-05
4.94705e-05
4.71935e-05
4.61043e-05
4.56605e-05
4.54678e-05
4.55137e-05
4.57978e-05
4.6498e-05
4.89767e-05
6.64841e-05
7.79996e-05
7.8e-05
7.8e-05
7.8e-05
7.8e-05
7.8e-05
7.8e-05
7.8e-05
7.18364e-05
4.98529e-05
4.74399e-05
4.61982e-05
4.59309e-05
4.61264e-05
4.71474e-05
4.93683e-05
6.7545e-05
7.79994e-05
7.8e-05
7.8e-05
7.8e-05
7.8e-05
7.79994e-05
6.44179e-05
4.81842e-05
4.57959e-05
4.49637e-05
4.45402e-05
4.42936e-05
4.41406e-05
4.40491e-05
4.40085e-05
4.40189e-05
4.40944e-05
4.42702e-05
4.46101e-05
4.53581e-05
4.79793e-05
6.97808e-05
7.8e-05
7.8e-05
7.8e-05
7.8e-05
7.8e-05
7.8e-05
7.8e-05
7.8e-05
7.8e-05
7.8e-05
7.8e-05
7.8e-05
7.8e-05
7.8e-05
7.8e-05
7.8e-05
7.8e-05
7.8e-05
7.8e-05
7.8e-05
7.8e-05
7.8e-05
7.8e-05
7.8e-05
7.8e-05
7.8e-05
7.8e-05
7.8e-05
7.8e-05
7.7524e-05
5.04107e-05
4.59769e-05
4.48932e-05
4.44602e-05
4.42491e-05
4.41452e-05
4.41042e-05
4.41028e-05
4.41275e-05
4.41702e-05
4.42269e-05
4.42977e-05
4.43873e-05
4.4507e-05
4.46783e-05
4.4944e-05
4.53996e-05
4.63393e-05
4.93526e-05
7.40299e-05
7.8e-05
7.8e-05
7.8e-05
7.8e-05
7.8e-05
7.8e-05
7.8e-05
7.8e-05
7.8e-05
7.73686e-05
5.83371e-05
4.88894e-05
4.75944e-05
4.72007e-05
4.77286e-05
4.90486e-05
5.9328e-05
7.62969e-05
7.79998e-05
7.8e-05
7.7999e-05
7.45712e-05
5.48364e-05
4.85131e-05
4.71403e-05
4.65076e-05
4.67803e-05
4.78529e-05
5.03133e-05
7.1838e-05
7.79998e-05
7.8e-05
7.8e-05
7.8e-05
7.8e-05
7.8e-05
7.8e-05
7.8e-05
7.8e-05
7.8e-05
7.61437e-05
5.92213e-05
4.90935e-05
4.8279e-05
4.88449e-05
5.60172e-05
7.41006e-05
7.79999e-05
7.8e-05
7.8e-05
7.8e-05
7.8e-05
7.8e-05
7.8e-05
7.79946e-05
5.99816e-05
4.76756e-05
4.55188e-05
4.47658e-05
4.44142e-05
4.42223e-05
4.41275e-05
4.41141e-05
4.41812e-05
4.43632e-05
4.47839e-05
4.56482e-05
4.82381e-05
7.09742e-05
7.8e-05
7.8e-05
7.8e-05
7.8e-05
7.8e-05
7.8e-05
7.8e-05
7.8e-05
7.8e-05
7.8e-05
7.8e-05
7.8e-05
7.8e-05
7.8e-05
7.8e-05
7.8e-05
7.8e-05
7.8e-05
7.8e-05
7.8e-05
7.8e-05
7.8e-05
7.8e-05
7.8e-05
7.8e-05
7.8e-05
7.8e-05
7.8e-05
7.8e-05
7.8e-05
7.8e-05
7.65363e-05
4.91638e-05
4.57668e-05
4.48072e-05
4.43749e-05
4.41464e-05
4.40264e-05
4.39705e-05
4.39571e-05
4.39744e-05
4.40173e-05
4.40868e-05
4.41903e-05
4.43449e-05
4.45861e-05
4.49973e-05
4.58207e-05
4.83029e-05
6.67126e-05
7.79999e-05
7.8e-05
7.8e-05
7.8e-05
7.8e-05
7.8e-05
7.8e-05
7.8e-05
7.8e-05
7.8e-05
7.8e-05
7.79862e-05
7.18707e-05
6.01778e-05
5.57155e-05
6.1822e-05
7.32489e-05
7.79916e-05
7.8e-05
7.8e-05
7.8e-05
7.8e-05
7.8e-05
7.79301e-05
7.00888e-05
5.69505e-05
5.11105e-05
5.37811e-05
6.54441e-05
7.71306e-05
7.8e-05
7.8e-05
7.8e-05
7.8e-05
7.8e-05
7.8e-05
7.8e-05
7.8e-05
7.8e-05
7.8e-05
7.8e-05
7.8e-05
7.79919e-05
7.51718e-05
7.04289e-05
7.4121e-05
7.79627e-05
7.8e-05
7.8e-05
7.8e-05
7.8e-05
7.8e-05
7.8e-05
7.8e-05
7.8e-05
7.8e-05
7.79929e-05
6.1133e-05
4.78341e-05
4.5565e-05
4.49208e-05
4.46074e-05
4.44802e-05
4.45214e-05
4.47137e-05
4.51508e-05
4.66852e-05
5.05648e-05
7.48931e-05
7.8e-05
7.8e-05
7.8e-05
7.8e-05
7.8e-05
7.8e-05
7.8e-05
7.8e-05
7.8e-05
7.8e-05
7.8e-05
7.8e-05
7.8e-05
7.8e-05
7.8e-05
7.8e-05
7.8e-05
7.8e-05
7.8e-05
7.8e-05
7.8e-05
7.8e-05
7.8e-05
7.8e-05
7.8e-05
7.8e-05
7.8e-05
7.8e-05
7.8e-05
7.8e-05
7.8e-05
7.8e-05
7.8e-05
7.61595e-05
4.93088e-05
4.59431e-05
4.4847e-05
4.43493e-05
4.41004e-05
4.39699e-05
4.39123e-05
4.39042e-05
4.39372e-05
4.4013e-05
4.41434e-05
4.43598e-05
4.47328e-05
4.54919e-05
4.76798e-05
6.12969e-05
7.79975e-05
7.8e-05
7.8e-05
7.8e-05
7.8e-05
7.8e-05
7.8e-05
7.8e-05
7.8e-05
7.8e-05
7.8e-05
7.8e-05
7.8e-05
7.8e-05
7.79937e-05
7.79469e-05
7.79972e-05
7.8e-05
7.8e-05
7.8e-05
7.8e-05
7.8e-05
7.8e-05
7.8e-05
7.8e-05
7.8e-05
7.79736e-05
7.74872e-05
7.78815e-05
7.79996e-05
7.8e-05
7.8e-05
7.8e-05
7.8e-05
7.8e-05
7.8e-05
7.8e-05
7.8e-05
7.8e-05
7.8e-05
7.8e-05
7.8e-05
7.8e-05
7.8e-05
7.8e-05
7.8e-05
7.8e-05
7.8e-05
7.8e-05
7.8e-05
7.8e-05
7.8e-05
7.8e-05
7.8e-05
7.8e-05
7.8e-05
7.8e-05
7.8e-05
7.79977e-05
6.84415e-05
4.87816e-05
4.69241e-05
4.593e-05
4.55908e-05
4.59087e-05
4.67251e-05
4.81248e-05
6.27471e-05
7.76938e-05
7.8e-05
7.8e-05
7.8e-05
7.8e-05
7.8e-05
7.8e-05
7.8e-05
7.8e-05
7.8e-05
7.8e-05
7.8e-05
7.8e-05
7.8e-05
7.8e-05
7.8e-05
7.8e-05
7.8e-05
7.8e-05
7.8e-05
7.8e-05
7.8e-05
7.8e-05
7.8e-05
7.8e-05
7.8e-05
7.8e-05
7.8e-05
7.8e-05
7.8e-05
7.8e-05
7.8e-05
7.8e-05
7.8e-05
7.8e-05
7.8e-05
7.70238e-05
5.18236e-05
4.65909e-05
4.50094e-05
4.44465e-05
4.41688e-05
4.40416e-05
4.39985e-05
4.40232e-05
4.41188e-05
4.43058e-05
4.46593e-05
4.53732e-05
4.75645e-05
6.02547e-05
7.79942e-05
7.8e-05
7.8e-05
7.8e-05
7.8e-05
7.8e-05
7.8e-05
7.8e-05
7.8e-05
7.8e-05
7.8e-05
7.8e-05
7.8e-05
7.8e-05
7.8e-05
7.8e-05
7.8e-05
7.8e-05
7.8e-05
7.8e-05
7.8e-05
7.8e-05
7.8e-05
7.8e-05
7.8e-05
7.8e-05
7.8e-05
7.8e-05
7.8e-05
7.8e-05
7.8e-05
7.8e-05
7.8e-05
7.8e-05
7.8e-05
7.8e-05
7.8e-05
7.8e-05
7.8e-05
7.8e-05
7.8e-05
7.8e-05
7.8e-05
7.8e-05
7.8e-05
7.8e-05
7.8e-05
7.8e-05
7.8e-05
7.8e-05
7.8e-05
7.8e-05
7.8e-05
7.8e-05
7.8e-05
7.8e-05
7.8e-05
7.8e-05
7.8e-05
7.8e-05
7.8e-05
7.62373e-05
6.39729e-05
5.31596e-05
5.04671e-05
5.38901e-05
6.37775e-05
7.5193e-05
7.79993e-05
7.8e-05
7.8e-05
7.8e-05
7.8e-05
7.8e-05
7.8e-05
7.8e-05
7.8e-05
7.8e-05
7.8e-05
7.8e-05
7.8e-05
7.8e-05
7.8e-05
7.8e-05
7.8e-05
7.8e-05
7.8e-05
7.8e-05
7.8e-05
7.8e-05
7.8e-05
7.8e-05
7.8e-05
7.8e-05
7.8e-05
7.8e-05
7.8e-05
7.8e-05
7.8e-05
7.8e-05
7.8e-05
7.8e-05
7.8e-05
7.8e-05
7.8e-05
7.8e-05
7.78447e-05
5.98403e-05
4.75714e-05
4.55973e-05
4.48114e-05
4.45217e-05
4.4398e-05
4.44105e-05
4.45696e-05
4.49087e-05
4.57355e-05
4.80073e-05
6.42915e-05
7.79962e-05
7.8e-05
7.8e-05
7.8e-05
7.8e-05
7.8e-05
7.8e-05
7.8e-05
7.8e-05
7.8e-05
7.8e-05
7.8e-05
7.8e-05
7.8e-05
7.8e-05
7.8e-05
7.8e-05
7.8e-05
7.8e-05
7.8e-05
7.8e-05
7.8e-05
7.8e-05
7.8e-05
7.8e-05
7.8e-05
7.8e-05
7.8e-05
7.8e-05
7.8e-05
7.8e-05
7.8e-05
7.8e-05
7.8e-05
7.8e-05
7.8e-05
7.8e-05
7.8e-05
7.8e-05
7.8e-05
7.8e-05
7.8e-05
7.8e-05
7.8e-05
7.8e-05
7.8e-05
7.8e-05
7.8e-05
7.8e-05
7.8e-05
7.8e-05
7.8e-05
7.8e-05
7.8e-05
7.8e-05
7.8e-05
7.8e-05
7.8e-05
7.8e-05
7.8e-05
7.8e-05
7.8e-05
7.8e-05
7.79995e-05
7.79062e-05
7.76165e-05
7.79389e-05
7.79995e-05
7.8e-05
7.8e-05
7.8e-05
7.8e-05
7.8e-05
7.8e-05
7.8e-05
7.8e-05
7.8e-05
7.8e-05
7.8e-05
7.8e-05
7.8e-05
7.8e-05
7.8e-05
7.8e-05
7.8e-05
7.8e-05
7.8e-05
7.8e-05
7.8e-05
7.8e-05
7.8e-05
7.8e-05
7.8e-05
7.8e-05
7.8e-05
7.8e-05
7.8e-05
7.8e-05
7.8e-05
7.8e-05
7.8e-05
7.8e-05
7.8e-05
7.8e-05
7.8e-05
7.8e-05
7.8e-05
7.8e-05
7.79971e-05
7.15343e-05
5.17849e-05
4.72735e-05
4.63156e-05
4.5764e-05
4.5718e-05
4.62466e-05
4.72818e-05
5.13134e-05
7.25216e-05
7.79996e-05
7.8e-05
7.8e-05
7.8e-05
7.8e-05
7.8e-05
7.8e-05
7.8e-05
7.8e-05
7.8e-05
7.8e-05
7.8e-05
7.8e-05
7.8e-05
7.8e-05
7.8e-05
7.8e-05
7.8e-05
7.8e-05
7.8e-05
7.8e-05
7.8e-05
7.8e-05
7.8e-05
7.8e-05
7.8e-05
7.8e-05
7.8e-05
7.8e-05
7.8e-05
7.8e-05
7.8e-05
7.8e-05
7.8e-05
7.8e-05
7.8e-05
7.8e-05
7.8e-05
7.8e-05
7.8e-05
7.8e-05
7.8e-05
7.8e-05
7.8e-05
7.8e-05
7.8e-05
7.8e-05
7.8e-05
7.8e-05
7.8e-05
7.8e-05
7.8e-05
7.8e-05
7.8e-05
7.8e-05
7.8e-05
7.8e-05
7.8e-05
7.8e-05
7.8e-05
7.8e-05
7.8e-05
7.8e-05
7.8e-05
7.8e-05
7.8e-05
7.8e-05
7.8e-05
7.8e-05
7.8e-05
7.8e-05
7.8e-05
7.8e-05
7.8e-05
7.8e-05
7.8e-05
7.8e-05
7.8e-05
7.8e-05
7.8e-05
7.8e-05
7.8e-05
7.8e-05
7.8e-05
7.8e-05
7.8e-05
7.8e-05
7.8e-05
7.8e-05
7.8e-05
7.8e-05
7.8e-05
7.8e-05
7.8e-05
7.8e-05
7.8e-05
7.8e-05
7.8e-05
7.8e-05
7.8e-05
7.8e-05
7.8e-05
7.8e-05
7.8e-05
7.8e-05
7.8e-05
7.8e-05
7.8e-05
7.8e-05
7.8e-05
7.8e-05
7.7863e-05
7.05848e-05
5.98851e-05
5.33565e-05
5.2589e-05
5.80529e-05
6.92695e-05
7.77953e-05
7.8e-05
7.8e-05
7.8e-05
7.8e-05
7.8e-05
7.8e-05
7.8e-05
7.8e-05
7.8e-05
7.8e-05
7.8e-05
7.8e-05
7.8e-05
7.8e-05
7.8e-05
7.8e-05
7.8e-05
7.8e-05
7.8e-05
7.8e-05
7.8e-05
7.8e-05
7.8e-05
7.8e-05
7.8e-05
7.8e-05
7.8e-05
7.8e-05
7.8e-05
7.8e-05
7.8e-05
7.8e-05
7.8e-05
7.8e-05
7.8e-05
7.8e-05
7.8e-05
7.8e-05
7.8e-05
7.8e-05
7.8e-05
7.8e-05
7.8e-05
7.8e-05
7.8e-05
7.8e-05
7.8e-05
7.8e-05
7.8e-05
7.8e-05
7.8e-05
7.8e-05
7.8e-05
7.8e-05
7.8e-05
7.8e-05
7.8e-05
7.8e-05
7.8e-05
7.8e-05
7.8e-05
7.8e-05
7.8e-05
7.8e-05
7.8e-05
7.8e-05
7.8e-05
7.8e-05
7.8e-05
7.8e-05
7.8e-05
7.8e-05
7.8e-05
7.8e-05
7.8e-05
7.8e-05
7.8e-05
7.8e-05
7.8e-05
7.8e-05
7.8e-05
7.8e-05
7.8e-05
7.8e-05
7.8e-05
7.8e-05
7.8e-05
7.8e-05
7.8e-05
7.8e-05
7.8e-05
7.8e-05
7.8e-05
7.8e-05
7.8e-05
7.8e-05
7.8e-05
7.8e-05
7.8e-05
7.8e-05
7.8e-05
7.8e-05
7.8e-05
7.8e-05
7.8e-05
7.8e-05
7.8e-05
7.8e-05
7.8e-05
7.8e-05
7.8e-05
7.8e-05
7.8e-05
7.8e-05
7.79968e-05
7.79262e-05
7.78893e-05
7.79918e-05
7.8e-05
7.8e-05
7.8e-05
7.8e-05
7.8e-05
7.8e-05
7.8e-05
7.8e-05
7.8e-05
7.8e-05
7.8e-05
7.8e-05
7.8e-05
7.8e-05
7.8e-05
7.8e-05
7.8e-05
7.8e-05
7.8e-05
7.8e-05
7.8e-05
7.8e-05
7.8e-05
7.8e-05
7.8e-05
7.8e-05
7.8e-05
7.8e-05
7.8e-05
7.8e-05
7.8e-05
7.8e-05
7.8e-05
7.8e-05
7.8e-05
7.8e-05
7.8e-05
7.8e-05
7.8e-05
7.8e-05
7.8e-05
7.8e-05
7.8e-05
7.8e-05
7.8e-05
7.8e-05
7.8e-05
7.8e-05
7.8e-05
7.8e-05
7.8e-05
7.8e-05
7.8e-05
7.8e-05
7.8e-05
7.8e-05
7.8e-05
7.8e-05
7.8e-05
7.8e-05
7.8e-05
7.8e-05
7.8e-05
7.8e-05
7.8e-05
7.8e-05
7.8e-05
7.8e-05
7.8e-05
7.8e-05
7.8e-05
7.8e-05
7.8e-05
7.8e-05
7.8e-05
7.8e-05
7.8e-05
7.8e-05
7.8e-05
7.8e-05
7.8e-05
7.8e-05
7.8e-05
7.8e-05
7.8e-05
7.8e-05
7.8e-05
7.8e-05
7.8e-05
7.8e-05
7.8e-05
7.8e-05
7.8e-05
7.8e-05
7.8e-05
7.8e-05
7.8e-05
7.8e-05
7.8e-05
7.8e-05
7.8e-05
7.8e-05
7.8e-05
7.8e-05
7.8e-05
7.8e-05
7.8e-05
7.8e-05
7.8e-05
7.8e-05
7.8e-05
7.8e-05
7.8e-05
7.8e-05
7.8e-05
7.8e-05
7.8e-05
7.8e-05
7.8e-05
7.8e-05
7.8e-05
7.8e-05
7.8e-05
7.8e-05
7.8e-05
7.8e-05
7.8e-05
7.8e-05
7.8e-05
7.8e-05
7.8e-05
7.8e-05
7.8e-05
7.8e-05
7.8e-05
7.8e-05
7.8e-05
7.8e-05
7.8e-05
7.8e-05
7.8e-05
7.8e-05
7.8e-05
7.8e-05
7.8e-05
7.8e-05
7.8e-05
7.8e-05
7.8e-05
7.8e-05
7.8e-05
7.8e-05
7.8e-05
7.8e-05
7.8e-05
7.8e-05
7.8e-05
7.8e-05
7.8e-05
7.8e-05
7.8e-05
7.8e-05
7.8e-05
7.8e-05
7.8e-05
7.8e-05
7.8e-05
7.8e-05
7.8e-05
7.8e-05
7.8e-05
7.8e-05
7.8e-05
7.8e-05
7.8e-05
7.8e-05
7.8e-05
7.8e-05
7.8e-05
7.8e-05
7.8e-05
7.8e-05
7.8e-05
7.8e-05
7.8e-05
7.8e-05
7.8e-05
7.8e-05
7.8e-05
7.8e-05
7.8e-05
7.8e-05
7.8e-05
7.8e-05
7.8e-05
7.8e-05
7.8e-05
7.8e-05
7.8e-05
7.8e-05
7.8e-05
7.8e-05
7.8e-05
7.8e-05
7.8e-05
7.8e-05
7.8e-05
7.8e-05
7.8e-05
7.8e-05
7.8e-05
7.8e-05
7.8e-05
7.8e-05
7.8e-05
7.8e-05
7.8e-05
7.8e-05
7.8e-05
7.8e-05
7.8e-05
7.8e-05
7.8e-05
7.8e-05
7.8e-05
7.8e-05
7.8e-05
7.8e-05
7.8e-05
7.8e-05
7.8e-05
7.8e-05
7.8e-05
7.8e-05
7.8e-05
7.8e-05
7.8e-05
7.8e-05
7.8e-05
7.8e-05
7.8e-05
7.8e-05
7.8e-05
7.8e-05
7.8e-05
7.8e-05
7.8e-05
7.8e-05
7.8e-05
7.8e-05
7.8e-05
7.8e-05
7.8e-05
7.8e-05
7.8e-05
7.8e-05
7.8e-05
7.8e-05
7.8e-05
7.8e-05
7.8e-05
7.8e-05
7.8e-05
7.8e-05
7.8e-05
7.8e-05
7.8e-05
7.8e-05
7.8e-05
7.8e-05
7.8e-05
7.8e-05
7.8e-05
7.8e-05
7.8e-05
7.8e-05
7.8e-05
7.8e-05
7.8e-05
7.8e-05
7.8e-05
7.8e-05
7.8e-05
7.8e-05
7.8e-05
7.8e-05
7.8e-05
7.8e-05
7.8e-05
7.8e-05
7.8e-05
7.8e-05
7.8e-05
7.8e-05
7.8e-05
7.8e-05
7.8e-05
7.8e-05
7.8e-05
7.8e-05
7.8e-05
7.8e-05
7.8e-05
7.8e-05
7.8e-05
7.8e-05
7.8e-05
7.8e-05
7.8e-05
7.8e-05
7.8e-05
7.8e-05
7.8e-05
7.8e-05
7.8e-05
7.8e-05
7.8e-05
7.8e-05
7.8e-05
7.8e-05
7.8e-05
7.8e-05
7.8e-05
7.8e-05
7.8e-05
7.8e-05
7.8e-05
7.8e-05
7.8e-05
7.8e-05
7.8e-05
7.8e-05
7.8e-05
7.8e-05
7.8e-05
7.8e-05
7.8e-05
7.8e-05
7.8e-05
7.8e-05
7.8e-05
7.8e-05
7.8e-05
7.8e-05
7.8e-05
7.8e-05
7.8e-05
7.8e-05
7.8e-05
7.8e-05
7.8e-05
7.8e-05
7.8e-05
7.8e-05
7.8e-05
7.8e-05
7.8e-05
7.8e-05
7.8e-05
7.8e-05
7.8e-05
7.8e-05
7.8e-05
7.8e-05
7.8e-05
7.8e-05
7.8e-05
7.8e-05
7.8e-05
7.8e-05
7.8e-05
7.8e-05
7.8e-05
7.8e-05
7.8e-05
7.8e-05
7.8e-05
7.8e-05
7.8e-05
7.8e-05
7.8e-05
7.8e-05
7.8e-05
7.8e-05
7.8e-05
7.8e-05
7.8e-05
7.8e-05
7.8e-05
7.8e-05
7.8e-05
7.8e-05
7.8e-05
7.8e-05
7.8e-05
7.8e-05
7.8e-05
7.8e-05
7.8e-05
7.8e-05
7.8e-05
7.8e-05
7.8e-05
7.8e-05
7.8e-05
7.8e-05
7.8e-05
7.8e-05
7.8e-05
7.8e-05
7.8e-05
7.8e-05
7.8e-05
7.8e-05
7.8e-05
7.8e-05
7.8e-05
7.8e-05
7.8e-05
7.8e-05
7.8e-05
7.8e-05
7.8e-05
7.8e-05
7.8e-05
7.8e-05
7.8e-05
7.8e-05
7.8e-05
7.8e-05
7.8e-05
7.8e-05
7.8e-05
7.8e-05
7.8e-05
7.8e-05
7.8e-05
7.8e-05
7.8e-05
7.8e-05
7.8e-05
7.8e-05
7.8e-05
7.8e-05
7.8e-05
7.8e-05
7.8e-05
7.8e-05
7.8e-05
7.8e-05
7.8e-05
7.8e-05
7.8e-05
7.8e-05
7.8e-05
7.8e-05
7.8e-05
7.8e-05
7.8e-05
7.8e-05
7.8e-05
7.8e-05
7.8e-05
7.8e-05
7.8e-05
7.8e-05
7.8e-05
7.8e-05
7.8e-05
7.8e-05
7.8e-05
7.8e-05
7.8e-05
7.8e-05
7.8e-05
7.8e-05
7.8e-05
7.8e-05
7.8e-05
7.8e-05
7.8e-05
7.8e-05
7.8e-05
7.8e-05
7.8e-05
7.8e-05
7.8e-05
7.8e-05
7.8e-05
7.8e-05
7.8e-05
7.8e-05
7.8e-05
7.8e-05
7.8e-05
7.8e-05
7.8e-05
7.8e-05
7.8e-05
7.8e-05
7.8e-05
7.8e-05
7.8e-05
7.8e-05
7.8e-05
7.8e-05
7.8e-05
7.8e-05
7.8e-05
7.8e-05
7.8e-05
7.8e-05
7.8e-05
7.8e-05
7.8e-05
7.8e-05
7.8e-05
7.8e-05
7.8e-05
7.8e-05
7.8e-05
7.8e-05
7.8e-05
7.8e-05
7.8e-05
7.8e-05
7.8e-05
7.8e-05
7.8e-05
7.8e-05
7.8e-05
7.8e-05
7.8e-05
7.8e-05
7.8e-05
7.8e-05
7.8e-05
7.8e-05
7.8e-05
7.8e-05
7.8e-05
7.8e-05
7.8e-05
7.8e-05
7.8e-05
7.8e-05
7.8e-05
7.8e-05
7.8e-05
7.8e-05
7.8e-05
7.8e-05
7.8e-05
7.8e-05
7.8e-05
7.8e-05
7.8e-05
7.8e-05
7.8e-05
7.8e-05
7.8e-05
7.8e-05
7.8e-05
7.8e-05
7.8e-05
7.8e-05
7.8e-05
7.8e-05
7.8e-05
7.8e-05
7.8e-05
7.8e-05
7.8e-05
7.8e-05
7.8e-05
7.8e-05
7.8e-05
7.8e-05
7.8e-05
7.8e-05
7.8e-05
7.8e-05
7.8e-05
7.8e-05
7.8e-05
7.8e-05
7.8e-05
7.8e-05
7.8e-05
7.8e-05
7.8e-05
7.8e-05
7.8e-05
7.8e-05
7.8e-05
7.8e-05
7.8e-05
7.8e-05
7.8e-05
7.8e-05
7.8e-05
7.8e-05
7.8e-05
7.8e-05
7.8e-05
7.8e-05
7.8e-05
7.8e-05
7.8e-05
7.8e-05
7.8e-05
7.8e-05
7.8e-05
7.8e-05
7.8e-05
7.8e-05
7.8e-05
7.8e-05
7.8e-05
7.8e-05
7.8e-05
7.8e-05
7.8e-05
7.8e-05
7.8e-05
7.8e-05
7.8e-05
7.8e-05
7.8e-05
7.8e-05
7.8e-05
7.8e-05
7.8e-05
7.8e-05
7.8e-05
7.8e-05
7.8e-05
7.8e-05
7.8e-05
7.8e-05
7.8e-05
7.8e-05
7.8e-05
7.8e-05
7.8e-05
7.8e-05
7.8e-05
7.8e-05
7.8e-05
7.8e-05
7.8e-05
7.8e-05
7.8e-05
7.8e-05
7.8e-05
7.8e-05
7.8e-05
7.8e-05
7.8e-05
7.8e-05
7.8e-05
7.8e-05
7.8e-05
7.8e-05
7.8e-05
7.8e-05
7.8e-05
7.8e-05
7.8e-05
7.8e-05
7.8e-05
7.8e-05
7.8e-05
7.8e-05
7.8e-05
7.8e-05
7.8e-05
7.8e-05
7.8e-05
7.8e-05
7.8e-05
7.8e-05
7.8e-05
7.8e-05
7.8e-05
7.8e-05
7.8e-05
7.8e-05
7.8e-05
7.8e-05
7.8e-05
7.8e-05
7.8e-05
7.8e-05
7.8e-05
7.8e-05
7.8e-05
7.8e-05
7.8e-05
7.8e-05
7.8e-05
7.8e-05
7.8e-05
7.8e-05
7.8e-05
7.8e-05
7.8e-05
7.8e-05
7.8e-05
7.8e-05
7.8e-05
7.8e-05
7.8e-05
7.8e-05
7.8e-05
7.8e-05
7.8e-05
7.8e-05
7.8e-05
7.8e-05
7.8e-05
7.8e-05
7.8e-05
7.8e-05
7.8e-05
7.8e-05
7.8e-05
7.8e-05
7.8e-05
7.8e-05
7.8e-05
7.8e-05
7.8e-05
7.8e-05
7.8e-05
7.8e-05
7.8e-05
7.8e-05
7.8e-05
7.8e-05
7.8e-05
7.8e-05
7.8e-05
7.8e-05
7.8e-05
7.8e-05
7.8e-05
7.8e-05
7.8e-05
7.8e-05
7.8e-05
7.8e-05
7.8e-05
7.8e-05
7.8e-05
7.8e-05
7.8e-05
7.8e-05
7.8e-05
7.8e-05
7.8e-05
7.8e-05
7.8e-05
7.8e-05
7.8e-05
7.8e-05
7.8e-05
7.8e-05
7.8e-05
7.8e-05
7.8e-05
7.8e-05
7.8e-05
7.8e-05
7.8e-05
7.8e-05
7.8e-05
7.8e-05
7.8e-05
7.8e-05
7.8e-05
7.8e-05
7.8e-05
7.8e-05
7.8e-05
7.8e-05
7.8e-05
7.8e-05
7.8e-05
7.8e-05
7.8e-05
7.8e-05
7.8e-05
7.8e-05
7.8e-05
7.8e-05
7.8e-05
7.8e-05
7.8e-05
7.8e-05
7.8e-05
7.8e-05
7.8e-05
7.8e-05
7.8e-05
7.8e-05
7.8e-05
7.8e-05
7.8e-05
7.8e-05
7.8e-05
7.8e-05
7.8e-05
7.8e-05
7.8e-05
7.8e-05
7.8e-05
7.8e-05
7.8e-05
7.8e-05
7.8e-05
7.8e-05
7.8e-05
7.8e-05
7.8e-05
7.8e-05
7.8e-05
7.8e-05
7.8e-05
7.8e-05
7.8e-05
7.8e-05
7.8e-05
7.8e-05
7.8e-05
7.8e-05
7.8e-05
7.8e-05
7.8e-05
7.8e-05
7.8e-05
7.8e-05
7.8e-05
7.8e-05
7.8e-05
7.8e-05
7.8e-05
7.8e-05
7.8e-05
7.8e-05
7.8e-05
7.8e-05
7.8e-05
7.8e-05
7.8e-05
7.8e-05
7.8e-05
7.8e-05
7.8e-05
7.8e-05
7.8e-05
7.8e-05
7.8e-05
7.8e-05
7.8e-05
7.8e-05
7.8e-05
7.8e-05
7.8e-05
7.8e-05
7.8e-05
7.8e-05
7.8e-05
7.8e-05
7.8e-05
7.8e-05
7.8e-05
7.8e-05
7.8e-05
7.8e-05
7.8e-05
7.8e-05
7.8e-05
7.8e-05
7.8e-05
7.8e-05
7.8e-05
7.8e-05
7.8e-05
7.8e-05
7.8e-05
7.8e-05
7.8e-05
7.8e-05
7.8e-05
7.8e-05
7.8e-05
7.8e-05
7.8e-05
7.8e-05
7.8e-05
7.8e-05
7.8e-05
7.8e-05
7.8e-05
7.8e-05
7.8e-05
7.8e-05
7.8e-05
7.8e-05
7.8e-05
7.8e-05
7.8e-05
7.8e-05
7.8e-05
7.8e-05
7.8e-05
7.8e-05
7.8e-05
7.8e-05
7.8e-05
7.8e-05
7.8e-05
7.8e-05
7.8e-05
7.8e-05
7.8e-05
7.8e-05
7.8e-05
7.8e-05
7.8e-05
7.8e-05
7.8e-05
7.8e-05
7.8e-05
7.8e-05
7.8e-05
7.8e-05
7.8e-05
7.8e-05
7.8e-05
7.8e-05
7.8e-05
7.8e-05
7.8e-05
7.8e-05
7.8e-05
7.8e-05
7.8e-05
7.8e-05
7.8e-05
7.8e-05
7.8e-05
7.8e-05
7.8e-05
7.8e-05
7.8e-05
7.8e-05
7.8e-05
7.8e-05
7.8e-05
7.8e-05
7.8e-05
7.8e-05
7.8e-05
7.8e-05
7.8e-05
7.8e-05
7.8e-05
7.8e-05
7.8e-05
7.8e-05
7.8e-05
7.8e-05
7.8e-05
7.8e-05
7.8e-05
7.8e-05
7.8e-05
7.8e-05
7.8e-05
7.8e-05
7.8e-05
7.8e-05
7.8e-05
7.8e-05
7.8e-05
7.8e-05
7.8e-05
7.8e-05
7.8e-05
7.8e-05
7.8e-05
7.8e-05
7.8e-05
7.8e-05
7.8e-05
7.8e-05
7.8e-05
7.8e-05
7.8e-05
7.8e-05
7.8e-05
7.8e-05
7.8e-05
7.8e-05
7.8e-05
7.8e-05
7.8e-05
7.8e-05
7.8e-05
7.8e-05
7.8e-05
7.8e-05
7.8e-05
7.8e-05
7.8e-05
7.8e-05
7.8e-05
7.8e-05
7.8e-05
7.8e-05
7.8e-05
7.8e-05
7.8e-05
7.8e-05
7.8e-05
7.8e-05
7.8e-05
7.8e-05
7.8e-05
7.8e-05
7.8e-05
7.8e-05
7.8e-05
7.8e-05
7.8e-05
7.8e-05
7.8e-05
7.8e-05
7.8e-05
7.8e-05
7.8e-05
7.8e-05
7.8e-05
7.8e-05
7.8e-05
7.8e-05
7.8e-05
7.8e-05
7.8e-05
7.8e-05
7.8e-05
7.8e-05
7.8e-05
7.8e-05
7.8e-05
7.8e-05
7.8e-05
7.8e-05
7.8e-05
7.8e-05
7.8e-05
7.8e-05
7.8e-05
7.8e-05
7.8e-05
7.8e-05
7.8e-05
7.8e-05
7.8e-05
7.8e-05
7.8e-05
7.8e-05
7.8e-05
7.8e-05
7.8e-05
7.8e-05
7.8e-05
7.8e-05
7.8e-05
7.8e-05
7.8e-05
7.8e-05
7.8e-05
7.8e-05
7.8e-05
7.8e-05
7.8e-05
7.8e-05
7.8e-05
7.8e-05
7.8e-05
7.8e-05
7.8e-05
7.8e-05
7.8e-05
7.8e-05
7.8e-05
7.8e-05
7.8e-05
7.8e-05
7.8e-05
7.8e-05
7.8e-05
7.8e-05
7.8e-05
7.8e-05
7.8e-05
7.8e-05