/*--------------------------------*- C++ -*----------------------------------*\
| =========                 |                                                 |
| \\      /  F ield         | OpenFOAM: The Open Source CFD Toolbox           |
|  \\    /   O peration     | Version:  2406                                  |
|   \\  /    A nd           | Website:  www.openfoam.com                      |
|    \\/     M anipulation  |                                                 |
\*---------------------------------------------------------------------------*/
FoamFile
{
    version     2.0;
    format      ascii;
    arch        "LSB;label=32;scalar=64";
    class       volScalarField;
    location    "2.1";
    object      C;
}
// * * * * * * * * * * * * * * * * * * * * * * * * * * * * * * * * * * * * * //

dimensions      [1 -3 0 0 0 0 0];

internalField   nonuniform List<scalar> 
14400
(
1.45544
1.44901
1.43525
1.40519
1.36423
1.33112
1.31148
1.30757
1.32012
1.34849
1.39049
1.44032
1.47734
1.49745
1.51115
1.5195
1.52282
1.52101
1.51351
1.49877
1.46762
1.4276
1.39792
1.38372
1.38707
1.40873
1.44822
1.50362
1.56924
1.62029
1.65261
1.67935
1.70248
1.72265
1.74033
1.75587
1.76951
1.78146
1.79187
1.80086
1.80853
1.81495
1.82018
1.82428
1.82728
1.82921
1.8301
1.82995
1.82877
1.82657
1.82334
1.81906
1.81373
1.8073
1.79976
1.79105
1.78112
1.76992
1.75735
1.74333
1.72773
1.71041
1.69119
1.66985
1.64609
1.61954
1.58969
1.55591
1.51349
1.44815
1.36808
1.29831
1.24246
1.20183
1.1769
1.16776
1.17424
1.19596
1.23219
1.28138
1.33981
1.38682
1.41409
1.43294
1.44656
1.45572
1.46089
1.46234
1.46017
1.45431
1.44451
1.43031
1.41085
1.37676
1.32904
1.2862
1.2557
1.23999
1.23963
1.25371
1.27955
1.31007
1.32949
1.33406
1.3292
1.30949
1.27851
1.25209
1.2374
1.23719
1.25235
1.28237
1.3248
1.3721
1.40595
1.42545
1.43988
1.45014
1.45673
1.45996
1.46187
1.45617
1.44438
1.42324
1.38814
1.35336
1.33242
1.32805
1.34109
1.3708
1.4145
1.4575
1.48533
1.5036
1.51649
1.52453
1.52796
1.52669
1.52038
1.50833
1.48637
1.45115
1.41996
1.40467
1.40763
1.4298
1.47045
1.52741
1.58604
1.62723
1.65717
1.68297
1.70544
1.72514
1.74248
1.75776
1.77121
1.783
1.79329
1.80219
1.80977
1.81613
1.82132
1.82538
1.82835
1.83026
1.83113
1.83097
1.8298
1.8276
1.82438
1.82012
1.81481
1.80842
1.80092
1.79226
1.7824
1.77128
1.75881
1.7449
1.72945
1.71231
1.69332
1.67227
1.64888
1.62282
1.59364
1.56071
1.52293
1.46742
1.3906
1.32024
1.26331
1.22191
1.19656
1.18736
1.19414
1.21653
1.25378
1.30375
1.35912
1.3973
1.42056
1.43816
1.45101
1.4597
1.46461
1.46597
1.46386
1.45824
1.44892
1.43553
1.41748
1.39176
1.35192
1.3078
1.27599
1.25985
1.26002
1.27556
1.3029
1.3278
1.33992
1.34347
1.33957
1.32711
1.3018
1.27387
1.25771
1.25693
1.2725
1.30379
1.34744
1.38686
1.4124
1.43048
1.44406
1.4538
1.46009
1.46319
1.47399
1.46945
1.46032
1.44668
1.42469
1.39484
1.37278
1.36763
1.3815
1.41225
1.45046
1.47949
1.49945
1.51514
1.52667
1.53418
1.53778
1.53742
1.533
1.52435
1.51147
1.48968
1.46148
1.44527
1.4475
1.47057
1.51204
1.56523
1.60765
1.63861
1.66586
1.6899
1.71116
1.72999
1.74669
1.76148
1.77455
1.78605
1.79611
1.80481
1.81225
1.81849
1.82358
1.82756
1.83048
1.83234
1.83319
1.83302
1.83184
1.82966
1.82646
1.82224
1.81698
1.81066
1.80324
1.79468
1.78495
1.77398
1.76169
1.74802
1.73285
1.71606
1.69751
1.67701
1.65435
1.62923
1.60133
1.57019
1.53526
1.49387
1.43506
1.36367
1.30452
1.26173
1.23561
1.22632
1.23365
1.25713
1.29627
1.34694
1.38712
1.41276
1.43266
1.44815
1.45963
1.46746
1.47188
1.47306
1.47106
1.46586
1.45738
1.44543
1.42978
1.41023
1.3836
1.34782
1.31489
1.29815
1.29917
1.31641
1.33744
1.35096
1.35804
1.36033
1.35761
1.3501
1.33615
1.31461
1.2967
1.29502
1.31112
1.34349
1.37871
1.40498
1.42438
1.44
1.45209
1.4609
1.46666
1.4695
1.49065
1.48731
1.48077
1.4715
1.46055
1.4448
1.42875
1.4228
1.43751
1.46183
1.48476
1.50218
1.51784
1.53084
1.54085
1.54776
1.55155
1.55222
1.54984
1.54458
1.53694
1.52806
1.51412
1.50228
1.5033
1.52781
1.56448
1.59968
1.62742
1.65367
1.67777
1.69962
1.71931
1.73698
1.7528
1.76692
1.77946
1.79054
1.80027
1.8087
1.81593
1.82199
1.82694
1.83082
1.83365
1.83546
1.83626
1.83607
1.83489
1.83272
1.82956
1.82539
1.82021
1.81398
1.80669
1.79828
1.78874
1.77799
1.76598
1.75263
1.73787
1.72158
1.70365
1.68393
1.66226
1.63844
1.61225
1.58346
1.55184
1.5173
1.47722
1.42425
1.36414
1.32036
1.29332
1.28391
1.29193
1.31601
1.35603
1.39022
1.41373
1.433
1.44918
1.46213
1.47191
1.47863
1.4824
1.48333
1.48145
1.47678
1.46931
1.45903
1.44598
1.43041
1.41304
1.39183
1.36785
1.35126
1.35257
1.36255
1.37131
1.37699
1.38096
1.38221
1.38044
1.37595
1.36973
1.36044
1.34983
1.34782
1.36367
1.387
1.40771
1.42478
1.44013
1.45307
1.46339
1.47106
1.47614
1.47866
1.51067
1.50835
1.50395
1.49798
1.49142
1.48578
1.48056
1.47928
1.48878
1.50124
1.51362
1.52662
1.53888
1.54954
1.55814
1.56446
1.56843
1.57007
1.56955
1.56719
1.56364
1.56
1.55803
1.55691
1.56244
1.58154
1.60413
1.62599
1.64865
1.67088
1.69194
1.71151
1.72946
1.74582
1.76061
1.77392
1.78583
1.7964
1.80571
1.81381
1.82076
1.82661
1.83138
1.83512
1.83784
1.83957
1.84032
1.84011
1.83892
1.83678
1.83366
1.82957
1.82448
1.81838
1.81124
1.80303
1.79372
1.78326
1.77159
1.75867
1.74441
1.72874
1.71157
1.6928
1.67231
1.65001
1.62577
1.59955
1.57134
1.54137
1.51022
1.47686
1.43606
1.39506
1.36725
1.35775
1.3664
1.38715
1.40966
1.42642
1.44189
1.45633
1.46893
1.47929
1.48724
1.49273
1.49578
1.4964
1.49463
1.49049
1.48405
1.47539
1.46471
1.45239
1.43917
1.42623
1.41375
1.40287
1.40034
1.40074
1.40233
1.40474
1.40659
1.40709
1.40599
1.40353
1.40049
1.39825
1.3972
1.399
1.40913
1.421
1.43346
1.44628
1.45829
1.46876
1.47733
1.48382
1.48817
1.49034
1.533
1.53149
1.52869
1.52506
1.52136
1.51863
1.51812
1.52068
1.52529
1.53264
1.54186
1.5518
1.56151
1.57029
1.5777
1.58351
1.58763
1.59009
1.5911
1.591
1.59041
1.59025
1.59179
1.5966
1.60576
1.61806
1.63364
1.65147
1.67032
1.68924
1.7076
1.72499
1.74123
1.75621
1.76991
1.78234
1.79353
1.80352
1.81236
1.82007
1.8267
1.83229
1.83686
1.84043
1.84303
1.84467
1.84536
1.84511
1.84393
1.8418
1.83874
1.83473
1.82976
1.82381
1.81686
1.80888
1.79985
1.78973
1.77847
1.76603
1.75236
1.7374
1.72109
1.70337
1.68419
1.6635
1.64129
1.61761
1.59261
1.56663
1.54027
1.51449
1.49
1.4644
1.44352
1.43363
1.43541
1.44321
1.45081
1.46048
1.47109
1.4815
1.49091
1.49885
1.50502
1.50929
1.51157
1.51186
1.51016
1.50652
1.50101
1.49378
1.48507
1.47527
1.46501
1.4551
1.44653
1.44004
1.43517
1.4329
1.43253
1.43304
1.43358
1.43359
1.4329
1.43167
1.43047
1.43012
1.43165
1.43576
1.44155
1.44949
1.45883
1.4686
1.47798
1.48635
1.49335
1.49873
1.50237
1.5042
1.55683
1.55591
1.55425
1.55221
1.55033
1.54927
1.54973
1.55211
1.55625
1.56215
1.56936
1.57721
1.58507
1.59241
1.59887
1.60425
1.60847
1.61157
1.61374
1.6153
1.61676
1.61881
1.62228
1.62802
1.63654
1.64757
1.66089
1.67592
1.6919
1.70817
1.72421
1.73965
1.75425
1.76788
1.78048
1.79199
1.80243
1.8118
1.82012
1.82741
1.83369
1.83899
1.84333
1.84671
1.84917
1.85071
1.85133
1.85105
1.84986
1.84777
1.84477
1.84086
1.83602
1.83024
1.82351
1.81579
1.80708
1.79733
1.78652
1.77463
1.7616
1.74741
1.73202
1.71542
1.69758
1.67851
1.65828
1.63699
1.61487
1.59227
1.56974
1.54806
1.52818
1.51123
1.49793
1.48891
1.48445
1.48434
1.48782
1.49358
1.5005
1.50766
1.51438
1.52017
1.52471
1.52782
1.52937
1.52931
1.52764
1.52441
1.51969
1.51365
1.50651
1.49863
1.49048
1.48263
1.47568
1.47005
1.46581
1.46317
1.46185
1.46132
1.46108
1.46079
1.46033
1.45981
1.45958
1.46013
1.46198
1.46544
1.47033
1.47658
1.48377
1.49133
1.49867
1.50533
1.51098
1.51537
1.51837
1.51989
1.58159
1.58108
1.5802
1.5792
1.57846
1.5784
1.57943
1.58178
1.58545
1.59036
1.59622
1.60263
1.60914
1.6154
1.62113
1.62616
1.63043
1.63399
1.63699
1.6397
1.64252
1.64593
1.65049
1.65668
1.66479
1.67477
1.68644
1.69941
1.7132
1.72734
1.74142
1.75513
1.76824
1.7806
1.79211
1.80273
1.8124
1.82113
1.82891
1.83576
1.84167
1.84666
1.85074
1.85393
1.85623
1.85766
1.85821
1.85789
1.8567
1.85465
1.85172
1.84791
1.84322
1.83763
1.83113
1.8237
1.81533
1.80599
1.79567
1.78435
1.772
1.75861
1.74418
1.72869
1.71218
1.69469
1.67632
1.65721
1.6376
1.61783
1.59837
1.57984
1.56291
1.54831
1.53661
1.5282
1.52323
1.52151
1.52254
1.52552
1.52966
1.53427
1.53877
1.54273
1.54585
1.5479
1.54876
1.54837
1.5467
1.54378
1.5397
1.5346
1.52869
1.52226
1.51565
1.50927
1.50351
1.49866
1.49484
1.49213
1.49038
1.48931
1.48864
1.48816
1.48781
1.48766
1.4879
1.48882
1.4907
1.49369
1.49774
1.50272
1.50836
1.51426
1.52003
1.52533
1.52985
1.53341
1.53585
1.53709
1.60685
1.60662
1.60625
1.60593
1.60591
1.60645
1.6078
1.61011
1.61341
1.61762
1.62255
1.62792
1.63347
1.63892
1.64408
1.64883
1.65311
1.65696
1.66053
1.664
1.66769
1.67192
1.67706
1.68341
1.69116
1.7003
1.71069
1.72209
1.73416
1.74657
1.759
1.77121
1.78298
1.79416
1.80466
1.81439
1.82332
1.83141
1.83865
1.84503
1.85056
1.85523
1.85905
1.86203
1.86417
1.86548
1.86595
1.86559
1.86441
1.86239
1.85954
1.85585
1.85132
1.84593
1.83968
1.83255
1.82454
1.81564
1.80583
1.7951
1.78344
1.77087
1.75738
1.743
1.72777
1.71176
1.6951
1.67792
1.66048
1.64307
1.62609
1.61
1.5953
1.5825
1.57199
1.56405
1.55875
1.55595
1.5553
1.55629
1.55836
1.56098
1.5637
1.56614
1.56804
1.56918
1.56942
1.5687
1.56699
1.56431
1.56073
1.55637
1.5514
1.54605
1.54059
1.53529
1.53044
1.52623
1.52278
1.52013
1.51822
1.51689
1.51599
1.51541
1.5151
1.51511
1.51554
1.51657
1.51832
1.52088
1.52421
1.52821
1.53267
1.53732
1.54188
1.54608
1.5497
1.55256
1.55454
1.55554
1.63234
1.63229
1.63226
1.63237
1.63279
1.63368
1.63521
1.63746
1.64047
1.64416
1.64841
1.65306
1.65789
1.66274
1.66745
1.67195
1.6762
1.68023
1.68414
1.6881
1.6923
1.69699
1.70241
1.70876
1.71614
1.72456
1.73393
1.74408
1.75477
1.76576
1.77682
1.78772
1.7983
1.80841
1.81796
1.82686
1.83507
1.84253
1.84924
1.85516
1.8603
1.86465
1.86821
1.87097
1.87295
1.87413
1.87453
1.87413
1.87295
1.87097
1.8682
1.86463
1.86026
1.85509
1.8491
1.84229
1.83466
1.82619
1.81689
1.80676
1.7958
1.78403
1.77146
1.75814
1.74413
1.7295
1.71437
1.69891
1.68333
1.66789
1.65291
1.63876
1.6258
1.61439
1.60481
1.59726
1.59177
1.58824
1.58643
1.58598
1.5865
1.58759
1.5889
1.59011
1.59098
1.59134
1.59105
1.59003
1.58825
1.58574
1.58253
1.57874
1.57449
1.56996
1.56536
1.56088
1.55672
1.55303
1.54991
1.5474
1.54547
1.54404
1.54304
1.54239
1.54208
1.54213
1.5426
1.54357
1.54513
1.54729
1.55002
1.55324
1.55679
1.56047
1.56408
1.56742
1.57031
1.5726
1.57419
1.575
1.65788
1.65795
1.65813
1.65851
1.65919
1.66028
1.66189
1.66406
1.66683
1.67013
1.67389
1.67799
1.6823
1.68668
1.69105
1.69533
1.69951
1.70361
1.70772
1.71194
1.71642
1.72134
1.72684
1.73307
1.74008
1.74788
1.7564
1.76553
1.77509
1.7849
1.79478
1.80455
1.81408
1.82323
1.83191
1.84003
1.84755
1.85442
1.8606
1.86608
1.87084
1.87486
1.87816
1.88071
1.88251
1.88357
1.88389
1.88346
1.88227
1.88034
1.87766
1.87422
1.87002
1.86506
1.85934
1.85285
1.8456
1.83758
1.82879
1.81926
1.80898
1.79799
1.78631
1.77399
1.7611
1.74772
1.73398
1.72002
1.70604
1.69225
1.67892
1.66632
1.65474
1.64444
1.63561
1.6284
1.62282
1.61881
1.61619
1.6147
1.61407
1.614
1.61419
1.61441
1.61445
1.61415
1.61339
1.61211
1.61026
1.60785
1.60493
1.60156
1.59786
1.59396
1.59
1.58614
1.58252
1.57926
1.57644
1.57409
1.57221
1.57076
1.56972
1.56903
1.5687
1.56873
1.56915
1.57
1.57133
1.57312
1.57535
1.57794
1.58077
1.5837
1.58656
1.58921
1.59151
1.59334
1.59461
1.59526
1.68335
1.68349
1.6838
1.68434
1.68517
1.68637
1.68799
1.69008
1.69265
1.69565
1.69904
1.70272
1.70662
1.71064
1.71472
1.71881
1.72289
1.727
1.73118
1.73552
1.74012
1.7451
1.75056
1.75659
1.76322
1.77047
1.77827
1.78654
1.79515
1.80397
1.81284
1.82164
1.83024
1.83852
1.8464
1.85381
1.86069
1.86699
1.87267
1.87772
1.8821
1.88581
1.88884
1.89118
1.89282
1.89376
1.894
1.89353
1.89235
1.89047
1.88787
1.88456
1.88053
1.8758
1.87034
1.86418
1.8573
1.84972
1.84145
1.83249
1.82288
1.81263
1.80179
1.79041
1.77855
1.76631
1.75381
1.74116
1.72855
1.71615
1.70419
1.69287
1.68241
1.673
1.66481
1.6579
1.65232
1.64799
1.64481
1.64258
1.64109
1.64012
1.63946
1.63889
1.63826
1.63742
1.63627
1.63475
1.63282
1.63048
1.62776
1.62472
1.62143
1.618
1.61454
1.61116
1.60797
1.60506
1.6025
1.60031
1.59851
1.59709
1.59604
1.59533
1.59495
1.59493
1.59526
1.59597
1.59706
1.59852
1.60033
1.6024
1.60465
1.60698
1.60925
1.61136
1.61318
1.61464
1.61565
1.61617
1.70868
1.70886
1.70925
1.70988
1.71078
1.71202
1.71363
1.71563
1.71802
1.72078
1.72388
1.72724
1.73082
1.73455
1.73838
1.74228
1.74625
1.75031
1.75448
1.75883
1.76343
1.76837
1.7737
1.77949
1.78576
1.7925
1.79967
1.80721
1.81501
1.82298
1.83099
1.83893
1.8467
1.85421
1.86137
1.86812
1.8744
1.88017
1.88538
1.89001
1.89404
1.89745
1.90022
1.90235
1.90383
1.90465
1.90481
1.90431
1.90314
1.9013
1.89879
1.89561
1.89176
1.88725
1.88206
1.87621
1.86971
1.86256
1.85478
1.84639
1.8374
1.82786
1.81781
1.80729
1.79639
1.78518
1.77376
1.76227
1.75084
1.73963
1.72881
1.71855
1.70902
1.70037
1.6927
1.68609
1.68055
1.67604
1.67246
1.6697
1.66759
1.66595
1.66462
1.66344
1.66227
1.66099
1.65952
1.6578
1.65579
1.65349
1.65092
1.64812
1.64514
1.64207
1.63899
1.63599
1.63314
1.63052
1.62817
1.62614
1.62443
1.62306
1.62201
1.62128
1.62087
1.62077
1.62099
1.62154
1.62241
1.62359
1.62503
1.62668
1.62847
1.63031
1.63211
1.63378
1.63523
1.63638
1.63719
1.6376
1.73382
1.73403
1.73446
1.73513
1.73607
1.73731
1.73888
1.74078
1.74302
1.74559
1.74844
1.75155
1.75486
1.75835
1.76197
1.7657
1.76953
1.77349
1.7776
1.78189
1.78642
1.79124
1.7964
1.80192
1.80782
1.8141
1.82071
1.82761
1.83471
1.84194
1.84919
1.85639
1.86343
1.87024
1.87676
1.8829
1.88863
1.8939
1.89867
1.90291
1.90659
1.90971
1.91224
1.91417
1.91549
1.9162
1.91629
1.91576
1.91459
1.9128
1.91038
1.90734
1.90366
1.89936
1.89444
1.88891
1.88277
1.87604
1.86873
1.86087
1.85249
1.84361
1.83429
1.82457
1.81453
1.80424
1.7938
1.78332
1.77291
1.76271
1.75286
1.7435
1.73476
1.72674
1.71954
1.7132
1.70775
1.70314
1.69932
1.69618
1.69361
1.69147
1.68963
1.68798
1.68638
1.68476
1.68302
1.68113
1.67905
1.67678
1.67431
1.67169
1.66895
1.66616
1.66337
1.66066
1.65808
1.65569
1.65353
1.65164
1.65002
1.6487
1.64766
1.64692
1.64646
1.64629
1.6464
1.6468
1.64746
1.64838
1.64951
1.65081
1.65223
1.65368
1.6551
1.65642
1.65756
1.65848
1.65911
1.65944
1.75876
1.75898
1.75942
1.76011
1.76105
1.76227
1.76378
1.7656
1.76771
1.7701
1.77275
1.77565
1.77874
1.78201
1.78544
1.789
1.79269
1.79653
1.80053
1.80471
1.80912
1.81378
1.81872
1.82396
1.82951
1.83536
1.84147
1.8478
1.85429
1.86087
1.86746
1.87399
1.88039
1.88658
1.8925
1.8981
1.90332
1.90813
1.91248
1.91636
1.91972
1.92256
1.92486
1.9266
1.92777
1.92837
1.92839
1.92783
1.92668
1.92494
1.92261
1.91969
1.91618
1.91209
1.90743
1.9022
1.89641
1.89008
1.88323
1.87588
1.86806
1.8598
1.85116
1.84217
1.83291
1.82346
1.81388
1.80428
1.79477
1.78545
1.77643
1.76784
1.75976
1.7523
1.74551
1.73944
1.73409
1.72946
1.72548
1.72209
1.71919
1.71668
1.71447
1.71245
1.71053
1.70863
1.70668
1.70466
1.70251
1.70024
1.69786
1.69537
1.69282
1.69024
1.68768
1.6852
1.68283
1.68063
1.67863
1.67686
1.67532
1.67405
1.67303
1.67226
1.67176
1.67152
1.67153
1.67178
1.67226
1.67296
1.67383
1.67484
1.67594
1.67708
1.67819
1.67923
1.68013
1.68085
1.68135
1.68161
1.78348
1.7837
1.78415
1.78483
1.78576
1.78694
1.78839
1.79011
1.7921
1.79435
1.79683
1.79954
1.80244
1.80553
1.80877
1.81217
1.81571
1.81941
1.82327
1.82731
1.83156
1.83603
1.84074
1.8457
1.85091
1.85636
1.86201
1.86783
1.87378
1.87978
1.88579
1.89173
1.89755
1.90318
1.90857
1.91367
1.91843
1.92281
1.92678
1.93031
1.93337
1.93595
1.93803
1.93959
1.94062
1.94112
1.94108
1.94049
1.93935
1.93766
1.93541
1.93262
1.92928
1.9254
1.92099
1.91605
1.9106
1.90465
1.89823
1.89136
1.88407
1.87639
1.86836
1.86005
1.8515
1.84279
1.83398
1.82517
1.81643
1.80787
1.79958
1.79165
1.78416
1.77718
1.77076
1.76495
1.75974
1.75512
1.75106
1.7475
1.74438
1.74161
1.73912
1.73682
1.73465
1.73254
1.73043
1.72829
1.7261
1.72383
1.7215
1.71912
1.7167
1.71429
1.71191
1.70961
1.70742
1.70538
1.70351
1.70183
1.70037
1.69913
1.69813
1.69735
1.69681
1.6965
1.69641
1.69653
1.69685
1.69735
1.69801
1.69878
1.69962
1.7005
1.70137
1.70217
1.70288
1.70344
1.70383
1.70403
1.80797
1.80819
1.80863
1.8093
1.8102
1.81134
1.81273
1.81436
1.81624
1.81835
1.82069
1.82323
1.82596
1.82888
1.83196
1.83519
1.83858
1.84212
1.84583
1.84971
1.85377
1.85804
1.86251
1.86719
1.87207
1.87714
1.88238
1.88774
1.8932
1.8987
1.90418
1.9096
1.9149
1.92003
1.92494
1.92958
1.93391
1.9379
1.94152
1.94473
1.94751
1.94985
1.95172
1.95311
1.95401
1.95441
1.95431
1.9537
1.95257
1.95093
1.94877
1.9461
1.94293
1.93925
1.93507
1.93041
1.92528
1.9197
1.91368
1.90726
1.90046
1.89331
1.88586
1.87816
1.87025
1.86221
1.85409
1.84597
1.83792
1.83003
1.82237
1.81502
1.80804
1.80149
1.79542
1.78984
1.78478
1.78022
1.77613
1.77248
1.76921
1.76626
1.76357
1.76107
1.75871
1.75644
1.75421
1.75198
1.74975
1.74749
1.7452
1.7429
1.74059
1.73831
1.73607
1.73392
1.73186
1.72994
1.72818
1.72659
1.72519
1.72399
1.723
1.72221
1.72163
1.72125
1.72107
1.72108
1.72126
1.7216
1.72207
1.72264
1.72327
1.72394
1.7246
1.72522
1.72576
1.7262
1.7265
1.72666
1.83225
1.83246
1.83289
1.83354
1.83441
1.8355
1.83682
1.83837
1.84014
1.84213
1.84433
1.84673
1.84931
1.85206
1.85498
1.85806
1.86129
1.86467
1.86821
1.87192
1.87579
1.87984
1.88407
1.88847
1.89304
1.89776
1.90261
1.90756
1.91258
1.91762
1.92264
1.92758
1.93242
1.93709
1.94157
1.94579
1.94974
1.95337
1.95666
1.95958
1.9621
1.96421
1.96588
1.96712
1.96789
1.96821
1.96805
1.96742
1.96631
1.96471
1.96264
1.96009
1.95707
1.95358
1.94964
1.94524
1.94042
1.93518
1.92954
1.92354
1.91719
1.91054
1.90362
1.89647
1.88915
1.8817
1.8742
1.8667
1.85926
1.85196
1.84485
1.83801
1.83149
1.82533
1.81957
1.81423
1.80933
1.80485
1.80077
1.79708
1.79372
1.79065
1.78782
1.78518
1.78269
1.7803
1.77797
1.77569
1.77342
1.77117
1.76892
1.76668
1.76446
1.76228
1.76015
1.75811
1.75617
1.75435
1.75268
1.75116
1.74981
1.74864
1.74766
1.74686
1.74624
1.74581
1.74555
1.74546
1.74552
1.74572
1.74603
1.74643
1.74689
1.74738
1.74788
1.74834
1.74875
1.74908
1.74932
1.74943
1.85631
1.85652
1.85693
1.85755
1.85838
1.85943
1.86068
1.86215
1.86383
1.86571
1.86778
1.87004
1.87248
1.87508
1.87785
1.88077
1.88384
1.88706
1.89043
1.89396
1.89763
1.90147
1.90545
1.90958
1.91386
1.91825
1.92275
1.92732
1.93194
1.93656
1.94116
1.94568
1.9501
1.95436
1.95844
1.96229
1.96588
1.96919
1.97217
1.97481
1.9771
1.97899
1.98049
1.98158
1.98224
1.98248
1.98227
1.98162
1.98052
1.97898
1.97699
1.97455
1.97168
1.96838
1.96465
1.96051
1.95597
1.95105
1.94577
1.94015
1.93423
1.92803
1.92159
1.91495
1.90816
1.90126
1.89431
1.88735
1.88046
1.87368
1.86707
1.86069
1.85457
1.84877
1.8433
1.83819
1.83345
1.82907
1.82504
1.82134
1.81793
1.81479
1.81188
1.80914
1.80656
1.80409
1.8017
1.79937
1.79709
1.79484
1.79262
1.79043
1.78828
1.78619
1.78415
1.78221
1.78036
1.77862
1.77702
1.77556
1.77426
1.77311
1.77213
1.77132
1.77067
1.77019
1.76986
1.76968
1.76964
1.76972
1.76989
1.77015
1.77047
1.77082
1.77118
1.77152
1.77182
1.77207
1.77224
1.77233
1.88017
1.88037
1.88076
1.88136
1.88215
1.88314
1.88433
1.88572
1.88731
1.88908
1.89104
1.89317
1.89548
1.89794
1.90056
1.90333
1.90624
1.9093
1.9125
1.91584
1.91932
1.92294
1.92669
1.93056
1.93455
1.93864
1.94281
1.94703
1.95129
1.95554
1.95975
1.96389
1.96793
1.97182
1.97554
1.97904
1.98231
1.98531
1.98802
1.99042
1.99247
1.99418
1.99551
1.99646
1.99702
1.99718
1.99693
1.99626
1.99518
1.99369
1.99178
1.98945
1.98672
1.98359
1.98007
1.97617
1.9719
1.96728
1.96233
1.95708
1.95155
1.94577
1.93977
1.93359
1.92728
1.92087
1.91441
1.90795
1.90155
1.89524
1.88907
1.8831
1.87735
1.87187
1.86667
1.86178
1.8572
1.85294
1.84897
1.8453
1.84189
1.83872
1.83575
1.83296
1.83032
1.82779
1.82537
1.82301
1.82072
1.81848
1.81629
1.81415
1.81206
1.81003
1.80807
1.8062
1.80442
1.80276
1.80122
1.79981
1.79854
1.79741
1.79644
1.79561
1.79494
1.79441
1.79403
1.79377
1.79364
1.79361
1.79368
1.79382
1.79402
1.79425
1.79449
1.79474
1.79495
1.79513
1.79525
1.79532
1.90383
1.90402
1.90439
1.90496
1.90571
1.90666
1.90779
1.9091
1.9106
1.91228
1.91412
1.91614
1.91831
1.92064
1.92312
1.92574
1.9285
1.9314
1.93443
1.93758
1.94087
1.94427
1.94779
1.95142
1.95514
1.95895
1.96281
1.96672
1.97064
1.97454
1.97841
1.9822
1.98589
1.98945
1.99284
1.99604
1.99901
2.00174
2.00419
2.00636
2.00821
2.00973
2.01091
2.01174
2.0122
2.01229
2.012
2.01132
2.01026
2.00881
2.00698
2.00476
2.00217
1.9992
1.99587
1.99219
1.98817
1.98384
1.9792
1.97428
1.96911
1.96372
1.95812
1.95237
1.94649
1.94052
1.93452
1.9285
1.92253
1.91664
1.91088
1.90527
1.89986
1.89468
1.88973
1.88505
1.88064
1.8765
1.87262
1.869
1.86561
1.86243
1.85945
1.85663
1.85396
1.8514
1.84895
1.84659
1.8443
1.84208
1.83991
1.83781
1.83577
1.8338
1.8319
1.83009
1.82838
1.82677
1.82528
1.82391
1.82267
1.82156
1.82059
1.81976
1.81906
1.81849
1.81806
1.81774
1.81753
1.81742
1.81739
1.81743
1.81753
1.81766
1.81782
1.81797
1.81812
1.81824
1.81833
1.81837
1.9273
1.92748
1.92783
1.92837
1.92909
1.92998
1.93105
1.9323
1.93371
1.93529
1.93704
1.93894
1.941
1.9432
1.94554
1.94802
1.95063
1.95336
1.95622
1.9592
1.96229
1.96549
1.96879
1.97218
1.97566
1.97919
1.98277
1.98638
1.99
1.99359
1.99714
2.00062
2.004
2.00724
2.01034
2.01325
2.01595
2.01843
2.02065
2.0226
2.02427
2.02563
2.02667
2.02738
2.02775
2.02778
2.02745
2.02677
2.02573
2.02432
2.02256
2.02045
2.01798
2.01517
2.01202
2.00855
2.00477
2.0007
1.99635
1.99174
1.9869
1.98186
1.97664
1.97127
1.96579
1.96022
1.95462
1.94901
1.94343
1.93793
1.93252
1.92725
1.92215
1.91724
1.91254
1.90806
1.90381
1.8998
1.89602
1.89246
1.88911
1.88595
1.88297
1.88015
1.87747
1.87491
1.87246
1.87009
1.86781
1.86561
1.86347
1.86141
1.85941
1.85749
1.85565
1.85389
1.85223
1.85067
1.84922
1.84789
1.84667
1.84558
1.84461
1.84377
1.84305
1.84245
1.84196
1.84159
1.84132
1.84113
1.84103
1.84099
1.84101
1.84106
1.84113
1.84122
1.84131
1.84138
1.84144
1.84147
1.95059
1.95076
1.9511
1.95161
1.95228
1.95313
1.95414
1.95532
1.95666
1.95815
1.9598
1.96159
1.96353
1.96561
1.96782
1.97016
1.97262
1.97521
1.9779
1.9807
1.98361
1.98661
1.9897
1.99287
1.9961
1.99939
2.00271
2.00605
2.00938
2.01269
2.01595
2.01914
2.02223
2.02519
2.02802
2.03067
2.03313
2.03537
2.03738
2.03914
2.04063
2.04184
2.04275
2.04336
2.04365
2.04362
2.04327
2.04258
2.04155
2.04019
2.0385
2.03648
2.03413
2.03147
2.02849
2.02522
2.02166
2.01783
2.01375
2.00943
2.0049
2.00018
1.9953
1.99028
1.98516
1.97997
1.97473
1.96949
1.96427
1.95911
1.95403
1.94907
1.94425
1.93959
1.93512
1.93083
1.92675
1.92287
1.91919
1.91571
1.91242
1.9093
1.90634
1.90354
1.90087
1.89831
1.89587
1.89352
1.89125
1.88907
1.88696
1.88493
1.88298
1.8811
1.87931
1.8776
1.87598
1.87446
1.87305
1.87174
1.87055
1.86946
1.8685
1.86765
1.86691
1.86628
1.86576
1.86534
1.86502
1.86477
1.8646
1.8645
1.86444
1.86443
1.86444
1.86447
1.86451
1.86455
1.86457
1.86459
1.97371
1.97387
1.97419
1.97467
1.97531
1.97611
1.97707
1.97818
1.97944
1.98085
1.98241
1.9841
1.98593
1.98789
1.98997
1.99218
1.9945
1.99693
1.99947
2.0021
2.00483
2.00764
2.01053
2.01349
2.0165
2.01955
2.02262
2.02571
2.02879
2.03183
2.03483
2.03775
2.04058
2.04329
2.04586
2.04828
2.05051
2.05254
2.05436
2.05594
2.05728
2.05835
2.05914
2.05966
2.05987
2.05979
2.05941
2.05871
2.05771
2.05639
2.05477
2.05284
2.05061
2.04808
2.04527
2.04218
2.03882
2.03522
2.03138
2.02733
2.02308
2.01866
2.01409
2.0094
2.00461
1.99975
1.99485
1.98994
1.98504
1.9802
1.97542
1.97074
1.96619
1.96177
1.9575
1.9534
1.94948
1.94573
1.94216
1.93877
1.93555
1.93248
1.92957
1.92679
1.92414
1.92161
1.91918
1.91685
1.91461
1.91245
1.91038
1.90838
1.90647
1.90463
1.90288
1.90121
1.89963
1.89815
1.89677
1.89548
1.89431
1.89324
1.89227
1.89142
1.89066
1.89001
1.88946
1.889
1.88863
1.88834
1.88811
1.88795
1.88784
1.88777
1.88773
1.88771
1.88771
1.88772
1.88772
1.88773
1.99666
1.99681
1.99712
1.99758
1.99818
1.99894
1.99984
2.00089
2.00208
2.00341
2.00487
2.00647
2.00819
2.01004
2.01201
2.01408
2.01627
2.01855
2.02094
2.02341
2.02597
2.0286
2.03129
2.03405
2.03685
2.03968
2.04253
2.04538
2.04822
2.05102
2.05378
2.05646
2.05905
2.06152
2.06387
2.06607
2.0681
2.06994
2.07157
2.07299
2.07418
2.07513
2.07582
2.07624
2.07639
2.07627
2.07586
2.07516
2.07418
2.0729
2.07134
2.0695
2.06737
2.06497
2.06231
2.05939
2.05623
2.05284
2.04923
2.04543
2.04144
2.0373
2.03301
2.02861
2.02413
2.01957
2.01498
2.01037
2.00577
2.00121
1.99671
1.9923
1.98798
1.98378
1.97972
1.9758
1.97203
1.96842
1.96496
1.96166
1.95852
1.95551
1.95265
1.94991
1.9473
1.94479
1.94239
1.94009
1.93788
1.93576
1.93371
1.93175
1.92987
1.92807
1.92636
1.92473
1.92319
1.92174
1.92038
1.91912
1.91796
1.9169
1.91594
1.91508
1.91432
1.91365
1.91307
1.91258
1.91217
1.91183
1.91156
1.91135
1.91119
1.91108
1.911
1.91094
1.9109
1.91088
1.91087
1.91087
2.01947
2.01961
2.0199
2.02033
2.0209
2.02161
2.02246
2.02345
2.02458
2.02583
2.02721
2.02871
2.03034
2.03207
2.03392
2.03588
2.03793
2.04008
2.04231
2.04463
2.04702
2.04948
2.052
2.05457
2.05717
2.0598
2.06243
2.06507
2.06769
2.07027
2.0728
2.07526
2.07763
2.07989
2.08203
2.08403
2.08587
2.08753
2.08901
2.09028
2.09133
2.09216
2.09276
2.0931
2.09319
2.09303
2.0926
2.0919
2.09093
2.0897
2.0882
2.08643
2.08441
2.08214
2.07961
2.07686
2.07387
2.07068
2.06728
2.0637
2.05996
2.05607
2.05205
2.04792
2.04371
2.03943
2.03512
2.03079
2.02647
2.02217
2.01792
2.01375
2.00966
2.00567
2.00179
1.99805
1.99443
1.99095
1.98761
1.9844
1.98134
1.9784
1.9756
1.97291
1.97034
1.96788
1.96551
1.96324
1.96107
1.95897
1.95697
1.95504
1.9532
1.95143
1.94975
1.94816
1.94665
1.94523
1.9439
1.94266
1.94152
1.94046
1.93951
1.93864
1.93787
1.93719
1.93659
1.93607
1.93563
1.93526
1.93495
1.9347
1.93451
1.93435
1.93423
1.93415
1.93408
1.93404
1.93402
1.934
2.04213
2.04226
2.04253
2.04294
2.04348
2.04415
2.04495
2.04588
2.04694
2.04812
2.04942
2.05084
2.05236
2.054
2.05573
2.05757
2.0595
2.06151
2.06361
2.06578
2.06801
2.07031
2.07266
2.07504
2.07746
2.0799
2.08234
2.08478
2.08719
2.08956
2.09189
2.09414
2.09631
2.09838
2.10033
2.10214
2.10381
2.10531
2.10664
2.10778
2.10871
2.10944
2.10994
2.11021
2.11025
2.11005
2.1096
2.1089
2.10796
2.10676
2.10532
2.10363
2.1017
2.09954
2.09715
2.09454
2.09172
2.08871
2.08551
2.08214
2.07862
2.07496
2.07118
2.06731
2.06335
2.05933
2.05528
2.0512
2.04713
2.04308
2.03907
2.03511
2.03123
2.02744
2.02374
2.02016
2.01669
2.01334
2.01011
2.00701
2.00403
2.00117
1.99843
1.9958
1.99328
1.99086
1.98853
1.9863
1.98416
1.98211
1.98014
1.97825
1.97644
1.97471
1.97307
1.9715
1.97002
1.96863
1.96732
1.96611
1.96497
1.96393
1.96298
1.96211
1.96134
1.96064
1.96002
1.95948
1.95902
1.95862
1.95828
1.958
1.95777
1.95759
1.95744
1.95733
1.95724
1.95718
1.95714
1.95713
2.06465
2.06478
2.06503
2.06541
2.06592
2.06656
2.06731
2.06819
2.06918
2.07029
2.07151
2.07285
2.07428
2.07582
2.07745
2.07917
2.08098
2.08287
2.08483
2.08686
2.08895
2.09109
2.09327
2.09549
2.09774
2.09999
2.10225
2.1045
2.10673
2.10891
2.11105
2.11311
2.1151
2.11698
2.11876
2.12041
2.12192
2.12327
2.12446
2.12547
2.1263
2.12693
2.12735
2.12756
2.12755
2.12731
2.12685
2.12615
2.12523
2.12407
2.12268
2.12107
2.11923
2.11717
2.11491
2.11244
2.10977
2.10693
2.10391
2.10074
2.09742
2.09398
2.09042
2.08677
2.08305
2.07927
2.07545
2.07161
2.06777
2.06394
2.06015
2.0564
2.05272
2.04911
2.04558
2.04215
2.03882
2.0356
2.03249
2.02949
2.0266
2.02382
2.02114
2.01858
2.01611
2.01374
2.01146
2.00927
2.00717
2.00516
2.00322
2.00137
1.9996
1.99791
1.99629
1.99476
1.99331
1.99194
1.99066
1.98946
1.98834
1.98731
1.98636
1.9855
1.98472
1.98401
1.98338
1.98283
1.98234
1.98192
1.98156
1.98125
1.98099
1.98078
1.98061
1.98048
1.98038
1.9803
1.98025
1.98023
2.08704
2.08716
2.0874
2.08776
2.08824
2.08884
2.08955
2.09037
2.09131
2.09235
2.0935
2.09475
2.0961
2.09754
2.09907
2.10068
2.10238
2.10414
2.10598
2.10787
2.10982
2.11182
2.11385
2.11592
2.118
2.12009
2.12218
2.12425
2.1263
2.12831
2.13027
2.13216
2.13398
2.1357
2.13731
2.13881
2.14017
2.14139
2.14246
2.14336
2.14408
2.14463
2.14497
2.14512
2.14507
2.1448
2.14433
2.14364
2.14273
2.14161
2.14027
2.13873
2.13697
2.13502
2.13286
2.13052
2.128
2.12531
2.12247
2.11947
2.11635
2.1131
2.10975
2.10632
2.10281
2.09925
2.09564
2.09202
2.08839
2.08477
2.08118
2.07763
2.07413
2.07069
2.06733
2.06405
2.06085
2.05776
2.05476
2.05186
2.04906
2.04636
2.04376
2.04125
2.03884
2.03653
2.0343
2.03216
2.0301
2.02812
2.02623
2.02442
2.02268
2.02102
2.01944
2.01794
2.01652
2.01517
2.01391
2.01273
2.01163
2.01061
2.00967
2.0088
2.00802
2.00731
2.00667
2.0061
2.0056
2.00516
2.00477
2.00445
2.00417
2.00394
2.00375
2.0036
2.00348
2.00339
2.00334
2.00331
2.10932
2.10943
2.10966
2.10999
2.11044
2.111
2.11167
2.11245
2.11333
2.11431
2.11538
2.11656
2.11782
2.11917
2.12061
2.12212
2.1237
2.12535
2.12707
2.12884
2.13065
2.13251
2.1344
2.13632
2.13825
2.14018
2.14211
2.14403
2.14592
2.14776
2.14956
2.15129
2.15295
2.15452
2.15599
2.15734
2.15858
2.15967
2.16062
2.16142
2.16205
2.16251
2.1628
2.16289
2.1628
2.16251
2.16202
2.16133
2.16045
2.15936
2.15807
2.15659
2.15492
2.15305
2.15101
2.14879
2.1464
2.14386
2.14117
2.13834
2.13539
2.13233
2.12917
2.12593
2.12262
2.11926
2.11586
2.11244
2.10901
2.10558
2.10218
2.0988
2.09547
2.0922
2.08899
2.08585
2.08279
2.07981
2.07692
2.07412
2.07141
2.0688
2.06627
2.06383
2.06149
2.05922
2.05705
2.05496
2.05294
2.05101
2.04916
2.04738
2.04568
2.04406
2.04251
2.04104
2.03964
2.03832
2.03708
2.03592
2.03483
2.03382
2.03289
2.03203
2.03124
2.03053
2.02988
2.0293
2.02879
2.02833
2.02794
2.02759
2.0273
2.02705
2.02684
2.02668
2.02655
2.02645
2.02639
2.02636
2.13147
2.13158
2.13179
2.13211
2.13253
2.13306
2.13369
2.13442
2.13524
2.13616
2.13717
2.13827
2.13946
2.14072
2.14206
2.14348
2.14496
2.1465
2.1481
2.14975
2.15144
2.15317
2.15493
2.15671
2.15849
2.16028
2.16207
2.16383
2.16557
2.16727
2.16891
2.1705
2.17201
2.17344
2.17478
2.176
2.17711
2.1781
2.17894
2.17964
2.18019
2.18058
2.1808
2.18085
2.18072
2.18041
2.17991
2.17923
2.17836
2.17731
2.17607
2.17465
2.17305
2.17127
2.16933
2.16722
2.16496
2.16255
2.16
2.15733
2.15455
2.15165
2.14867
2.14561
2.14249
2.13931
2.1361
2.13286
2.12961
2.12637
2.12314
2.11993
2.11676
2.11364
2.11058
2.10757
2.10464
2.10178
2.099
2.0963
2.09368
2.09114
2.08869
2.08633
2.08404
2.08184
2.07972
2.07767
2.07571
2.07382
2.072