/*--------------------------------*- C++ -*----------------------------------*\
| =========                 |                                                 |
| \\      /  F ield         | OpenFOAM: The Open Source CFD Toolbox           |
|  \\    /   O peration     | Version:  2406                                  |
|   \\  /    A nd           | Website:  www.openfoam.com                      |
|    \\/     M anipulation  |                                                 |
\*---------------------------------------------------------------------------*/
FoamFile
{
    version     2.0;
    format      ascii;
    arch        "LSB;label=32;scalar=64";
    class       volScalarField;
    location    "2.1";
    object      C_0_0;
}
// * * * * * * * * * * * * * * * * * * * * * * * * * * * * * * * * * * * * * //

dimensions      [1 -3 0 0 0 0 0];

internalField   nonuniform List<scalar> 
14400
(
1.46839
1.46201
1.44841
1.41862
1.37765
1.3443
1.32445
1.32046
1.33307
1.36164
1.40383
1.45361
1.49031
1.51023
1.52387
1.5322
1.53553
1.53376
1.52636
1.51187
1.48101
1.44095
1.41106
1.39664
1.39989
1.42156
1.46114
1.5166
1.58202
1.63253
1.66446
1.69103
1.71401
1.73406
1.75163
1.76706
1.78062
1.79249
1.80282
1.81175
1.81936
1.82573
1.83092
1.83498
1.83795
1.83986
1.84072
1.84055
1.83937
1.83716
1.83393
1.82966
1.82433
1.81792
1.8104
1.80171
1.79182
1.78065
1.76813
1.75416
1.73862
1.72137
1.70223
1.68097
1.6573
1.63086
1.60114
1.56749
1.52562
1.46093
1.38072
1.31062
1.25448
1.21366
1.18864
1.17951
1.18611
1.20806
1.24461
1.29417
1.35279
1.39936
1.42625
1.44499
1.45853
1.46763
1.47276
1.47419
1.47201
1.46616
1.4564
1.44225
1.42288
1.38918
1.34165
1.29851
1.26779
1.252
1.25173
1.26608
1.29227
1.32283
1.34197
1.3465
1.34167
1.32223
1.29121
1.26442
1.24947
1.24915
1.26437
1.2946
1.33732
1.38443
1.41787
1.43727
1.45164
1.46185
1.46842
1.47163
1.47478
1.46912
1.45739
1.43655
1.40177
1.36672
1.34551
1.34105
1.35418
1.38414
1.42807
1.47067
1.49814
1.51633
1.52917
1.53719
1.54062
1.5394
1.53317
1.52123
1.49965
1.46478
1.43331
1.41774
1.42058
1.44278
1.48362
1.54073
1.59865
1.63922
1.66898
1.69462
1.71695
1.73653
1.75376
1.76894
1.7823
1.79402
1.80424
1.81307
1.8206
1.82691
1.83205
1.83607
1.83901
1.8409
1.84175
1.84157
1.84039
1.83819
1.83497
1.83071
1.82541
1.81904
1.81155
1.80292
1.79309
1.782
1.76958
1.75572
1.74033
1.72326
1.70434
1.68337
1.66008
1.63413
1.60507
1.57229
1.53479
1.47994
1.40344
1.33271
1.27547
1.23388
1.20846
1.19927
1.20617
1.22877
1.26636
1.3168
1.37194
1.40958
1.43269
1.45019
1.46296
1.47159
1.47646
1.4778
1.47569
1.47007
1.46078
1.44745
1.42946
1.40401
1.36451
1.3202
1.28816
1.27195
1.27221
1.28801
1.31562
1.34036
1.35232
1.35585
1.35196
1.33965
1.31451
1.2863
1.26986
1.26898
1.2846
1.31611
1.35993
1.39902
1.42428
1.44228
1.45581
1.4655
1.47177
1.47485
1.48682
1.4823
1.47321
1.45962
1.43799
1.40845
1.38606
1.38083
1.39478
1.42584
1.46364
1.49227
1.51216
1.52779
1.53928
1.54678
1.55038
1.55005
1.54568
1.5371
1.5243
1.50291
1.47508
1.45853
1.46065
1.48376
1.52545
1.57794
1.61974
1.65052
1.67762
1.70151
1.72264
1.74135
1.75794
1.77264
1.78562
1.79705
1.80703
1.81568
1.82306
1.82925
1.8343
1.83825
1.84113
1.84297
1.84379
1.84361
1.84242
1.84023
1.83703
1.83282
1.82757
1.82126
1.81386
1.80533
1.79563
1.78469
1.77245
1.75883
1.74371
1.72699
1.70851
1.6881
1.66552
1.64051
1.61272
1.58172
1.54694
1.50603
1.44793
1.37636
1.31693
1.27399
1.24784
1.23856
1.24597
1.26962
1.30901
1.35988
1.39958
1.42493
1.44473
1.46012
1.47154
1.47931
1.4837
1.48486
1.48285
1.47767
1.46921
1.4573
1.44171
1.42223
1.39593
1.36045
1.32723
1.31042
1.31153
1.32908
1.34997
1.36327
1.37033
1.3726
1.36988
1.36239
1.34866
1.32725
1.30901
1.30724
1.3234
1.35604
1.39096
1.41689
1.43621
1.45176
1.4638
1.47257
1.4783
1.48113
1.50338
1.50004
1.49353
1.48429
1.47337
1.45796
1.44208
1.43618
1.45084
1.47492
1.49746
1.51482
1.53043
1.54339
1.55337
1.56027
1.56405
1.56474
1.56239
1.55718
1.54959
1.54076
1.5272
1.51556
1.51661
1.54103
1.57719
1.6118
1.63939
1.66549
1.68945
1.71117
1.73074
1.7483
1.76402
1.77805
1.79051
1.80152
1.81117
1.81955
1.82672
1.83274
1.83765
1.84149
1.84428
1.84607
1.84685
1.84664
1.84545
1.84328
1.84012
1.83596
1.83078
1.82457
1.81729
1.80891
1.7994
1.78868
1.77671
1.76342
1.74871
1.73248
1.71462
1.69498
1.67339
1.64967
1.62359
1.59492
1.56344
1.52904
1.48956
1.43722
1.37685
1.33303
1.30603
1.29665
1.30467
1.32884
1.36901
1.4028
1.42589
1.44506
1.46116
1.47403
1.48375
1.49043
1.49417
1.49508
1.49319
1.48853
1.48108
1.47084
1.45783
1.44231
1.42499
1.40409
1.38027
1.36373
1.365
1.37493
1.38347
1.38915
1.39311
1.39435
1.39258
1.38809
1.38187
1.37279
1.36222
1.36023
1.37602
1.3992
1.41959
1.43659
1.45188
1.46477
1.47505
1.48269
1.48774
1.49025
1.52327
1.52096
1.51657
1.51063
1.50408
1.49846
1.49345
1.49226
1.50161
1.51383
1.52617
1.53913
1.55135
1.56198
1.57055
1.57686
1.58082
1.58248
1.58197
1.57964
1.57611
1.57249
1.57054
1.56966
1.57521
1.59405
1.61624
1.63796
1.6605
1.6826
1.70354
1.72299
1.74084
1.75709
1.77179
1.78502
1.79684
1.80734
1.81659
1.82463
1.83153
1.83733
1.84206
1.84576
1.84846
1.85016
1.85089
1.85066
1.84947
1.84732
1.8442
1.84011
1.83503
1.82894
1.82182
1.81364
1.80436
1.79393
1.7823
1.76942
1.75522
1.73961
1.7225
1.70381
1.6834
1.66119
1.63705
1.61093
1.58285
1.553
1.52197
1.48914
1.44875
1.40812
1.38054
1.37107
1.37953
1.3999
1.42211
1.43851
1.45391
1.46827
1.4808
1.4911
1.49901
1.50446
1.50748
1.50809
1.50631
1.50218
1.49576
1.48712
1.47647
1.46419
1.45101
1.43811
1.42581
1.41506
1.41248
1.41274
1.41434
1.41676
1.41861
1.4191
1.418
1.41553
1.41249
1.41023
1.4093
1.41114
1.42114
1.43281
1.44523
1.458
1.46996
1.48039
1.48893
1.49539
1.49972
1.50189
1.54547
1.54397
1.54117
1.53756
1.53386
1.53114
1.5306
1.53313
1.53774
1.54507
1.55426
1.56418
1.57386
1.58261
1.59
1.5958
1.5999
1.60237
1.60338
1.60329
1.60271
1.60255
1.60406
1.60881
1.61789
1.6301
1.64558
1.6633
1.68204
1.70086
1.7191
1.7364
1.75254
1.76742
1.78103
1.79338
1.8045
1.81443
1.8232
1.83086
1.83744
1.84298
1.84751
1.85105
1.85362
1.85523
1.8559
1.85564
1.85445
1.85232
1.84926
1.84525
1.84029
1.83435
1.82742
1.81946
1.81046
1.80037
1.78915
1.77675
1.76313
1.74823
1.73198
1.71433
1.69523
1.67462
1.6525
1.62891
1.60402
1.57814
1.55188
1.5262
1.50198
1.47671
1.45607
1.44623
1.44786
1.45538
1.46278
1.4724
1.48296
1.49332
1.50268
1.51057
1.5167
1.52094
1.5232
1.52348
1.52178
1.51814
1.51264
1.50543
1.49674
1.48697
1.47674
1.46686
1.4583
1.45183
1.447
1.44476
1.4444
1.44492
1.44546
1.44547
1.44477
1.44354
1.44232
1.44195
1.44345
1.44752
1.45328
1.46119
1.4705
1.48023
1.48957
1.49791
1.50488
1.51023
1.51386
1.51568
1.56918
1.56826
1.5666
1.56456
1.56268
1.56162
1.56207
1.56443
1.56856
1.57444
1.58163
1.58946
1.59729
1.60461
1.61105
1.61642
1.62062
1.62372
1.62588
1.62744
1.62889
1.63092
1.63436
1.64005
1.6485
1.65945
1.67269
1.68763
1.70351
1.71969
1.73563
1.75097
1.76548
1.77903
1.79154
1.80299
1.81335
1.82266
1.83092
1.83816
1.84439
1.84965
1.85395
1.8573
1.85973
1.86124
1.86184
1.86155
1.86035
1.85826
1.85526
1.85135
1.84652
1.84075
1.83403
1.82634
1.81765
1.80793
1.79717
1.78531
1.77233
1.75819
1.74286
1.72632
1.70855
1.68956
1.6694
1.6482
1.62616
1.60365
1.58121
1.55961
1.53979
1.52285
1.50959
1.50062
1.49619
1.49613
1.4996
1.50534
1.51223
1.51935
1.52603
1.53179
1.5363
1.53938
1.54091
1.54085
1.53918
1.53594
1.53124
1.52521
1.51809
1.51023
1.5021
1.49428
1.48734
1.48173
1.47751
1.4749
1.47359
1.47307
1.47283
1.47254
1.47207
1.47154
1.4713
1.47183
1.47365
1.47708
1.48195
1.48817
1.49534
1.50286
1.51017
1.51681
1.52243
1.52681
1.52979
1.5313
1.5938
1.59329
1.59241
1.59141
1.59067
1.5906
1.59162
1.59395
1.59761
1.60251
1.60835
1.61474
1.62123
1.62747
1.63318
1.6382
1.64246
1.646
1.64899
1.65169
1.65449
1.65788
1.6624
1.66854
1.67659
1.68651
1.6981
1.71099
1.7247
1.73875
1.75274
1.76637
1.77939
1.79168
1.80312
1.81366
1.82327
1.83194
1.83967
1.84646
1.85232
1.85727
1.86132
1.86448
1.86675
1.86815
1.86869
1.86835
1.86716
1.8651
1.86217
1.85837
1.85368
1.8481
1.84162
1.83421
1.82586
1.81656
1.80627
1.79499
1.78268
1.76934
1.75496
1.73953
1.72309
1.70567
1.68736
1.66832
1.64879
1.62909
1.60971
1.59123
1.57436
1.5598
1.54813
1.53976
1.53482
1.53313
1.53416
1.53712
1.54125
1.54583
1.55031
1.55424
1.55734
1.55937
1.56022
1.55982
1.55814
1.55523
1.55116
1.54607
1.54017
1.53376
1.52717
1.52081
1.51506
1.51023
1.50643
1.50373
1.50199
1.50092
1.50026
1.49978
1.49943
1.49926
1.49949
1.5004
1.50226
1.50522
1.50925
1.51421
1.51982
1.5257
1.53145
1.53672
1.54123
1.54477
1.5472
1.54844
1.61892
1.61869
1.61833
1.618
1.61797
1.61851
1.61985
1.62215
1.62544
1.62963
1.63454
1.6399
1.64543
1.65086
1.65601
1.66073
1.665
1.66884
1.67239
1.67585
1.67951
1.68371
1.68882
1.69513
1.70282
1.71189
1.72222
1.73354
1.74554
1.75787
1.77023
1.78236
1.79405
1.80516
1.81559
1.82526
1.83413
1.84216
1.84935
1.85568
1.86117
1.8658
1.86959
1.87254
1.87465
1.87594
1.87639
1.87602
1.87483
1.8728
1.86995
1.86626
1.86174
1.85636
1.85012
1.84302
1.83503
1.82616
1.81638
1.80568
1.79407
1.78154
1.7681
1.75377
1.7386
1.72265
1.70605
1.68894
1.67157
1.65422
1.6373
1.62126
1.60661
1.59385
1.58338
1.57547
1.57019
1.56741
1.56677
1.56775
1.56981
1.57242
1.57512
1.57755
1.57942
1.58055
1.58078
1.58006
1.57834
1.57566
1.57209
1.56774
1.56278
1.55745
1.552
1.54672
1.54188
1.53768
1.53425
1.53161
1.5297
1.52838
1.52749
1.52691
1.52659
1.52659
1.52702
1.52802
1.52976
1.5323
1.53562
1.53959
1.54403
1.54866
1.5532
1.55739
1.56099
1.56384
1.5658
1.56681
1.64428
1.64423
1.6442
1.64431
1.64472
1.6456
1.64712
1.64937
1.65236
1.65603
1.66027
1.6649
1.66972
1.67455
1.67925
1.68373
1.68796
1.69197
1.69587
1.6998
1.70398
1.70864
1.71402
1.72033
1.72766
1.73602
1.74533
1.75542
1.76604
1.77696
1.78795
1.79878
1.80929
1.81934
1.82882
1.83767
1.84581
1.85323
1.85988
1.86576
1.87086
1.87517
1.8787
1.88144
1.88338
1.88455
1.88492
1.88452
1.88332
1.88134
1.87857
1.875
1.87064
1.86548
1.8595
1.85271
1.8451
1.83666
1.82739
1.81729
1.80637
1.79464
1.78212
1.76885
1.75488
1.74031
1.72524
1.70984
1.69431
1.67893
1.664
1.64989
1.63698
1.6256
1.61606
1.60854
1.60307
1.59956
1.59775
1.59731
1.59782
1.59891
1.6002
1.6014
1.60226
1.60261
1.60231
1.60129
1.59951
1.597
1.5938
1.59001
1.58577
1.58126
1.57666
1.57219
1.56805
1.56437
1.56126
1.55876
1.55683
1.55541
1.55441
1.55376
1.55345
1.55349
1.55395
1.55492
1.55646
1.5586
1.56132
1.56452
1.56805
1.57172
1.57531
1.57864
1.58151
1.58379
1.58537
1.58618
1.66969
1.66975
1.66993
1.67031
1.67098
1.67207
1.67366
1.67583
1.67858
1.68188
1.68562
1.68971
1.69399
1.69836
1.70271
1.70697
1.71114
1.71522
1.71931
1.7235
1.72796
1.73285
1.73832
1.7445
1.75146
1.75921
1.76768
1.77675
1.78625
1.79599
1.80581
1.81552
1.82499
1.83408
1.84269
1.85077
1.85823
1.86505
1.87119
1.87662
1.88134
1.88533
1.88859
1.89112
1.8929
1.89394
1.89424
1.89379
1.8926
1.89067
1.88798
1.88454
1.88035
1.8754
1.86969
1.86322
1.85599
1.84799
1.83924
1.82973
1.81949
1.80853
1.79689
1.78462
1.77177
1.75845
1.74476
1.73085
1.71692
1.70318
1.68989
1.67734
1.6658
1.65553
1.64673
1.63955
1.63399
1.62999
1.62738
1.6259
1.62527
1.62519
1.62538
1.62559
1.62562
1.62532
1.62456
1.62327
1.62142
1.61901
1.61609
1.61273
1.60904
1.60514
1.6012
1.59735
1.59374
1.59049
1.58768
1.58533
1.58346
1.58202
1.58097
1.58029
1.57995
1.57997
1.58038
1.58123
1.58254
1.58433
1.58654
1.58912
1.59193
1.59484
1.59769
1.60033
1.60262
1.60444
1.60571
1.60635
1.69502
1.69516
1.69547
1.696
1.69683
1.69802
1.69964
1.70172
1.70427
1.70726
1.71063
1.7143
1.71819
1.72219
1.72625
1.73032
1.73439
1.73847
1.74263
1.74695
1.75152
1.75647
1.7619
1.76788
1.77448
1.78168
1.78943
1.79764
1.8062
1.81496
1.82378
1.83252
1.84105
1.84928
1.85711
1.86447
1.8713
1.87755
1.88319
1.8882
1.89255
1.89623
1.89923
1.90154
1.90316
1.90408
1.9043
1.90382
1.90263
1.90074
1.89814
1.89483
1.89081
1.88608
1.88064
1.87449
1.86764
1.86008
1.85183
1.8429
1.83332
1.82311
1.8123
1.80096
1.78915
1.77695
1.76449
1.75189
1.73932
1.72697
1.71505
1.70376
1.69334
1.68397
1.6758
1.66892
1.66336
1.65905
1.65587
1.65365
1.65216
1.6512
1.65053
1.64996
1.64932
1.64848
1.64733
1.64581
1.64388
1.64154
1.63883
1.63579
1.63251
1.62908
1.62563
1.62226
1.61908
1.61618
1.61362
1.61144
1.60965
1.60823
1.60718
1.60646
1.60609
1.60606
1.60638
1.60708
1.60816
1.60962
1.61141
1.61347
1.61571
1.61802
1.62029
1.62238
1.6242
1.62565
1.62666
1.62717
1.72022
1.7204
1.72079
1.72141
1.72231
1.72354
1.72514
1.72713
1.72951
1.73226
1.73534
1.73869
1.74226
1.74597
1.74978
1.75367
1.75762
1.76165
1.7658
1.77013
1.77471
1.77961
1.78491
1.79066
1.79689
1.80359
1.81071
1.8182
1.82595
1.83386
1.84182
1.84971
1.85743
1.86489
1.872
1.87871
1.88494
1.89066
1.89583
1.90043
1.90442
1.9078
1.91054
1.91265
1.91411
1.91491
1.91506
1.91454
1.91337
1.91152
1.90901
1.90583
1.90199
1.89748
1.8923
1.88647
1.87999
1.87286
1.8651
1.85673
1.84778
1.83827
1.82825
1.81777
1.8069
1.79573
1.78436
1.7729
1.76151
1.75034
1.73956
1.72933
1.71984
1.71121
1.70357
1.69698
1.69146
1.68697
1.68341
1.68065
1.67854
1.67691
1.67558
1.67439
1.67322
1.67194
1.67047
1.66875
1.66675
1.66445
1.66188
1.65908
1.65612
1.65305
1.64998
1.64698
1.64414
1.64152
1.63918
1.63716
1.63545
1.63408
1.63303
1.6323
1.63189
1.63178
1.632
1.63255
1.63341
1.63457
1.636
1.63764
1.63942
1.64126
1.64305
1.64471
1.64615
1.6473
1.6481
1.64851
1.74523
1.74544
1.74586
1.74653
1.74746
1.7487
1.75026
1.75215
1.75439
1.75694
1.75978
1.76287
1.76617
1.76964
1.77324
1.77695
1.78077
1.78471
1.78879
1.79306
1.79756
1.80236
1.80748
1.81297
1.81883
1.82507
1.83164
1.83849
1.84554
1.85272
1.85993
1.86707
1.87407
1.88084
1.8873
1.89341
1.89909
1.90432
1.90905
1.91326
1.91691
1.92
1.9225
1.92441
1.92571
1.92641
1.92648
1.92593
1.92476
1.92297
1.92055
1.9175
1.91383
1.90953
1.90462
1.8991
1.89298
1.88627
1.87898
1.87115
1.86279
1.85394
1.84465
1.83497
1.82496
1.81471
1.8043
1.79385
1.78348
1.77332
1.76351
1.75417
1.74546
1.73747
1.73029
1.72398
1.71854
1.71395
1.71014
1.70701
1.70444
1.70231
1.70048
1.69882
1.69723
1.6956
1.69387
1.69198
1.6899
1.68763
1.68517
1.68255
1.67982
1.67703
1.67425
1.67155
1.66897
1.66659
1.66443
1.66254
1.66093
1.65961
1.65857
1.65783
1.65737
1.65719
1.6573
1.65769
1.65835
1.65926
1.66038
1.66168
1.66308
1.66453
1.66594
1.66725
1.66839
1.6693
1.66993
1.67026
1.77004
1.77025
1.7707
1.77138
1.77232
1.77353
1.77504
1.77684
1.77894
1.78132
1.78396
1.78684
1.78992
1.79318
1.79659
1.80013
1.80381
1.80762
1.8116
1.81576
1.82014
1.82477
1.82968
1.83489
1.8404
1.84621
1.85228
1.85857
1.86502
1.87155
1.8781
1.88459
1.89094
1.89709
1.90297
1.90852
1.91371
1.91848
1.9228
1.92664
1.92997
1.93278
1.93506
1.93677
1.93793
1.93851
1.93852
1.93795
1.93679
1.93504
1.93271
1.92979
1.92629
1.92221
1.91755
1.91233
1.90656
1.90025
1.89342
1.88609
1.87829
1.87006
1.86144
1.85249
1.84326
1.83383
1.82429
1.81472
1.80524
1.79595
1.78697
1.7784
1.77035
1.76291
1.75615
1.7501
1.74477
1.74015
1.73618
1.7328
1.72991
1.72741
1.7252
1.72318
1.72126
1.71936
1.71742
1.7154
1.71326
1.71099
1.70861
1.70613
1.70358
1.701
1.69845
1.69597
1.69362
1.69142
1.68942
1.68765
1.68612
1.68484
1.68382
1.68306
1.68256
1.68231
1.68232
1.68257
1.68304
1.68373
1.6846
1.6856
1.6867
1.68783
1.68893
1.68996
1.69086
1.69157
1.69207
1.69233
1.79463
1.79485
1.79529
1.79597
1.79689
1.79807
1.79952
1.80123
1.80321
1.80544
1.80791
1.81061
1.8135
1.81657
1.8198
1.82318
1.8267
1.83038
1.83421
1.83823
1.84245
1.8469
1.85158
1.85651
1.86168
1.86709
1.87271
1.87849
1.8844
1.89036
1.89633
1.90223
1.90801
1.9136
1.91895
1.92401
1.92874
1.93308
1.93702
1.94052
1.94356
1.94611
1.94816
1.9497
1.95072
1.9512
1.95114
1.95054
1.94939
1.9477
1.94545
1.94266
1.93933
1.93545
1.93105
1.92612
1.92068
1.91475
1.90835
1.90149
1.89422
1.88657
1.87857
1.87028
1.86176
1.85308
1.8443
1.83551
1.82681
1.81828
1.81001
1.80211
1.79464
1.78768
1.78129
1.77549
1.7703
1.7657
1.76165
1.7581
1.75498
1.75222
1.74974
1.74744
1.74527
1.74316
1.74106
1.73893
1.73674
1.73448
1.73215
1.72977
1.72736
1.72495
1.72258
1.72028
1.7181
1.71605
1.71419
1.71252
1.71106
1.70982
1.70882
1.70804
1.7075
1.70718
1.70709
1.70721
1.70753
1.70802
1.70867
1.70943
1.71027
1.71115
1.71201
1.71281
1.71351
1.71407
1.71446
1.71466
1.81899
1.81921
1.81965
1.82031
1.82121
1.82235
1.82373
1.82535
1.82722
1.82932
1.83164
1.83417
1.83689
1.83979
1.84285
1.84607
1.84944
1.85297
1.85665
1.86051
1.86455
1.86879
1.87323
1.87788
1.88273
1.88776
1.89297
1.8983
1.90371
1.90917
1.91462
1.92
1.92527
1.93036
1.93523
1.93984
1.94414
1.9481
1.95168
1.95486
1.95762
1.95993
1.96178
1.96315
1.96404
1.96442
1.96431
1.96369
1.96255
1.9609
1.95875
1.95608
1.9529
1.94923
1.94506
1.94041
1.93529
1.92972
1.92372
1.91732
1.91054
1.90341
1.89599
1.88831
1.88043
1.87241
1.86431
1.85622
1.8482
1.84034
1.8327
1.82537
1.81841
1.81189
1.80583
1.80028
1.79523
1.79068
1.78661
1.78297
1.7797
1.77676
1.77407
1.77158
1.76923
1.76696
1.76473
1.76251
1.76028
1.75802
1.75574
1.75344
1.75114
1.74886
1.74663
1.74448
1.74243
1.74051
1.73875
1.73717
1.73577
1.73457
1.73358
1.73279
1.73221
1.73183
1.73165
1.73165
1.73183
1.73216
1.73262
1.73319
1.73382
1.73448
1.73514
1.73575
1.73629
1.73672
1.73703
1.73718
1.84314
1.84336
1.84378
1.84442
1.84529
1.84638
1.84769
1.84923
1.851
1.85298
1.85516
1.85755
1.86011
1.86285
1.86576
1.86882
1.87203
1.87539
1.87891
1.8826
1.88645
1.89047
1.89467
1.89904
1.90358
1.90827
1.91309
1.91801
1.92299
1.928
1.93298
1.93789
1.94269
1.94733
1.95177
1.95597
1.95988
1.96349
1.96674
1.96963
1.97213
1.97422
1.97587
1.97709
1.97785
1.97815
1.97798
1.97734
1.97622
1.97462
1.97255
1.97
1.96698
1.96349
1.95955
1.95517
1.95036
1.94513
1.93951
1.93352
1.92719
1.92056
1.91366
1.90653
1.89923
1.89181
1.88433
1.87685
1.86944
1.86216
1.85508
1.84826
1.84176
1.83562
1.82988
1.82456
1.81967
1.8152
1.81114
1.80745
1.8041
1.80104
1.79822
1.79558
1.7931
1.79071
1.78839
1.78611
1.78385
1.7816
1.77935
1.77711
1.7749
1.77272
1.77061
1.76857
1.76663
1.76482
1.76314
1.76163
1.76028
1.75911
1.75813
1.75733
1.75671
1.75628
1.75602
1.75592
1.75598
1.75617
1.75648
1.75687
1.75733
1.75782
1.75831
1.75878
1.75918
1.75951
1.75974
1.75986
1.86708
1.86729
1.8677
1.86831
1.86914
1.87018
1.87143
1.87289
1.87456
1.87642
1.87849
1.88074
1.88316
1.88575
1.8885
1.89141
1.89446
1.89766
1.90101
1.90452
1.90817
1.91198
1.91594
1.92004
1.92429
1.92865
1.93312
1.93766
1.94225
1.94684
1.9514
1.95589
1.96028
1.96451
1.96856
1.97238
1.97594
1.97922
1.98218
1.98479
1.98705
1.98893
1.99041
1.99148
1.99213
1.99234
1.99213
1.99147
1.99036
1.98882
1.98682
1.98439
1.98152
1.97822
1.97449
1.97036
1.96583
1.96092
1.95566
1.95006
1.94415
1.93797
1.93155
1.92493
1.91816
1.91128
1.90435
1.89742
1.89054
1.88379
1.8772
1.87084
1.86474
1.85895
1.8535
1.84841
1.84368
1.83931
1.83529
1.8316
1.82821
1.82508
1.82217
1.81944
1.81686
1.81439
1.81201
1.80969
1.80741
1.80516
1.80295
1.80076
1.79862
1.79653
1.7945
1.79255
1.79071
1.78898
1.78738
1.78592
1.78462
1.78347
1.78249
1.78168
1.78103
1.78055
1.78022
1.78004
1.77999
1.78007
1.78024
1.7805
1.78081
1.78116
1.78151
1.78185
1.78215
1.7824
1.78257
1.78266
1.89081
1.89101
1.8914
1.89199
1.89278
1.89377
1.89496
1.89634
1.89791
1.89968
1.90163
1.90375
1.90604
1.90849
1.91109
1.91385
1.91674
1.91978
1.92296
1.92628
1.92974
1.93333
1.93706
1.94091
1.94487
1.94893
1.95307
1.95727
1.96149
1.96571
1.96989
1.97401
1.97801
1.98187
1.98556
1.98904
1.99229
1.99526
1.99795
2.00032
2.00235
2.00404
2.00535
2.00629
2.00683
2.00698
2.00671
2.00604
2.00495
2.00345
2.00154
1.99922
1.99649
1.99336
1.98984
1.98594
1.98168
1.97708
1.97214
1.9669
1.96139
1.95562
1.94964
1.94348
1.93719
1.9308
1.92436
1.91792
1.91153
1.90524
1.8991
1.89314
1.88741
1.88195
1.87677
1.87189
1.86733
1.86307
1.85912
1.85546
1.85206
1.84889
1.84593
1.84315
1.84051
1.83799
1.83557
1.83322
1.83094
1.8287
1.82651
1.82437
1.82229
1.82026
1.81831
1.81644
1.81467
1.81301
1.81147
1.81006
1.80879
1.80767
1.80669
1.80587
1.80519
1.80467
1.80428
1.80402
1.80389
1.80386
1.80392
1.80406
1.80426
1.80449
1.80473
1.80497
1.80518
1.80536
1.80548
1.80555
1.91435
1.91453
1.91491
1.91547
1.91622
1.91716
1.91828
1.91959
1.92108
1.92275
1.92459
1.92659
1.92875
1.93107
1.93354
1.93614
1.93889
1.94176
1.94477
1.94791
1.95117
1.95456
1.95805
1.96166
1.96535
1.96913
1.97297
1.97685
1.98074
1.98462
1.98846
1.99222
1.99589
1.99941
2.00278
2.00595
2.0089
2.0116
2.01403
2.01617
2.018
2.01951
2.02067
2.02149
2.02193
2.02201
2.02171
2.02103
2.01996
2.01851
2.01667
2.01445
2.01185
2.00889
2.00557
2.00189
1.99788
1.99356
1.98893
1.98403
1.97887
1.97349
1.96791
1.96217
1.95631
1.95036
1.94437
1.93838
1.93242
1.92655
1.9208
1.91522
1.90982
1.90465
1.89973
1.89506
1.89066
1.88653
1.88266
1.87905
1.87567
1.8725
1.86952
1.86671
1.86404
1.8615
1.85905
1.85669
1.85441
1.85219
1.85003
1.84793
1.84589
1.84393
1.84203
1.84023
1.83852
1.83692
1.83542
1.83406
1.83282
1.83171
1.83074
1.82991
1.82921
1.82864
1.8282
1.82788
1.82767
1.82756
1.82753
1.82757
1.82767
1.8278
1.82795
1.8281
1.82825
1.82837
1.82845
1.8285
1.93769
1.93787
1.93823
1.93876
1.93948
1.94036
1.94143
1.94267
1.94407
1.94565
1.94738
1.94927
1.95132
1.95351
1.95583
1.9583
1.96089
1.96361
1.96645
1.96941
1.97248
1.97566
1.97894
1.98231
1.98576
1.98927
1.99283
1.99641
2
2.00357
2.00709
2.01054
2.01389
2.01712
2.02018
2.02307
2.02575
2.0282
2.03041
2.03234
2.03398
2.03532
2.03635
2.03705
2.03741
2.03742
2.03709
2.0364
2.03535
2.03394
2.03217
2.03006
2.02759
2.02478
2.02164
2.01817
2.0144
2.01034
2.006
2.0014
1.99658
1.99154
1.98634
1.98098
1.97552
1.96997
1.96438
1.95879
1.95323
1.94774
1.94235
1.9371
1.93201
1.92711
1.92243
1.91796
1.91373
1.90972
1.90595
1.9024
1.89906
1.89591
1.89294
1.89013
1.88745
1.8849
1.88245
1.88009
1.87782
1.87561
1.87348
1.87142
1.86943
1.86751
1.86567
1.86392
1.86226
1.86071
1.85926
1.85793
1.85671
1.85562
1.85465
1.85381
1.85309
1.85249
1.85201
1.85163
1.85136
1.85117
1.85107
1.85103
1.85104
1.85109
1.85116
1.85125
1.85133
1.85141
1.85146
1.85149
1.96086
1.96103
1.96137
1.96188
1.96255
1.96339
1.9644
1.96557
1.9669
1.96838
1.97002
1.97181
1.97373
1.9758
1.978
1.98032
1.98277
1.98534
1.98801
1.9908
1.99369
1.99667
1.99974
2.00288
2.0061
2.00936
2.01265
2.01597
2.01928
2.02256
2.0258
2.02896
2.03203
2.03497
2.03777
2.0404
2.04283
2.04506
2.04705
2.04879
2.05026
2.05146
2.05235
2.05295
2.05323
2.05319
2.05282
2.05212
2.05109
2.04973
2.04804
2.04601
2.04367
2.041
2.03803
2.03476
2.03121
2.02739
2.02331
2.01901
2.01449
2.00978
2.00491
1.99991
1.9948
1.98962
1.9844
1.97917
1.97397
1.96882
1.96376
1.95881
1.95401
1.94937
1.9449
1.94063
1.93656
1.93269
1.92902
1.92555
1.92226
1.91915
1.91621
1.91341
1.91074
1.90819
1.90575
1.90341
1.90115
1.89897
1.89687
1.89484
1.89289
1.89102
1.88922
1.88752
1.88591
1.88439
1.88298
1.88167
1.88048
1.8794
1.87843
1.87758
1.87685
1.87622
1.8757
1.87528
1.87495
1.87471
1.87454
1.87443
1.87437
1.87436
1.87437
1.8744
1.87443
1.87447
1.8745
1.87451
1.98386
1.98402
1.98434
1.98482
1.98546
1.98625
1.9872
1.98831
1.98956
1.99097
1.99251
1.99419
1.99601
1.99796
2.00003
2.00223
2.00453
2.00695
2.00947
2.01209
2.0148
2.01759
2.02046
2.02339
2.02638
2.02941
2.03247
2.03553
2.03858
2.04161
2.04458
2.04748
2.05028
2.05297
2.05553
2.05792
2.06013
2.06214
2.06394
2.06551
2.06682
2.06788
2.06866
2.06916
2.06937
2.06928
2.06888
2.06818
2.06717
2.06585
2.06422
2.06229
2.06006
2.05753
2.05472
2.05164
2.04829
2.04469
2.04087
2.03682
2.03259
2.02818
2.02362
2.01894
2.01416
2.00931
2.00442
1.99953
1.99465
1.98981
1.98505
1.98039
1.97584
1.97144
1.96718
1.9631
1.95918
1.95545
1.95189
1.9485
1.94529
1.94223
1.93932
1.93655
1.93391
1.93138
1.92896
1.92664
1.9244
1.92225
1.92018
1.91819
1.91627
1.91444
1.91269
1.91103
1.90945
1.90797
1.90659
1.90531
1.90414
1.90307
1.9021
1.90125
1.9005
1.89985
1.89929
1.89884
1.89846
1.89817
1.89794
1.89778
1.89767
1.89759
1.89755
1.89754
1.89753
1.89754
1.89754
1.89755
2.0067
2.00685
2.00715
2.0076
2.00821
2.00896
2.00986
2.0109
2.01208
2.0134
2.01486
2.01645
2.01816
2.02
2.02195
2.02401
2.02618
2.02846
2.03082
2.03328
2.03582
2.03843
2.04111
2.04385
2.04663
2.04944
2.05227
2.0551
2.05792
2.0607
2.06343
2.06609
2.06866
2.07111
2.07344
2.07562
2.07762
2.07945
2.08107
2.08247
2.08365
2.08458
2.08525
2.08566
2.08581
2.08567
2.08525
2.08455
2.08356
2.08228
2.08072
2.07887
2.07674
2.07435
2.07169
2.06877
2.06562
2.06223
2.05863
2.05483
2.05086
2.04672
2.04245
2.03806
2.03358
2.02904
2.02446
2.01986
2.01528
2.01073
2.00625
2.00184
1.99754
1.99335
1.9893
1.98539
1.98163
1.97803
1.97458
1.97129
1.96815
1.96516
1.9623
1.95957
1.95696
1.95446
1.95207
1.94977
1.94757
1.94545
1.94341
1.94145
1.93957
1.93778
1.93607
1.93444
1.9329
1.93145
1.9301
1.92884
1.92768
1.92662
1.92566
1.9248
1.92404
1.92337
1.9228
1.9223
1.92189
1.92156
1.92129
1.92108
1.92092
1.9208
1.92072
1.92066
1.92062
1.9206
1.92059
1.92059
2.02938
2.02953
2.02981
2.03024
2.03081
2.03152
2.03236
2.03335
2.03446
2.03571
2.03708
2.03857
2.04019
2.04191
2.04375
2.04569
2.04773
2.04987
2.05209
2.05439
2.05677
2.05921
2.06171
2.06426
2.06684
2.06945
2.07207
2.07468
2.07728
2.07984
2.08235
2.08479
2.08714
2.08938
2.0915
2.09348
2.0953
2.09695
2.09841
2.09967
2.10071
2.10152
2.1021
2.10244
2.10252
2.10234
2.10191
2.1012
2.10023
2.09899
2.09749
2.09572
2.0937
2.09143
2.08891
2.08615
2.08317
2.07998
2.07659
2.07302
2.06928
2.0654
2.06139
2.05727
2.05307
2.04881
2.04451
2.04019
2.03588
2.03159
2.02736
2.02319
2.01912
2.01514
2.01127
2.00754
2.00393
2.00046
1.99712
1.99393
1.99087
1.98795
1.98515
1.98247
1.9799
1.97744
1.97508
1.97282
1.97065
1.96856
1.96656
1.96463
1.96279
1.96103
1.95936
1.95777
1.95626
1.95484
1.95351
1.95228
1.95113
1.95008
1.94913
1.94826
1.94749
1.94681
1.94621
1.94569
1.94525
1.94488
1.94457
1.94432
1.94412
1.94397
1.94385
1.94376
1.9437
1.94366
1.94363
1.94362
2.05192
2.05206
2.05233
2.05273
2.05327
2.05394
2.05473
2.05566
2.05671
2.05788
2.05917
2.06058
2.0621
2.06372
2.06545
2.06727
2.06919
2.07119
2.07327
2.07542
2.07765
2.07993
2.08226
2.08463
2.08703
2.08945
2.09187
2.09429
2.09668
2.09904
2.10134
2.10358
2.10573
2.10778
2.10971
2.11151
2.11316
2.11464
2.11595
2.11708
2.118
2.11871
2.1192
2.11946
2.11949
2.11928
2.11882
2.11812
2.11717
2.11597
2.11453
2.11284
2.11091
2.10875
2.10636
2.10375
2.10094
2.09793
2.09474
2.09137
2.08786
2.08421
2.08044
2.07657
2.07262
2.06862
2.06457
2.06051
2.05644
2.0524
2.0484
2.04446
2.04059
2.03681
2.03312
2.02955
2.02608
2.02274
2.01952
2.01643
2.01346
2.01061
2.00787
2.00525
2.00273
2.00032
1.998
1.99578
1.99364
1.99159
1.98962
1.98774
1.98593
1.98421
1.98256
1.981
1.97953
1.97814
1.97683
1.97562
1.97449
1.97345
1.97249
1.97163
1.97085
1.97016
1.96954
1.969
1.96854
1.96814
1.9678
1.96752
1.96729
1.9671
1.96695
1.96684
1.96676
1.9667
1.96666
1.96664
2.07433
2.07446
2.07471
2.07509
2.0756
2.07623
2.07698
2.07785
2.07884
2.07994
2.08115
2.08248
2.0839
2.08543
2.08705
2.08876
2.09055
2.09243
2.09438
2.09639
2.09847
2.10059
2.10276
2.10497
2.1072
2.10944
2.11168
2.11391
2.11612
2.11829
2.1204
2.12245
2.12442
2.12629
2.12804
2.12968
2.13117
2.13251
2.13369
2.13469
2.1355
2.13611
2.13652
2.13672
2.1367
2.13646
2.13599
2.13529
2.13436
2.1332
2.1318
2.13019
2.12835
2.12629
2.12403
2.12156
2.1189
2.11606
2.11305
2.10988
2.10657
2.10313
2.09959
2.09595
2.09223
2.08846
2.08465
2.08082
2.07699
2.07317
2.06939
2.06565
2.06198
2.05838
2.05486
2.05144
2.04812
2.04491
2.0418
2.03881
2.03592
2.03315
2.03048
2.02792
2.02546
2.0231
2.02082
2.01864
2.01655
2.01453
2.0126
2.01076
2.00899
2.0073
2.00569
2.00416
2.00271
2.00135
2.00006
1.99887
1.99775
1.99672
1.99577
1.99491
1.99413
1.99342
1.9928
1.99224
1.99175
1.99133
1.99097
1.99066
1.99041
1.99019
1.99002
1.98989
1.98979
1.98971
1.98966
1.98964
2.09661
2.09673
2.09697
2.09732
2.0978
2.09839
2.0991
2.09992
2.10085
2.10188
2.10302
2.10427
2.1056
2.10704
2.10856
2.11016
2.11184
2.1136
2.11542
2.1173
2.11924
2.12122
2.12324
2.12528
2.12735
2.12943
2.1315
2.13356
2.13559
2.13758
2.13953
2.1414
2.1432
2.14491
2.14651
2.14799
2.14934
2.15054
2.15159
2.15248
2.15319
2.15372
2.15406
2.1542
2.15414
2.15386
2.15338
2.15268
2.15177
2.15065
2.14931
2.14776
2.14601
2.14405
2.1419
2.13956
2.13704
2.13436
2.13152
2.12853
2.12541
2.12217
2.11883
2.1154
2.1119
2.10834
2.10475
2.10114
2.09752
2.09391
2.09032
2.08678
2.08329
2.07986
2.07651
2.07323
2.07005
2.06696
2.06397
2.06107
2.05828
2.05559
2.05299
2.0505
2.04809
2.04578
2.04356
2.04142
2.03937
2.0374
2.03551
2.03369
2.03196
2.03031
2.02873
2.02723
2.02581
2.02447
2.02321
2.02203
2.02093
2.01991
2.01897
2.01811
2.01732
2.01661
2.01598
2.01541
2.01491
2.01447
2.01408
2.01376
2.01348
2.01325
2.01306
2.0129
2.01279
2.0127
2.01265
2.01262
2.11876
2.11888
2.1191
2.11944
2.11989
2.12044
2.12111
2.12188
2.12275
2.12372
2.12479
2.12596
2.12721
2.12856
2.12998
2.13148
2.13306
2.1347
2.1364
2.13816
2.13996
2.1418
2.14368
2.14558
2.1475
2.14942
2.15133
2.15323
2.1551
2.15694
2.15872
2.16044
2.16208
2.16363
2.16508
2.16643
2.16764
2.16873
2.16967
2.17045
2.17107
2.17152
2.17179
2.17188
2.17178
2.17148
2.17099
2.1703
2.1694
2.16831
2.16702
2.16554
2.16386
2.162
2.15996
2.15774
2.15535
2.15281
2.15013
2.14731
2.14436
2.14131
2.13815
2.13492
2.13162
2.12826
2.12487
2.12146
2.11803
2.11462
2.11122
2.10786
2.10454
2.10127
2.09807
2.09494
2.09188
2.08891
2.08603
2.08324
2.08054
2.07792
2.0754
2.07297
2.07063
2.06838
2.0662
2.06412
2.06211
2.06018
2.05833
2.05656
2.05486
2.05324
2.05169
2.05022
2.04883
2.04752
2.04628
2.04512
2.04403
2.04302
2.04209
2.04123
2.04045
2.03973
2.03909
2.03851
2.03799
2.03754
2.03714
2.0368
2.0365
2.03626
2.03605
2.03588
2.03575
2.03566
2.0356
2.03557
2.14081
2.14091
2.14113
2.14144
2.14186
2.14238
2.14301
2.14373
2.14455
2.14546
2.14647
2.14756
2.14874
2.14999
2.15133
2.15273
2.1542
2.15574
2.15732
2.15896
2.16064
2.16236
2.1641
2.16586
2.16764
2.16941
2.17118
2.17293
2.17465
2.17634
2.17797
2.17954
2.18104
2.18246
2.18378
2.18499
2.18609
2.18706
2.18789
2.18858
2.18912
2.1895
2.18971
2.18975
2.18961
2.18929
2.18879
2.18811
2.18723
2.18617
2.18493
2.18351
2.18191
2.18013
2.17819
2.17608
2.17382
2.17142
2.16887
2.16621
2.16342
2.16054
2.15756
2.15451
2.15139
2.14822
2.14502
2.14179
2.13855
2.13531
2.13208
2.12889
2.12573
2.12261
2.11956
2.11656
2.11363
2.11078
2.10801
2.10531
2.1027
2.10017
2.09772
2.09536
2.09308
2.09089
2.08877