/*--------------------------------*- C++ -*----------------------------------*\
| =========                 |                                                 |
| \\      /  F ield         | OpenFOAM: The Open Source CFD Toolbox           |
|  \\    /   O peration     | Version:  2406                                  |
|   \\  /    A nd           | Website:  www.openfoam.com                      |
|    \\/     M anipulation  |                                                 |
\*---------------------------------------------------------------------------*/
FoamFile
{
    version     2.0;
    format      ascii;
    arch        "LSB;label=32;scalar=64";
    class       volScalarField;
    location    "7.7";
    object      D;
}
// * * * * * * * * * * * * * * * * * * * * * * * * * * * * * * * * * * * * * //

dimensions      [0 2 -1 0 0 0 0];

internalField   nonuniform List<scalar> 
14400
(
6.94357e-05
6.93651e-05
6.9259e-05
6.91528e-05
6.90665e-05
6.90058e-05
6.89691e-05
6.89545e-05
6.89631e-05
6.90009e-05
6.90774e-05
6.92011e-05
6.93703e-05
6.95567e-05
6.96866e-05
6.96479e-05
6.93718e-05
6.89445e-05
6.84565e-05
6.79445e-05
6.74063e-05
6.68261e-05
6.61934e-05
6.55109e-05
6.47964e-05
6.40778e-05
6.33857e-05
6.27477e-05
6.21854e-05
6.17152e-05
6.13513e-05
6.11108e-05
6.1022e-05
6.1141e-05
6.16003e-05
6.27981e-05
6.66259e-05
8.97907e-05
0.000138194
0.00013824
0.00013824
0.00013824
0.00013824
0.00013824
0.00013824
0.00013824
0.00013824
0.00013824
0.00013824
0.00013824
0.00013824
0.00013824
0.00013824
0.00013824
0.00013824
0.00013824
0.00013824
0.00013824
0.00013824
0.000137227
7.6372e-05
6.54917e-05
6.2929e-05
6.2062e-05
6.18096e-05
6.18922e-05
6.22129e-05
6.27351e-05
6.34459e-05
6.43384e-05
6.53962e-05
6.65785e-05
6.78082e-05
6.89754e-05
6.99626e-05
7.06771e-05
7.10722e-05
7.11499e-05
7.09558e-05
7.0571e-05
7.01018e-05
6.96728e-05
6.94309e-05
6.95865e-05
7.05923e-05
7.41566e-05
9.19182e-05
0.000138019
0.000104171
7.44926e-05
6.94582e-05
6.78016e-05
6.71038e-05
6.68389e-05
6.68168e-05
6.69436e-05
6.71617e-05
6.74294e-05
6.77131e-05
6.79833e-05
6.82121e-05
6.83724e-05
6.84389e-05
6.83927e-05
6.82281e-05
6.79556e-05
6.75977e-05
6.71828e-05
6.67405e-05
6.63005e-05
6.58925e-05
6.55475e-05
6.53001e-05
6.51955e-05
6.53042e-05
6.5762e-05
6.6903e-05
6.98912e-05
8.11752e-05
0.000137006
6.91559e-05
6.90248e-05
6.88381e-05
6.8658e-05
6.8514e-05
6.84133e-05
6.83537e-05
6.83322e-05
6.83498e-05
6.84125e-05
6.85315e-05
6.87194e-05
6.89812e-05
6.92941e-05
6.95692e-05
6.96168e-05
6.92491e-05
6.86912e-05
6.81031e-05
6.75319e-05
6.69693e-05
6.63923e-05
6.5784e-05
6.51417e-05
6.44769e-05
6.38115e-05
6.31714e-05
6.25807e-05
6.20601e-05
6.16262e-05
6.12946e-05
6.10847e-05
6.10282e-05
6.11874e-05
6.17101e-05
6.30568e-05
6.7653e-05
0.000102517
0.000138237
0.00013824
0.00013824
0.00013824
0.00013824
0.00013824
0.00013824
0.00013824
0.00013824
0.00013824
0.00013824
0.00013824
0.00013824
0.00013824
0.00013824
0.00013824
0.00013824
0.00013824
0.00013824
0.00013824
0.00013824
0.000138128
8.58802e-05
6.65246e-05
6.31586e-05
6.21361e-05
6.18208e-05
6.18608e-05
6.21416e-05
6.26193e-05
6.32758e-05
6.41001e-05
6.50738e-05
6.61583e-05
6.72846e-05
6.83561e-05
6.92683e-05
6.99361e-05
7.03146e-05
7.04046e-05
7.02491e-05
6.99245e-05
6.95315e-05
6.91886e-05
6.90392e-05
6.93001e-05
7.04755e-05
7.47426e-05
0.000100327
0.000138209
0.000117075
7.54898e-05
6.96e-05
6.77257e-05
6.69173e-05
6.65768e-05
6.6494e-05
6.65689e-05
6.67426e-05
6.69747e-05
6.72336e-05
6.74914e-05
6.77203e-05
6.78904e-05
6.797e-05
6.79331e-05
6.7771e-05
6.74988e-05
6.71463e-05
6.67467e-05
6.63312e-05
6.5928e-05
6.55642e-05
6.52679e-05
6.50723e-05
6.50233e-05
6.51967e-05
6.57486e-05
6.71033e-05
7.1118e-05
9.29586e-05
0.00013816
6.88411e-05
6.85521e-05
6.81842e-05
6.78567e-05
6.76065e-05
6.74357e-05
6.73368e-05
6.73033e-05
6.73345e-05
6.74374e-05
6.76274e-05
6.79276e-05
6.83644e-05
6.89485e-05
6.96037e-05
6.99669e-05
6.92511e-05
6.83397e-05
6.75274e-05
6.68381e-05
6.62287e-05
6.56544e-05
6.5085e-05
6.45074e-05
6.39236e-05
6.33461e-05
6.2793e-05
6.22835e-05
6.1836e-05
6.14675e-05
6.1196e-05
6.10453e-05
6.10547e-05
6.1302e-05
6.1974e-05
6.36712e-05
6.96171e-05
0.000123598
0.00013824
0.00013824
0.00013824
0.00013824
0.00013824
0.00013824
0.00013824
0.00013824
0.00013824
0.00013824
0.00013824
0.00013824
0.00013824
0.00013824
0.00013824
0.00013824
0.00013824
0.00013824
0.00013824
0.00013824
0.00013824
0.000138239
0.000106691
6.83255e-05
6.35987e-05
6.22966e-05
6.18578e-05
6.18132e-05
6.20172e-05
6.24118e-05
6.29701e-05
6.36743e-05
6.45027e-05
6.54196e-05
6.63683e-05
6.72727e-05
6.80501e-05
6.86312e-05
6.89776e-05
6.90892e-05
6.90032e-05
6.87873e-05
6.85311e-05
6.83436e-05
6.8365e-05
6.88272e-05
7.03165e-05
7.56928e-05
0.000115456
0.000138239
0.000133674
7.8168e-05
7.01805e-05
6.77039e-05
6.66418e-05
6.61511e-05
6.59579e-05
6.59431e-05
6.60427e-05
6.62172e-05
6.64376e-05
6.66788e-05
6.69134e-05
6.71067e-05
6.72153e-05
6.71971e-05
6.70347e-05
6.67554e-05
6.64045e-05
6.60248e-05
6.56494e-05
6.53043e-05
6.50124e-05
6.4798e-05
6.46928e-05
6.47455e-05
6.50443e-05
6.57835e-05
6.75408e-05
7.32665e-05
0.000116591
0.00013824
6.90181e-05
6.83047e-05
6.75782e-05
6.70139e-05
6.6615e-05
6.63539e-05
6.62064e-05
6.61573e-05
6.62027e-05
6.63513e-05
6.66266e-05
6.70723e-05
6.77658e-05
6.88376e-05
7.04757e-05
7.25338e-05
6.99825e-05
6.8153e-05
6.69267e-05
6.60543e-05
6.53751e-05
6.4796e-05
6.42648e-05
6.37555e-05
6.32596e-05
6.278e-05
6.23267e-05
6.19136e-05
6.15563e-05
6.12719e-05
6.10817e-05
6.10164e-05
6.11295e-05
6.1534e-05
6.25337e-05
6.53865e-05
7.98544e-05
0.000137935
0.00013824
0.00013824
0.00013824
0.00013824
0.00013824
0.00013824
0.00013824
0.00013824
0.00013824
0.00013824
0.00013824
0.00013824
0.00013824
0.00013824
0.00013824
0.00013824
0.00013824
0.00013824
0.00013824
0.00013824
0.00013824
0.00013824
0.000130242
7.10546e-05
6.44384e-05
6.2618e-05
6.19601e-05
6.17797e-05
6.18712e-05
6.21528e-05
6.25844e-05
6.31402e-05
6.37949e-05
6.45158e-05
6.52583e-05
6.59669e-05
6.65828e-05
6.70567e-05
6.73611e-05
6.74972e-05
6.74956e-05
6.74121e-05
6.7324e-05
6.73324e-05
6.75851e-05
6.83624e-05
7.0447e-05
7.75819e-05
0.000131993
0.00013824
0.000138232
0.000103606
7.27014e-05
6.8017e-05
6.6443e-05
6.57162e-05
6.53709e-05
6.52432e-05
6.52559e-05
6.53668e-05
6.55495e-05
6.57816e-05
6.6037e-05
6.62769e-05
6.64395e-05
6.64526e-05
6.62758e-05
6.59663e-05
6.55971e-05
6.52249e-05
6.48845e-05
6.45987e-05
6.43863e-05
6.42686e-05
6.42781e-05
6.44726e-05
6.49693e-05
6.60568e-05
6.87198e-05
7.86836e-05
0.000136648
0.00013824
7.13577e-05
6.88745e-05
6.73276e-05
6.63712e-05
6.5767e-05
6.53937e-05
6.5189e-05
6.51212e-05
6.51804e-05
6.53781e-05
6.57511e-05
6.63802e-05
6.74531e-05
6.94819e-05
7.45468e-05
9.42608e-05
7.32471e-05
6.84969e-05
6.65001e-05
6.53573e-05
6.45771e-05
6.39753e-05
6.34682e-05
6.30146e-05
6.25956e-05
6.22057e-05
6.18481e-05
6.15317e-05
6.12694e-05
6.10792e-05
6.09863e-05
6.10324e-05
6.12967e-05
6.19645e-05
6.36258e-05
6.94565e-05
0.000121443
0.00013824
0.00013824
0.00013824
0.00013824
0.00013824
0.00013824
0.00013824
0.00013824
0.00013824
0.00013824
0.00013824
0.00013824
0.00013824
0.00013824
0.00013824
0.00013824
0.00013824
0.00013824
0.00013824
0.00013824
0.00013824
0.00013824
0.00013824
0.000138227
9.48296e-05
6.70961e-05
6.33102e-05
6.22003e-05
6.18057e-05
6.1745e-05
6.18892e-05
6.21791e-05
6.25787e-05
6.30591e-05
6.35905e-05
6.4138e-05
6.46629e-05
6.51265e-05
6.54979e-05
6.5761e-05
6.59198e-05
6.59998e-05
6.60469e-05
6.61292e-05
6.63481e-05
6.6882e-05
6.81661e-05
7.20729e-05
9.55074e-05
0.000138194
0.00013824
0.00013824
0.0001344
7.71034e-05
6.89963e-05
6.65481e-05
6.54497e-05
6.48954e-05
6.46321e-05
6.45512e-05
6.46024e-05
6.47589e-05
6.50017e-05
6.53082e-05
6.56401e-05
6.59093e-05
6.59864e-05
6.5752e-05
6.53576e-05
6.49244e-05
6.45277e-05
6.42004e-05
6.39604e-05
6.3822e-05
6.38059e-05
6.3951e-05
6.43384e-05
6.51604e-05
6.70124e-05
7.29518e-05
0.000119227
0.00013824
0.00013824
8.8848e-05
7.20206e-05
6.78746e-05
6.61515e-05
6.52272e-05
6.4698e-05
6.44198e-05
6.4328e-05
6.44028e-05
6.466e-05
6.516e-05
6.60492e-05
6.77798e-05
7.24366e-05
9.98824e-05
0.000137966
8.67596e-05
7.00605e-05
6.64531e-05
6.48896e-05
6.39535e-05
6.32973e-05
6.27898e-05
6.23703e-05
6.20088e-05
6.16921e-05
6.14177e-05
6.11907e-05
6.10227e-05
6.09331e-05
6.09541e-05
6.11457e-05
6.16378e-05
6.27998e-05
6.64053e-05
9.03888e-05
0.000138211
0.00013824
0.00013824
0.00013824
0.00013824
0.00013824
0.00013824
0.00013824
0.00013824
0.00013824
0.00013824
0.00013824
0.00013824
0.00013824
0.00013824
0.00013824
0.00013824
0.00013824
0.00013824
0.00013824
0.00013824
0.00013824
0.00013824
0.00013824
0.00013824
0.000132214
7.15043e-05
6.4585e-05
6.26895e-05
6.19561e-05
6.16879e-05
6.16694e-05
6.18086e-05
6.20556e-05
6.23764e-05
6.27425e-05
6.31264e-05
6.35008e-05
6.38414e-05
6.41305e-05
6.43613e-05
6.45411e-05
6.46928e-05
6.48575e-05
6.51014e-05
6.55381e-05
6.64063e-05
6.83946e-05
7.48639e-05
0.00012599
0.00013824
0.00013824
0.00013824
0.00013824
0.000119176
7.36483e-05
6.75661e-05
6.56028e-05
6.46928e-05
6.42445e-05
6.40542e-05
6.40494e-05
6.41993e-05
6.44894e-05
6.49065e-05
6.54355e-05
6.5953e-05
6.62312e-05
6.57746e-05
6.51542e-05
6.45547e-05
6.40715e-05
6.37179e-05
6.35006e-05
6.34276e-05
6.35222e-05
6.38413e-05
6.45236e-05
6.59744e-05
7.00957e-05
9.43909e-05
0.000138208
0.00013824
0.00013824
0.000137967
8.86121e-05
7.05922e-05
6.67327e-05
6.51754e-05
6.43806e-05
6.39903e-05
6.38637e-05
6.39611e-05
6.43081e-05
6.50147e-05
6.63582e-05
6.95192e-05
8.25981e-05
0.000137682
0.00013824
0.000128475
7.41364e-05
6.71484e-05
6.48118e-05
6.35985e-05
6.28302e-05
6.22863e-05
6.18739e-05
6.15475e-05
6.12858e-05
6.10812e-05
6.09362e-05
6.08627e-05
6.08848e-05
6.10474e-05
6.14466e-05
6.23219e-05
6.44867e-05
7.27257e-05
0.00013607
0.00013824
0.00013824
0.00013824
0.00013824
0.00013824
0.00013824
0.00013824
0.00013824
0.00013824
0.00013824
0.00013824
0.00013824
0.00013824
0.00013824
0.00013824
0.00013824
0.00013824
0.00013824
0.00013824
0.00013824
0.00013824
0.00013824
0.00013824
0.00013824
0.00013824
0.00013824
0.000111499
6.89095e-05
6.38351e-05
6.23585e-05
6.17665e-05
6.15439e-05
6.15204e-05
6.16194e-05
6.17978e-05
6.20257e-05
6.22794e-05
6.25388e-05
6.27883e-05
6.30187e-05
6.32295e-05
6.34315e-05
6.3649e-05
6.39245e-05
6.43329e-05
6.50243e-05
6.63976e-05
7.02472e-05
9.31009e-05
0.00013819
0.00013824
0.00013824
0.00013824
0.00013824
0.000138235
0.000103266
7.18179e-05
6.67231e-05
6.49984e-05
6.42346e-05
6.38831e-05
6.38169e-05
6.39912e-05
6.4405e-05
6.50692e-05
6.61214e-05
6.74042e-05
6.89265e-05
6.71022e-05
6.57744e-05
6.47114e-05
6.40047e-05
6.35503e-05
6.33222e-05
6.33106e-05
6.35496e-05
6.41474e-05
6.54118e-05
6.8484e-05
8.12259e-05
0.000137707
0.00013824
0.00013824
0.00013824
0.00013824
0.000137729
8.31009e-05
6.95416e-05
6.60574e-05
6.46399e-05
6.40387e-05
6.385e-05
6.39911e-05
6.45119e-05
6.56934e-05
6.82136e-05
7.65707e-05
0.000135424
0.00013824
0.00013824
0.000138238
0.000105789
7.06737e-05
6.5503e-05
6.36431e-05
6.2642e-05
6.20038e-05
6.15636e-05
6.12482e-05
6.10243e-05
6.08795e-05
6.08146e-05
6.08454e-05
6.10087e-05
6.13778e-05
6.21482e-05
6.39706e-05
7.03762e-05
0.000128634
0.00013824
0.00013824
0.00013824
0.00013824
0.00013824
0.00013824
0.00013824
0.00013824
0.00013824
0.00013824
0.00013824
0.00013824
0.00013824
0.00013824
0.00013824
0.00013824
0.00013824
0.00013824
0.00013824
0.00013824
0.00013824
0.00013824
0.00013824
0.00013824
0.00013824
0.00013824
0.00013824
0.000138194
8.86157e-05
6.6802e-05
6.32572e-05
6.20828e-05
6.15758e-05
6.13618e-05
6.13088e-05
6.13554e-05
6.14658e-05
6.16159e-05
6.17886e-05
6.19729e-05
6.21648e-05
6.23685e-05
6.25992e-05
6.28866e-05
6.32839e-05
6.38933e-05
6.49478e-05
6.7165e-05
7.43724e-05
0.000131872
0.00013824
0.00013824
0.00013824
0.00013824
0.00013824
0.00013824
0.000138223
9.86724e-05
7.141e-05
6.64624e-05
6.49464e-05
6.42464e-05
6.4085e-05
6.43497e-05
6.51177e-05
6.64557e-05
6.98609e-05
7.4655e-05
9.06673e-05
7.36246e-05
6.90791e-05
6.60057e-05
6.46488e-05
6.3896e-05
6.35956e-05
6.36568e-05
6.41547e-05
6.54126e-05
6.86425e-05
7.93678e-05
0.000137048
0.00013824
0.00013824
0.00013824
0.00013824
0.00013824
0.00013824
0.000137679
8.55569e-05
7.01679e-05
6.61221e-05
6.49851e-05
6.46372e-05
6.48974e-05
6.5879e-05
6.90227e-05
7.73903e-05
0.000134653
0.00013824
0.00013824
0.00013824
0.00013824
0.000138104
8.61296e-05
6.80871e-05
6.43867e-05
6.28635e-05
6.20153e-05
6.14927e-05
6.11565e-05
6.09542e-05
6.08664e-05
6.08929e-05
6.10618e-05
6.14502e-05
6.22072e-05
6.39137e-05
6.99109e-05
0.00012181
0.00013824
0.00013824
0.00013824
0.00013824
0.00013824
0.00013824
0.00013824
0.00013824
0.00013824
0.00013824
0.00013824
0.00013824
0.00013824
0.00013824
0.00013824
0.00013824
0.00013824
0.00013824
0.00013824
0.00013824
0.00013824
0.00013824
0.00013824
0.00013824
0.00013824
0.00013824
0.00013824
0.00013824
0.00013824
0.000137414
7.60413e-05
6.53716e-05
6.2863e-05
6.18773e-05
6.14003e-05
6.11676e-05
6.10779e-05
6.10794e-05
6.11419e-05
6.12469e-05
6.13847e-05
6.15542e-05
6.17642e-05
6.20368e-05
6.24143e-05
6.29777e-05
6.39079e-05
6.57501e-05
7.1299e-05
0.000113209
0.00013824
0.00013824
0.00013824
0.00013824
0.00013824
0.00013824
0.00013824
0.00013824
0.000138227
0.000107611
7.26185e-05
6.7904e-05
6.57906e-05
6.53977e-05
6.59591e-05
6.83996e-05
7.26438e-05
0.000100617
0.000134801
0.00013818
0.000132853
9.37702e-05
7.17323e-05
6.73524e-05
6.53659e-05
6.48267e-05
6.50213e-05
6.62454e-05
7.04976e-05
8.85648e-05
0.000137466
0.00013824
0.00013824
0.00013824
0.00013824
0.00013824
0.00013824
0.00013824
0.00013824
0.000138054
0.00010266
7.24117e-05
6.90884e-05
6.78451e-05
6.87743e-05
7.17385e-05
9.29365e-05
0.000136873
0.00013824
0.00013824
0.00013824
0.00013824
0.00013824
0.00013824
0.00013748
7.85846e-05
6.70625e-05
6.39014e-05
6.25035e-05
6.17805e-05
6.13642e-05
6.11632e-05
6.11465e-05
6.13104e-05
6.17172e-05
6.26274e-05
6.44795e-05
7.03832e-05
0.000122664
0.00013824
0.00013824
0.00013824
0.00013824
0.00013824
0.00013824
0.00013824
0.00013824
0.00013824
0.00013824
0.00013824
0.00013824
0.00013824
0.00013824
0.00013824
0.00013824
0.00013824
0.00013824
0.00013824
0.00013824
0.00013824
0.00013824
0.00013824
0.00013824
0.00013824
0.00013824
0.00013824
0.00013824
0.00013824
0.00013824
0.00013824
0.000135261
7.26511e-05
6.49023e-05
6.27401e-05
6.17764e-05
6.12715e-05
6.10099e-05
6.08925e-05
6.08706e-05
6.09173e-05
6.10209e-05
6.11821e-05
6.14149e-05
6.17544e-05
6.22713e-05
6.31149e-05
6.47027e-05
6.89717e-05
9.38912e-05
0.000138215
0.00013824
0.00013824
0.00013824
0.00013824
0.00013824
0.00013824
0.00013824
0.00013824
0.00013824
0.000138239
0.00012684
8.65798e-05
7.20005e-05
7.08325e-05
7.25101e-05
9.16198e-05
0.000128107
0.000138234
0.00013824
0.00013824
0.00013824
0.000138213
0.000123494
8.30648e-05
7.12788e-05
6.98257e-05
7.04879e-05
7.52764e-05
0.000114672
0.000138163
0.00013824
0.00013824
0.00013824
0.00013824
0.00013824
0.00013824
0.00013824
0.00013824
0.00013824
0.00013824
0.000138236
0.000128231
0.000100533
8.61887e-05
9.66449e-05
0.000123835
0.000138208
0.00013824
0.00013824
0.00013824
0.00013824
0.00013824
0.00013824
0.00013824
0.00013824
0.000137323
8.10216e-05
6.78836e-05
6.40908e-05
6.27969e-05
6.21136e-05
6.18703e-05
6.20011e-05
6.2488e-05
6.34747e-05
6.67106e-05
7.43718e-05
0.000130609
0.00013824
0.00013824
0.00013824
0.00013824
0.00013824
0.00013824
0.00013824
0.00013824
0.00013824
0.00013824
0.00013824
0.00013824
0.00013824
0.00013824
0.00013824
0.00013824
0.00013824
0.00013824
0.00013824
0.00013824
0.00013824
0.00013824
0.00013824
0.00013824
0.00013824
0.00013824
0.00013824
0.00013824
0.00013824
0.00013824
0.00013824
0.00013824
0.00013824
0.000134206
7.29064e-05
6.5344e-05
6.29035e-05
6.17995e-05
6.12499e-05
6.0966e-05
6.08435e-05
6.08299e-05
6.09062e-05
6.10745e-05
6.13566e-05
6.18151e-05
6.25972e-05
6.40703e-05
6.76711e-05
8.38024e-05
0.000138034
0.00013824
0.00013824
0.00013824
0.00013824
0.00013824
0.00013824
0.00013824
0.00013824
0.00013824
0.00013824
0.00013824
0.00013824
0.000138122
0.000129439
0.000121677
0.000131736
0.000138199
0.00013824
0.00013824
0.00013824
0.00013824
0.00013824
0.00013824
0.00013824
0.000138002
0.000125986
0.000113189
0.000120745
0.000136537
0.00013824
0.00013824
0.00013824
0.00013824
0.00013824
0.00013824
0.00013824
0.00013824
0.00013824
0.00013824
0.00013824
0.00013824
0.00013824
0.00013824
0.000138233
0.000138095
0.000138224
0.00013824
0.00013824
0.00013824
0.00013824
0.00013824
0.00013824
0.00013824
0.00013824
0.00013824
0.00013824
0.00013824
0.000137942
9.8047e-05
7.02187e-05
6.64296e-05
6.42885e-05
6.38141e-05
6.45701e-05
6.66868e-05
6.99264e-05
9.9424e-05
0.000137221
0.00013824
0.00013824
0.00013824
0.00013824
0.00013824
0.00013824
0.00013824
0.00013824
0.00013824
0.00013824
0.00013824
0.00013824
0.00013824
0.00013824
0.00013824
0.00013824
0.00013824
0.00013824
0.00013824
0.00013824
0.00013824
0.00013824
0.00013824
0.00013824
0.00013824
0.00013824
0.00013824
0.00013824
0.00013824
0.00013824
0.00013824
0.00013824
0.00013824
0.00013824
0.00013824
0.000136024
7.85026e-05
6.68611e-05
6.33338e-05
6.20754e-05
6.14627e-05
6.11805e-05
6.10815e-05
6.11308e-05
6.13334e-05
6.17209e-05
6.24292e-05
6.39065e-05
6.77689e-05
8.31981e-05
0.000137881
0.00013824
0.00013824
0.00013824
0.00013824
0.00013824
0.00013824
0.00013824
0.00013824
0.00013824
0.00013824
0.00013824
0.00013824
0.00013824
0.00013824
0.00013824
0.00013824
0.00013824
0.00013824
0.00013824
0.00013824
0.00013824
0.00013824
0.00013824
0.00013824
0.00013824
0.00013824
0.00013824
0.00013824
0.00013824
0.00013824
0.00013824
0.00013824
0.00013824
0.00013824
0.00013824
0.00013824
0.00013824
0.00013824
0.00013824
0.00013824
0.00013824
0.00013824
0.00013824
0.00013824
0.00013824
0.00013824
0.00013824
0.00013824
0.00013824
0.00013824
0.00013824
0.00013824
0.00013824
0.00013824
0.00013824
0.00013824
0.00013824
0.00013824
0.00013824
0.000138233
0.000125534
9.21064e-05
7.30155e-05
7.09589e-05
7.67639e-05
0.00010024
0.000129256
0.000138236
0.00013824
0.00013824
0.00013824
0.00013824
0.00013824
0.00013824
0.00013824
0.00013824
0.00013824
0.00013824
0.00013824
0.00013824
0.00013824
0.00013824
0.00013824
0.00013824
0.00013824
0.00013824
0.00013824
0.00013824
0.00013824
0.00013824
0.00013824
0.00013824
0.00013824
0.00013824
0.00013824
0.00013824
0.00013824
0.00013824
0.00013824
0.00013824
0.00013824
0.00013824
0.00013824
0.00013824
0.00013824
0.00013788
9.65912e-05
6.91209e-05
6.4658e-05
6.29344e-05
6.22786e-05
6.19795e-05
6.19815e-05
6.23071e-05
6.29815e-05
6.4391e-05
6.91277e-05
9.34479e-05
0.000138045
0.00013824
0.00013824
0.00013824
0.00013824
0.00013824
0.00013824
0.00013824
0.00013824
0.00013824
0.00013824
0.00013824
0.00013824
0.00013824
0.00013824
0.00013824
0.00013824
0.00013824
0.00013824
0.00013824
0.00013824
0.00013824
0.00013824
0.00013824
0.00013824
0.00013824
0.00013824
0.00013824
0.00013824
0.00013824
0.00013824
0.00013824
0.00013824
0.00013824
0.00013824
0.00013824
0.00013824
0.00013824
0.00013824
0.00013824
0.00013824
0.00013824
0.00013824
0.00013824
0.00013824
0.00013824
0.00013824
0.00013824
0.00013824
0.00013824
0.00013824
0.00013824
0.00013824
0.00013824
0.00013824
0.00013824
0.00013824
0.00013824
0.00013824
0.00013824
0.00013824
0.00013824
0.00013824
0.000138217
0.000136388
0.000134442
0.000137655
0.000138236
0.00013824
0.00013824
0.00013824
0.00013824
0.00013824
0.00013824
0.00013824
0.00013824
0.00013824
0.00013824
0.00013824
0.00013824
0.00013824
0.00013824
0.00013824
0.00013824
0.00013824
0.00013824
0.00013824
0.00013824
0.00013824
0.00013824
0.00013824
0.00013824
0.00013824
0.00013824
0.00013824
0.00013824
0.00013824
0.00013824
0.00013824
0.00013824
0.00013824
0.00013824
0.00013824
0.00013824
0.00013824
0.00013824
0.00013824
0.00013824
0.000138233
0.000123239
7.80673e-05
6.84613e-05
6.62451e-05
6.48883e-05
6.4663e-05
6.573e-05
6.78745e-05
7.23861e-05
0.000116737
0.000138223
0.00013824
0.00013824
0.00013824
0.00013824
0.00013824
0.00013824
0.00013824
0.00013824
0.00013824
0.00013824
0.00013824
0.00013824
0.00013824
0.00013824
0.00013824
0.00013824
0.00013824
0.00013824
0.00013824
0.00013824
0.00013824
0.00013824
0.00013824
0.00013824
0.00013824
0.00013824
0.00013824
0.00013824
0.00013824
0.00013824
0.00013824
0.00013824
0.00013824
0.00013824
0.00013824
0.00013824
0.00013824
0.00013824
0.00013824
0.00013824
0.00013824
0.00013824
0.00013824
0.00013824
0.00013824
0.00013824
0.00013824
0.00013824
0.00013824
0.00013824
0.00013824
0.00013824
0.00013824
0.00013824
0.00013824
0.00013824
0.00013824
0.00013824
0.00013824
0.00013824
0.00013824
0.00013824
0.00013824
0.00013824
0.00013824
0.00013824
0.00013824
0.00013824
0.00013824
0.00013824
0.00013824
0.00013824
0.00013824
0.00013824
0.00013824
0.00013824
0.00013824
0.00013824
0.00013824
0.00013824
0.00013824
0.00013824
0.00013824
0.00013824
0.00013824
0.00013824
0.00013824
0.00013824
0.00013824
0.00013824
0.00013824
0.00013824
0.00013824
0.00013824
0.00013824
0.00013824
0.00013824
0.00013824
0.00013824
0.00013824
0.00013824
0.00013824
0.00013824
0.00013824
0.00013824
0.00013824
0.00013824
0.00013824
0.00013824
0.00013824
0.000137881
0.000120627
9.55728e-05
8.00678e-05
7.73057e-05
8.73695e-05
0.00011182
0.000135807
0.00013824
0.00013824
0.00013824
0.00013824
0.00013824
0.00013824
0.00013824
0.00013824
0.00013824
0.00013824
0.00013824
0.00013824
0.00013824
0.00013824
0.00013824
0.00013824
0.00013824
0.00013824
0.00013824
0.00013824
0.00013824
0.00013824
0.00013824
0.00013824
0.00013824
0.00013824
0.00013824
0.00013824
0.00013824
0.00013824
0.00013824
0.00013824
0.00013824
0.00013824
0.00013824
0.00013824
0.00013824
0.00013824
0.00013824
0.00013824
0.00013824
0.00013824
0.00013824
0.00013824
0.00013824
0.00013824
0.00013824
0.00013824
0.00013824
0.00013824
0.00013824
0.00013824
0.00013824
0.00013824
0.00013824
0.00013824
0.00013824
0.00013824
0.00013824
0.00013824
0.00013824
0.00013824
0.00013824
0.00013824
0.00013824
0.00013824
0.00013824
0.00013824
0.00013824
0.00013824
0.00013824
0.00013824
0.00013824
0.00013824
0.00013824
0.00013824
0.00013824
0.00013824
0.00013824
0.00013824
0.00013824
0.00013824
0.00013824
0.00013824
0.00013824
0.00013824
0.00013824
0.00013824
0.00013824
0.00013824
0.00013824
0.00013824
0.00013824
0.00013824
0.00013824
0.00013824
0.00013824
0.00013824
0.00013824
0.00013824
0.00013824
0.00013824
0.00013824
0.00013824
0.00013824
0.00013824
0.00013824
0.00013824
0.00013824
0.00013824
0.00013824
0.00013824
0.00013824
0.00013824
0.00013823
0.00013797
0.000137712
0.000138181
0.00013824
0.00013824
0.00013824
0.00013824
0.00013824
0.00013824
0.00013824
0.00013824
0.00013824
0.00013824
0.00013824
0.00013824
0.00013824
0.00013824
0.00013824
0.00013824
0.00013824
0.00013824
0.00013824
0.00013824
0.00013824
0.00013824
0.00013824
0.00013824
0.00013824
0.00013824
0.00013824
0.00013824
0.00013824
0.00013824
0.00013824
0.00013824
0.00013824
0.00013824
0.00013824
0.00013824
0.00013824
0.00013824
0.00013824
0.00013824
0.00013824
0.00013824
0.00013824
0.00013824
0.00013824
0.00013824
0.00013824
0.00013824
0.00013824
0.00013824
0.00013824
0.00013824
0.00013824
0.00013824
0.00013824
0.00013824
0.00013824
0.00013824
0.00013824
0.00013824
0.00013824
0.00013824
0.00013824
0.00013824
0.00013824
0.00013824
0.00013824
0.00013824
0.00013824
0.00013824
0.00013824
0.00013824
0.00013824
0.00013824
0.00013824
0.00013824
0.00013824
0.00013824
0.00013824
0.00013824
0.00013824
0.00013824
0.00013824
0.00013824
0.00013824
0.00013824
0.00013824
0.00013824
0.00013824
0.00013824
0.00013824
0.00013824
0.00013824
0.00013824
0.00013824
0.00013824
0.00013824
0.00013824
0.00013824
0.00013824
0.00013824
0.00013824
0.00013824
0.00013824
0.00013824
0.00013824
0.00013824
0.00013824
0.00013824
0.00013824
0.00013824
0.00013824
0.00013824
0.00013824
0.00013824
0.00013824
0.00013824
0.00013824
0.00013824
0.00013824
0.00013824
0.00013824
0.00013824
0.00013824
0.00013824
0.00013824
0.00013824
0.00013824
0.00013824
0.00013824
0.00013824
0.00013824
0.00013824
0.00013824
0.00013824
0.00013824
0.00013824
0.00013824
0.00013824
0.00013824
0.00013824
0.00013824
0.00013824
0.00013824
0.00013824
0.00013824
0.00013824
0.00013824
0.00013824
0.00013824
0.00013824
0.00013824
0.00013824
0.00013824
0.00013824
0.00013824
0.00013824
0.00013824
0.00013824
0.00013824
0.00013824
0.00013824
0.00013824
0.00013824
0.00013824
0.00013824
0.00013824
0.00013824
0.00013824
0.00013824
0.00013824
0.00013824
0.00013824
0.00013824
0.00013824
0.00013824
0.00013824
0.00013824
0.00013824
0.00013824
0.00013824
0.00013824
0.00013824
0.00013824
0.00013824
0.00013824
0.00013824
0.00013824
0.00013824
0.00013824
0.00013824
0.00013824
0.00013824
0.00013824
0.00013824
0.00013824
0.00013824
0.00013824
0.00013824
0.00013824
0.00013824
0.00013824
0.00013824
0.00013824
0.00013824
0.00013824
0.00013824
0.00013824
0.00013824
0.00013824
0.00013824
0.00013824
0.00013824
0.00013824
0.00013824
0.00013824
0.00013824
0.00013824
0.00013824
0.00013824
0.00013824
0.00013824
0.00013824
0.00013824
0.00013824
0.00013824
0.00013824
0.00013824
0.00013824
0.00013824
0.00013824
0.00013824
0.00013824
0.00013824
0.00013824
0.00013824
0.00013824
0.00013824
0.00013824
0.00013824
0.00013824
0.00013824
0.00013824
0.00013824
0.00013824
0.00013824
0.00013824
0.00013824
0.00013824
0.00013824
0.00013824
0.00013824
0.00013824
0.00013824
0.00013824
0.00013824
0.00013824
0.00013824
0.00013824
0.00013824
0.00013824
0.00013824
0.00013824
0.00013824
0.00013824
0.00013824
0.00013824
0.00013824
0.00013824
0.00013824
0.00013824
0.00013824
0.00013824
0.00013824
0.00013824
0.00013824
0.00013824
0.00013824
0.00013824
0.00013824
0.00013824
0.00013824
0.00013824
0.00013824
0.00013824
0.00013824
0.00013824
0.00013824
0.00013824
0.00013824
0.00013824
0.00013824
0.00013824
0.00013824
0.00013824
0.00013824
0.00013824
0.00013824
0.00013824
0.00013824
0.00013824
0.00013824
0.00013824
0.00013824
0.00013824
0.00013824
0.00013824
0.00013824
0.00013824
0.00013824
0.00013824
0.00013824
0.00013824
0.00013824
0.00013824
0.00013824
0.00013824
0.00013824
0.00013824
0.00013824
0.00013824
0.00013824
0.00013824
0.00013824
0.00013824
0.00013824
0.00013824
0.00013824
0.00013824
0.00013824
0.00013824
0.00013824
0.00013824
0.00013824
0.00013824
0.00013824
0.00013824
0.00013824
0.00013824
0.00013824
0.00013824
0.00013824
0.00013824
0.00013824
0.00013824
0.00013824
0.00013824
0.00013824
0.00013824
0.00013824
0.00013824
0.00013824
0.00013824
0.00013824
0.00013824
0.00013824
0.00013824
0.00013824
0.00013824
0.00013824
0.00013824
0.00013824
0.00013824
0.00013824
0.00013824
0.00013824
0.00013824
0.00013824
0.00013824
0.00013824
0.00013824
0.00013824
0.00013824
0.00013824
0.00013824
0.00013824
0.00013824
0.00013824
0.00013824
0.00013824
0.00013824
0.00013824
0.00013824
0.00013824
0.00013824
0.00013824
0.00013824
0.00013824
0.00013824
0.00013824
0.00013824
0.00013824
0.00013824
0.00013824
0.00013824
0.00013824
0.00013824
0.00013824
0.00013824
0.00013824
0.00013824
0.00013824
0.00013824
0.00013824
0.00013824
0.00013824
0.00013824
0.00013824
0.00013824
0.00013824
0.00013824
0.00013824
0.00013824
0.00013824
0.00013824
0.00013824
0.00013824
0.00013824
0.00013824
0.00013824
0.00013824
0.00013824
0.00013824
0.00013824
0.00013824
0.00013824
0.00013824
0.00013824
0.00013824
0.00013824
0.00013824
0.00013824
0.00013824
0.00013824
0.00013824
0.00013824
0.00013824
0.00013824
0.00013824
0.00013824
0.00013824
0.00013824
0.00013824
0.00013824
0.00013824
0.00013824
0.00013824
0.00013824
0.00013824
0.00013824
0.00013824
0.00013824
0.00013824
0.00013824
0.00013824
0.00013824
0.00013824
0.00013824
0.00013824
0.00013824
0.00013824
0.00013824
0.00013824
0.00013824
0.00013824
0.00013824
0.00013824
0.00013824
0.00013824
0.00013824
0.00013824
0.00013824
0.00013824
0.00013824
0.00013824
0.00013824
0.00013824
0.00013824
0.00013824
0.00013824
0.00013824
0.00013824
0.00013824
0.00013824
0.00013824
0.00013824
0.00013824
0.00013824
0.00013824
0.00013824
0.00013824
0.00013824
0.00013824
0.00013824
0.00013824
0.00013824
0.00013824
0.00013824
0.00013824
0.00013824
0.00013824
0.00013824
0.00013824
0.00013824
0.00013824
0.00013824
0.00013824
0.00013824
0.00013824
0.00013824
0.00013824
0.00013824
0.00013824
0.00013824
0.00013824
0.00013824
0.00013824
0.00013824
0.00013824
0.00013824
0.00013824
0.00013824
0.00013824
0.00013824
0.00013824
0.00013824
0.00013824
0.00013824
0.00013824
0.00013824
0.00013824
0.00013824
0.00013824
0.00013824
0.00013824
0.00013824
0.00013824
0.00013824
0.00013824
0.00013824
0.00013824
0.00013824
0.00013824
0.00013824
0.00013824
0.00013824
0.00013824
0.00013824
0.00013824
0.00013824
0.00013824
0.00013824
0.00013824
0.00013824
0.00013824
0.00013824
0.00013824
0.00013824
0.00013824
0.00013824
0.00013824
0.00013824
0.00013824
0.00013824
0.00013824
0.00013824
0.00013824
0.00013824
0.00013824
0.00013824
0.00013824
0.00013824
0.00013824
0.00013824
0.00013824
0.00013824
0.00013824
0.00013824
0.00013824
0.00013824
0.00013824
0.00013824
0.00013824
0.00013824
0.00013824
0.00013824
0.00013824
0.00013824
0.00013824
0.00013824
0.00013824
0.00013824
0.00013824
0.00013824
0.00013824
0.00013824
0.00013824
0.00013824
0.00013824
0.00013824
0.00013824
0.00013824
0.00013824
0.00013824
0.00013824
0.00013824
0.00013824
0.00013824
0.00013824
0.00013824
0.00013824
0.00013824
0.00013824
0.00013824
0.00013824
0.00013824
0.00013824
0.00013824
0.00013824
0.00013824
0.00013824
0.00013824
0.00013824
0.00013824
0.00013824
0.00013824
0.00013824
0.00013824
0.00013824
0.00013824
0.00013824
0.00013824
0.00013824
0.00013824
0.00013824
0.00013824
0.00013824
0.00013824
0.00013824
0.00013824
0.00013824
0.00013824
0.00013824
0.00013824
0.00013824
0.00013824
0.00013824
0.00013824
0.00013824
0.00013824
0.00013824
0.00013824
0.00013824
0.00013824
0.00013824
0.00013824
0.00013824
0.00013824
0.00013824
0.00013824
0.00013824
0.00013824
0.00013824
0.00013824
0.00013824
0.00013824
0.00013824
0.00013824
0.00013824
0.00013824
0.00013824
0.00013824
0.00013824
0.00013824
0.00013824
0.00013824
0.00013824
0.00013824
0.00013824
0.00013824
0.00013824
0.00013824
0.00013824
0.00013824
0.00013824
0.00013824
0.00013824