/*--------------------------------*- C++ -*----------------------------------*\
| =========                 |                                                 |
| \\      /  F ield         | OpenFOAM: The Open Source CFD Toolbox           |
|  \\    /   O peration     | Version:  2406                                  |
|   \\  /    A nd           | Website:  www.openfoam.com                      |
|    \\/     M anipulation  |                                                 |
\*---------------------------------------------------------------------------*/
FoamFile
{
    version     2.0;
    format      ascii;
    arch        "LSB;label=32;scalar=64";
    class       volScalarField;
    location    "7.7";
    object      Da;
}
// * * * * * * * * * * * * * * * * * * * * * * * * * * * * * * * * * * * * * //

dimensions      [0 2 -1 0 0 0 0];

internalField   nonuniform List<scalar> 
14400
(
4.76003e-05
4.75692e-05
4.75224e-05
4.74757e-05
4.74377e-05
4.7411e-05
4.73949e-05
4.73885e-05
4.73923e-05
4.74089e-05
4.74426e-05
4.74972e-05
4.75718e-05
4.7654e-05
4.77114e-05
4.76944e-05
4.75727e-05
4.73842e-05
4.71689e-05
4.69429e-05
4.67051e-05
4.64486e-05
4.61685e-05
4.58662e-05
4.55495e-05
4.52309e-05
4.49239e-05
4.46408e-05
4.43913e-05
4.41826e-05
4.4021e-05
4.3914e-05
4.38741e-05
4.39261e-05
4.41283e-05
4.4656e-05
4.63391e-05
5.64687e-05
7.79786e-05
7.8e-05
7.8e-05
7.8e-05
7.8e-05
7.8e-05
7.8e-05
7.8e-05
7.8e-05
7.8e-05
7.8e-05
7.8e-05
7.8e-05
7.8e-05
7.8e-05
7.8e-05
7.8e-05
7.8e-05
7.8e-05
7.8e-05
7.8e-05
7.75317e-05
5.05812e-05
4.58374e-05
4.47135e-05
4.43325e-05
4.42221e-05
4.42595e-05
4.44022e-05
4.4634e-05
4.49495e-05
4.53455e-05
4.58149e-05
4.63394e-05
4.68848e-05
4.74023e-05
4.78396e-05
4.81559e-05
4.83304e-05
4.83642e-05
4.82776e-05
4.81063e-05
4.78976e-05
4.77066e-05
4.75983e-05
4.76657e-05
4.8109e-05
4.96821e-05
5.75171e-05
7.79015e-05
6.29263e-05
4.98293e-05
4.76058e-05
4.68742e-05
4.65663e-05
4.64497e-05
4.64405e-05
4.64971e-05
4.65941e-05
4.67129e-05
4.68388e-05
4.69585e-05
4.706e-05
4.7131e-05
4.71605e-05
4.714e-05
4.70671e-05
4.69464e-05
4.67879e-05
4.6604e-05
4.64079e-05
4.62128e-05
4.60318e-05
4.58787e-05
4.57687e-05
4.57218e-05
4.57693e-05
4.5971e-05
4.64743e-05
4.77923e-05
5.27611e-05
7.74476e-05
4.74758e-05
4.74179e-05
4.73355e-05
4.72561e-05
4.71926e-05
4.71482e-05
4.71219e-05
4.71125e-05
4.71202e-05
4.71479e-05
4.72004e-05
4.72833e-05
4.73989e-05
4.75372e-05
4.76587e-05
4.76799e-05
4.75177e-05
4.72715e-05
4.70118e-05
4.67596e-05
4.6511e-05
4.62559e-05
4.59867e-05
4.57022e-05
4.54076e-05
4.51126e-05
4.48287e-05
4.45666e-05
4.43356e-05
4.4143e-05
4.39957e-05
4.39023e-05
4.38767e-05
4.39465e-05
4.41767e-05
4.47702e-05
4.67942e-05
6.20896e-05
7.79986e-05
7.8e-05
7.8e-05
7.8e-05
7.8e-05
7.8e-05
7.8e-05
7.8e-05
7.8e-05
7.8e-05
7.8e-05
7.8e-05
7.8e-05
7.8e-05
7.8e-05
7.8e-05
7.8e-05
7.8e-05
7.8e-05
7.8e-05
7.8e-05
7.79478e-05
5.47502e-05
4.62936e-05
4.48151e-05
4.43652e-05
4.42269e-05
4.42455e-05
4.43705e-05
4.45826e-05
4.4874e-05
4.52398e-05
4.56718e-05
4.61529e-05
4.66524e-05
4.71275e-05
4.75316e-05
4.78273e-05
4.79945e-05
4.80338e-05
4.79643e-05
4.78197e-05
4.76447e-05
4.74918e-05
4.74245e-05
4.75386e-05
4.8057e-05
4.99407e-05
6.12299e-05
7.79862e-05
6.86275e-05
5.02694e-05
4.76679e-05
4.68401e-05
4.64833e-05
4.63333e-05
4.62972e-05
4.63308e-05
4.6408e-05
4.65111e-05
4.66259e-05
4.67402e-05
4.68417e-05
4.6917e-05
4.69523e-05
4.6936e-05
4.68642e-05
4.67436e-05
4.65874e-05
4.64104e-05
4.62262e-05
4.60475e-05
4.58861e-05
4.57545e-05
4.56675e-05
4.56453e-05
4.57214e-05
4.59647e-05
4.65626e-05
4.83339e-05
5.79543e-05
7.7964e-05
4.73353e-05
4.72076e-05
4.70451e-05
4.69004e-05
4.67898e-05
4.67144e-05
4.66708e-05
4.6656e-05
4.66698e-05
4.67153e-05
4.67992e-05
4.69318e-05
4.71249e-05
4.7383e-05
4.76725e-05
4.7833e-05
4.75171e-05
4.71147e-05
4.67559e-05
4.64514e-05
4.61821e-05
4.59282e-05
4.56762e-05
4.54205e-05
4.51619e-05
4.49059e-05
4.46606e-05
4.44346e-05
4.4236e-05
4.40724e-05
4.39518e-05
4.38845e-05
4.38881e-05
4.39967e-05
4.42927e-05
4.50403e-05
4.76602e-05
7.14293e-05
7.8e-05
7.8e-05
7.8e-05
7.8e-05
7.8e-05
7.8e-05
7.8e-05
7.8e-05
7.8e-05
7.8e-05
7.8e-05
7.8e-05
7.8e-05
7.8e-05
7.8e-05
7.8e-05
7.8e-05
7.8e-05
7.8e-05
7.8e-05
7.8e-05
7.79994e-05
6.39457e-05
4.70918e-05
4.50098e-05
4.4436e-05
4.42431e-05
4.42242e-05
4.43151e-05
4.44905e-05
4.47383e-05
4.50508e-05
4.54183e-05
4.5825e-05
4.62457e-05
4.66467e-05
4.69912e-05
4.72485e-05
4.74015e-05
4.74505e-05
4.74117e-05
4.73153e-05
4.7201e-05
4.7117e-05
4.71254e-05
4.73286e-05
4.79858e-05
5.03599e-05
6.79128e-05
7.79997e-05
7.59689e-05
5.14489e-05
4.79232e-05
4.68296e-05
4.63607e-05
4.61442e-05
4.60592e-05
4.6053e-05
4.60974e-05
4.61749e-05
4.62726e-05
4.63795e-05
4.64834e-05
4.6569e-05
4.66171e-05
4.6609e-05
4.65371e-05
4.64135e-05
4.62581e-05
4.60899e-05
4.59235e-05
4.57706e-05
4.56411e-05
4.55459e-05
4.5499e-05
4.55218e-05
4.56534e-05
4.59796e-05
4.67552e-05
4.92827e-05
6.83983e-05
7.79999e-05
4.74115e-05
4.70965e-05
4.67755e-05
4.65261e-05
4.63499e-05
4.62345e-05
4.61693e-05
4.61477e-05
4.61678e-05
4.62334e-05
4.63551e-05
4.65521e-05
4.68586e-05
4.73322e-05
4.80557e-05
4.89626e-05
4.7838e-05
4.70303e-05
4.64886e-05
4.61032e-05
4.58031e-05
4.5547e-05
4.5312e-05
4.50866e-05
4.4867e-05
4.46544e-05
4.44535e-05
4.42703e-05
4.41117e-05
4.39854e-05
4.39007e-05
4.38713e-05
4.39206e-05
4.40985e-05
4.45384e-05
4.57897e-05
5.20734e-05
7.78557e-05
7.8e-05
7.8e-05
7.8e-05
7.8e-05
7.8e-05
7.8e-05
7.8e-05
7.8e-05
7.8e-05
7.8e-05
7.8e-05
7.8e-05
7.8e-05
7.8e-05
7.8e-05
7.8e-05
7.8e-05
7.8e-05
7.8e-05
7.8e-05
7.8e-05
7.8e-05
7.43919e-05
4.82948e-05
4.53797e-05
4.45776e-05
4.42879e-05
4.4209e-05
4.42502e-05
4.43754e-05
4.45671e-05
4.48137e-05
4.51041e-05
4.54238e-05
4.57531e-05
4.60672e-05
4.63401e-05
4.65499e-05
4.66845e-05
4.67444e-05
4.67431e-05
4.67054e-05
4.66656e-05
4.66685e-05
4.67793e-05
4.71219e-05
4.80419e-05
5.11917e-05
7.5224e-05
7.8e-05
7.79966e-05
6.26589e-05
4.90344e-05
4.69668e-05
4.62718e-05
4.59509e-05
4.57986e-05
4.57424e-05
4.57482e-05
4.57975e-05
4.58784e-05
4.59812e-05
4.60943e-05
4.62005e-05
4.62724e-05
4.62782e-05
4.61999e-05
4.6063e-05
4.58996e-05
4.57347e-05
4.5584e-05
4.54574e-05
4.53632e-05
4.53109e-05
4.53147e-05
4.54003e-05
4.56194e-05
4.60993e-05
4.72737e-05
5.16574e-05
7.72841e-05
7.8e-05
4.84404e-05
4.73459e-05
4.66629e-05
4.62404e-05
4.59735e-05
4.58085e-05
4.57181e-05
4.56881e-05
4.57143e-05
4.58016e-05
4.59665e-05
4.62445e-05
4.67185e-05
4.76147e-05
4.98495e-05
5.85178e-05
4.92748e-05
4.71799e-05
4.62983e-05
4.57935e-05
4.54487e-05
4.51826e-05
4.49584e-05
4.47577e-05
4.45722e-05
4.43994e-05
4.42409e-05
4.41006e-05
4.39841e-05
4.38995e-05
4.3858e-05
4.38778e-05
4.39938e-05
4.42878e-05
4.50194e-05
4.75863e-05
7.04689e-05
7.8e-05
7.8e-05
7.8e-05
7.8e-05
7.8e-05
7.8e-05
7.8e-05
7.8e-05
7.8e-05
7.8e-05
7.8e-05
7.8e-05
7.8e-05
7.8e-05
7.8e-05
7.8e-05
7.8e-05
7.8e-05
7.8e-05
7.8e-05
7.8e-05
7.8e-05
7.8e-05
7.79938e-05
5.86684e-05
4.65464e-05
4.48822e-05
4.43934e-05
4.42199e-05
4.41938e-05
4.42582e-05
4.43871e-05
4.45645e-05
4.47776e-05
4.50132e-05
4.5256e-05
4.54886e-05
4.5694e-05
4.58584e-05
4.59747e-05
4.60447e-05
4.60796e-05
4.60999e-05
4.61357e-05
4.62318e-05
4.6467e-05
4.70337e-05
4.87575e-05
5.90816e-05
7.79791e-05
7.8e-05
7.8e-05
7.62857e-05
5.09742e-05
4.7398e-05
4.63172e-05
4.58321e-05
4.55873e-05
4.5471e-05
4.54354e-05
4.54581e-05
4.55275e-05
4.56349e-05
4.57705e-05
4.59172e-05
4.60362e-05
4.60703e-05
4.59666e-05
4.57922e-05
4.56007e-05
4.54252e-05
4.52803e-05
4.5174e-05
4.51126e-05
4.51053e-05
4.51692e-05
4.534e-05
4.57028e-05
4.65202e-05
4.91412e-05
6.95497e-05
7.8e-05
7.8e-05
5.61285e-05
4.87302e-05
4.69023e-05
4.61416e-05
4.57335e-05
4.54997e-05
4.53768e-05
4.53362e-05
4.53693e-05
4.54829e-05
4.57037e-05
4.60963e-05
4.68605e-05
4.89151e-05
6.10057e-05
7.78762e-05
5.52083e-05
4.78668e-05
4.62757e-05
4.55852e-05
4.51716e-05
4.48816e-05
4.46572e-05
4.44716e-05
4.43116e-05
4.41713e-05
4.40497e-05
4.3949e-05
4.38743e-05
4.38343e-05
4.3843e-05
4.39271e-05
4.41435e-05
4.46545e-05
4.6236e-05
5.66878e-05
7.79863e-05
7.8e-05
7.8e-05
7.8e-05
7.8e-05
7.8e-05
7.8e-05
7.8e-05
7.8e-05
7.8e-05
7.8e-05
7.8e-05
7.8e-05
7.8e-05
7.8e-05
7.8e-05
7.8e-05
7.8e-05
7.8e-05
7.8e-05
7.8e-05
7.8e-05
7.8e-05
7.8e-05
7.8e-05
7.52704e-05
4.84914e-05
4.5444e-05
4.46087e-05
4.42856e-05
4.41678e-05
4.41603e-05
4.42225e-05
4.43323e-05
4.44747e-05
4.4637e-05
4.48072e-05
4.49731e-05
4.51239e-05
4.52519e-05
4.53539e-05
4.54332e-05
4.55e-05
4.55725e-05
4.56798e-05
4.58723e-05
4.62554e-05
4.7133e-05
4.9989e-05
7.25589e-05
7.8e-05
7.8e-05
7.8e-05
7.8e-05
6.95295e-05
4.94504e-05
4.67657e-05
4.58987e-05
4.54967e-05
4.52986e-05
4.52146e-05
4.52125e-05
4.52788e-05
4.54071e-05
4.55915e-05
4.58251e-05
4.60534e-05
4.61761e-05
4.59747e-05
4.57007e-05
4.54359e-05
4.52223e-05
4.50659e-05
4.49698e-05
4.49373e-05
4.49789e-05
4.51196e-05
4.54206e-05
4.60603e-05
4.7876e-05
5.85552e-05
7.79854e-05
7.8e-05
7.8e-05
7.78763e-05
5.60167e-05
4.80967e-05
4.63962e-05
4.57091e-05
4.53582e-05
4.51859e-05
4.51299e-05
4.5173e-05
4.53262e-05
4.5638e-05
4.62305e-05
4.76236e-05
5.33713e-05
7.7748e-05
7.8e-05
7.36503e-05
4.9666e-05
4.65812e-05
4.55493e-05
4.50133e-05
4.46739e-05
4.44335e-05
4.42511e-05
4.41067e-05
4.39908e-05
4.39002e-05
4.38358e-05
4.38029e-05
4.38122e-05
4.38835e-05
4.40592e-05
4.44445e-05
4.53951e-05
4.89936e-05
7.69904e-05
7.8e-05
7.8e-05
7.8e-05
7.8e-05
7.8e-05
7.8e-05
7.8e-05
7.8e-05
7.8e-05
7.8e-05
7.8e-05
7.8e-05
7.8e-05
7.8e-05
7.8e-05
7.8e-05
7.8e-05
7.8e-05
7.8e-05
7.8e-05
7.8e-05
7.8e-05
7.8e-05
7.8e-05
7.8e-05
7.79999e-05
6.60379e-05
4.73453e-05
4.51123e-05
4.4462e-05
4.42015e-05
4.4104e-05
4.40942e-05
4.41385e-05
4.42179e-05
4.4319e-05
4.44315e-05
4.45464e-05
4.46569e-05
4.47588e-05
4.4852e-05
4.49412e-05
4.50371e-05
4.51587e-05
4.53388e-05
4.56439e-05
4.625e-05
4.79473e-05
5.79978e-05
7.79774e-05
7.8e-05
7.8e-05
7.8e-05
7.8e-05
7.79977e-05
6.24835e-05
4.86393e-05
4.63922e-05
4.56307e-05
4.52931e-05
4.51379e-05
4.51086e-05
4.51857e-05
4.53685e-05
4.5662e-05
4.61261e-05
4.66907e-05
4.73602e-05
4.65581e-05
4.59727e-05
4.55037e-05
4.51915e-05
4.49908e-05
4.48899e-05
4.48846e-05
4.49899e-05
4.52537e-05
4.58108e-05
4.71617e-05
5.27458e-05
7.7757e-05
7.8e-05
7.8e-05
7.8e-05
7.8e-05
7.7768e-05
5.35789e-05
4.76302e-05
4.60969e-05
4.54717e-05
4.52063e-05
4.51229e-05
4.51852e-05
4.5415e-05
4.59358e-05
4.7045e-05
5.07231e-05
7.67305e-05
7.8e-05
7.8e-05
7.7999e-05
6.35852e-05
4.81318e-05
4.58521e-05
4.50314e-05
4.45895e-05
4.43076e-05
4.41131e-05
4.39735e-05
4.38744e-05
4.38102e-05
4.37813e-05
4.37945e-05
4.38661e-05
4.40286e-05
4.43682e-05
4.51715e-05
4.79921e-05
7.36265e-05
7.8e-05
7.8e-05
7.8e-05
7.8e-05
7.8e-05
7.8e-05
7.8e-05
7.8e-05
7.8e-05
7.8e-05
7.8e-05
7.8e-05
7.8e-05
7.8e-05
7.8e-05
7.8e-05
7.8e-05
7.8e-05
7.8e-05
7.8e-05
7.8e-05
7.8e-05
7.8e-05
7.8e-05
7.8e-05
7.8e-05
7.8e-05
7.79782e-05
5.5919e-05
4.64099e-05
4.48556e-05
4.43396e-05
4.41169e-05
4.40232e-05
4.40004e-05
4.40215e-05
4.40706e-05
4.41372e-05
4.42137e-05
4.42953e-05
4.43802e-05
4.44702e-05
4.45721e-05
4.4699e-05
4.48744e-05
4.51433e-05
4.56089e-05
4.65876e-05
4.97676e-05
7.51528e-05
7.8e-05
7.8e-05
7.8e-05
7.8e-05
7.8e-05
7.8e-05
7.79923e-05
6.04428e-05
4.84577e-05
4.62759e-05
4.5606e-05
4.52972e-05
4.5226e-05
4.53428e-05
4.56817e-05
4.62727e-05
4.77725e-05
4.98776e-05
5.68963e-05
4.943e-05
4.74267e-05
4.60737e-05
4.54744e-05
4.51424e-05
4.50098e-05
4.50366e-05
4.52557e-05
4.58106e-05
4.72304e-05
5.19234e-05
7.74555e-05
7.8e-05
7.8e-05
7.8e-05
7.8e-05
7.8e-05
7.8e-05
7.77444e-05
5.46471e-05
4.79066e-05
4.6125e-05
4.56231e-05
4.54693e-05
4.55843e-05
4.60175e-05
4.73999e-05
5.10678e-05
7.63792e-05
7.8e-05
7.8e-05
7.8e-05
7.8e-05
7.79373e-05
5.48861e-05
4.69842e-05
4.53571e-05
4.46859e-05
4.43116e-05
4.40807e-05
4.3932e-05
4.38425e-05
4.38035e-05
4.3815e-05
4.38892e-05
4.40599e-05
4.43929e-05
4.51458e-05
4.77881e-05
7.05772e-05
7.8e-05
7.8e-05
7.8e-05
7.8e-05
7.8e-05
7.8e-05
7.8e-05
7.8e-05
7.8e-05
7.8e-05
7.8e-05
7.8e-05
7.8e-05
7.8e-05
7.8e-05
7.8e-05
7.8e-05
7.8e-05
7.8e-05
7.8e-05
7.8e-05
7.8e-05
7.8e-05
7.8e-05
7.8e-05
7.8e-05
7.8e-05
7.8e-05
7.8e-05
7.76115e-05
5.04115e-05
4.57787e-05
4.46809e-05
4.42484e-05
4.40391e-05
4.39371e-05
4.3898e-05
4.3899e-05
4.39269e-05
4.39734e-05
4.40344e-05
4.41094e-05
4.42021e-05
4.43225e-05
4.44892e-05
4.47379e-05
4.51484e-05
4.59613e-05
4.84083e-05
6.68613e-05
7.79999e-05
7.8e-05
7.8e-05
7.8e-05
7.8e-05
7.8e-05
7.8e-05
7.8e-05
7.79939e-05
6.43828e-05
4.89912e-05
4.69063e-05
4.59774e-05
4.58044e-05
4.60515e-05
4.71253e-05
4.90017e-05
6.12855e-05
7.64489e-05
7.79725e-05
7.55795e-05
5.82576e-05
4.85981e-05
4.66622e-05
4.57901e-05
4.55525e-05
4.56377e-05
4.61746e-05
4.80505e-05
5.59548e-05
7.76456e-05
7.8e-05
7.8e-05
7.8e-05
7.8e-05
7.8e-05
7.8e-05
7.8e-05
7.8e-05
7.79147e-05
6.21839e-05
4.88995e-05
4.74308e-05
4.68804e-05
4.72917e-05
4.86017e-05
5.78868e-05
7.73785e-05
7.8e-05
7.8e-05
7.8e-05
7.8e-05
7.8e-05
7.8e-05
7.7649e-05
5.15593e-05
4.65286e-05
4.51418e-05
4.45261e-05
4.42067e-05
4.40226e-05
4.39336e-05
4.39261e-05
4.39985e-05
4.41775e-05
4.4577e-05
4.53874e-05
4.79927e-05
7.09524e-05
7.8e-05
7.8e-05
7.8e-05
7.8e-05
7.8e-05
7.8e-05
7.8e-05
7.8e-05
7.8e-05
7.8e-05
7.8e-05
7.8e-05
7.8e-05
7.8e-05
7.8e-05
7.8e-05
7.8e-05
7.8e-05
7.8e-05
7.8e-05
7.8e-05
7.8e-05
7.8e-05
7.8e-05
7.8e-05
7.8e-05
7.8e-05
7.8e-05
7.8e-05
7.8e-05
7.8e-05
7.66124e-05
4.89592e-05
4.55727e-05
4.46262e-05
4.42038e-05
4.39821e-05
4.38671e-05
4.38156e-05
4.38062e-05
4.38269e-05
4.38728e-05
4.3944e-05
4.40469e-05
4.41968e-05
4.44249e-05
4.47971e-05
4.54969e-05
4.73755e-05
5.83058e-05
7.79884e-05
7.8e-05
7.8e-05
7.8e-05
7.8e-05
7.8e-05
7.8e-05
7.8e-05
7.8e-05
7.8e-05
7.79994e-05
7.29111e-05
5.50793e-05
4.8715e-05
4.82018e-05
4.89374e-05
5.7302e-05
7.34721e-05
7.79971e-05
7.8e-05
7.8e-05
7.8e-05
7.79876e-05
7.1421e-05
5.35284e-05
4.83974e-05
4.77573e-05
4.80484e-05
5.0127e-05
6.7495e-05
7.79642e-05
7.8e-05
7.8e-05
7.8e-05
7.8e-05
7.8e-05
7.8e-05
7.8e-05
7.8e-05
7.8e-05
7.8e-05
7.79982e-05
7.35241e-05
6.12502e-05
5.49157e-05
5.95318e-05
7.15734e-05
7.79854e-05
7.8e-05
7.8e-05
7.8e-05
7.8e-05
7.8e-05
7.8e-05
7.8e-05
7.8e-05
7.75749e-05
5.26066e-05
4.6891e-05
4.52251e-05
4.46535e-05
4.43512e-05
4.42437e-05
4.43011e-05
4.45165e-05
4.49514e-05
4.63682e-05
4.96729e-05
7.45112e-05
7.8e-05
7.8e-05
7.8e-05
7.8e-05
7.8e-05
7.8e-05
7.8e-05
7.8e-05
7.8e-05
7.8e-05
7.8e-05
7.8e-05
7.8e-05
7.8e-05
7.8e-05
7.8e-05
7.8e-05
7.8e-05
7.8e-05
7.8e-05
7.8e-05
7.8e-05
7.8e-05
7.8e-05
7.8e-05
7.8e-05
7.8e-05
7.8e-05
7.8e-05
7.8e-05
7.8e-05
7.8e-05
7.8e-05
7.61225e-05
4.90612e-05
4.57636e-05
4.46986e-05
4.42141e-05
4.39722e-05
4.38473e-05
4.37934e-05
4.37875e-05
4.38213e-05
4.38956e-05
4.40202e-05
4.42225e-05
4.45677e-05
4.52165e-05
4.67975e-05
5.38426e-05
7.79043e-05
7.8e-05
7.8e-05
7.8e-05
7.8e-05
7.8e-05
7.8e-05
7.8e-05
7.8e-05
7.8e-05
7.8e-05
7.8e-05
7.8e-05
7.79455e-05
7.40522e-05
7.06072e-05
7.50737e-05
7.79809e-05
7.8e-05
7.8e-05
7.8e-05
7.8e-05
7.8e-05
7.8e-05
7.8e-05
7.78901e-05
7.25166e-05
6.68435e-05
7.01898e-05
7.72202e-05
7.79999e-05
7.8e-05
7.8e-05
7.8e-05
7.8e-05
7.8e-05
7.8e-05
7.8e-05
7.8e-05
7.8e-05
7.8e-05
7.8e-05
7.8e-05
7.8e-05
7.79968e-05
7.79334e-05
7.79926e-05
7.8e-05
7.8e-05
7.8e-05
7.8e-05
7.8e-05
7.8e-05
7.8e-05
7.8e-05
7.8e-05
7.8e-05
7.8e-05
7.78608e-05
6.0089e-05
4.7925e-05
4.6248e-05
4.53031e-05
4.5095e-05
4.54243e-05
4.63615e-05
4.77928e-05
6.06468e-05
7.75165e-05
7.8e-05
7.8e-05
7.8e-05
7.8e-05
7.8e-05
7.8e-05
7.8e-05
7.8e-05
7.8e-05
7.8e-05
7.8e-05
7.8e-05
7.8e-05
7.8e-05
7.8e-05
7.8e-05
7.8e-05
7.8e-05
7.8e-05
7.8e-05
7.8e-05
7.8e-05
7.8e-05
7.8e-05
7.8e-05
7.8e-05
7.8e-05
7.8e-05
7.8e-05
7.8e-05
7.8e-05
7.8e-05
7.8e-05
7.8e-05
7.8e-05
7.69616e-05
5.14564e-05
4.64338e-05
4.48893e-05
4.43347e-05
4.40655e-05
4.39413e-05
4.38975e-05
4.39193e-05
4.40089e-05
4.41799e-05
4.44921e-05
4.51436e-05
4.68396e-05
5.35604e-05
7.78329e-05
7.8e-05
7.8e-05
7.8e-05
7.8e-05
7.8e-05
7.8e-05
7.8e-05
7.8e-05
7.8e-05
7.8e-05
7.8e-05
7.8e-05
7.8e-05
7.8e-05
7.8e-05
7.8e-05
7.8e-05
7.8e-05
7.8e-05
7.8e-05
7.8e-05
7.8e-05
7.8e-05
7.8e-05
7.8e-05
7.8e-05
7.8e-05
7.79999e-05
7.8e-05
7.8e-05
7.8e-05
7.8e-05
7.8e-05
7.8e-05
7.8e-05
7.8e-05
7.8e-05
7.8e-05
7.8e-05
7.8e-05
7.8e-05
7.8e-05
7.8e-05
7.8e-05
7.8e-05
7.8e-05
7.8e-05
7.8e-05
7.8e-05
7.8e-05
7.8e-05
7.8e-05
7.8e-05
7.8e-05
7.8e-05
7.8e-05
7.8e-05
7.8e-05
7.8e-05
7.79969e-05
7.22953e-05
5.74567e-05
4.9098e-05
4.82182e-05
5.07025e-05
6.10397e-05
7.39308e-05
7.79983e-05
7.8e-05
7.8e-05
7.8e-05
7.8e-05
7.8e-05
7.8e-05
7.8e-05
7.8e-05
7.8e-05
7.8e-05
7.8e-05
7.8e-05
7.8e-05
7.8e-05
7.8e-05
7.8e-05
7.8e-05
7.8e-05
7.8e-05
7.8e-05
7.8e-05
7.8e-05
7.8e-05
7.8e-05
7.8e-05
7.8e-05
7.8e-05
7.8e-05
7.8e-05
7.8e-05
7.8e-05
7.8e-05
7.8e-05
7.8e-05
7.8e-05
7.8e-05
7.8e-05
7.78278e-05
5.94017e-05
4.74356e-05
4.54643e-05
4.47127e-05
4.44241e-05
4.42917e-05
4.42926e-05
4.44367e-05
4.47344e-05
4.53533e-05
4.74404e-05
5.80568e-05
7.79086e-05
7.8e-05
7.8e-05
7.8e-05
7.8e-05
7.8e-05
7.8e-05
7.8e-05
7.8e-05
7.8e-05
7.8e-05
7.8e-05
7.8e-05
7.8e-05
7.8e-05
7.8e-05
7.8e-05
7.8e-05
7.8e-05
7.8e-05
7.8e-05
7.8e-05
7.8e-05
7.8e-05
7.8e-05
7.8e-05
7.8e-05
7.8e-05
7.8e-05
7.8e-05
7.8e-05
7.8e-05
7.8e-05
7.8e-05
7.8e-05
7.8e-05
7.8e-05
7.8e-05
7.8e-05
7.8e-05
7.8e-05
7.8e-05
7.8e-05
7.8e-05
7.8e-05
7.8e-05
7.8e-05
7.8e-05
7.8e-05
7.8e-05
7.8e-05
7.8e-05
7.8e-05
7.8e-05
7.8e-05
7.8e-05
7.8e-05
7.8e-05
7.8e-05
7.8e-05
7.8e-05
7.8e-05
7.8e-05
7.79891e-05
7.71355e-05
7.6244e-05
7.77226e-05
7.79982e-05
7.8e-05
7.8e-05
7.8e-05
7.8e-05
7.8e-05
7.8e-05
7.8e-05
7.8e-05
7.8e-05
7.8e-05
7.8e-05
7.8e-05
7.8e-05
7.8e-05
7.8e-05
7.8e-05
7.8e-05
7.8e-05
7.8e-05
7.8e-05
7.8e-05
7.8e-05
7.8e-05
7.8e-05
7.8e-05
7.8e-05
7.8e-05
7.8e-05
7.8e-05
7.8e-05
7.8e-05
7.8e-05
7.8e-05
7.8e-05
7.8e-05
7.8e-05
7.8e-05
7.8e-05
7.8e-05
7.8e-05
7.79967e-05
7.12443e-05
5.12571e-05
4.7145e-05
4.61661e-05
4.55645e-05
4.54653e-05
4.59376e-05
4.68873e-05
4.88473e-05
6.83535e-05
7.79917e-05
7.8e-05
7.8e-05
7.8e-05
7.8e-05
7.8e-05
7.8e-05
7.8e-05
7.8e-05
7.8e-05
7.8e-05
7.8e-05
7.8e-05
7.8e-05
7.8e-05
7.8e-05
7.8e-05
7.8e-05
7.8e-05
7.8e-05
7.8e-05
7.8e-05
7.8e-05
7.8e-05
7.8e-05
7.8e-05
7.8e-05
7.8e-05
7.8e-05
7.8e-05
7.8e-05
7.8e-05
7.8e-05
7.8e-05
7.8e-05
7.8e-05
7.8e-05
7.8e-05
7.8e-05
7.8e-05
7.8e-05
7.8e-05
7.8e-05
7.8e-05
7.8e-05
7.8e-05
7.8e-05
7.8e-05
7.8e-05
7.8e-05
7.8e-05
7.8e-05
7.8e-05
7.8e-05
7.8e-05
7.8e-05
7.8e-05
7.8e-05
7.8e-05
7.8e-05
7.8e-05
7.8e-05
7.8e-05
7.8e-05
7.8e-05
7.8e-05
7.8e-05
7.8e-05
7.8e-05
7.8e-05
7.8e-05
7.8e-05
7.8e-05
7.8e-05
7.8e-05
7.8e-05
7.8e-05
7.8e-05
7.8e-05
7.8e-05
7.8e-05
7.8e-05
7.8e-05
7.8e-05
7.8e-05
7.8e-05
7.8e-05
7.8e-05
7.8e-05
7.8e-05
7.8e-05
7.8e-05
7.8e-05
7.8e-05
7.8e-05
7.8e-05
7.8e-05
7.8e-05
7.8e-05
7.8e-05
7.8e-05
7.8e-05
7.8e-05
7.8e-05
7.8e-05
7.8e-05
7.8e-05
7.8e-05
7.8e-05
7.8e-05
7.8e-05
7.78275e-05
7.00815e-05
5.89759e-05
5.21459e-05
5.09428e-05
5.53626e-05
6.61823e-05
7.68706e-05
7.8e-05
7.8e-05
7.8e-05
7.8e-05
7.8e-05
7.8e-05
7.8e-05
7.8e-05
7.8e-05
7.8e-05
7.8e-05
7.8e-05
7.8e-05
7.8e-05
7.8e-05
7.8e-05
7.8e-05
7.8e-05
7.8e-05
7.8e-05
7.8e-05
7.8e-05
7.8e-05
7.8e-05
7.8e-05
7.8e-05
7.8e-05
7.8e-05
7.8e-05
7.8e-05
7.8e-05
7.8e-05
7.8e-05
7.8e-05
7.8e-05
7.8e-05
7.8e-05
7.8e-05
7.8e-05
7.8e-05
7.8e-05
7.8e-05
7.8e-05
7.8e-05
7.8e-05
7.8e-05
7.8e-05
7.8e-05
7.8e-05
7.8e-05
7.8e-05
7.8e-05
7.8e-05
7.8e-05
7.8e-05
7.8e-05
7.8e-05
7.8e-05
7.8e-05
7.8e-05
7.8e-05
7.8e-05
7.8e-05
7.8e-05
7.8e-05
7.8e-05
7.8e-05
7.8e-05
7.8e-05
7.8e-05
7.8e-05
7.8e-05
7.8e-05
7.8e-05
7.8e-05
7.8e-05
7.8e-05
7.8e-05
7.8e-05
7.8e-05
7.8e-05
7.8e-05
7.8e-05
7.8e-05
7.8e-05
7.8e-05
7.8e-05
7.8e-05
7.8e-05
7.8e-05
7.8e-05
7.8e-05
7.8e-05
7.8e-05
7.8e-05
7.8e-05
7.8e-05
7.8e-05
7.8e-05
7.8e-05
7.8e-05
7.8e-05
7.8e-05
7.8e-05
7.8e-05
7.8e-05
7.8e-05
7.8e-05
7.8e-05
7.8e-05
7.8e-05
7.8e-05
7.8e-05
7.8e-05
7.79952e-05
7.78718e-05
7.77498e-05
7.79721e-05
7.79999e-05
7.8e-05
7.8e-05
7.8e-05
7.8e-05
7.8e-05
7.8e-05
7.8e-05
7.8e-05
7.8e-05
7.8e-05
7.8e-05
7.8e-05
7.8e-05
7.8e-05
7.8e-05
7.8e-05
7.8e-05
7.8e-05
7.8e-05
7.8e-05
7.8e-05
7.8e-05
7.8e-05
7.8e-05
7.8e-05
7.8e-05
7.8e-05
7.8e-05
7.8e-05
7.8e-05
7.8e-05
7.8e-05
7.8e-05
7.8e-05
7.8e-05
7.8e-05
7.8e-05
7.8e-05
7.8e-05
7.8e-05
7.8e-05
7.8e-05
7.8e-05
7.8e-05
7.8e-05
7.8e-05
7.8e-05
7.8e-05
7.8e-05
7.8e-05
7.8e-05
7.8e-05
7.8e-05
7.8e-05
7.8e-05
7.8e-05
7.8e-05
7.8e-05
7.8e-05
7.8e-05
7.8e-05
7.8e-05
7.8e-05
7.8e-05
7.8e-05
7.8e-05
7.8e-05
7.8e-05
7.8e-05
7.8e-05
7.8e-05
7.8e-05
7.8e-05
7.8e-05
7.8e-05
7.8e-05
7.8e-05
7.8e-05
7.8e-05
7.8e-05
7.8e-05
7.8e-05
7.8e-05
7.8e-05
7.8e-05
7.8e-05
7.8e-05
7.8e-05
7.8e-05
7.8e-05
7.8e-05
7.8e-05
7.8e-05
7.8e-05
7.8e-05
7.8e-05
7.8e-05
7.8e-05
7.8e-05
7.8e-05
7.8e-05
7.8e-05
7.8e-05
7.8e-05
7.8e-05
7.8e-05
7.8e-05
7.8e-05
7.8e-05
7.8e-05
7.8e-05
7.8e-05
7.8e-05
7.8e-05
7.8e-05
7.8e-05
7.8e-05
7.8e-05
7.8e-05
7.8e-05
7.8e-05
7.8e-05
7.8e-05
7.8e-05
7.8e-05
7.8e-05
7.8e-05
7.8e-05
7.8e-05
7.8e-05
7.8e-05
7.8e-05
7.8e-05
7.8e-05
7.8e-05
7.8e-05
7.8e-05
7.8e-05
7.8e-05
7.8e-05
7.8e-05
7.8e-05
7.8e-05
7.8e-05
7.8e-05
7.8e-05
7.8e-05
7.8e-05
7.8e-05
7.8e-05
7.8e-05
7.8e-05
7.8e-05
7.8e-05
7.8e-05
7.8e-05
7.8e-05
7.8e-05
7.8e-05
7.8e-05
7.8e-05
7.8e-05
7.8e-05
7.8e-05
7.8e-05
7.8e-05
7.8e-05
7.8e-05
7.8e-05
7.8e-05
7.8e-05
7.8e-05
7.8e-05
7.8e-05
7.8e-05
7.8e-05
7.8e-05
7.8e-05
7.8e-05
7.8e-05
7.8e-05
7.8e-05
7.8e-05
7.8e-05
7.8e-05
7.8e-05
7.8e-05
7.8e-05
7.8e-05
7.8e-05
7.8e-05
7.8e-05
7.8e-05
7.8e-05
7.8e-05
7.8e-05
7.8e-05
7.8e-05
7.8e-05
7.8e-05
7.8e-05
7.8e-05
7.8e-05
7.8e-05
7.8e-05
7.8e-05
7.8e-05
7.8e-05
7.8e-05
7.8e-05
7.8e-05
7.8e-05
7.8e-05
7.8e-05
7.8e-05
7.8e-05
7.8e-05
7.8e-05
7.8e-05
7.8e-05
7.8e-05
7.8e-05
7.8e-05
7.8e-05
7.8e-05
7.8e-05
7.8e-05
7.8e-05
7.8e-05
7.8e-05
7.8e-05
7.8e-05
7.8e-05
7.8e-05
7.8e-05
7.8e-05
7.8e-05
7.8e-05
7.8e-05
7.8e-05
7.8e-05
7.8e-05
7.8e-05
7.8e-05
7.8e-05
7.8e-05
7.8e-05
7.8e-05
7.8e-05
7.8e-05
7.8e-05
7.8e-05
7.8e-05
7.8e-05
7.8e-05
7.8e-05
7.8e-05
7.8e-05
7.8e-05
7.8e-05
7.8e-05
7.8e-05
7.8e-05
7.8e-05
7.8e-05
7.8e-05
7.8e-05
7.8e-05
7.8e-05
7.8e-05
7.8e-05
7.8e-05
7.8e-05
7.8e-05
7.8e-05
7.8e-05
7.8e-05
7.8e-05
7.8e-05
7.8e-05
7.8e-05
7.8e-05
7.8e-05
7.8e-05
7.8e-05
7.8e-05
7.8e-05
7.8e-05
7.8e-05
7.8e-05
7.8e-05
7.8e-05
7.8e-05
7.8e-05
7.8e-05
7.8e-05
7.8e-05
7.8e-05
7.8e-05
7.8e-05
7.8e-05
7.8e-05
7.8e-05
7.8e-05
7.8e-05
7.8e-05
7.8e-05
7.8e-05
7.8e-05
7.8e-05
7.8e-05
7.8e-05
7.8e-05
7.8e-05
7.8e-05
7.8e-05
7.8e-05
7.8e-05
7.8e-05
7.8e-05
7.8e-05
7.8e-05
7.8e-05
7.8e-05
7.8e-05
7.8e-05
7.8e-05
7.8e-05
7.8e-05
7.8e-05
7.8e-05
7.8e-05
7.8e-05
7.8e-05
7.8e-05
7.8e-05
7.8e-05
7.8e-05
7.8e-05
7.8e-05
7.8e-05
7.8e-05
7.8e-05
7.8e-05
7.8e-05
7.8e-05
7.8e-05
7.8e-05
7.8e-05
7.8e-05
7.8e-05
7.8e-05
7.8e-05
7.8e-05
7.8e-05
7.8e-05
7.8e-05
7.8e-05
7.8e-05
7.8e-05
7.8e-05
7.8e-05
7.8e-05
7.8e-05
7.8e-05
7.8e-05
7.8e-05
7.8e-05
7.8e-05
7.8e-05
7.8e-05
7.8e-05
7.8e-05
7.8e-05
7.8e-05
7.8e-05
7.8e-05
7.8e-05
7.8e-05
7.8e-05
7.8e-05
7.8e-05
7.8e-05
7.8e-05
7.8e-05
7.8e-05
7.8e-05
7.8e-05
7.8e-05
7.8e-05
7.8e-05
7.8e-05
7.8e-05
7.8e-05
7.8e-05
7.8e-05
7.8e-05
7.8e-05
7.8e-05
7.8e-05
7.8e-05
7.8e-05
7.8e-05
7.8e-05
7.8e-05
7.8e-05
7.8e-05
7.8e-05
7.8e-05
7.8e-05
7.8e-05
7.8e-05
7.8e-05
7.8e-05
7.8e-05
7.8e-05
7.8e-05
7.8e-05
7.8e-05
7.8e-05
7.8e-05
7.8e-05
7.8e-05
7.8e-05
7.8e-05
7.8e-05
7.8e-05
7.8e-05
7.8e-05
7.8e-05
7.8e-05
7.8e-05
7.8e-05
7.8e-05
7.8e-05
7.8e-05
7.8e-05
7.8e-05
7.8e-05
7.8e-05
7.8e-05
7.8e-05
7.8e-05
7.8e-05
7.8e-05
7.8e-05
7.8e-05
7.8e-05
7.8e-05
7.8e-05
7.8e-05
7.8e-05
7.8e-05
7.8e-05
7.8e-05
7.8e-05
7.8e-05
7.8e-05
7.8e-05
7.8e-05
7.8e-05
7.8e-05
7.8e-05
7.8e-05
7.8e-05
7.8e-05
7.8e-05
7.8e-05
7.8e-05
7.8e-05
7.8e-05
7.8e-05
7.8e-05
7.8e-05
7.8e-05
7.8e-05
7.8e-05
7.8e-05
7.8e-05
7.8e-05
7.8e-05
7.8e-05
7.8e-05
7.8e-05
7.8e-05
7.8e-05
7.8e-05
7.8e-05
7.8e-05
7.8e-05
7.8e-05
7.8e-05
7.8e-05
7.8e-05
7.8e-05
7.8e-05
7.8e-05
7.8e-05
7.8e-05
7.8e-05
7.8e-05
7.8e-05
7.8e-05
7.8e-05
7.8e-05
7.8e-05
7.8e-05
7.8e-05
7.8e-05
7.8e-05
7.8e-05
7.8e-05
7.8e-05
7.8e-05
7.8e-05
7.8e-05
7.8e-05
7.8e-05
7.8e-05
7.8e-05
7.8e-05
7.8e-05
7.8e-05
7.8e-05
7.8e-05
7.8e-05
7.8e-05
7.8e-05
7.8e-05
7.8e-05
7.8e-05
7.8e-05
7.8e-05
7.8e-05
7.8e-05
7.8e-05
7.8e-05
7.8e-05
7.8e-05
7.8e-05
7.8e-05
7.8e-05
7.8e-05
7.8e-05
7.8e-05
7.8e-05
7.8e-05
7.8e-05
7.8e-05
7.8e-05
7.8e-05
7.8e-05
7.8e-05
7.8e-05
7.8e-05
7.8e-05
7.8e-05
7.8e-05
7.8e-05
7.8e-05
7.8e-05
7.8e-05
7.8e-05
7.8e-05
7.8e-05
7.8e-05
7.8e-05
7.8e-05
7.8e-05
7.8e-05
7.8e-05
7.8e-05
7.8e-05
7.8e-05
7.8e-05
7.8e-05
7.8e-05
7.8e-05
7.8e-05
7.8e-05
7.8e-05
7.8e-05
7.8e-05
7.8e-05
7.8e-05
7.8e-05
7.8e-05
7.8e-05
7.8e-05
7.8e-05
7.8e-05
7.8e-05
7.8e-05
7.8e-05
7.8e-05
7.8e-05
7.8e-05
7.8e-05
7.8e-05
7.8e-05
7.8e-05
7.8e-05
7.8e-05
7.8e-05
7.8e-05
7.8e-05
7.8e-05
7.8e-05
7.8e-05
7.8e-05
7.8e-05
7.8e-05
7.8e-05
7.8e-05
7.8e-05
7.8e-05
7.8e-05
7.8e-05
7.8e-05
7.8e-05
7.8e-05
7.8e-05
7.8e-05
7.8e-05
7.8e-05
7.8e-05
7.8e-05
7.8e-05
7.8e-05
7.8e-05
7.8e-05
7.8e-05
7.8e-05
7.8e-05
7.8e-05
7.8e-05
7.8e-05
7.8e-05
7.8e-05
7.8e-05
7.8e-05
7.8e-05
7.8e-05
7.8e-05
7.8e-05
7.8e-05
7.8e-05
7.8e-05
7.8e-05
7.8e-05
7.8e-05
7.8e-05
7.8e-05
7.8e-05
7.8e-05
7.8e-05
7.8e-05
7.8e-05
7.8e-05
7.8e-05
7.8e-05
7.8e-05
7.8e-05
7.8e-05
7.8e-05
7.8e-05
7.8e-05
7.8e-05
7.8e-05
7.8e-05
7.8e-05
7.8e-05
7.8e-05
7.8e-05
7.8e-05
7.8e-05
7.8e-05
7.8e-05
7.8e-05
7.8e-05
7.8e-05
7.8e-05
7.8e-05
7.8e-05
7.8e-05
7.8e-05
7.8e-05
7.8e-05
7.8e-05
7.8e-05
7.8e-05
7.8e-05
7.8e-05
7.8e-05
7.8e-05
7.8e-05
7.8e-05
7.8e-05
7.8e-05
7.8e-05
7.8e-05
7.8e-05
7.8e-05
7.8e-05
7.8e-05
7.8e-05
7.8e-05
7.8e-05
7.8e-05
7.8e-05
7.8e-05
7.8e-05
7.8e-05
7.8e-05
7.8e-05
7.8e-05
7.8e-05
7.8e-05
7.8e-05
7.8e-05
7.8e-05
7.8e-05
7.8e-05
7.8e-05
7.8e-05
7.8e-05
7.8e-05
7.8e-05
7.8e-05
7.8e-05
7.8e-05
7.8e-05
7.8e-05
7.8e-05
7.8e-05
7.8e-05
7.8e-05
7.8e-05
7.8e-05
7.8e-05
7.8e-05
7.8e-05
7.8e-05
7.8e-05
7.8e-05
7.8e-05
7.8e-05
7.8e-05
7.8e-05
7.8e-05
7.8e-05
7.8e-05
7.8e-05
7.8e-05
7.8e-05
7.8e-05
7.8e-05
7.8e-05
7.8e-05
7.8e-05
7.8e-05
7.8e-05
7.8e-05
7.8e-05
7.8e-05
7.8e-05
7.8e-05
7.8e-05
7.8e-05
7.8e-05
7.8e-05
7.8e-05
7.8e-05
7.8e-05
7.8e-05
7.8e-05
7.8e-05
7.8e-05
7.8e-05
7.8e-05
7.8e-05
7.8e-05
7.8e-05
7.8e-05
7.8e-05
7.8e-05
7.8e-05
7.8e-05
7.8e-05
7.8e-05
7.8e-05
7.8e-05
7.8e-05
7.8e-05
7.8e-05
7.8e-05
7.8e-05
7.8e-05
7.8e-05
7.8e-05
7.8e-05
7.8e-05
7.8e-05
7.8e-05
7.8e-05
7.8e-05
7.8e-05
7.8e-05
7.8e-05
7.8e-05
7.8e-05
7.8e-05
7.8e-05
7.8e-05
7.8e-05
7.8e-05
7.8e-05
7.8e-05
7.8e-05
7.8e-05
7.8e-05
7.8e-05
7.8e-05
7.8e-05
7.8e-05
7.8e-05
7.8e-05
7.8e-05
7.8e-05
7.8e-05
7.8e-05
7.8e-05
7.8e-05
7.8e-05
7.8e-05
7.8e-05
7.8e-05
7.8e-05
7.8e-05
7.8e-05
7.8e-05
7.8e-05
7.8e-05
7.8e-05
7.8e-05
7.8e-05
7.8e-05
7.8e-05
7.8e-05
7.8e-05
7.8e-05
7.8e-05
7.8e-05
7.8e-05
7.8e-05
7.8e-05
7.8e-05
7.8e-05
7.8e-05
7.8e-05
7.8e-05
7.8e-05
7.8e-05
7.8e-05
7.8e-05
7.8e-05
7.8e-05
7.8e-05
7.8e-05
7.8e-05
7.8e-05
7.8e-05
7.8e-05
7.8e-05
7.8e-05
7.8e-05
7.8e-05
7.8e-05
7.8e-05
7.8e-05
7.8e-05
7.8e-05
7.8e-05
7.8e-05
7.8e-05
7.8e-05
7.8e-05
7.8e-05
7.8e-05
7.8e-05
7.8e-05
7.8e-05
7.8e-05
7.8e-05
7.8e-05
7.8e-05
7.8e-05
7.8e-05
7.8e-05
7.8e-05
7.8e-05
7.8e-05
7.8e-05
7.8e-05
7.8e-05
7.8e-05
7.8e-05
7.8e-05
7.8e-05
7.8e-05
7.8e-05
7.8e-05
7.8e-05
7.8e-05
7.8e-05
7.8e-05
7.8e-05
7.8e-05
7.8e-05
7.8e-05
7.8e-05
7.8e-05
7.8e-05
7.8e-05
7.8e-05
7.8e-05
7.8e-05
7.8e-05
7.8e-05
7.8e-05
7.8e-05
7.8e-05
7.8e-05
7.8e-05
7.8e-05
7.8e-05
7.8e-05
7.8e-05
7.8e-05
7.8e-05
7.8e-05
7.8e-05
7.8e-05
7.8e-05
7.8e-05
7.8e-05
7.8e-05
7.8e-05
7.8e-05
7.8e-05
7.8e-05
7.8e-05
7.8e-05
7.8e-05
7.8e-05
7.8e-05
7.8e-05
7.8e-05
7.8e-05
7.8e-05
7.8e-05
7.8e-05
7.8e-05
7.8e-05
7.8e-05
7.8e-05
7.8e-05
7.8e-05
7.8e-05
7.8e-05
7.8e-05
7.8e-05
7.8e-05
7.8e-05
7.8e-05
7.8e-05
7.8e-05
7.8e-05
7.8e-05
7.8e-05
7.8e-05
7.8e-05
7.8e-05
7.8e-05
7.8e-05
7.8e-05
7.8e-05
7.8e-05
7.8e-05
7.8e-05
7.8e-05
7.8e-05
7.8e-05
7.8e-05
7.8e-05
7.8e-05
7.8e-05
7.8e-05
7.8e-05
7.8e-05
7.8e-05
7.8e-05
7.8e-05
7.8e-05
7.8e-05
7.8e-05
7.8e-05
7.8e-05
7.8e-05
7.8e-05
7.8e-05
7.8e-05
7.8e-05
7.8e-05
7.8e-05
7.8e-05
7.8e-05
7.8e-05
7.8e-05
7.8e-05
7.8e-05
7.8e-05
7.8e-05
7.8e-05
7.8e-05
7.8e-05
7.8e-05
7.8e-05
7.8e-05
7.8e-05
7.8e-05
7.8e-05
7.8e-05
7.8e-05
7.8e-05
7.8e-05
7.8e-05
7.8e-05
7.8e-05
7.8e-05
7.8e-05
7.8e-05
7.8e-05
7.8e-05
7.8e-05
7.8e-05
7.8e-05
7.8e-05
7.8e-05
7.8e-05
7.8e-05
7.8e-05
7.8e-05
7.8e-05
7.8e-05
7.8e-05
7.8e-05
7.8e-05
7.8e-05
7.8e-05
7.8e-05
7.8e-05
7.8e-05
7.8e-05
7.8e-05
7.8e-05
7.8e-05
7.8e-05
7.8e-05
7.8e-05
7.8e-05
7.8e-05
7.8e-05
7.8e-05
7.8e-05
7.8e-05
7.8e-05
7.8e-05
7.8e-05
7.8e-05
7.8e-05
7.8e-05
7.8e-05
7.8e-05
7.8e-05
7.8e-05
7.8e-05
7.8e-05
7.8e-05
7.8e-05
7.8e-05
7.8e-05
7.8e-05
7.8e-05
7.8e-05
7.8e-05
7.8e-05
7.8e-05
7.8e-05
7.8e-05
7.8e-05
7.8e-05
7.8e-05
7.8e-05
7.8e-05
7.8e-05
7.8e-05
7.8e-05
7.8e-05
7.8e-05
7.8e-05
7.8e-05
7.8e-05
7.8e-05
7.8e-05
7.8e-05
7.8e-05
7.8e-05
7.8e-05
7.8e-05
7.8e-05
7.8e-05
7.8e-05
7.8e-05
7.8e-05
7.8e-05
7.8e-05
7.8e-05
7.8e-05
7.8e-05
7.8e-05
7.8e-05
7.8e-05
7.8e-05
7.8e-05
7.8e-05
7.8e-05
7.8e-05
7.8e-05
7.8e-05
7.8e-05
7.8e-05
7.8e-05
7.8e-05
7.8e-05
7.8e-05
7.8e-05
7.8e-05
7.8e-05
7.8e-05
7.8e-05
7.8e-05
7.8e-05
7.8e-05
7.8e-05
7.8e-05
7.8e-05
7.8e-05
7.8e-05
7.8e-05
7.8e-05
7.8e-05
7.8e-05
7.8e-05
7.8e-05
7.8e-05
7.8e-05
7.8e-05
7.8e-05
7.8e-05
7.8e-05
7.8e-05
7.8e-05
7.8e-05
7.8e-05
7.8e-05
7.8e-05
7.8e-05
7.8e-05
7.8e-05
7.8e-05
7.8e-05
7.8e-05
7.8e-05
7.8e-05
7.8e-05
7.8e-05
7.8e-05
7.8e-05
7.8e-05
7.8e-05
7.8e-05
7.8e-05
7.8e-05
7.8e-05
7.8e-05
7.8e-05
7.8e-05
7.8e-05
7.8e-05
7.8e-05
7.8e-05
7.8e-05
7.8e-05
7.8e-05
7.8e-05
7.8e-05
7.8e-05
7.8e-05
7.8e-05
7.8e-05
7.8e-05
7.8e-05
7.8e-05
7.8e-05
7.8e-05
7.8e-05
7.8e-05
7.8e-05
7.8e-05
7.8e-05
7.8e-05
7.8e-05
7.8e-05
7.8e-05
7.8e-05
7.8e-05
7.8e-05
7.8e-05
7.8e-05
7.8e-05
7.8e-05
7.8e-05
7.8e-05
7.8e-05
7.8e-05
7.8e-05
7.8e-05
7.8e-05
7.8e-05
7.8e-05
7.8e-05
7.8e-05
7.8e-05
7.8e-05
7.8e-05
7.8e-05
7.8e-05
7.8e-05
7.8e-05
7.8e-05
7.8e-05
7.8e-05
7.8e-05
7.8e-05
7.8e-05
7.8e-05
7.8e-05
7.8e-05
7.8e-05
7.8e-05
7.8e-05
7.8e-05
7.8e-05
7.8e-05
7.8e-05
7.8e-05