/*--------------------------------*- C++ -*----------------------------------*\
| =========                 |                                                 |
| \\      /  F ield         | OpenFOAM: The Open Source CFD Toolbox           |
|  \\    /   O peration     | Version:  2406                                  |
|   \\  /    A nd           | Website:  www.openfoam.com                      |
|    \\/     M anipulation  |                                                 |
\*---------------------------------------------------------------------------*/
FoamFile
{
    version     2.0;
    format      ascii;
    arch        "LSB;label=32;scalar=64";
    class       volScalarField;
    location    "4.4";
    object      C_0;
}
// * * * * * * * * * * * * * * * * * * * * * * * * * * * * * * * * * * * * * //

dimensions      [1 -3 0 0 0 0 0];

internalField   nonuniform List<scalar> 
14400
(
0.384347
0.379319
0.371861
0.36399
0.357086
0.352059
0.349493
0.349737
0.352965
0.359192
0.368279
0.379902
0.393493
0.408087
0.421904
0.43056
0.426456
0.415639
0.403097
0.391473
0.382196
0.376154
0.373969
0.376125
0.383033
0.395069
0.412599
0.435989
0.465607
0.501799
0.544831
0.594729
0.650812
0.70985
0.752939
0.781114
0.80539
0.826722
0.845437
0.861787
0.87597
0.888142
0.898428
0.906924
0.913709
0.918842
0.922366
0.924313
0.924701
0.923538
0.920821
0.916534
0.910651
0.903133
0.893927
0.882965
0.870161
0.855406
0.838564
0.819466
0.7979
0.773598
0.746219
0.710808
0.658712
0.596826
0.54014
0.49035
0.447484
0.411227
0.381176
0.356927
0.338105
0.324386
0.315498
0.311226
0.311407
0.315922
0.324689
0.337652
0.354756
0.375916
0.400946
0.429398
0.459821
0.48406
0.496947
0.502284
0.501718
0.494479
0.476581
0.452051
0.428489
0.407489
0.389624
0.375097
0.363901
0.355879
0.350734
0.348033
0.347203
0.347552
0.348338
0.348928
0.349068
0.349053
0.34956
0.351368
0.35521
0.361703
0.371334
0.38446
0.401311
0.421979
0.446362
0.473996
0.503329
0.525768
0.537195
0.542255
0.400387
0.393133
0.383825
0.374624
0.366799
0.361163
0.35824
0.358346
0.361636
0.368123
0.377669
0.389962
0.404454
0.420199
0.435325
0.444253
0.441017
0.428568
0.414404
0.401642
0.391551
0.384921
0.38233
0.384239
0.391044
0.403113
0.420805
0.444483
0.474512
0.511238
0.55494
0.605668
0.66253
0.718512
0.757367
0.78448
0.808333
0.829339
0.847801
0.863953
0.87798
0.890029
0.900217
0.908636
0.915362
0.92045
0.923943
0.925871
0.926252
0.925093
0.92239
0.91813
0.912286
0.90482
0.895683
0.884808
0.872112
0.857492
0.840819
0.821934
0.800637
0.776674
0.749717
0.716996
0.668286
0.606525
0.549422
0.499066
0.455639
0.418883
0.388412
0.363826
0.34475
0.330859
0.321883
0.317606
0.317867
0.322546
0.331565
0.344865
0.362393
0.384057
0.409646
0.438607
0.469165
0.491789
0.503084
0.508186
0.507915
0.502095
0.48691
0.462679
0.438611
0.417076
0.398799
0.384015
0.372728
0.364795
0.359931
0.357697
0.357493
0.358549
0.359957
0.360805
0.360674
0.360029
0.359822
0.361001
0.364372
0.370579
0.380113
0.393319
0.410412
0.431468
0.456343
0.484409
0.513336
0.532905
0.542655
0.547316
0.430231
0.419752
0.407225
0.39564
0.38612
0.379341
0.375741
0.375588
0.379009
0.386006
0.396445
0.41002
0.426185
0.4439
0.460304
0.466495
0.464918
0.452659
0.436417
0.421798
0.410235
0.402493
0.399118
0.400545
0.407152
0.419291
0.437309
0.461557
0.492386
0.530126
0.575013
0.626993
0.684601
0.732741
0.76507
0.791087
0.814122
0.834501
0.852476
0.868245
0.881969
0.893777
0.903773
0.912042
0.918651
0.923653
0.927085
0.928976
0.929343
0.928191
0.925518
0.921309
0.915542
0.90818
0.899176
0.888471
0.875987
0.861631
0.845287
0.826814
0.806038
0.782743
0.756658
0.727257
0.685327
0.625888
0.568112
0.516607
0.472057
0.434307
0.403
0.37774
0.358155
0.34392
0.334766
0.330481
0.330901
0.335909
0.345428
0.3594
0.37777
0.400434
0.427135
0.457078
0.486993
0.505391
0.514758
0.51946
0.519586
0.515163
0.504888
0.483737
0.458757
0.43622
0.417163
0.401882
0.390414
0.382657
0.37836
0.377088
0.378202
0.380821
0.383714
0.385219
0.384403
0.382255
0.380476
0.380328
0.38273
0.38836
0.397703
0.411071
0.428634
0.450431
0.476247
0.505132
0.530668
0.5449
0.553008
0.557039
0.46364
0.456189
0.440934
0.426574
0.414866
0.406544
0.402017
0.401513
0.405133
0.412871
0.424586
0.439925
0.45824
0.477912
0.490551
0.493456
0.493017
0.485754
0.468509
0.451772
0.438258
0.428959
0.424463
0.425196
0.431523
0.443778
0.462288
0.487382
0.519375
0.558544
0.604915
0.657697
0.711431
0.74886
0.776189
0.800675
0.822567
0.842068
0.859356
0.874582
0.887873
0.899336
0.909057
0.917108
0.923549
0.928424
0.931768
0.933606
0.933951
0.932811
0.93018
0.926048
0.920392
0.91318
0.904371
0.893912
0.881734
0.867758
0.851885
0.833998
0.813958
0.791603
0.766743
0.739178
0.70552
0.655414
0.596367
0.543118
0.496923
0.457712
0.425165
0.3989
0.378551
0.363798
0.354375
0.350075
0.350734
0.356236
0.3665
0.381468
0.401073
0.425177
0.453438
0.484619
0.509956
0.523017
0.531061
0.535312
0.535804
0.532645
0.526064
0.51225
0.488245
0.464776
0.444713
0.428742
0.416996
0.409486
0.406043
0.406248
0.40945
0.414712
0.42051
0.423393
0.421148
0.416071
0.411635
0.409392
0.410305
0.415067
0.424143
0.43776
0.455978
0.47874
0.505413
0.533301
0.55091
0.560777
0.567437
0.570792
0.496344
0.494042
0.48317
0.466824
0.452797
0.442695
0.437075
0.436168
0.440054
0.44872
0.462005
0.479301
0.49918
0.515156
0.521382
0.523514
0.52359
0.521311
0.509797
0.491366
0.475641
0.46444
0.458543
0.458402
0.464386
0.476812
0.495982
0.522187
0.555665
0.596635
0.644694
0.69728
0.737097
0.76512
0.790115
0.812857
0.833402
0.851847
0.868298
0.882854
0.895607
0.906636
0.916009
0.923786
0.930012
0.934727
0.937958
0.939727
0.940046
0.93892
0.936345
0.93231
0.926797
0.919779
0.911218
0.90107
0.88928
0.875781
0.860496
0.843334
0.824195
0.802966
0.779533
0.753788
0.725628
0.687751
0.632884
0.578517
0.530448
0.489388
0.45523
0.427641
0.406276
0.390825
0.381039
0.376716
0.377695
0.383852
0.3951
0.41137
0.432557
0.458377
0.487986
0.517581
0.534661
0.544362
0.551156
0.554924
0.555673
0.553522
0.548723
0.541435
0.52622
0.502507
0.481372
0.464608
0.45246
0.445215
0.442887
0.445044
0.450992
0.459875
0.470382
0.474609
0.470939
0.46113
0.453056
0.44806
0.447009
0.450637
0.459418
0.473399
0.492362
0.516181
0.543042
0.561607
0.571968
0.579794
0.58517
0.587901
0.53026
0.529569
0.525869
0.514814
0.499399
0.487571
0.480841
0.479538
0.483725
0.493386
0.508363
0.526901
0.542748
0.550533
0.553664
0.555627
0.556249
0.55555
0.551788
0.539191
0.52216
0.508981
0.501527
0.50038
0.50599
0.518651
0.538639
0.566189
0.601287
0.644127
0.692558
0.731328
0.759099
0.783547
0.806295
0.827234
0.846336
0.863621
0.879134
0.89293
0.905064
0.915591
0.924559
0.932012
0.937987
0.942512
0.94561
0.947298
0.947586
0.946477
0.943969
0.940051
0.934708
0.927918
0.919651
0.909871
0.898534
0.885591
0.870983
0.854648
0.83652
0.816534
0.794634
0.770788
0.745011
0.716801
0.676984
0.622926
0.572919
0.529686
0.493598
0.464391
0.441761
0.425428
0.415176
0.410823
0.412204
0.419172
0.431623
0.449469
0.472534
0.500205
0.530323
0.550255
0.560637
0.5686
0.574275
0.577556
0.578443
0.577047
0.573595
0.568437
0.561307
0.547353
0.526406
0.509276
0.496565
0.489505
0.4885
0.492876
0.501395
0.512571
0.51827
0.51997
0.518806
0.513726
0.503315
0.495745
0.492451
0.494736
0.503291
0.517783
0.537035
0.560668
0.577419
0.587283
0.595065
0.601259
0.605549
0.60774
0.564867
0.564542
0.564009
0.560873
0.552638
0.540232
0.532872
0.531315
0.535743
0.545974
0.561914
0.57424
0.581263
0.584435
0.587113
0.58908
0.590231
0.590602
0.590371
0.586863
0.57646
0.562243
0.553419
0.551231
0.556507
0.569465
0.590359
0.619427
0.655547
0.698643
0.733156
0.758853
0.781777
0.803674
0.824284
0.843449
0.861088
0.877168
0.891688
0.904666
0.916128
0.926104
0.934624
0.941718
0.947411
0.951723
0.954672
0.95627
0.956523
0.955435
0.953002
0.949217
0.944067
0.937534
0.929597
0.920228
0.909396
0.897064
0.883197
0.867754
0.850703
0.832015
0.811681
0.789721
0.766197
0.741236
0.713581
0.674717
0.624237
0.57882
0.540676
0.50962
0.485501
0.468092
0.457258
0.452867
0.454741
0.462662
0.476475
0.496043
0.521021
0.549428
0.569822
0.580633
0.588683
0.595126
0.599789
0.602579
0.603495
0.602629
0.600173
0.596419
0.591762
0.586061
0.575413
0.561403
0.548206
0.541212
0.541541
0.547674
0.553707
0.557327
0.557306
0.557181
0.557914
0.558536
0.555604
0.550422
0.545308
0.546246
0.554683
0.569625
0.585871
0.598791
0.606768
0.613668
0.61975
0.624628
0.628028
0.629771
0.599798
0.599724
0.599673
0.599849
0.598992
0.595153
0.590963
0.589667
0.594044
0.601836
0.609192
0.613564
0.616171
0.618828
0.621274
0.623348
0.624992
0.626257
0.627313
0.62844
0.627318
0.621902
0.613349
0.610537
0.615749
0.629012
0.650525
0.680891
0.714402
0.742638
0.76448
0.785162
0.805484
0.825088
0.843716
0.86119
0.877398
0.892274
0.905785
0.917918
0.928677
0.938072
0.946116
0.952826
0.958215
0.962298
0.965086
0.966585
0.966802
0.965736
0.963387
0.959747
0.954807
0.948556
0.940976
0.932049
0.921756
0.910074
0.896985
0.88247
0.866522
0.849142
0.830356
0.810216
0.78882
0.76632
0.74294
0.717222
0.682029
0.636279
0.596693
0.563733
0.537985
0.519285
0.507734
0.503301
0.505781
0.514748
0.529902
0.550903
0.576479
0.594743
0.604805
0.612047
0.618335
0.623433
0.627176
0.629478
0.630329
0.629802
0.628048
0.625302
0.621876
0.618152
0.614486
0.608371
0.601502
0.596507
0.595092
0.595739
0.595799
0.594207
0.593463
0.593412
0.594098
0.595499
0.597799
0.598501
0.598799
0.601433
0.607919
0.616459
0.624372
0.629883
0.635493
0.640872
0.645637
0.649477
0.652163
0.653544
0.634803
0.634882
0.635112
0.635634
0.636662
0.638374
0.638818
0.639678
0.642266
0.645317
0.646841
0.64875
0.651024
0.653433
0.655807
0.658047
0.66013
0.662123
0.664183
0.666572
0.669663
0.672537
0.673353
0.675516
0.68171
0.695088
0.715041
0.73714
0.757838
0.775498
0.793565
0.811832
0.829907
0.847478
0.864301
0.880198
0.895041
0.908746
0.921258
0.932545
0.942591
0.95139
0.958943
0.965253
0.970326
0.974169
0.976787
0.978184
0.978362
0.977322
0.975062
0.971576
0.96686
0.960905
0.9537
0.945237
0.935504
0.924493
0.912198
0.89862
0.883771
0.867677
0.850383
0.831968
0.812546
0.792283
0.771402
0.750199
0.72792
0.698247
0.660846
0.626632
0.599485
0.579257
0.566835
0.562354
0.565609
0.575545
0.59132
0.611689
0.625595
0.633288
0.63902
0.644413
0.649178
0.653093
0.656004
0.657827
0.658542
0.6582
0.656916
0.654867
0.652287
0.649451
0.646654
0.644194
0.641973
0.639241
0.636422
0.633361
0.631076
0.629629
0.628928
0.628907
0.629565
0.630927
0.633087
0.636172
0.640154
0.64405
0.648067
0.651703
0.655645
0.659998
0.664447
0.668691
0.672448
0.67548
0.677604
0.678697
0.669729
0.66989
0.670258
0.670913
0.671957
0.673457
0.675347
0.677305
0.678742
0.680073
0.681666
0.683572
0.685741
0.688072
0.690475
0.692902
0.69536
0.697919
0.700726
0.704001
0.708052
0.713281
0.720214
0.727374
0.736167
0.748278
0.762468
0.776449
0.790961
0.806424
0.82245
0.838692
0.854836
0.870615
0.885813
0.900258
0.913822
0.92641
0.937955
0.948413
0.957752
0.965955
0.973011
0.978916
0.983667
0.987264
0.989709
0.991001
0.991141
0.990128
0.987961
0.984637
0.980152
0.974502
0.967684
0.959694
0.95053
0.940194
0.928693
0.916042
0.902267
0.887409
0.871532
0.854726
0.837114
0.818863
0.800187
0.781355
0.762694
0.744311
0.721528
0.695438
0.668938
0.647269
0.634037
0.629376
0.633368
0.643306
0.653697
0.661847
0.665914
0.669632
0.673574
0.677409
0.68087
0.683756
0.685922
0.687283
0.687813
0.68754
0.686547
0.684963
0.682954
0.680711
0.678421
0.676222
0.674105
0.67191
0.669525
0.667281
0.6655
0.664305
0.663714
0.66372
0.664329
0.665557
0.667433
0.669966
0.673057
0.676406
0.679678
0.682973
0.68642
0.690016
0.693608
0.696997
0.699983
0.70239
0.704076
0.704944
0.704494
0.704693
0.705115
0.705803
0.706798
0.708106
0.709665
0.711312
0.712871
0.714444
0.716179
0.718131
0.720297
0.722639
0.72512
0.727727
0.730486
0.733469
0.736799
0.740655
0.745263
0.750888
0.75779
0.766063
0.7757
0.786157
0.797439
0.809747
0.822915
0.836788
0.85112
0.865649
0.880129
0.894335
0.908077
0.9212
0.933579
0.945117
0.955741
0.965398
0.974049
0.981666
0.988232
0.993733
0.998162
1.00151
1.00378
1.00497
1.00507
1.00409
1.00202
0.998858
0.994608
0.989269
0.98284
0.975324
0.966728
0.95706
0.946338
0.934588
0.921844
0.908162
0.893611
0.878289
0.862321
0.845868
0.829128
0.812342
0.79579
0.779792
0.764721
0.749164
0.732617
0.717329
0.705917
0.699945
0.698698
0.700282
0.70191
0.702199
0.70362
0.705751
0.708235
0.710777
0.713139
0.715139
0.716644
0.71757
0.717885
0.7176
0.71677
0.715483
0.713856
0.71202
0.710095
0.708169
0.706265
0.70436
0.702466
0.700735
0.699338
0.698378
0.697902
0.697931
0.698474
0.699539
0.701124
0.7032
0.705678
0.708399
0.711211
0.71409
0.717045
0.720039
0.722971
0.725705
0.728099
0.730021
0.731366
0.732058
0.739059
0.739271
0.739708
0.740387
0.741323
0.742506
0.743893
0.745408
0.746986
0.748655
0.750473
0.752477
0.754677
0.757066
0.759637
0.7624
0.765389
0.768671
0.772348
0.776556
0.781455
0.787218
0.793986
0.801821
0.810683
0.820395
0.830896
0.842185
0.854163
0.866693
0.879591
0.892658
0.905695
0.918517
0.930961
0.942886
0.954176
0.964737
0.974494
0.983389
0.991379
0.99843
1.00452
1.00962
1.01373
1.01684
1.01894
1.02002
1.02009
1.01914
1.01716
1.01417
1.01015
1.00512
0.999082
0.992036
0.983996
0.974981
0.965013
0.954125
0.942362
0.929781
0.916461
0.902497
0.888014
0.87316
0.858116
0.843093
0.828332
0.814099
0.800681
0.788366
0.77757
0.767965
0.759416
0.752722
0.747496
0.743491
0.741257
0.740416
0.740614
0.741518
0.742838
0.744324
0.745771
0.747017
0.747943
0.748469
0.748558
0.748206
0.747448
0.746342
0.744968
0.743416
0.741769
0.740094
0.738428
0.736797
0.735244
0.733857
0.732739
0.731966
0.731587
0.731626
0.732097
0.733001
0.734324
0.736031
0.738056
0.740301
0.742677
0.745132
0.747632
0.750125
0.752531
0.754753
0.756685
0.758231
0.759309
0.759863
0.773412
0.773625
0.774057
0.774715
0.7756
0.776702
0.777994
0.779439
0.781011
0.782717
0.784581
0.786627
0.788868
0.79131
0.793963
0.796847
0.799999
0.803478
0.807366
0.811764
0.816785
0.822541
0.829117
0.83655
0.844817
0.853842
0.863565
0.873934
0.884861
0.896228
0.907893
0.919695
0.931475
0.943078
0.954363
0.965207
0.975502
0.985161
0.994108
1.00229
1.00965
1.01616
1.02178
1.02651
1.03031
1.03318
1.03511
1.03609
1.03613
1.0352
1.03333
1.0305
1.02672
1.02199
1.01633
1.00974
1.00224
0.993854
0.984607
0.974538
0.963696
0.952142
0.939953
0.927226
0.914076
0.900641
0.887082
0.873583
0.860346
0.847589
0.835539
0.824413
0.814408
0.805543
0.797858
0.791296
0.785971
0.781926
0.779192
0.777594
0.776901
0.77687
0.777274
0.777909
0.778603
0.779216
0.779642
0.779807
0.77967
0.77922
0.778474
0.777469
0.776259
0.774907
0.773472
0.772008
0.770557
0.769157
0.767854
0.76671
0.765794
0.765161
0.764852
0.76489
0.765288
0.766042
0.767139
0.768546
0.770213
0.772073
0.774062
0.776129
0.778225
0.780296
0.782277
0.78409
0.785658
0.786907
0.787777
0.788222
0.807551
0.807761
0.808182
0.808815
0.80966
0.810708
0.811942
0.813344
0.814902
0.816619
0.818508
0.820582
0.822856
0.825343
0.828058
0.831026
0.834282
0.837877
0.841874
0.846349
0.851381
0.857043
0.86339
0.870445
0.878193
0.886592
0.895589
0.905124
0.915117
0.925468
0.936057
0.946756
0.957432
0.967956
0.978207
0.988076
0.997466
1.00629
1.01449
1.022
1.02877
1.03476
1.03995
1.04431
1.04782
1.05046
1.05223
1.05312
1.05312
1.05223
1.05045
1.04778
1.04423
1.0398
1.0345
1.02835
1.02137
1.01359
1.00502
0.995725
0.985741
0.975136
0.963984
0.952377
0.940423
0.928247
0.91599
0.90381
0.891879
0.880373
0.869472
0.859339
0.850106
0.84184
0.834581
0.828341
0.82316
0.819051
0.81599
0.813867
0.812525
0.811787
0.811478
0.811435
0.811517
0.811603
0.811602
0.811446
0.811094
0.81053
0.809758
0.8088
0.807693
0.806479
0.805204
0.803909
0.802635
0.801419
0.800304
0.799337
0.798566
0.798033
0.797769
0.797796
0.798121
0.798742
0.799645
0.800802
0.802175
0.803715
0.805371
0.807096
0.808842
0.810559
0.812189
0.813673
0.81495
0.815964
0.816667
0.817028
0.841481
0.841685
0.842093
0.842705
0.843518
0.844527
0.845721
0.847092
0.848635
0.850351
0.852248
0.854337
0.856633
0.859148
0.861901
0.864916
0.868226
0.871872
0.875904
0.880376
0.885346
0.890861
0.896956
0.903646
0.910918
0.918743
0.927075
0.935857
0.945017
0.954468
0.964111
0.973839
0.983541
0.993107
1.00243
1.01142
1.01999
1.02806
1.03557
1.04245
1.04867
1.05418
1.05895
1.06296
1.06619
1.06862
1.07023
1.07103
1.071
1.07014
1.06845
1.06594
1.06261
1.05847
1.05352
1.0478
1.04131
1.03409
1.02617
1.0176
1.00841
0.998677
0.98847
0.977876
0.966993
0.955932
0.944819
0.933789
0.922985
0.912554
0.902637
0.893363
0.884838
0.87713
0.870284
0.864327
0.859276
0.855129
0.85185
0.849359
0.847545
0.846275
0.845416
0.844838
0.844425
0.844078
0.843716
0.84328
0.84273
0.842047
0.841227
0.840282
0.839234
0.838114
0.836954
0.83579
0.834654
0.833581
0.832607
0.831767
0.831099
0.830634
0.830397
0.830402
0.830658
0.83116
0.831895
0.832843
0.83397
0.835241
0.836612
0.838042
0.839489
0.840907
0.842248
0.843464
0.844505
0.84533
0.845901
0.846193
0.875206
0.875404
0.8758
0.876393
0.877181
0.878159
0.879323
0.880669
0.882194
0.8839
0.885795
0.887888
0.890189
0.892714
0.895481
0.898512
0.901835
0.905482
0.909493
0.913907
0.918765
0.924098
0.929928
0.936263
0.943091
0.950387
0.958111
0.966211
0.974624
0.983275
0.99208
1.00095
1.00979
1.0185
1.02699
1.03519
1.04301
1.05039
1.05726
1.06357
1.06927
1.07433
1.07872
1.0824
1.08536
1.08758
1.08905
1.08976
1.08971
1.08888
1.08728
1.08492
1.08181
1.07794
1.07333
1.06801
1.06199
1.0553
1.04798
1.04007
1.03162
1.02269
1.01334
1.00366
0.99374
0.98367
0.973566
0.963542
0.953719
0.944219
0.935158
0.92664
0.918751
0.911557
0.9051
0.899406
0.894489
0.890338
0.886921
0.884176
0.88202
0.880353
0.879072
0.878075
0.877268
0.876567
0.875904
0.875228
0.874501
0.873701
0.872821
0.871865
0.870847
0.869787
0.86871
0.867642
0.866611
0.865645
0.864774
0.864026
0.863429
0.863008
0.862781
0.862759
0.862948
0.863343
0.863934
0.864703
0.865623
0.866665
0.867793
0.868973
0.870165
0.871332
0.872433
0.873427
0.874278
0.874949
0.875413
0.875651
0.908733
0.908926
0.909311
0.909887
0.910653
0.911606
0.912745
0.914066
0.915571
0.917262
0.919145
0.921228
0.923522
0.926039
0.928798
0.931816
0.935117
0.938728
0.942678
0.946995
0.951708
0.956837
0.962397
0.968387
0.974797
0.981603
0.98877
0.996252
1.00399
1.01193
1.01999
1.02809
1.03615
1.0441
1.05186
1.05934
1.06648
1.07323
1.07951
1.08529
1.09052
1.09516
1.09918
1.10256
1.10527
1.1073
1.10863
1.10926
1.10918
1.10839
1.10688
1.10467
1.10175
1.09814
1.09386
1.08891
1.08333
1.07714
1.07038
1.06309
1.05532
1.04712
1.03855
1.0297
1.02063
1.01144
1.00223
0.993093
0.984131
0.975447
0.967136
0.959287
0.951971
0.945246
0.939151
0.933711
0.928934
0.924813
0.921319
0.918404
0.916005
0.914046
0.912445
0.911123
0.910003
0.909017
0.908107
0.907227
0.906343
0.905435
0.904491
0.903511
0.902502
0.901478
0.900456
0.899456
0.898502
0.897614
0.896817
0.896133
0.895584
0.895189
0.894959
0.894906
0.895031
0.895331
0.895796
0.896411
0.897155
0.898002
0.898924
0.899889
0.900867
0.901822
0.902723
0.903536
0.904229
0.904775
0.905153
0.905346
0.942068
0.942255
0.94263
0.943191
0.943937
0.944868
0.945983
0.94728
0.948762
0.950432
0.952294
0.954357
0.95663
0.959124
0.961855
0.964837
0.968091
0.971636
0.975495
0.979688
0.984234
0.989147
0.994433
1.00009
1.00611
1.01246
1.01911
1.02603
1.03317
1.04046
1.04785
1.05526
1.06264
1.0699
1.07699
1.08382
1.09036
1.09652
1.10227
1.10756
1.11235
1.1166
1.12029
1.12338
1.12586
1.12771
1.12892
1.12947
1.12937
1.12861
1.12719
1.12511
1.12239
1.11902
1.11504
1.11045
1.10528
1.09956
1.09332
1.0866
1.07944
1.07191
1.06405
1.05594
1.04764
1.03924
1.03082
1.02247
1.01426
1.0063
0.998654
0.9914
0.9846
0.978304
0.972547
0.967351
0.962725
0.958661
0.955137
0.952116
0.94955
0.947379
0.94554
0.943969
0.942605
0.941391
0.940279
0.939229
0.938211
0.937204
0.936197
0.935186
0.934173
0.933167
0.93218
0.931227
0.930325
0.929492
0.928747
0.928106
0.927586
0.927202
0.926962
0.926874
0.926939
0.927153
0.927508
0.927991
0.928583
0.929264
0.93001
0.930794
0.93159
0.932368
0.933102
0.933763
0.934327
0.934771
0.935077
0.935234
0.975215
0.975397
0.975762
0.976309
0.977037
0.977947
0.979037
0.98031
0.981765
0.983409
0.985243
0.987277
0.989516
0.991973
0.994659
0.997587
1.00077
1.00423
1.00798
1.01203
1.01639
1.02108
1.0261
1.03144
1.03708
1.04301
1.04919
1.0556
1.06219
1.0689
1.07568
1.08248
1.08924
1.09588
1.10236
1.10862
1.11459
1.12023
1.1255
1.13034
1.13472
1.13862
1.14199
1.14482
1.14708
1.14877
1.14986
1.15034
1.15022
1.14949
1.14815
1.14621
1.14366
1.14053
1.13683
1.13257
1.12778
1.12249
1.11673
1.11053
1.10395
1.09702
1.0898
1.08236
1.07476
1.06706
1.05935
1.05169
1.04416
1.03683
1.02978
1.02306
1.01673
1.01082
1.00538
1.00042
0.995953
0.991969
0.988452
0.985375
0.982699
0.98038
0.978367
0.976609
0.975056
0.973663
0.972389
0.971199
0.970067
0.968974
0.967908
0.966862
0.965836
0.964836
0.963869
0.962946
0.962079
0.961283
0.960572
0.959958
0.959453
0.95907
0.958814
0.95869
0.958698
0.958835
0.959093
0.95946
0.959923
0.960462
0.961058
0.961688
0.96233
0.962959
0.963553
0.964088
0.964544
0.964903
0.965151
0.965278
1.00818
1.00836
1.00871
1.00925
1.00996
1.01084
1.01191
1.01316
1.01458
1.01619
1.01799
1.01999
1.02219
1.02459
1.02722
1.03008
1.03318
1.03654
1.04016
1.04405
1.04823
1.0527
1.05745
1.06247
1.06776
1.0733
1.07905
1.08499
1.09108
1.09726
1.1035
1.10975
1.11594
1.12203
1.12796
1.13369
1.13916
1.14432
1.14914
1.15357
1.15759
1.16115
1.16424
1.16682
1.16888
1.17041
1.17139
1.17182
1.17168
1.17098
1.16972
1.1679
1.16552
1.16261
1.15917
1.15522
1.15079
1.14589
1.14057
1.13486
1.12879
1.12242
1.11579
1.10895
1.10197
1.0949
1.08782
1.08078
1.07385
1.0671
1.06057
1.05433
1.04842
1.04288
1.03774
1.033
1.0287
1.02481
1.02133
1.01823
1.01549
1.01307
1.01094
1.00904
1.00735
1.00582
1.00441
1.00311
1.00188
1.00072
0.999597
0.998517
0.997474
0.996472
0.995514
0.994608
0.993763
0.99299
0.992299
0.991699
0.9912
0.99081
0.990533
0.990372
0.990328
0.990395
0.990567
0.990835
0.991185
0.991603
0.992071
0.99257
0.993082
0.993585
0.994062
0.994492
0.994858
0.995147
0.995347
0.995449
1.04097
1.04114
1.04149
1.042
1.0427
1.04356
1.0446
1.04582
1.04721
1.04879
1.05055
1.0525
1.05464
1.05699
1.05955
1.06233
1.06533
1.06858
1.07206
1.07579
1.07978
1.08402
1.08851
1.09325
1.09821
1.10338
1.10873
1.11424
1.11986
1.12557
1.13132
1.13706
1.14275
1.14833
1.15377
1.15902
1.16403
1.16876
1.17317
1.17723
1.1809
1.18416
1.18698
1.18934
1.19122
1.19261
1.19349
1.19386
1.19371
1.19304
1.19184
1.19014
1.18792
1.18521
1.18202
1.17835
1.17425
1.16972
1.16481
1.15954
1.15394
1.14807
1.14197
1.13568
1.12926
1.12276
1.11625
1.10976
1.10337
1.09713
1.09108
1.08527
1.07975
1.07454
1.06967
1.06516
1.06102
1.05724
1.05382
1.05073
1.04796
1.04549
1.04327
1.04128
1.03948
1.03784
1.03634
1.03495
1.03364
1.03241
1.03125
1.03013
1.02907
1.02806
1.02711
1.02621
1.02538
1.02462
1.02393
1.02334
1.02284
1.02244
1.02214
1.02194
1.02185
1.02185
1.02195
1.02213
1.02238
1.02269
1.02305
1.02344
1.02384
1.02424
1.02462
1.02496
1.02525
1.02548
1.02564
1.02572
1.07358
1.07375
1.07409
1.07459
1.07526
1.07611
1.07712
1.07831
1.07966
1.0812
1.08292
1.08481
1.0869
1.08918
1.09166
1.09435
1.09725
1.10037
1.10371
1.10728
1.11108
1.1151
1.11934
1.12379
1.12844
1.13327
1.13825
1.14336
1.14857
1.15384
1.15914
1.16442
1.16965
1.17478
1.17977
1.18458
1.18918
1.19351
1.19755
1.20127
1.20463
1.20761
1.21019
1.21234
1.21405
1.21531
1.2161
1.21641
1.21625
1.21561
1.21449
1.21289
1.21082
1.2083
1.20533
1.20193
1.19813
1.19395
1.1894
1.18453
1.17938
1.17396
1.16834
1.16255
1.15663
1.15065
1.14464
1.13865
1.13274
1.12696
1.12134
1.11593
1.11076
1.10586
1.10126
1.09696
1.09298
1.08932
1.08597
1.08291
1.08015
1.07764
1.07537
1.07331
1.07144
1.06973
1.06815
1.06669
1.06533
1.06405
1.06284
1.0617
1.06062
1.0596
1.05864
1.05774
1.05692
1.05616
1.05548
1.05489
1.05438
1.05396
1.05364
1.0534
1.05326
1.05321
1.05324
1.05335
1.05352
1.05374
1.054
1.0543
1.05461
1.05491
1.05521
1.05547
1.0557
1.05589
1.05601
1.05608
1.10603
1.10619
1.10652
1.10701
1.10766
1.10848
1.10947
1.11062
1.11194
1.11343
1.1151
1.11694
1.11896
1.12117
1.12357
1.12616
1.12895
1.13194
1.13514
1.13854
1.14215
1.14595
1.14995
1.15414
1.15849
1.163
1.16764
1.17239
1.17721
1.18209
1.18698
1.19185
1.19666
1.20137
1.20596
1.21037
1.21458
1.21855
1.22226
1.22566
1.22874
1.23146
1.23382
1.23578
1.23734
1.23847
1.23918
1.23945
1.23928
1.23866
1.2376
1.23611
1.23418
1.23183
1.22907
1.22592
1.2224
1.21852
1.21432
1.20982
1.20506
1.20006
1.19488
1.18953
1.18408
1.17855
1.173
1.16747
1.16199
1.15662
1.1514
1.14634
1.1415
1.13689
1.13253
1.12844
1.12462
1.12108
1.11781
1.11481
1.11207
1.10956
1.10727
1.10517
1.10325
1.10148
1.09985
1.09834
1.09693
1.09561
1.09437
1.0932
1.09211
1.09108
1.09011
1.08921
1.08838
1.08763
1.08695
1.08635
1.08583
1.08539
1.08504
1.08478
1.08459
1.08449
1.08446
1.0845
1.0846
1.08474
1.08493
1.08514
1.08537
1.0856
1.08582
1.08603
1.08621
1.08635
1.08644
1.08649
1.13831
1.13847
1.13878
1.13926
1.13989
1.14069
1.14164
1.14276
1.14404
1.14549
1.1471
1.14888
1.15084
1.15297
1.15528
1.15777
1.16045
1.16331
1.16636
1.1696
1.17302
1.17661
1.18038
1.18432
1.18839
1.1926
1.19693
1.20134
1.20581
1.21032
1.21484
1.21932
1.22375
1.22809
1.23231
1.23636
1.24022
1.24387
1.24726
1.25038
1.2532
1.25569
1.25784
1.25963
1.26104
1.26207
1.2627
1.26293
1.26275
1.26215
1.26116
1.25975
1.25796
1.25577
1.25321
1.25028
1.24702
1.24343
1.23954
1.23538
1.23098
1.22636
1.22157
1.21663
1.21159
1.20648
1.20134
1.19622
1.19114
1.18615
1.18128
1.17655
1.17201
1.16766
1.16353
1.15964
1.15598
1.15257
1.1494
1.14646
1.14375
1.14126
1.13896
1.13685
1.1349
1.1331
1.13143
1.12988
1.12844
1.12709
1.12583
1.12464
1.12353
1.12249
1.12151
1.12061
1.11978
1.11902
1.11833
1.11772
1.11719
1.11674
1.11636
1.11607
1.11585
1.1157
1.11562
1.1156
1.11563
1.11571
1.11583
1.11597
1.11613
1.1163
1.11646
1.11661
1.11674
1.11685
1.11692
1.11696
1.17043
1.17059
1.17089
1.17135
1.17197
1.17274
1.17366
1.17474
1.17598
1.17738
1.17894
1.18066
1.18254
1.18459
1.18681
1.1892
1.19176
1.19449
1.1974
1.20047
1.20371
1.2071
1.21065
1.21434
1.21816
1.22209
1.22612
1.23022
1.23437
1.23855
1.24272
1.24686
1.25095
1.25494
1.25881
1.26254
1.26609
1.26943
1.27254
1.2754
1.27798
1.28026
1.28222
1.28385
1.28514
1.28606
1.28662
1.28681
1.28662
1.28606
1.28512
1.2838
1.28212
1.28008
1.2777
1.27499
1.27195
1.26863
1.26503
1.26118
1.2571
1.25283
1.2484
1.24383
1.23917
1.23444
1.22968
1.22492
1.2202
1.21555
1.21101
1.20659
1.20232
1.19822
1.19431
1.1906
1.1871
1.18382
1.18075
1.17788
1.17522
1.17276
1.17047
1.16836
1.1664
1.16458
1.1629
1.16132
1.15986
1.15849
1.1572
1.156
1.15488
1.15383
1.15285
1.15194
1.1511
1.15034
1.14964
1.14902
1.14848
1.14801
1.14761
1.14728
1.14703
1.14684
1.14671
1.14664
1.14662
1.14664
1.14669
1.14678
1.14688
1.14699
1.14711
1.14721
1.14731
1.14739
1.14744
1.14747
1.2024
1.20255
1.20285
1.20329
1.20389
1.20463
1.20552
1.20657
1.20776
1.20911
1.21061
1.21226
1.21408
1.21604
1.21817
1.22046
1.2229
1.2255
1.22826
1.23118
1.23424
1.23744
1.24078
1.24425
1.24782
1.25149
1.25524
1.25905
1.26291
1.26677
1.27063
1.27446
1.27823
1.28191
1.28547
1.2889
1.29216
1.29523
1.29808
1.3007
1.30306
1.30514
1.30694
1.30842
1.30959
1.31042
1.31092
1.31107
1.31088
1.31034
1.30945
1.30821
1.30664
1.30474
1.30253
1.3
1.29719
1.29411
1.29077
1.2872
1.28343
1.27947
1.27536
1.27113
1.26681
1.26242
1.25801
1.25359
1.24919
1.24486
1.24061
1.23647
1.23245
1.22859
1.22488
1.22135
1.21801
1.21485
1.21188
1.2091
1.2065
1.20408
1.20182
1.19972
1.19776
1.19594
1.19424
1.19266
1.19118
1.18979
1.1885
1.18729
1.18615
1.1851
1.18411
1.1832
1.18235
1.18158
1.18088
1.18025
1.17969
1.1792
1.17878
1.17843
1.17814
1.17791
1.17774
1.17763
1.17756
1.17753
1.17754
1.17757
1.17762
1.17769
1.17776
1.17783
1.17789
1.17794
1.17798
1.178
1.23422
1.23437
1.23465
1.23508
1.23566
1.23637
1.23723
1.23824
1.23939
1.24068
1.24213
1.24372
1.24545
1.24734
1.24937
1.25155
1.25388
1.25636
1.25898
1.26174
1.26463
1.26765
1.27079
1.27403
1.27738
1.28081
1.2843
1.28785
1.29142
1.29501
1.29858
1.30212
1.30559
1.30899
1.31227
1.31542
1.31842
1.32124
1.32386
1.32626
1.32842
1.33032
1.33196
1.33331
1.33437
1.33512
1.33556
1.33568
1.33548
1.33496
1.33412
1.33296
1.33149
1.32972
1.32766
1.32531
1.3227
1.31983
1.31674
1.31343
1.30993
1.30626
1.30245
1.29853
1.29452
1.29044
1.28634
1.28222
1.27813
1.27408
1.2701
1.26622
1.26244
1.25879
1.25528
1.25192
1.24873
1.2457
1.24283
1.24014
1.2376
1.23523
1.23301
1.23093
1.22899
1.22717
1.22548
1.22389
1.2224
1.22101
1.21971
1.21849
1.21735
1.21629
1.2153
1.21438
1.21353
1.21276
1.21205
1.2114
1.21083
1.21032
1.20988
1.20951
1.20919
1.20893
1.20873
1.20857
1.20846
1.20839
1.20835
1.20834
1.20835
1.20838
1.20841
1.20845
1.20849
1.20852
1.20854
1.20855
1.2659
1.26604
1.26632
1.26673
1.26728
1.26797
1.2688
1.26976
1.27087
1.27211
1.2735
1.27502
1.27668
1.27848
1.28042
1.2825
1.28472
1.28707
1.28955
1.29216
1.29489
1.29773
1.30068
1.30373
1.30686
1.31006
1.31331
1.31661
1.31993
1.32326
1.32656
1.32983
1.33304
1.33617
1.3392
1.3421
1.34486
1.34745
1.34985
1.35205
1.35403
1.35577
1.35726
1.35849
1.35945
1.36013
1.36051
1.36061
1.3604
1.35991
1.35911
1.35802
1.35665
1.355
1.35307
1.35089
1.34846
1.34579
1.34292
1.33985
1.3366
1.33319
1.32966
1.32601
1.32229
1.3185
1.31467
1.31084
1.30702
1.30324
1.29951
1.29586
1.2923
1.28885
1.28553
1.28233
1.27928
1.27637
1.27362
1.27101
1.26855
1.26623
1.26405
1.262
1.26008
1.25829
1.2566
1.25502
1.25353
1.25214
1.25084
1.24962
1.24848
1.24741
1.24642
1.2455
1.24465
1.24386
1.24314
1.24249
1.24191
1.24138
1.24092
1.24052
1.24018
1.2399
1.23966
1.23947
1.23932
1.23922
1.23914
1.23909
1.23907
1.23906
1.23906
1.23907
1.23909
1.2391
1.23911
1.23912
1.29744
1.29758
1.29784
1.29824
1.29877
1.29943
1.30022
1.30115
1.30221
1.3034
1.30473
1.30618
1.30777
1.30949
1.31134
1.31332
1.31542
1.31765
1.32
1.32246
1.32503
1.32771
1.33048
1.33333
1.33626
1.33925
1.34229
1.34535
1.34844
1.35152
1.35459
1.35761
1.36058
1.36346
1.36625
1.36892
1.37146
1.37384
1.37605
1.37806
1.37988
1.38147
1.38283
1.38395
1.38482
1.38542
1.38576
1.38583
1.38563
1.38515
1.38439
1.38337
1.38208
1.38054
1.37874
1.37671
1.37445
1.37197
1.3693
1.36644
1.36342
1.36026
1.35697
1.35358
1.35011
1.34659
1.34302
1.33944