/*--------------------------------*- C++ -*----------------------------------*\
| =========                 |                                                 |
| \\      /  F ield         | OpenFOAM: The Open Source CFD Toolbox           |
|  \\    /   O peration     | Version:  2406                                  |
|   \\  /    A nd           | Website:  www.openfoam.com                      |
|    \\/     M anipulation  |                                                 |
\*---------------------------------------------------------------------------*/
FoamFile
{
    version     2.0;
    format      ascii;
    arch        "LSB;label=32;scalar=64";
    class       volScalarField;
    location    "4.4";
    object      D;
}
// * * * * * * * * * * * * * * * * * * * * * * * * * * * * * * * * * * * * * //

dimensions      [0 2 -1 0 0 0 0];

internalField   nonuniform List<scalar> 
14400
(
6.2756e-05
6.17435e-05
6.08144e-05
6.01507e-05
5.97023e-05
5.9412e-05
5.92431e-05
5.91767e-05
5.9208e-05
5.93459e-05
5.96181e-05
6.00879e-05
6.09076e-05
6.25408e-05
6.72441e-05
9.72233e-05
6.93306e-05
6.30148e-05
6.0739e-05
5.95979e-05
5.89141e-05
5.84641e-05
5.81546e-05
5.79412e-05
5.78017e-05
5.7726e-05
5.7713e-05
5.77698e-05
5.79144e-05
5.81849e-05
5.86622e-05
5.95454e-05
6.14855e-05
6.79502e-05
0.000132623
0.00013824
0.00013824
0.00013824
0.00013824
0.00013824
0.00013824
0.00013824
0.00013824
0.00013824
0.00013824
0.00013824
0.00013824
0.00013824
0.00013824
0.00013824
0.00013824
0.00013824
0.00013824
0.00013824
0.00013824
0.00013824
0.00013824
0.00013824
0.00013824
0.00013824
0.00013824
0.00013824
0.000138239
0.000102242
6.51672e-05
6.05789e-05
5.91532e-05
5.84772e-05
5.81009e-05
5.78815e-05
5.77577e-05
5.7698e-05
5.76848e-05
5.77075e-05
5.77606e-05
5.78419e-05
5.79527e-05
5.80984e-05
5.82897e-05
5.8546e-05
5.8903e-05
5.94305e-05
6.02901e-05
6.19843e-05
6.71549e-05
0.000107586
0.000138239
0.00013824
0.00013824
0.000119765
6.86516e-05
6.2842e-05
6.10067e-05
6.01202e-05
5.96219e-05
5.93323e-05
5.9175e-05
5.91114e-05
5.91193e-05
5.91822e-05
5.9283e-05
5.9398e-05
5.94921e-05
5.95233e-05
5.94695e-05
5.93544e-05
5.92203e-05
5.91018e-05
5.90219e-05
5.89967e-05
5.90414e-05
5.9177e-05
5.94402e-05
5.99034e-05
6.07376e-05
6.24771e-05
6.8014e-05
0.000116029
0.00013824
0.00013824
6.52213e-05
6.26088e-05
6.11654e-05
6.03245e-05
5.98043e-05
5.94811e-05
5.9297e-05
5.92258e-05
5.92601e-05
5.94096e-05
5.97054e-05
6.02204e-05
6.11348e-05
6.30241e-05
6.89283e-05
0.000118709
7.97746e-05
6.43504e-05
6.10887e-05
5.97523e-05
5.90044e-05
5.85261e-05
5.82025e-05
5.79823e-05
5.78407e-05
5.77667e-05
5.77592e-05
5.78259e-05
5.7988e-05
5.82902e-05
5.88351e-05
5.9913e-05
6.27859e-05
7.78313e-05
0.000138028
0.00013824
0.00013824
0.00013824
0.00013824
0.00013824
0.00013824
0.00013824
0.00013824
0.00013824
0.00013824
0.00013824
0.00013824
0.00013824
0.00013824
0.00013824
0.00013824
0.00013824
0.00013824
0.00013824
0.00013824
0.00013824
0.00013824
0.00013824
0.00013824
0.00013824
0.00013824
0.00013824
0.00013824
0.0001181
6.6313e-05
6.09343e-05
5.93289e-05
5.8581e-05
5.81683e-05
5.79279e-05
5.7791e-05
5.77226e-05
5.77034e-05
5.77223e-05
5.77732e-05
5.78541e-05
5.79663e-05
5.81158e-05
5.8314e-05
5.85824e-05
5.89602e-05
5.95262e-05
6.04661e-05
6.23651e-05
6.83425e-05
0.00012184
0.00013824
0.00013824
0.00013824
0.000134566
7.13647e-05
6.36435e-05
6.13422e-05
6.03027e-05
5.97414e-05
5.94225e-05
5.92523e-05
5.91867e-05
5.92024e-05
5.92838e-05
5.94152e-05
5.9573e-05
5.97143e-05
5.977e-05
5.96909e-05
5.95284e-05
5.93518e-05
5.92034e-05
5.91057e-05
5.90729e-05
5.91197e-05
5.92681e-05
5.95593e-05
6.00818e-05
6.10563e-05
6.32079e-05
7.03203e-05
0.000132513
0.00013824
0.00013824
8.2151e-05
6.5174e-05
6.19706e-05
6.07076e-05
6.00306e-05
5.96367e-05
5.942e-05
5.93383e-05
5.938e-05
5.95563e-05
5.99084e-05
6.05373e-05
6.17156e-05
6.44746e-05
7.55546e-05
0.000137396
0.000111048
6.70872e-05
6.18142e-05
6.00885e-05
5.92049e-05
5.86642e-05
5.83088e-05
5.80731e-05
5.79265e-05
5.78558e-05
5.78598e-05
5.79483e-05
5.8148e-05
5.85193e-05
5.92114e-05
6.07124e-05
6.57519e-05
0.00011292
0.00013824
0.00013824
0.00013824
0.00013824
0.00013824
0.00013824
0.00013824
0.00013824
0.00013824
0.00013824
0.00013824
0.00013824
0.00013824
0.00013824
0.00013824
0.00013824
0.00013824
0.00013824
0.00013824
0.00013824
0.00013824
0.00013824
0.00013824
0.00013824
0.00013824
0.00013824
0.00013824
0.00013824
0.00013824
0.000136414
7.02326e-05
6.19679e-05
5.97618e-05
5.88171e-05
5.83167e-05
5.80295e-05
5.78642e-05
5.77774e-05
5.77459e-05
5.77569e-05
5.78036e-05
5.78837e-05
5.79992e-05
5.81567e-05
5.83699e-05
5.86642e-05
5.90884e-05
5.97458e-05
6.09029e-05
6.35279e-05
7.35712e-05
0.000137089
0.00013824
0.00013824
0.00013824
0.000138238
0.000103597
6.68367e-05
6.22176e-05
6.07276e-05
6.00125e-05
5.96257e-05
5.94257e-05
5.93552e-05
5.93886e-05
5.95129e-05
5.97198e-05
5.99938e-05
6.02875e-05
6.04393e-05
6.02621e-05
5.99467e-05
5.9655e-05
5.94324e-05
5.92927e-05
5.92429e-05
5.92949e-05
5.94723e-05
5.98289e-05
6.0497e-05
6.18882e-05
6.61539e-05
9.88573e-05
0.000138236
0.00013824
0.00013824
0.000130539
7.0433e-05
6.35159e-05
6.14214e-05
6.04473e-05
5.99233e-05
5.96472e-05
5.9547e-05
5.96027e-05
5.98313e-05
6.02988e-05
6.1185e-05
6.30782e-05
6.91808e-05
0.000121885
0.00013824
0.000136798
7.26929e-05
6.32978e-05
6.0739e-05
5.95773e-05
5.89136e-05
5.84977e-05
5.82325e-05
5.80759e-05
5.80103e-05
5.80342e-05
5.81614e-05
5.84301e-05
5.8934e-05
5.99314e-05
6.24759e-05
7.45153e-05
0.000137814
0.00013824
0.00013824
0.00013824
0.00013824
0.00013824
0.00013824
0.00013824
0.00013824
0.00013824
0.00013824
0.00013824
0.00013824
0.00013824
0.00013824
0.00013824
0.00013824
0.00013824
0.00013824
0.00013824
0.00013824
0.00013824
0.00013824
0.00013824
0.00013824
0.00013824
0.00013824
0.00013824
0.00013824
0.00013824
0.00013824
0.000110158
6.54893e-05
6.06975e-05
5.92528e-05
5.85769e-05
5.82048e-05
5.79909e-05
5.78734e-05
5.78218e-05
5.78201e-05
5.78603e-05
5.79399e-05
5.80613e-05
5.82329e-05
5.84717e-05
5.88112e-05
5.93185e-05
6.01521e-05
6.18108e-05
6.6987e-05
0.000111787
0.00013824
0.00013824
0.00013824
0.00013824
0.00013824
0.000137108
7.39242e-05
6.40334e-05
6.15503e-05
6.05226e-05
6.00015e-05
5.97417e-05
5.96595e-05
5.97262e-05
5.99361e-05
6.03063e-05
6.08739e-05
6.17139e-05
6.23725e-05
6.16819e-05
6.0821e-05
6.02381e-05
5.98546e-05
5.96309e-05
5.95487e-05
5.96124e-05
5.98481e-05
6.03342e-05
6.12998e-05
6.35804e-05
7.20465e-05
0.000136229
0.00013824
0.00013824
0.00013824
0.00013824
0.000113713
6.86098e-05
6.30088e-05
6.12463e-05
6.0447e-05
6.00547e-05
5.99197e-05
6.00022e-05
6.03345e-05
6.10542e-05
6.26263e-05
6.73497e-05
0.000100104
0.000138237
0.00013824
0.00013824
0.0001232
6.8373e-05
6.22163e-05
6.02883e-05
5.93537e-05
5.8819e-05
5.84979e-05
5.83216e-05
5.82634e-05
5.83216e-05
5.8519e-05
5.89181e-05
5.97052e-05
6.15002e-05
6.77963e-05
0.000129503
0.00013824
0.00013824
0.00013824
0.00013824
0.00013824
0.00013824
0.00013824
0.00013824
0.00013824
0.00013824
0.00013824
0.00013824
0.00013824
0.00013824
0.00013824
0.00013824
0.00013824
0.00013824
0.00013824
0.00013824
0.00013824
0.00013824
0.00013824
0.00013824
0.00013824
0.00013824
0.00013824
0.00013824
0.00013824
0.00013824
0.00013824
0.000137933
7.57837e-05
6.26557e-05
6.00283e-05
5.90129e-05
5.84918e-05
5.81975e-05
5.80309e-05
5.79482e-05
5.79274e-05
5.79584e-05
5.80382e-05
5.81701e-05
5.8365e-05
5.86464e-05
5.90621e-05
5.97169e-05
6.08879e-05
6.36801e-05
7.62008e-05
0.000137782
0.00013824
0.00013824
0.00013824
0.00013824
0.00013824
0.00013824
0.000130809
7.00989e-05
6.34275e-05
6.15381e-05
6.07041e-05
6.03095e-05
6.01955e-05
6.03289e-05
6.07202e-05
6.14864e-05
6.29194e-05
6.68194e-05
7.17672e-05
6.6758e-05
6.28522e-05
6.14099e-05
6.06358e-05
6.02328e-05
6.00847e-05
6.01792e-05
6.05457e-05
6.13334e-05
6.31512e-05
6.95622e-05
0.000128465
0.00013824
0.00013824
0.00013824
0.00013824
0.00013824
0.000138238
0.000103462
6.81576e-05
6.30439e-05
6.14929e-05
6.08235e-05
6.06136e-05
6.07514e-05
6.13217e-05
6.27375e-05
6.70849e-05
9.14873e-05
0.000138217
0.00013824
0.00013824
0.00013824
0.000138239
0.000105832
6.70131e-05
6.18572e-05
6.01774e-05
5.93832e-05
5.89461e-05
5.87296e-05
5.86829e-05
5.88058e-05
5.91476e-05
5.98316e-05
6.14298e-05
6.69798e-05
0.000117715
0.00013824
0.00013824
0.00013824
0.00013824
0.00013824
0.00013824
0.00013824
0.00013824
0.00013824
0.00013824
0.00013824
0.00013824
0.00013824
0.00013824
0.00013824
0.00013824
0.00013824
0.00013824
0.00013824
0.00013824
0.00013824
0.00013824
0.00013824
0.00013824
0.00013824
0.00013824
0.00013824
0.00013824
0.00013824
0.00013824
0.00013824
0.00013824
0.00013824
0.000131856
6.81647e-05
6.16489e-05
5.97975e-05
5.89751e-05
5.8537e-05
5.82879e-05
5.81553e-05
5.81051e-05
5.81228e-05
5.82046e-05
5.83553e-05
5.85901e-05
5.89451e-05
5.94994e-05
6.04547e-05
6.24573e-05
6.90737e-05
0.000129644
0.00013824
0.00013824
0.00013824
0.00013824
0.00013824
0.00013824
0.00013824
0.00013824
0.000126431
7.01253e-05
6.41238e-05
6.2227e-05
6.14268e-05
6.12026e-05
6.15152e-05
6.24075e-05
6.46493e-05
7.00185e-05
0.000116526
0.000137204
0.000116116
6.9901e-05
6.45374e-05
6.2314e-05
6.14124e-05
6.10865e-05
6.12858e-05
6.20442e-05
6.38094e-05
6.96829e-05
0.000123865
0.00013824
0.00013824
0.00013824
0.00013824
0.00013824
0.00013824
0.00013824
0.000138238
0.00010813
6.92273e-05
6.42182e-05
6.25286e-05
6.21125e-05
6.2397e-05
6.37379e-05
6.84406e-05
9.82541e-05
0.000138216
0.00013824
0.00013824
0.00013824
0.00013824
0.00013824
0.000138237
0.000100559
6.69813e-05
6.20153e-05
6.05022e-05
5.97633e-05
5.94542e-05
5.94284e-05
5.96965e-05
6.0442e-05
6.19404e-05
6.73909e-05
0.00011576
0.00013824
0.00013824
0.00013824
0.00013824
0.00013824
0.00013824
0.00013824
0.00013824
0.00013824
0.00013824
0.00013824
0.00013824
0.00013824
0.00013824
0.00013824
0.00013824
0.00013824
0.00013824
0.00013824
0.00013824
0.00013824
0.00013824
0.00013824
0.00013824
0.00013824
0.00013824
0.00013824
0.00013824
0.00013824
0.00013824
0.00013824
0.00013824
0.00013824
0.00013824
0.00013824
0.000122362
6.73415e-05
6.15438e-05
5.98733e-05
5.91306e-05
5.87217e-05
5.85006e-05
5.84005e-05
5.83971e-05
5.84853e-05
5.86719e-05
5.89806e-05
5.94772e-05
6.03246e-05
6.21087e-05
6.78489e-05
0.000116815
0.00013824
0.00013824
0.00013824
0.00013824
0.00013824
0.00013824
0.00013824
0.00013824
0.00013824
0.00013824
0.000131745
7.57439e-05
6.72341e-05
6.42851e-05
6.34606e-05
6.46507e-05
6.79318e-05
8.21577e-05
0.000133446
0.00013824
0.00013824
0.00013824
0.000133237
8.16536e-05
6.78028e-05
6.45084e-05
6.33178e-05
6.40803e-05
6.69438e-05
7.43021e-05
0.000130287
0.00013824
0.00013824
0.00013824
0.00013824
0.00013824
0.00013824
0.00013824
0.00013824
0.00013824
0.00013824
0.000125545
7.73891e-05
6.8265e-05
6.70001e-05
6.79298e-05
7.36649e-05
0.000120028
0.000138236
0.00013824
0.00013824
0.00013824
0.00013824
0.00013824
0.00013824
0.00013824
0.000138238
0.000109726
6.83848e-05
6.36241e-05
6.15578e-05
6.09844e-05
6.101e-05
6.17017e-05
6.45818e-05
6.98433e-05
0.000125752
0.00013824
0.00013824
0.00013824
0.00013824
0.00013824
0.00013824
0.00013824
0.00013824
0.00013824
0.00013824
0.00013824
0.00013824
0.00013824
0.00013824
0.00013824
0.00013824
0.00013824
0.00013824
0.00013824
0.00013824
0.00013824
0.00013824
0.00013824
0.00013824
0.00013824
0.00013824
0.00013824
0.00013824
0.00013824
0.00013824
0.00013824
0.00013824
0.00013824
0.00013824
0.00013824
0.00013824
0.00013824
0.000120039
6.76144e-05
6.19427e-05
6.03387e-05
5.95197e-05
5.91133e-05
5.8912e-05
5.88674e-05
5.89725e-05
5.92394e-05
5.97061e-05
6.05405e-05
6.21909e-05
6.77147e-05
0.000111717
0.00013824
0.00013824
0.00013824
0.00013824
0.00013824
0.00013824
0.00013824
0.00013824
0.00013824
0.00013824
0.00013824
0.00013824
0.000137643
0.000110436
7.74684e-05
7.08554e-05
8.08901e-05
0.000116373
0.000138116
0.00013824
0.00013824
0.00013824
0.00013824
0.00013824
0.000138105
0.000115991
8.03218e-05
7.0584e-05
7.66142e-05
0.000109104
0.000137391
0.00013824
0.00013824
0.00013824
0.00013824
0.00013824
0.00013824
0.00013824
0.00013824
0.00013824
0.00013824
0.00013824
0.00013824
0.000137859
0.000121685
0.000107443
0.000119311
0.000137191
0.00013824
0.00013824
0.00013824
0.00013824
0.00013824
0.00013824
0.00013824
0.00013824
0.00013824
0.00013824
0.00013824
0.00012816
8.24246e-05
6.7596e-05
6.60232e-05
6.6293e-05
6.86606e-05
0.000100268
0.000136202
0.00013824
0.00013824
0.00013824
0.00013824
0.00013824
0.00013824
0.00013824
0.00013824
0.00013824
0.00013824
0.00013824
0.00013824
0.00013824
0.00013824
0.00013824
0.00013824
0.00013824
0.00013824
0.00013824
0.00013824
0.00013824
0.00013824
0.00013824
0.00013824
0.00013824
0.00013824
0.00013824
0.00013824
0.00013824
0.00013824
0.00013824
0.00013824
0.00013824
0.00013824
0.00013824
0.00013824
0.00013824
0.00013824
0.00013824
0.000127538
6.96746e-05
6.40302e-05
6.13025e-05
6.03836e-05
5.98953e-05
5.97396e-05
5.98952e-05
6.04021e-05
6.13161e-05
6.34491e-05
6.8751e-05
0.000118025
0.00013824
0.00013824
0.00013824
0.00013824
0.00013824
0.00013824
0.00013824
0.00013824
0.00013824
0.00013824
0.00013824
0.00013824
0.00013824
0.00013824
0.00013824
0.000137802
0.000134581
0.000138043
0.00013824
0.00013824
0.00013824
0.00013824
0.00013824
0.00013824
0.00013824
0.00013824
0.00013824
0.000138023
0.000134296
0.00013772
0.00013824
0.00013824
0.00013824
0.00013824
0.00013824
0.00013824
0.00013824
0.00013824
0.00013824
0.00013824
0.00013824
0.00013824
0.00013824
0.00013824
0.00013824
0.00013824
0.000138239
0.00013824
0.00013824
0.00013824
0.00013824
0.00013824
0.00013824
0.00013824
0.00013824
0.00013824
0.00013824
0.00013824
0.00013824
0.00013824
0.00013824
0.000138161
0.000126625
0.000111632
0.000117151
0.00013406
0.000138238
0.00013824
0.00013824
0.00013824
0.00013824
0.00013824
0.00013824
0.00013824
0.00013824
0.00013824
0.00013824
0.00013824
0.00013824
0.00013824
0.00013824
0.00013824
0.00013824
0.00013824
0.00013824
0.00013824
0.00013824
0.00013824
0.00013824
0.00013824
0.00013824
0.00013824
0.00013824
0.00013824
0.00013824
0.00013824
0.00013824
0.00013824
0.00013824
0.00013824
0.00013824
0.00013824
0.00013824
0.00013824
0.00013824
0.00013824
0.00013824
0.00013824
0.000136084
9.21601e-05
6.74367e-05
6.43639e-05
6.23314e-05
6.16842e-05
6.20444e-05
6.38152e-05
6.68182e-05
7.97198e-05
0.000131039
0.00013824
0.00013824
0.00013824
0.00013824
0.00013824
0.00013824
0.00013824
0.00013824
0.00013824
0.00013824
0.00013824
0.00013824
0.00013824
0.00013824
0.00013824
0.00013824
0.00013824
0.00013824
0.00013824
0.00013824
0.00013824
0.00013824
0.00013824
0.00013824
0.00013824
0.00013824
0.00013824
0.00013824
0.00013824
0.00013824
0.00013824
0.00013824
0.00013824
0.00013824
0.00013824
0.00013824
0.00013824
0.00013824
0.00013824
0.00013824
0.00013824
0.00013824
0.00013824
0.00013824
0.00013824
0.00013824
0.00013824
0.00013824
0.00013824
0.00013824
0.00013824
0.00013824
0.00013824
0.00013824
0.00013824
0.00013824
0.00013824
0.00013824
0.00013824
0.00013824
0.00013824
0.00013824
0.00013824
0.00013824
0.00013824
0.00013824
0.00013824
0.00013824
0.00013824
0.00013824
0.00013824
0.00013824
0.00013824
0.00013824
0.00013824
0.00013824
0.00013824
0.00013824
0.00013824
0.00013824
0.00013824
0.00013824
0.00013824
0.00013824
0.00013824
0.00013824
0.00013824
0.00013824
0.00013824
0.00013824
0.00013824
0.00013824
0.00013824
0.00013824
0.00013824
0.00013824
0.00013824
0.00013824
0.00013824
0.00013824
0.00013824
0.00013824
0.00013824
0.00013824
0.00013824
0.00013824
0.00013824
0.00013824
0.00013824
0.00013824
0.000138232
0.000126278
9.51372e-05
7.26502e-05
6.8317e-05
6.98803e-05
8.57922e-05
0.000118548
0.000138095
0.00013824
0.00013824
0.00013824
0.00013824
0.00013824
0.00013824
0.00013824
0.00013824
0.00013824
0.00013824
0.00013824
0.00013824
0.00013824
0.00013824
0.00013824
0.00013824
0.00013824
0.00013824
0.00013824
0.00013824
0.00013824
0.00013824
0.00013824
0.00013824
0.00013824
0.00013824
0.00013824
0.00013824
0.00013824
0.00013824
0.00013824
0.00013824
0.00013824
0.00013824
0.00013824
0.00013824
0.00013824
0.00013824
0.00013824
0.00013824
0.00013824
0.00013824
0.00013824
0.00013824
0.00013824
0.00013824
0.00013824
0.00013824
0.00013824
0.00013824
0.00013824
0.00013824
0.00013824
0.00013824
0.00013824
0.00013824
0.00013824
0.00013824
0.00013824
0.00013824
0.00013824
0.00013824
0.00013824
0.00013824
0.00013824
0.00013824
0.00013824
0.00013824
0.00013824
0.00013824
0.00013824
0.00013824
0.00013824
0.00013824
0.00013824
0.00013824
0.00013824
0.00013824
0.00013824
0.00013824
0.00013824
0.00013824
0.00013824
0.00013824
0.00013824
0.00013824
0.00013824
0.00013824
0.00013824
0.00013824
0.00013824
0.00013824
0.00013824
0.00013824
0.00013824
0.00013824
0.00013824
0.00013824
0.00013824
0.00013824
0.00013824
0.00013824
0.00013824
0.00013824
0.00013824
0.00013824
0.00013824
0.00013824
0.00013824
0.00013824
0.00013824
0.00013824
0.00013824
0.000138234
0.000137387
0.000133612
0.00013594
0.000138197
0.00013824
0.00013824
0.00013824
0.00013824
0.00013824
0.00013824
0.00013824
0.00013824
0.00013824
0.00013824
0.00013824
0.00013824
0.00013824
0.00013824
0.00013824
0.00013824
0.00013824
0.00013824
0.00013824
0.00013824
0.00013824
0.00013824
0.00013824
0.00013824
0.00013824
0.00013824
0.00013824
0.00013824
0.00013824
0.00013824
0.00013824
0.00013824
0.00013824
0.00013824
0.00013824
0.00013824
0.00013824
0.00013824
0.00013824
0.00013824
0.00013824
0.00013824
0.00013824
0.00013824
0.00013824
0.00013824
0.00013824
0.00013824
0.00013824
0.00013824
0.00013824
0.00013824
0.00013824
0.00013824
0.00013824
0.00013824
0.00013824
0.00013824
0.00013824
0.00013824
0.00013824
0.00013824
0.00013824
0.00013824
0.00013824
0.00013824
0.00013824
0.00013824
0.00013824
0.00013824
0.00013824
0.00013824
0.00013824
0.00013824
0.00013824
0.00013824
0.00013824
0.00013824
0.00013824
0.00013824
0.00013824
0.00013824
0.00013824
0.00013824
0.00013824
0.00013824
0.00013824
0.00013824
0.00013824
0.00013824
0.00013824
0.00013824
0.00013824
0.00013824
0.00013824
0.00013824
0.00013824
0.00013824
0.00013824
0.00013824
0.00013824
0.00013824
0.00013824
0.00013824
0.00013824
0.00013824
0.00013824
0.00013824
0.00013824
0.00013824
0.00013824
0.00013824
0.00013824
0.00013824
0.00013824
0.00013824
0.00013824
0.00013824
0.00013824
0.00013824
0.00013824
0.00013824
0.00013824
0.00013824
0.00013824
0.00013824
0.00013824
0.00013824
0.00013824
0.00013824
0.00013824
0.00013824
0.00013824
0.00013824
0.00013824
0.00013824
0.00013824
0.00013824
0.00013824
0.00013824
0.00013824
0.00013824
0.00013824
0.00013824
0.00013824
0.00013824
0.00013824
0.00013824
0.00013824
0.00013824
0.00013824
0.00013824
0.00013824
0.00013824
0.00013824
0.00013824
0.00013824
0.00013824
0.00013824
0.00013824
0.00013824
0.00013824
0.00013824
0.00013824
0.00013824
0.00013824
0.00013824
0.00013824
0.00013824
0.00013824
0.00013824
0.00013824
0.00013824
0.00013824
0.00013824
0.00013824
0.00013824
0.00013824
0.00013824
0.00013824
0.00013824
0.00013824
0.00013824
0.00013824
0.00013824
0.00013824
0.00013824
0.00013824
0.00013824
0.00013824
0.00013824
0.00013824
0.00013824
0.00013824
0.00013824
0.00013824
0.00013824
0.00013824
0.00013824
0.00013824
0.00013824
0.00013824
0.00013824
0.00013824
0.00013824
0.00013824
0.00013824
0.00013824
0.00013824
0.00013824
0.00013824
0.00013824
0.00013824
0.00013824
0.00013824
0.00013824
0.00013824
0.00013824
0.00013824
0.00013824
0.00013824
0.00013824
0.00013824
0.00013824
0.00013824
0.00013824
0.00013824
0.00013824
0.00013824
0.00013824
0.00013824
0.00013824
0.00013824
0.00013824
0.00013824
0.00013824
0.00013824
0.00013824
0.00013824
0.00013824
0.00013824
0.00013824
0.00013824
0.00013824
0.00013824
0.00013824
0.00013824
0.00013824
0.00013824
0.00013824
0.00013824
0.00013824
0.00013824
0.00013824
0.00013824
0.00013824
0.00013824
0.00013824
0.00013824
0.00013824
0.00013824
0.00013824
0.00013824
0.00013824
0.00013824
0.00013824
0.00013824
0.00013824
0.00013824
0.00013824
0.00013824
0.00013824
0.00013824
0.00013824
0.00013824
0.00013824
0.00013824
0.00013824
0.00013824
0.00013824
0.00013824
0.00013824
0.00013824
0.00013824
0.00013824
0.00013824
0.00013824
0.00013824
0.00013824
0.00013824
0.00013824
0.00013824
0.00013824
0.00013824
0.00013824
0.00013824
0.00013824
0.00013824
0.00013824
0.00013824
0.00013824
0.00013824
0.00013824
0.00013824
0.00013824
0.00013824
0.00013824
0.00013824
0.00013824
0.00013824
0.00013824
0.00013824
0.00013824
0.00013824
0.00013824
0.00013824
0.00013824
0.00013824
0.00013824
0.00013824
0.00013824
0.00013824
0.00013824
0.00013824
0.00013824
0.00013824
0.00013824
0.00013824
0.00013824
0.00013824
0.00013824
0.00013824
0.00013824
0.00013824
0.00013824
0.00013824
0.00013824
0.00013824
0.00013824
0.00013824
0.00013824
0.00013824
0.00013824
0.00013824
0.00013824
0.00013824
0.00013824
0.00013824
0.00013824
0.00013824
0.00013824
0.00013824
0.00013824
0.00013824
0.00013824
0.00013824
0.00013824
0.00013824
0.00013824
0.00013824
0.00013824
0.00013824
0.00013824
0.00013824
0.00013824
0.00013824
0.00013824
0.00013824
0.00013824
0.00013824
0.00013824
0.00013824
0.00013824
0.00013824
0.00013824
0.00013824
0.00013824
0.00013824
0.00013824
0.00013824
0.00013824
0.00013824
0.00013824
0.00013824
0.00013824
0.00013824
0.00013824
0.00013824
0.00013824
0.00013824
0.00013824
0.00013824
0.00013824
0.00013824
0.00013824
0.00013824
0.00013824
0.00013824
0.00013824
0.00013824
0.00013824
0.00013824
0.00013824
0.00013824
0.00013824
0.00013824
0.00013824
0.00013824
0.00013824
0.00013824
0.00013824
0.00013824
0.00013824
0.00013824
0.00013824
0.00013824
0.00013824
0.00013824
0.00013824
0.00013824
0.00013824
0.00013824
0.00013824
0.00013824
0.00013824
0.00013824
0.00013824
0.00013824
0.00013824
0.00013824
0.00013824
0.00013824
0.00013824
0.00013824
0.00013824
0.00013824
0.00013824
0.00013824
0.00013824
0.00013824
0.00013824
0.00013824
0.00013824
0.00013824
0.00013824
0.00013824
0.00013824
0.00013824
0.00013824
0.00013824
0.00013824
0.00013824
0.00013824
0.00013824
0.00013824
0.00013824
0.00013824
0.00013824
0.00013824
0.00013824
0.00013824
0.00013824
0.00013824
0.00013824
0.00013824
0.00013824
0.00013824
0.00013824
0.00013824
0.00013824
0.00013824
0.00013824
0.00013824
0.00013824
0.00013824
0.00013824
0.00013824
0.00013824
0.00013824
0.00013824
0.00013824
0.00013824
0.00013824
0.00013824
0.00013824
0.00013824
0.00013824
0.00013824
0.00013824
0.00013824
0.00013824
0.00013824
0.00013824
0.00013824
0.00013824
0.00013824
0.00013824
0.00013824
0.00013824
0.00013824
0.00013824
0.00013824
0.00013824
0.00013824
0.00013824
0.00013824
0.00013824
0.00013824
0.00013824
0.00013824
0.00013824
0.00013824
0.00013824
0.00013824
0.00013824
0.00013824
0.00013824
0.00013824
0.00013824
0.00013824
0.00013824
0.00013824
0.00013824
0.00013824
0.00013824
0.00013824
0.00013824
0.00013824
0.00013824
0.00013824
0.00013824
0.00013824
0.00013824
0.00013824
0.00013824
0.00013824
0.00013824
0.00013824
0.00013824
0.00013824
0.00013824
0.00013824
0.00013824
0.00013824
0.00013824
0.00013824
0.00013824
0.00013824
0.00013824
0.00013824
0.00013824
0.00013824
0.00013824
0.00013824
0.00013824
0.00013824
0.00013824
0.00013824
0.00013824
0.00013824
0.00013824
0.00013824
0.00013824
0.00013824
0.00013824
0.00013824
0.00013824
0.00013824
0.00013824
0.00013824
0.00013824
0.00013824
0.00013824
0.00013824
0.00013824
0.00013824
0.00013824
0.00013824
0.00013824
0.00013824
0.00013824
0.00013824
0.00013824
0.00013824
0.00013824
0.00013824
0.00013824
0.00013824
0.00013824
0.00013824
0.00013824
0.00013824
0.00013824
0.00013824
0.00013824
0.00013824
0.00013824
0.00013824
0.00013824
0.00013824
0.00013824
0.00013824
0.00013824
0.00013824
0.00013824
0.00013824
0.00013824
0.00013824
0.00013824
0.00013824
0.00013824
0.00013824
0.00013824
0.00013824
0.00013824
0.00013824
0.00013824
0.00013824
0.00013824
0.00013824
0.00013824
0.00013824
0.00013824
0.00013824
0.00013824
0.00013824
0.00013824
0.00013824
0.00013824
0.00013824
0.00013824
0.00013824
0.00013824
0.00013824
0.00013824
0.00013824
0.00013824
0.00013824
0.00013824
0.00013824
0.00013824
0.00013824
0.00013824
0.00013824
0.00013824
0.00013824
0.00013824
0.00013824
0.00013824
0.00013824
0.00013824
0.00013824
0.00013824
0.00013824
0.00013824
0.00013824
0.00013824
0.00013824
0.00013824
0.00013824
0.00013824
0.00013824
0.00013824
0.00013824
0.00013824
0.00013824
0.00013824
0.00013824
0.00013824
0.00013824
0.00013824
0.00013824
0.00013824
0.00013824
0.00013824
0.00013824
0.00013824
0.00013824
0.00013824
0.00013824
0.00013824
0.00013824
0.00013824
0.00013824
0.00013824
0.00013824
0.00013824
0.00013824
0.00013824
0.00013824
0.00013824
0.00013824
0.00013824
0.00013824
0.00013824
0.00013824
0.00013824
0.00013824
0.00013824
0.00013824
0.00013824
0.00013824
0.00013824
0.00013824
0.00013824
0.00013824
0.00013824
0.00013824
0.00013824
0.00013824
0.00013824
0.00013824
0.00013824
0.00013824
0.00013824
0.00013824
0.00013824
0.00013824
0.00013824
0.00013824
0.00013824
0.00013824
0.00013824
0.00013824
0.00013824
0.00013824
0.00013824
0.00013824
0.00013824
0.00013824
0.00013824
0.00013824
0.00013824
0.00013824
0.00013824
0.00013824
0.00013824
0.00013824
0.00013824
0.00013824
0.00013824
0.00013824
0.00013824
0.00013824
0.00013824
0.00013824
0.00013824
0.00013824
0.00013824
0.00013824
0.00013824
0.00013824
0.00013824
0.00013824
0.00013824
0.00013824
0.00013824
0.00013824
0.00013824
0.00013824
0.00013824
0.00013824
0.00013824
0.00013824
0.00013824
0.00013824
0.00013824
0.00013824
0.00013824
0.00013824
0.00013824
0.00013824
0.00013824
0.00013824
0.00013824
0.00013824
0.00013824
0.00013824
0.00013824
0.00013824
0.00013824
0.00013824
0.00013824
0.00013824
0.00013824
0.00013824
0.00013824
0.00013824
0.00013824
0.00013824
0.00013824
0.00013824
0.00013824
0.00013824
0.00013824
0.00013824
0.00013824
0.00013824
0.00013824
0.00013824
0.00013824
0.00013824
0.00013824
0.00013824
0.00013824
0.00013824
0.00013824
0.00013824
0.00013824
0.00013824
0.00013824
0.00013824
0.00013824
0.00013824
0.00013824
0.00013824
0.00013824
0.00013824
0.00013824
0.00013824
0.00013824
0.00013824
0.00013824
0.00013824
0.00013824
0.00013824
0.00013824
0.00013824
0.00013824
0.00013824
0.00013824
0.00013824
0.00013824
0.00013824
0.00013824
0.00013824
0.00013824
0.00013824
0.00013824
0.00013824
0.00013824
0.00013824
0.00013824
0.00013824
0.00013824
0.00013824
0.00013824
0.00013824
0.00013824
0.00013824
0.00013824
0.00013824
0.00013824
0.00013824
0.00013824
0.00013824
0.00013824
0.00013824
0.00013824
0.00013824
0.00013824
0.00013824
0.00013824
0.00013824
0.00013824
0.00013824
0.00013824
0.00013824
0.00013824
0.00013824
0.00013824
0.00013824
0.00013824
0.00013824
0.00013824
0.00013824
0.00013824
0.00013824
0.00013824
0.00013824
0.00013824
0.00013824
0.00013824
0.00013824
0.00013824
0.00013824
0.00013824
0.00013824
0.00013824
0.00013824
0.00013824
0.00013824
0.00013824
0.00013824
0.00013824
0.00013824
0.00013824
0.00013824
0.00013824
0.00013824
0.00013824
0.00013824
0.00013824
0.00013824
0.00013824
0.00013824
0.00013824
0.00013824
0.00013824
0.00013824
0.00013824
0.00013824
0.00013824
0.00013824
0.00013824
0.00013824
0.00013824
0.00013824
0.00013824
0.00013824
0.00013824
0.00013824
0.00013824
0.00013824
0.00013824
0.00013824
0.00013824
0.00013824
0.00013824
0.00013824
0.00013824
0.00013824
0.00013824
0.00013824
0.00013824
0.00013824
0.00013824
0.00013824
0.00013824
0.00013824
0.00013824
0.00013824
0.00013824
0.00013824
0.00013824
0.00013824
0.00013824
0.00013824
0.00013824
0.00013824
0.00013824
0.00013824
0.00013824
0.00013824
0.00013824
0.00013824
0.00013824
0.00013824
0.00013824
0.00013824
0.00013824
0.00013824
0.00013824
0.00013824
0.00013824
0.00013824
0.00013824
0.00013824
0.00013824
0.00013824
0.00013824
0.00013824
0.00013824
0.00013824
0.00013824
0.00013824
0.00013824
0.00013824
0.00013824
0.00013824
0.00013824
0.00013824
0.00013824
0.00013824
0.00013824
0.00013824
0.00013824
0.00013824
0.00013824
0.00013824
0.00013824
0.00013824
0.00013824
0.00013824
0.00013824
0.00013824
0.00013824
0.00013824
0.00013824
0.00013824
0.00013824
0.00013824
0.00013824
0.00013824
0.00013824
0.00013824
0.00013824
0.00013824
0.00013824
0.00013824
0.00013824
0.00013824
0.00013824
0.00013824
0.00013824
0.00013824
0.00013824
0.00013824
0.00013824
0.00013824
0.00013824
0.00013824
0.00013824
0.00013824
0.00013824
0.00013824
0.00013824
0.00013824
0.00013824
0.00013824
0.00013824
0.00013824
0.00013824
0.00013824
0.00013824
0.00013824
0.00013824
0.00013824
0.00013824
0.00013824
0.00013824
0.00013824
0.00013824
0.00013824
0.00013824
0.00013824
0.00013824
0.00013824
0.00013824
0.00013824
0.00013824
0.00013824
0.00013824
0.00013824
0.00013824
0.00013824
0.00013824
0.00013824
0.00013824
0.00013824
0.00013824
0.00013824
0.00013824
0.00013824
0.00013824
0.00013824
0.00013824
0.00013824
0.00013824
0.00013824
0.00013824
0.00013824
0.00013824
0.00013824
0.00013824
0.00013824
0.00013824
0.00013824
0.00013824
0.00013824
0.00013824
0.00013824
0.00013824
0.00013824
0.00013824
0.00013824
0.00013824
0.00013824
0.00013824
0.00013824
0.00013824
0.00013824
0.00013824
0.00013824
0.00013824
0.00013824
0.00013824
0.00013824
0.00013824
0.00013824
0.00013824
0.00013824
0.00013824
0.00013824
0.00013824
0.00013824
0.00013824
0.00013824
0.00013824
0.00013824
0.00013824
0.00013824
0.00013824
0.00013824
0.00013824
0.00013824
0.00013824
0.00013824
0.00013824
0.00013824
0.00013824
0.00013824
0.00013824
0.00013824
0.00013824
0.00013824
0.00013824
0.00013824
0.00013824
0.00013824
0.00013824
0.00013824
0.00013824
0.00013824
0.00013824
0.00013824
0.00013824
0.00013824
0.00013824
0.00013824
0.00013824
0.00013824
0.00013824
0.00013824
0.00013824
0.00013824
0.00013824
0.00013824
0.00013824
0.00013824
0.00013824
0.00013824
0.00013824
0.00013824
0.00013824
0.00013824
0.00013824
0.00013824
0.00013824
0.00013824
0.00013824
0.00013824
0.00013824
0.00013824
0.00013824
0.00013824
0.00013824
0.00013824
0.00013824
0.00013824
0.00013824
0.00013824
0.00013824
0.00013824
0.00013824
0.00013824
0.00013824
0.00013824
0.00013824
0.00013824
0.00013824
0.00013824
0.00013824
0.00013824
0.00013824
0.00013824
0.00013824
0.00013824
0.00013824
0.00013824
0.00013824
0.00013824
0.00013824
0.00013824
0.00013824