/*--------------------------------*- C++ -*----------------------------------*\
| =========                 |                                                 |
| \\      /  F ield         | OpenFOAM: The Open Source CFD Toolbox           |
|  \\    /   O peration     | Version:  2406                                  |
|   \\  /    A nd           | Website:  www.openfoam.com                      |
|    \\/     M anipulation  |                                                 |
\*---------------------------------------------------------------------------*/
FoamFile
{
    version     2.0;
    format      ascii;
    arch        "LSB;label=32;scalar=64";
    class       volScalarField;
    location    "5.1";
    object      C;
}
// * * * * * * * * * * * * * * * * * * * * * * * * * * * * * * * * * * * * * //

dimensions      [1 -3 0 0 0 0 0];

internalField   nonuniform List<scalar> 
14400
(
0.315556
0.312895
0.308567
0.3037
0.299243
0.295898
0.294149
0.294295
0.296475
0.300687
0.306773
0.314396
0.322983
0.331617
0.338867
0.342595
0.339814
0.333298
0.325384
0.317748
0.311534
0.307538
0.306345
0.308412
0.314129
0.323848
0.337913
0.356674
0.38049
0.409733
0.444764
0.485882
0.533188
0.586172
0.642056
0.683099
0.709955
0.732961
0.753095
0.770656
0.785873
0.79893
0.809968
0.819099
0.826412
0.831974
0.835835
0.838032
0.838587
0.837508
0.834792
0.830424
0.824375
0.816604
0.807053
0.795648
0.782291
0.766864
0.749214
0.729151
0.706433
0.680753
0.647679
0.599147
0.541253
0.488091
0.441233
0.400663
0.366043
0.33696
0.313003
0.293791
0.278988
0.268309
0.261518
0.258429
0.258899
0.262823
0.270128
0.280761
0.294671
0.31178
0.331935
0.35479
0.379511
0.403706
0.41953
0.425265
0.424691
0.41579
0.398688
0.379076
0.360458
0.343845
0.329629
0.317946
0.30878
0.302001
0.297378
0.294586
0.293223
0.292833
0.292971
0.293298
0.293695
0.294327
0.295575
0.297926
0.301875
0.307874
0.316298
0.327444
0.341518
0.358628
0.378735
0.401549
0.426148
0.449355
0.463907
0.469378
0.327836
0.324202
0.318742
0.312901
0.307703
0.303844
0.301784
0.301806
0.304043
0.308489
0.315001
0.323275
0.332793
0.342741
0.351813
0.357694
0.353117
0.344667
0.335262
0.326545
0.319552
0.315
0.313425
0.315254
0.320859
0.330582
0.34476
0.363737
0.387869
0.417525
0.453066
0.494798
0.542826
0.59642
0.649944
0.687404
0.713212
0.735833
0.755669
0.772998
0.788035
0.800949
0.811874
0.820917
0.828162
0.833674
0.8375
0.839675
0.84022
0.839144
0.836444
0.832104
0.826098
0.818384
0.808908
0.797598
0.784362
0.769086
0.751627
0.731806
0.709395
0.684102
0.653332
0.607622
0.549817
0.496279
0.448909
0.407822
0.372729
0.343236
0.318936
0.299449
0.284442
0.273627
0.26677
0.263683
0.264225
0.268292
0.275814
0.28674
0.301023
0.318596
0.339319
0.362874
0.388373
0.412102
0.426084
0.431524
0.431344
0.424583
0.408515
0.388373
0.369204
0.352135
0.337579
0.325681
0.316432
0.309705
0.305267
0.302781
0.30181
0.30183
0.302296
0.302749
0.303009
0.303305
0.304138
0.306096
0.309739
0.315549
0.323916
0.335137
0.349416
0.366856
0.387424
0.410834
0.436084
0.457928
0.469879
0.474837
0.353112
0.346986
0.339073
0.331265
0.32461
0.31975
0.317088
0.316872
0.319219
0.324121
0.331451
0.340947
0.35216
0.364377
0.376252
0.383311
0.378557
0.366795
0.354714
0.344022
0.335574
0.329963
0.32765
0.329018
0.334408
0.344145
0.358551
0.377961
0.402721
0.433189
0.46971
0.512559
0.561784
0.616296
0.663339
0.694861
0.719619
0.741488
0.76075
0.777633
0.792319
0.804956
0.815662
0.824534
0.831647
0.837059
0.840815
0.842948
0.843475
0.842405
0.839735
0.835451
0.829528
0.821927
0.812597
0.801474
0.788473
0.773492
0.756403
0.73705
0.715238
0.690722
0.662925
0.622987
0.566957
0.512789
0.464378
0.42225
0.386213
0.355898
0.33091
0.310875
0.295457
0.28437
0.277378
0.274297
0.274983
0.279338
0.287291
0.298798
0.313817
0.332285
0.354065
0.37881
0.405395
0.427271
0.43834
0.443397
0.443769
0.43942
0.426977
0.406702
0.386659
0.368746
0.353536
0.341217
0.331805
0.32519
0.321141
0.319303
0.319179
0.320118
0.321351
0.322112
0.322038
0.321549
0.321458
0.322567
0.325562
0.33098
0.339226
0.350591
0.365264
0.383325
0.404707
0.42898
0.454404
0.472222
0.481047
0.485253
0.390974
0.380822
0.369245
0.358619
0.349909
0.34364
0.340125
0.339574
0.342085
0.347645
0.356126
0.367293
0.380695
0.395455
0.408958
0.412789
0.410566
0.398057
0.383144
0.369991
0.359598
0.352514
0.349154
0.349862
0.354949
0.364719
0.379476
0.399537
0.425232
0.456893
0.494807
0.53909
0.589195
0.641598
0.679027
0.705508
0.728916
0.74975
0.76821
0.784464
0.798652
0.810893
0.821286
0.82991
0.836831
0.8421
0.845755
0.847825
0.848326
0.847266
0.84464
0.840438
0.834634
0.827197
0.818081
0.807227
0.794564
0.780005
0.763443
0.744752
0.723784
0.700372
0.674343
0.641824
0.593252
0.537824
0.487813
0.444148
0.406706
0.375163
0.349144
0.328283
0.312246
0.300748
0.293555
0.29048
0.291385
0.29617
0.304769
0.31714
0.333241
0.352998
0.376226
0.402374
0.429332
0.446743
0.455337
0.459956
0.460806
0.458022
0.450698
0.433718
0.412751
0.393715
0.377597
0.36467
0.355026
0.348591
0.345156
0.344362
0.345662
0.348219
0.350926
0.352332
0.351568
0.349575
0.347859
0.347549
0.349501
0.354301
0.362353
0.373924
0.38916
0.408069
0.430501
0.4556
0.477831
0.48973
0.496462
0.499875
0.428895
0.422703
0.40823
0.394567
0.383478
0.375537
0.370977
0.370014
0.372752
0.379148
0.389036
0.402195
0.417974
0.434612
0.443383
0.444342
0.443658
0.436398
0.419938
0.404316
0.391682
0.382807
0.378145
0.378022
0.382737
0.39257
0.407807
0.42874
0.455666
0.488877
0.528559
0.574604
0.625373
0.666595
0.694864
0.718969
0.740785
0.760387
0.777877
0.79336
0.806931
0.818679
0.828677
0.836989
0.843667
0.848754
0.852281
0.854271
0.854739
0.853691
0.851123
0.847024
0.841375
0.834147
0.825301
0.814789
0.802552
0.78852
0.772611
0.754731
0.734776
0.712636
0.688205
0.661192
0.623619
0.570428
0.519241
0.473758
0.434507
0.401344
0.373955
0.351991
0.335126
0.323077
0.315611
0.312546
0.313744
0.319103
0.32856
0.34207
0.359581
0.380977
0.405971
0.43357
0.457166
0.46896
0.476112
0.480285
0.481478
0.479838
0.475687
0.465949
0.446745
0.426938
0.409852
0.396164
0.386228
0.380044
0.377454
0.378136
0.381555
0.38665
0.392017
0.394679
0.392584
0.387882
0.383634
0.381217
0.3817
0.385651
0.393441
0.405274
0.421212
0.44103
0.464267
0.48816
0.502253
0.509885
0.515194
0.517911
0.463016
0.461958
0.453898
0.438429
0.425085
0.415448
0.409707
0.408273
0.411309
0.418709
0.430102
0.445321
0.462607
0.473616
0.476657
0.47745
0.477123
0.475059
0.464235
0.446875
0.431928
0.421041
0.414884
0.413795
0.418086
0.428027
0.443878
0.465897
0.494306
0.529324
0.570786
0.617458
0.659483
0.688874
0.712695
0.734719
0.754868
0.773136
0.789552
0.804166
0.817035
0.828214
0.837755
0.845702
0.852095
0.856967
0.860343
0.862239
0.862669
0.861635
0.859136
0.855162
0.849695
0.842714
0.834187
0.824076
0.812335
0.798913
0.783751
0.766785
0.747952
0.727193
0.704465
0.679757
0.651619
0.610817
0.558967
0.511405
0.469984
0.434834
0.405748
0.382412
0.364509
0.351763
0.343952
0.3409
0.342466
0.348545
0.359066
0.373976
0.393191
0.41646
0.443053
0.470057
0.485534
0.493807
0.499865
0.503592
0.504982
0.504161
0.501386
0.497007
0.486503
0.467905
0.450276
0.435721
0.425471
0.41959
0.418035
0.420526
0.426746
0.435013
0.444356
0.447641
0.444833
0.436068
0.428675
0.423487
0.422168
0.42508
0.43256
0.444687
0.461425
0.481799
0.504477
0.518813
0.526371
0.532345
0.536519
0.538663
0.497658
0.497363
0.495842
0.488208
0.474007
0.463252
0.456222
0.454265
0.457685
0.466265
0.478751
0.495045
0.505471
0.509379
0.510834
0.511679
0.511817
0.511238
0.507974
0.496427
0.480214
0.467347
0.459641
0.457486
0.461334
0.471437
0.488031
0.511333
0.541344
0.578185
0.620255
0.659679
0.688288
0.710898
0.732322
0.752342
0.770834
0.787735
0.803028
0.816719
0.82883
0.839388
0.848425
0.855968
0.862045
0.866677
0.869883
0.871675
0.872062
0.871046
0.868624
0.86479
0.859531
0.852827
0.844657
0.834992
0.8238
0.811046
0.796693
0.780706
0.763053
0.743718
0.722704
0.700049
0.675844
0.646906
0.605387
0.557024
0.513438
0.476047
0.44499
0.420034
0.400889
0.387298
0.379064
0.376027
0.378041
0.384978
0.396751
0.413288
0.434451
0.459692
0.487068
0.50509
0.513972
0.520833
0.52595
0.529238
0.530698
0.530437
0.528659
0.525663
0.521736
0.512521
0.497947
0.482856
0.472511
0.466958
0.466513
0.47064
0.479614
0.487446
0.491564
0.492771
0.492129
0.488616
0.481432
0.473509
0.470535
0.472318
0.479481
0.491734
0.508948
0.526947
0.539391
0.546152
0.551934
0.556603
0.559875
0.56156
0.532595
0.532529
0.53248
0.531742
0.526492
0.517886
0.509683
0.50732
0.511096
0.520888
0.532082
0.539757
0.542845
0.544316
0.545622
0.546614
0.547228
0.547483
0.547489
0.544604
0.535256
0.521431
0.512541
0.509279
0.512736
0.523058
0.540463
0.565201
0.596436
0.634001
0.667586
0.693258
0.713979
0.734108
0.753352
0.771495
0.78839
0.803944
0.818105
0.830851
0.842176
0.852084
0.860588
0.867702
0.873439
0.877814
0.880837
0.882516
0.882857
0.881861
0.879525
0.875845
0.87081
0.864407
0.856622
0.847435
0.836827
0.824778
0.81127
0.796291
0.779838
0.761923
0.742583
0.721892
0.699969
0.677
0.648746
0.609274
0.564896
0.52531
0.492144
0.465385
0.444819
0.430223
0.421479
0.418462
0.421011
0.428929
0.442084
0.460336
0.483418
0.509438
0.527792
0.537152
0.543987
0.549601
0.553865
0.556709
0.558137
0.558229
0.55715
0.555137
0.5525
0.549593
0.543459
0.534816
0.525782
0.52055
0.521133
0.524922
0.528377
0.530088
0.529448
0.529378
0.53017
0.531522
0.530477
0.52786
0.52509
0.525788
0.532661
0.543813
0.554987
0.563793
0.569078
0.574117
0.578612
0.582257
0.584819
0.58614
0.567598
0.567676
0.5679
0.568411
0.569272
0.56758
0.565276
0.564645
0.567298
0.571749
0.575721
0.576976
0.578113
0.579418
0.580722
0.581926
0.582998
0.583979
0.584989
0.586236
0.585611
0.580842
0.572836
0.568766
0.572174
0.582753
0.60069
0.62663
0.656539
0.682631
0.703553
0.721932
0.740261
0.758202
0.775483
0.791896
0.807286
0.821544
0.834598
0.846405
0.856938
0.866185
0.874142
0.880811
0.886196
0.890302
0.893134
0.894696
0.894989
0.894015
0.891771
0.888253
0.883456
0.87737
0.869987
0.861299
0.851294
0.839968
0.827319
0.813351
0.798084
0.781552
0.763815
0.744966
0.725139
0.70452
0.683349
0.657571
0.62289
0.58247
0.547499
0.518936
0.496842
0.481063
0.471701
0.468714
0.471906
0.480876
0.495381
0.51498
0.53866
0.55505
0.563736
0.569833
0.575221
0.579719
0.5832
0.585598
0.586909
0.587193
0.586574
0.585236
0.583417
0.581404
0.579534
0.576968
0.57304
0.569903
0.568783
0.568547
0.567068
0.565656
0.565012
0.56504
0.565777
0.567212
0.569483
0.571801
0.573062
0.575514
0.5803
0.586103
0.590785
0.59463
0.598692
0.602626
0.60614
0.608995
0.611004
0.612041
0.602522
0.602677
0.603033
0.603677
0.604734
0.606374
0.608215
0.609365
0.610522
0.610968
0.61129
0.612097
0.613213
0.614521
0.615924
0.617371
0.618859
0.620445
0.622253
0.624481
0.627424
0.630397
0.631203
0.632862
0.637687
0.648439
0.665051
0.684225
0.70272
0.718598
0.734424
0.750653
0.766929
0.782954
0.798484
0.813321
0.827314
0.840347
0.85234
0.863232
0.872986
0.881575
0.888984
0.895204
0.900231
0.904064
0.906701
0.908143
0.908389
0.907439
0.905291
0.901942
0.897389
0.89163
0.88466
0.876478
0.867084
0.856482
0.844685
0.831711
0.817594
0.802385
0.786158
0.769017
0.751101
0.732592
0.713716
0.694747
0.67307
0.644923
0.610385
0.580761
0.557309
0.54013
0.530023
0.527073
0.531061
0.540948
0.556124
0.574867
0.58732
0.593864
0.59865
0.603221
0.607347
0.610853
0.613617
0.615574
0.616709
0.61706
0.616718
0.615816
0.614527
0.613045
0.611562
0.610194
0.609012
0.607494
0.605344
0.603153
0.601502
0.600406
0.599904
0.599992
0.600686
0.601998
0.603963
0.606576
0.609874
0.613289
0.61624
0.618965
0.621971
0.625172
0.628433
0.631554
0.634329
0.636579
0.638162
0.638978
0.637292
0.637478
0.637876
0.638531
0.639488
0.640758
0.64219
0.643528
0.644431
0.645153
0.645917
0.646907
0.648123
0.649527
0.651082
0.652773
0.654621
0.65669
0.659095
0.662011
0.665676
0.670403
0.676646
0.683249
0.690753
0.700878
0.712942
0.725047
0.737424
0.750821
0.764891
0.779328
0.793849
0.808203
0.822176
0.83559
0.8483
0.860193
0.871181
0.881198
0.890198
0.898145
0.905014
0.91079
0.915462
0.919021
0.921464
0.922786
0.922986
0.922061
0.920011
0.916834
0.91253
0.9071
0.900544
0.892868
0.88408
0.874193
0.863227
0.851214
0.838197
0.824237
0.809416
0.793843
0.777656
0.76103
0.744174
0.727344
0.71084
0.693925
0.672779
0.648754
0.625348
0.606804
0.595999
0.592933
0.597652
0.607293
0.616852
0.624114
0.627423
0.630477
0.633778
0.637055
0.640093
0.642727
0.644843
0.646372
0.647292
0.647621
0.64742
0.646784
0.64583
0.644687
0.643473
0.64226
0.641047
0.639687
0.63813
0.636606
0.635381
0.634561
0.634206
0.634339
0.634978
0.63613
0.637794
0.63994
0.642485
0.645176
0.647783
0.650334
0.652962
0.655652
0.658317
0.660827
0.663041
0.66483
0.666085
0.666733
0.671875
0.672067
0.672464
0.673082
0.673928
0.67498
0.676148
0.677301
0.678327
0.679297
0.68032
0.681491
0.682844
0.684383
0.686104
0.68802
0.690162
0.692598
0.695427
0.698791
0.702866
0.707855
0.713956
0.721188
0.729559
0.738611
0.748317
0.758909
0.77028
0.782371
0.794991
0.807919
0.820935
0.833832
0.846427
0.858562
0.870104
0.880942
0.890992
0.900183
0.908463
0.915791
0.922138
0.927481
0.931804
0.935095
0.937346
0.938551
0.938706
0.937809
0.935858
0.932853
0.928798
0.923694
0.917549
0.910371
0.902175
0.892981
0.882817
0.87172
0.859742
0.846949
0.833427
0.819283
0.804652
0.789696
0.774608
0.759614
0.744976
0.730988
0.717967
0.703763
0.689026
0.675826
0.666331
0.661662
0.661018
0.66263
0.66395
0.664018
0.665106
0.666843
0.668931
0.671129
0.673242
0.67512
0.676656
0.677781
0.678464
0.678711
0.678559
0.678068
0.677321
0.676401
0.675385
0.674324
0.67323
0.672076
0.670881
0.669761
0.668854
0.668253
0.668018
0.66818
0.668756
0.669749
0.671144
0.672903
0.674948
0.677146
0.679381
0.681626
0.683893
0.686157
0.688354
0.690395
0.69218
0.693614
0.694617
0.695134
0.706265
0.706452
0.706831
0.707403
0.708164
0.709087
0.71012
0.711199
0.712281
0.713388
0.714574
0.715893
0.71738
0.719055
0.720933
0.723038
0.725411
0.728112
0.731225
0.73486
0.73914
0.744197
0.750131
0.756971
0.764681
0.773109
0.782205
0.791992
0.802415
0.813391
0.824782
0.836423
0.84814
0.859764
0.871139
0.882128
0.892609
0.902482
0.911661
0.920078
0.927679
0.934419
0.940266
0.945192
0.949179
0.95221
0.954275
0.955366
0.955479
0.954609
0.952758
0.949924
0.946113
0.941331
0.935586
0.928892
0.921269
0.91274
0.903339
0.893108
0.882102
0.87039
0.858058
0.84521
0.831972
0.818494
0.804947
0.79153
0.77846
0.765977
0.754325
0.743731
0.734495
0.726221
0.718899
0.713163
0.708545
0.704952
0.702907
0.702063
0.702139
0.702857
0.703974
0.705286
0.706625
0.707855
0.708879
0.70963
0.710073
0.710201
0.710034
0.709611
0.708983
0.70821
0.707343
0.706422
0.705471
0.704505
0.703559
0.702702
0.70202
0.701581
0.701433
0.701607
0.702118
0.702965
0.704131
0.705582
0.707257
0.709077
0.71097
0.712895
0.714826
0.716728
0.718549
0.72022
0.72167
0.722829
0.723636
0.724051
0.740468
0.740646
0.741003
0.741536
0.742236
0.743083
0.744047
0.745095
0.746209
0.747399
0.748694
0.750127
0.751729
0.753523
0.755534
0.757789
0.760331
0.763212
0.766502
0.770282
0.77464
0.779659
0.785401
0.791884
0.799085
0.806939
0.8154
0.824438
0.833997
0.843996
0.854324
0.864851
0.875437
0.885944
0.896239
0.906201
0.915724
0.924714
0.933092
0.94079
0.947755
0.953942
0.959314
0.963843
0.967508
0.97029
0.972177
0.97316
0.973233
0.972393
0.970639
0.967973
0.9644
0.959929
0.954571
0.948344
0.941267
0.933371
0.92469
0.915271
0.905169
0.894452
0.883205
0.871527
0.859533
0.847359
0.835157
0.823096
0.811359
0.800135
0.789615
0.779967
0.771329
0.763685
0.757046
0.751341
0.746678
0.743098
0.740649
0.73919
0.73853
0.738471
0.738823
0.739418
0.740115
0.740798
0.741376
0.741788
0.741996
0.741987
0.741766
0.741357
0.740793
0.740112
0.739353
0.73855
0.737728
0.736915
0.736145
0.73547
0.734943
0.734616
0.734526
0.734698
0.735143
0.73586
0.736835
0.738036
0.739421
0.740936
0.742529
0.744157
0.745788
0.747381
0.748892
0.750267
0.751452
0.752393
0.753048
0.753383
0.774492
0.774662
0.775
0.775502
0.776161
0.776963
0.777889
0.778925
0.780062
0.781306
0.782675
0.784194
0.785886
0.787776
0.789889
0.792255
0.794911
0.797905
0.801289
0.805127
0.809478
0.814399
0.819929
0.826079
0.832836
0.840162
0.84802
0.856364
0.86514
0.874272
0.883667
0.89322
0.902814
0.912335
0.92167
0.930714
0.939372
0.947559
0.955201
0.962236
0.96861
0.974278
0.979205
0.983359
0.986719
0.989265
0.990984
0.991864
0.991901
0.99109
0.989431
0.986928
0.983586
0.979414
0.974427
0.968643
0.962086
0.954786
0.946781
0.938116
0.928848
0.919044
0.908783
0.898158
0.887275
0.876253
0.865227
0.854339
0.843743
0.833591
0.824031
0.815192
0.807168
0.799995
0.793692
0.788257
0.783725
0.780111
0.777404
0.775517
0.774321
0.773673
0.773427
0.773449
0.773621
0.773844
0.774039
0.774149
0.774137
0.773983
0.773687
0.773258
0.772718
0.772092
0.771409
0.770695
0.769977
0.769281
0.768639
0.768087
0.767667
0.767414
0.767357
0.767515
0.767896
0.768499
0.76931
0.770307
0.771456
0.772717
0.77405
0.775418
0.776786
0.778117
0.77937
0.780505
0.781476
0.782245
0.782778
0.783051
0.808347
0.808509
0.808832
0.809312
0.809943
0.810717
0.811623
0.812654
0.813806
0.815087
0.816507
0.818087
0.819846
0.821805
0.82399
0.826429
0.829155
0.832206
0.835624
0.839457
0.843746
0.848531
0.853836
0.859668
0.866016
0.872856
0.880151
0.887859
0.895925
0.904284
0.912854
0.921546
0.930265
0.938912
0.947392
0.955612
0.96349
0.970948
0.977919
0.984343
0.99017
0.995357
0.999867
1.00367
1.00674
1.00907
1.01063
1.01141
1.01142
1.01064
1.00907
1.00672
1.0036
0.999714
0.995079
0.989716
0.983648
0.976906
0.96953
0.961565
0.953065
0.944094
0.934727
0.925048
0.915155
0.905152
0.895157
0.885291
0.875682
0.866455
0.857728
0.849602
0.842156
0.835435
0.829469
0.82427
0.819853
0.816218
0.813338
0.811151
0.809565
0.808473
0.807763
0.80733
0.807075
0.806917
0.806786
0.806632
0.806418
0.806123
0.80574
0.805271
0.804729
0.80413
0.803495
0.802845
0.802203
0.801593
0.80104
0.800574
0.800224
0.800017
0.799974
0.800108
0.800427
0.800928
0.801601
0.802426
0.803378
0.804426
0.805537
0.80668
0.807821
0.808929
0.809968
0.810905
0.811703
0.812334
0.812769
0.812992
0.842039
0.842196
0.842507
0.842971
0.843583
0.844339
0.845232
0.84626
0.847423
0.848727
0.850181
0.851801
0.853604
0.855609
0.857838
0.860317
0.863073
0.866138
0.869546
0.873329
0.87752
0.882143
0.887215
0.892739
0.898706
0.905093
0.911869
0.918995
0.926419
0.934083
0.941918
0.949847
0.957787
0.965657
0.973372
0.980854
0.988027
0.994824
1.00118
1.00705
1.01237
1.01711
1.02124
1.02471
1.02752
1.02963
1.03105
1.03174
1.03172
1.03096
1.02949
1.02729
1.02438
1.02076
1.01646
1.01149
1.00588
0.999662
0.992869
0.985548
0.977752
0.969539
0.960981
0.952153
0.943143
0.934044
0.924956
0.915986
0.907239
0.898819
0.890822
0.883333
0.876417
0.870122
0.864478
0.859501
0.8552
0.851568
0.84858
0.846185
0.844315
0.84289
0.841824
0.841031
0.840434
0.839962
0.839558
0.839175
0.83878
0.838352
0.837878
0.837358
0.836796
0.836204
0.835596
0.834988
0.834398
0.833847
0.833355
0.832945
0.832639
0.832456
0.832412
0.832518
0.832777
0.833187
0.833739
0.834418
0.835204
0.836071
0.836993
0.837942
0.838891
0.83981
0.84067
0.841442
0.842099
0.842616
0.842973
0.843155
0.875575
0.875727
0.87603
0.876482
0.87708
0.877823
0.878707
0.879732
0.8809
0.882216
0.883689
0.885332
0.88716
0.889188
0.891437
0.893927
0.896683
0.899729
0.903091
0.906794
0.91086
0.915307
0.920143
0.925369
0.930975
0.936941
0.943238
0.949831
0.956674
0.963713
0.970889
0.978135
0.985381
0.992555
0.999586
1.0064
1.01294
1.01914
1.02494
1.03029
1.03515
1.03948
1.04325
1.04642
1.04898
1.05091
1.05218
1.05279
1.05274
1.05202
1.05063
1.04857
1.04586
1.0425
1.03851
1.03391
1.02873
1.02299
1.01674
1.01001
1.00285
0.995331
0.987503
0.97944
0.97122
0.962924
0.95464
0.946458
0.938469
0.930759
0.923409
0.91649
0.910059
0.904158
0.898819
0.894057
0.889878
0.886276
0.883227
0.880693
0.878621
0.876949
0.875611
0.874538
0.873667
0.87294
0.872308
0.87173
0.871176
0.870625
0.870063
0.869486
0.868894
0.868294
0.867696
0.867112
0.866555
0.866042
0.865588
0.865212
0.86493
0.864756
0.864701
0.864773
0.864975
0.865303
0.86575
0.866304
0.866948
0.867661
0.868421
0.869206
0.86999
0.870749
0.871459
0.872095
0.872635
0.873059
0.873351
0.8735
0.908959
0.909107
0.909403
0.909845
0.910433
0.911165
0.912041
0.913061
0.914228
0.915548
0.917028
0.918679
0.920514
0.922547
0.924794
0.927272
0.930002
0.933003
0.936295
0.939895
0.94382
0.94808
0.95268
0.957618
0.962883
0.968457
0.974313
0.980418
0.986731
0.993206
0.999789
1.00642
1.01305
1.0196
1.02601
1.03223
1.0382
1.04385
1.04914
1.05403
1.05847
1.06242
1.06586
1.06875
1.07108
1.07283
1.07397
1.07451
1.07444
1.07374
1.07243
1.07051
1.06798
1.06486
1.06117
1.05691
1.05212
1.04683
1.04108
1.03489
1.02832
1.02143
1.01426
1.00689
0.999372
0.991791
0.984221
0.976738
0.969419
0.962339
0.955566
0.949159
0.943169
0.937634
0.932582
0.928029
0.92398
0.92043
0.917359
0.914738
0.912526
0.910675
0.909131
0.907842
0.906755
0.905823
0.905003
0.904261
0.90357
0.902908
0.902263
0.901628
0.901
0.900383
0.899783
0.899208
0.898668
0.898176
0.897744
0.897386
0.897113
0.896936
0.896863
0.896899
0.897046
0.8973
0.897655
0.8981
0.898622
0.899204
0.899826
0.90047
0.901114
0.901738
0.902321
0.902843
0.903286
0.903633
0.903873
0.903995
0.942194
0.942339
0.942629
0.943064
0.943642
0.944364
0.94523
0.946242
0.947404
0.948719
0.950196
0.951843
0.95367
0.955691
0.957918
0.960366
0.963051
0.965987
0.96919
0.972672
0.976445
0.980514
0.98488
0.989541
0.994483
0.99969
1.00514
1.0108
1.01663
1.02259
1.02864
1.03472
1.04078
1.04678
1.05264
1.05832
1.06376
1.06892
1.07375
1.07821
1.08227
1.08587
1.08901
1.09164
1.09376
1.09534
1.09637
1.09684
1.09675
1.09609
1.09485
1.09306
1.0907
1.08781
1.08438
1.08045
1.07603
1.07115
1.06585
1.06016
1.05412
1.0478
1.04123
1.03447
1.02759
1.02065
1.01371
1.00685
1.00013
0.993613
0.987356
0.981411
0.975823
0.970627
0.965846
0.961496
0.957584
0.954104
0.951042
0.948375
0.946071
0.944093
0.942398
0.940944
0.939689
0.938593
0.93762
0.936742
0.935933
0.935175
0.934454
0.933762
0.933096
0.932455
0.931844
0.931268
0.930733
0.93025
0.929827
0.929474
0.9292
0.929012
0.928915
0.928914
0.929009
0.929196
0.929469
0.92982
0.930237
0.930705
0.931209
0.931733
0.932258
0.932768
0.933244
0.933671
0.934032
0.934316
0.934512
0.934611
0.975285
0.975427
0.975711
0.976138
0.976707
0.977418
0.978274
0.979275
0.980425
0.981729
0.983193
0.984825
0.986634
0.988629
0.990821
0.993224
0.995848
0.998704
1.00181
1.00516
1.00877
1.01265
1.01679
1.02118
1.02582
1.03068
1.03575
1.041
1.04639
1.05189
1.05745
1.06304
1.0686
1.07408
1.07944
1.08464
1.08961
1.09432
1.09874
1.10281
1.10651
1.1098
1.11266
1.11506
1.11698
1.11841
1.11933
1.11974
1.11963
1.11899
1.11783
1.11616
1.11397
1.11128
1.10811
1.10447
1.10038
1.09588
1.091
1.08577
1.08022
1.07441
1.06838
1.06218
1.05587
1.0495
1.04313
1.03683
1.03064
1.02463
1.01883
1.01331
1.00809
1.0032
0.998679
0.994527
0.990755
0.987359
0.98433
0.981649
0.979291
0.977227
0.975424
0.973847
0.972463
0.971238
0.970144
0.969153
0.968246
0.967404
0.966615
0.96587
0.965165
0.964498
0.96387
0.963285
0.962748
0.962264
0.96184
0.961484
0.9612
0.960995
0.960873
0.960835
0.96088
0.961006
0.961206
0.961475
0.9618
0.962171
0.962573
0.962994
0.963418
0.963831
0.964217
0.964563
0.964857
0.965087
0.965246
0.965327
1.00823
1.00837
1.00865
1.00907
1.00963
1.01033
1.01117
1.01216
1.01329
1.01458
1.01602
1.01763
1.01941
1.02137
1.02352
1.02586
1.02841
1.03118
1.03417
1.03739
1.04084
1.04452
1.04844
1.05258
1.05693
1.06147
1.06619
1.07106
1.07605
1.08112
1.08625
1.09138
1.09648
1.10151
1.10642
1.11117
1.11572
1.12003
1.12406
1.12778
1.13115
1.13416
1.13676
1.13895
1.14069
1.14198
1.14281
1.14316
1.14304
1.14243
1.14134
1.13977
1.13773
1.13524
1.1323
1.12893
1.12516
1.12101
1.11651
1.11169
1.10658
1.10124
1.0957
1.09
1.0842
1.07835
1.07249
1.06669
1.06098
1.05541
1.05004
1.0449
1.04001
1.03542
1.03114
1.02718
1.02355
1.02025
1.01727
1.0146
1.01222
1.0101
1.00822
1.00656
1.00508
1.00375
1.00256
1.00148
1.00049
0.99958
0.998731
0.997939
0.997196
0.996502
0.995854
0.995255
0.994709
0.994217
0.993786
0.99342
0.993122
0.992897
0.992746
0.992671
0.99267
0.99274
0.992876
0.993071
0.993317
0.993604
0.99392
0.994252
0.99459
0.99492
0.99523
0.995508
0.995745
0.995931
0.996058
0.996124
1.04104
1.04118
1.04145
1.04186
1.04241
1.0431
1.04392
1.04489
1.04601
1.04727
1.04869
1.05027
1.05201
1.05392
1.05601
1.05829
1.06076
1.06343
1.0663
1.06938
1.07267
1.07617
1.07987
1.08376
1.08784
1.09209
1.09648
1.101
1.10562
1.11031
1.11503
1.11975
1.12444
1.12905
1.13356
1.13791
1.14207
1.14601
1.1497
1.15309
1.15617
1.15891
1.16129
1.16327
1.16486
1.16602
1.16676
1.16706
1.16692
1.16634
1.16531
1.16385
1.16195
1.15964
1.15691
1.1538
1.15031
1.14648
1.14233
1.13789
1.13319
1.12827
1.12317
1.11793
1.11259
1.1072
1.1018
1.09645
1.09117
1.08601
1.08102
1.07622
1.07165
1.06733
1.06327
1.0595
1.05601
1.05282
1.0499
1.04726
1.04488
1.04273
1.04081
1.03909
1.03753
1.03614
1.03487
1.03372
1.03266
1.03169
1.03079
1.02996
1.02918
1.02846
1.02779
1.02717
1.02661
1.02611
1.02567
1.02529
1.02497
1.02472
1.02454
1.02443
1.02439
1.02441
1.02449
1.02462
1.02479
1.02501
1.02525
1.02551
1.02577
1.02603
1.02627
1.0265
1.02668
1.02683
1.02693
1.02699
1.07371
1.07385
1.07411
1.07452
1.07505
1.07572
1.07653
1.07748
1.07857
1.07981
1.0812
1.08274
1.08443
1.08629
1.08832
1.09053
1.09291
1.09547
1.09823
1.10117
1.10429
1.10761
1.1111
1.11476
1.11858
1.12255
1.12664
1.13084
1.13512
1.13946
1.14381
1.14816
1.15248
1.15671
1.16084
1.16483
1.16864
1.17225
1.17562
1.17872
1.18154
1.18403
1.1862
1.188
1.18944
1.19049
1.19115
1.1914
1.19125
1.1907
1.18973
1.18836
1.1866
1.18444
1.18192
1.17904
1.17581
1.17227
1.16844
1.16434
1.16001
1.15548
1.15078
1.14595
1.14103
1.13606
1.13108
1.12612
1.12124
1.11645
1.11181
1.10733
1.10304
1.09897
1.09513
1.09153
1.08819
1.0851
1.08226
1.07966
1.0773
1.07515
1.0732
1.07144
1.06984
1.06839
1.06707
1.06586
1.06475
1.06373
1.06279
1.06192
1.06111
1.06036
1.05967
1.05904
1.05846
1.05794
1.05749
1.05709
1.05675
1.05648
1.05627
1.05613
1.05604
1.05602
1.05604
1.05612
1.05623
1.05638
1.05656
1.05675
1.05695
1.05715
1.05734
1.05751
1.05766
1.05778
1.05786
1.0579
1.10625
1.10638
1.10664
1.10704
1.10756
1.10822
1.10901
1.10993
1.111
1.1122
1.11355
1.11505
1.11669
1.1185
1.12046
1.12258
1.12487
1.12733
1.12996
1.13276
1.13573
1.13887
1.14216
1.1456
1.14918
1.15289
1.1567
1.1606
1.16457
1.16858
1.1726
1.17661
1.18058
1.18448
1.18827
1.19193
1.19542
1.19872
1.20181
1.20464
1.20721
1.20949
1.21146
1.21311
1.21441
1.21535
1.21594
1.21615
1.21599
1.21546
1.21455
1.21327
1.21162
1.20963
1.20728
1.20461
1.20163
1.19836
1.19482
1.19104
1.18704
1.18286
1.17852
1.17406
1.16952
1.16493
1.16032
1.15574
1.1512
1.14675
1.14242
1.13823
1.13421
1.13038
1.12674
1.12332
1.12011
1.11713
1.11438
1.11183
1.1095
1.10736
1.10541
1.10362
1.102
1.10051
1.09915
1.0979
1.09675
1.09569
1.09472
1.09381
1.09298
1.0922
1.09149
1.09084
1.09025
1.08972
1.08924
1.08883
1.08847
1.08818
1.08794
1.08776
1.08764
1.08757
1.08755
1.08758
1.08764
1.08774
1.08785
1.08799
1.08814
1.08829
1.08843
1.08856
1.08867
1.08876
1.08882
1.08885
1.13866
1.13879
1.13904
1.13942
1.13993
1.14057
1.14134
1.14224
1.14328
1.14445
1.14576
1.14721
1.1488
1.15054
1.15243
1.15447
1.15667
1.15902
1.16153
1.16419
1.16701
1.16997
1.17307
1.1763
1.17966
1.18312
1.18667
1.1903
1.19398
1.19769
1.20141
1.20511
1.20876
1.21235
1.21583
1.21919
1.22239
1.22542
1.22824
1.23083
1.23318
1.23526
1.23706
1.23855
1.23973
1.24058
1.2411
1.24127
1.24111
1.2406
1.23974
1.23854
1.23701
1.23515
1.23298
1.2305
1.22774
1.22471
1.22144
1.21794
1.21425
1.21039
1.20638
1.20226
1.19806
1.19381
1.18955
1.18529
1.18108
1.17694
1.1729
1.16898
1.1652
1.16158
1.15814
1.15488
1.15182
1.14895
1.14627
1.1438
1.1415
1.13939
1.13744
1.13565
1.13401
1.1325
1.13112
1.12984
1.12866
1.12757
1.12657
1.12564
1.12478
1.12399
1.12326
1.12259
1.12198
1.12143
1.12094
1.12051
1.12013
1.11981
1.11955
1.11934
1.11919
1.11908
1.11902
1.119
1.11902
1.11906
1.11913
1.11922
1.11932
1.11942
1.11953
1.11962
1.1197
1.11977
1.11982
1.11984
1.17094
1.17106
1.17131
1.17168
1.17218
1.1728
1.17354
1.17442
1.17542
1.17655
1.17782
1.17922
1.18076
1.18244
1.18425
1.18621
1.18831
1.19056
1.19294
1.19547
1.19813
1.20093
1.20385
1.20688
1.21002
1.21326
1.21657
1.21994
1.22336
1.22679
1.23023
1.23365
1.23701
1.24031
1.24352
1.2466
1.24954
1.25231
1.2549
1.25727
1.25942
1.26132
1.26295
1.26431
1.26537
1.26614
1.2666
1.26674
1.26657
1.26608
1.26527
1.26415
1.26272
1.26099
1.25897
1.25667
1.25411
1.25131
1.24828
1.24505
1.24163
1.23806
1.23435
1.23054
1.22665
1.22272
1.21876
1.21481
1.21089
1.20703
1.20325
1.19958
1.19603
1.19261
1.18935
1.18625
1.18332
1.18056
1.17798
1.17557
1.17333
1.17125
1.16932
1.16754
1.1659
1.16438
1.16297
1.16168
1.16048
1.15937
1.15835
1.1574
1.15652
1.15571
1.15496
1.15428
1.15365
1.15309
1.15258
1.15213
1.15173
1.15139
1.1511
1.15087
1.15068
1.15054
1.15044
1.15038
1.15036
1.15036
1.15039
1.15044
1.1505
1.15056
1.15063
1.1507
1.15075
1.1508
1.15083
1.15085
1.2031
1.20322
1.20346
1.20382
1.2043
1.2049
1.20562
1.20647
1.20744
1.20853
1.20975
1.2111
1.21258
1.21419
1.21593
1.21781
1.21981
1.22195
1.22422
1.22661
1.22913
1.23176
1.23451
1.23736
1.2403
1.24332
1.24641
1.24954
1.25271
1.2559
1.25908
1.26223
1.26534
1.26837
1.27132
1.27416
1.27686
1.2794
1.28177
1.28394
1.2859
1.28763
1.28912
1.29035
1.29132
1.292
1.29241
1.29252
1.29235
1.29188
1.29111
1.29006
1.28873
1.28712
1.28524
1.28311
1.28074
1.27814
1.27533
1.27233
1.26917
1.26586
1.26243
1.2589
1.25529
1.25164
1.24796
1.24429
1.24064
1.23703
1.2335
1.23005
1.22671
1.22349
1.2204
1.21745
1.21465
1.21201
1.20952
1.20718
1.20499
1.20295
1.20105
1.19929
1.19765
1.19613
1.19473
1.19342
1.19221
1.19109
1.19005
1.18908
1.18819
1.18736
1.1866
1.18591
1.18527
1.18469
1.18416
1.18369
1.18328
1.18292
1.18261
1.18235
1.18213
1.18196
1.18183
1.18174
1.18167
1.18164
1.18163
1.18164
1.18167
1.1817
1.18174
1.18178
1.18182
1.18184
1.18187
1.18188
1.23514
1.23525
1.23548
1.23583
1.23629
1.23687
1.23757
1.23839
1.23932
1.24038
1.24155
1.24285
1.24427
1.24581
1.24748
1.24927
1.25118
1.25321
1.25536
1.25763
1.26001
1.26249
1.26507
1.26774
1.27049
1.27331
1.27619
1.27911
1.28205
1.285