/*--------------------------------*- C++ -*----------------------------------*\
| =========                 |                                                 |
| \\      /  F ield         | OpenFOAM: The Open Source CFD Toolbox           |
|  \\    /   O peration     | Version:  2406                                  |
|   \\  /    A nd           | Website:  www.openfoam.com                      |
|    \\/     M anipulation  |                                                 |
\*---------------------------------------------------------------------------*/
FoamFile
{
    version     2.0;
    format      ascii;
    arch        "LSB;label=32;scalar=64";
    class       volScalarField;
    location    "2.65";
    object      C;
}
// * * * * * * * * * * * * * * * * * * * * * * * * * * * * * * * * * * * * * //

dimensions      [1 -3 0 0 0 0 0];

internalField   nonuniform List<scalar> 
14400
(
0.936321
0.926886
0.902052
0.869401
0.841533
0.821428
0.810489
0.809455
0.818627
0.837896
0.866721
0.903909
0.946621
0.980169
0.997482
1.0063
1.00838
1.0035
0.98896
0.959816
0.92645
0.900507
0.88455
0.879861
0.887254
0.907195
0.939825
0.984924
1.04173
1.10764
1.16696
1.2072
1.23667
1.26246
1.28513
1.30512
1.32275
1.33828
1.3519
1.36376
1.374
1.38272
1.38998
1.39585
1.40039
1.40363
1.4056
1.40632
1.40581
1.40405
1.40106
1.3968
1.39128
1.38445
1.37628
1.36671
1.35569
1.34314
1.32896
1.31304
1.29523
1.27537
1.25323
1.22854
1.20095
1.17002
1.13494
1.08173
1.00714
0.935459
0.872794
0.820718
0.779647
0.749607
0.730477
0.722075
0.724205
0.73666
0.759194
0.791442
0.832713
0.881119
0.927761
0.958285
0.975917
0.988008
0.995215
0.997901
0.996196
0.990014
0.979021
0.962195
0.930973
0.887742
0.84839
0.816863
0.79446
0.781546
0.777987
0.783204
0.796081
0.814546
0.834123
0.843609
0.834236
0.814719
0.796269
0.783427
0.77829
0.782
0.795162
0.817938
0.849988
0.89003
0.934056
0.965964
0.983667
0.995923
1.00377
1.0076
0.945189
0.937976
0.918858
0.88742
0.858584
0.8375
0.825938
0.824686
0.834086
0.853975
0.883727
0.921683
0.962814
0.99019
1.00474
1.01303
1.01533
1.01147
1.0007
0.977079
0.944079
0.917324
0.900535
0.895282
0.9025
0.922677
0.955903
1.00183
1.05943
1.12493
1.17664
1.21159
1.24036
1.26558
1.28782
1.30747
1.32485
1.34018
1.35365
1.36539
1.37553
1.38416
1.39136
1.39719
1.40169
1.4049
1.40685
1.40756
1.40704
1.40529
1.40231
1.39808
1.39258
1.38579
1.37767
1.36817
1.35722
1.34476
1.3307
1.31492
1.29729
1.27764
1.25578
1.23144
1.2043
1.17394
1.13979
1.09368
1.02589
0.95264
0.888682
0.835627
0.793825
0.763291
0.743894
0.735444
0.737738
0.750567
0.773672
0.806661
0.848782
0.89797
0.939812
0.964904
0.981454
0.99289
0.999737
1.00229
1.00067
0.994825
0.984517
0.969294
0.944589
0.905383
0.864867
0.832454
0.809591
0.796612
0.793421
0.799458
0.8137
0.834129
0.852873
0.858292
0.852948
0.834288
0.813855
0.79963
0.793652
0.796973
0.810177
0.833387
0.866296
0.907498
0.947286
0.972649
0.988791
1.00033
1.00778
1.01143
0.961257
0.955873
0.944783
0.922067
0.892112
0.869243
0.856524
0.85483
0.864697
0.885764
0.917291
0.956317
0.987399
1.00574
1.01821
1.02577
1.02842
1.0261
1.01873
1.00467
0.978559
0.95059
0.932235
0.925854
0.932726
0.95338
0.987785
1.03516
1.09367
1.15002
1.18976
1.22044
1.24759
1.27168
1.29308
1.31211
1.329
1.34395
1.35712
1.36862
1.37857
1.38705
1.39412
1.39985
1.40427
1.40743
1.40935
1.41003
1.40951
1.40777
1.40481
1.40062
1.39518
1.38847
1.38044
1.37106
1.36027
1.34799
1.33415
1.31865
1.30136
1.28214
1.26081
1.23714
1.21087
1.18163
1.14897
1.11114
1.05704
0.985281
0.92001
0.865323
0.822158
0.790679
0.770771
0.762231
0.764849
0.778407
0.802607
0.836928
0.879958
0.926783
0.958114
0.977489
0.992104
1.00236
1.00855
1.01086
1.00937
1.0041
0.994927
0.9817
0.964108
0.935906
0.896376
0.863035
0.839492
0.826397
0.823885
0.831286
0.847381
0.868479
0.879746
0.88208
0.879728
0.86851
0.847444
0.831353
0.823969
0.826569
0.839842
0.863673
0.897401
0.937412
0.96612
0.984396
0.998515
1.00884
1.01559
1.01892
0.982711
0.978942
0.971747
0.96014
0.939604
0.915468
0.901475
0.899049
0.909674
0.932041
0.964663
0.993364
1.01224
1.0261
1.03659
1.04342
1.04648
1.04576
1.04143
1.03391
1.02022
0.998204
0.978816
0.970863
0.977263
0.998624
1.03468
1.08272
1.13493
1.17474
1.20512
1.23283
1.25789
1.28045
1.30072
1.31888
1.3351
1.34951
1.36225
1.37341
1.38308
1.39133
1.39823
1.40381
1.40813
1.4112
1.41306
1.41372
1.41318
1.41146
1.40854
1.40441
1.39906
1.39246
1.38457
1.37537
1.3648
1.35279
1.33927
1.32417
1.30737
1.28875
1.26816
1.24545
1.22039
1.19276
1.16229
1.12871
1.08876
1.03247
0.966459
0.909634
0.864573
0.831778
0.811166
0.802506
0.80558
0.820176
0.845909
0.882104
0.925692
0.958639
0.978832
0.994766
1.00711
1.0159
1.02124
1.02321
1.02187
1.01726
1.00939
0.99832
0.984221
0.967172
0.940929
0.907416
0.883354
0.87003
0.868474
0.877275
0.894421
0.90584
0.90932
0.91054
0.909238
0.905697
0.894271
0.877175
0.868325
0.869914
0.883343
0.90762
0.941329
0.967904
0.985428
1.00016
1.01204
1.02092
1.02681
1.02974
1.00793
1.00544
1.00078
0.994684
0.986055
0.97244
0.958805
0.955195
0.967006
0.989042
1.01041
1.0261
1.03874
1.04981
1.05864
1.06485
1.06831
1.06905
1.06732
1.06363
1.05886
1.04996
1.03789
1.02853
1.03463
1.05671
1.09428
1.13468
1.1691
1.19672
1.22315
1.24787
1.27068
1.29153
1.31047
1.3276
1.34299
1.35675
1.36895
1.37968
1.389
1.39697
1.40364
1.40905
1.41322
1.41619
1.41798
1.4186
1.41805
1.41634
1.41347
1.40942
1.40418
1.39772
1.39003
1.38105
1.37076
1.35909
1.34599
1.33138
1.31519
1.29731
1.27765
1.25609
1.23249
1.20673
1.17872
1.1484
1.11593
1.0771
1.0252
0.967722
0.920693
0.88645
0.865058
0.856259
0.859834
0.875606
0.902742
0.939574
0.96893
0.987795
1.00291
1.01563
1.02567
1.0329
1.0373
1.03887
1.03764
1.03368
1.02707
1.01796
1.00668
0.993769
0.979645
0.959633
0.938623
0.924943
0.924524
0.93088
0.937638
0.93959
0.941013
0.941523
0.940861
0.939289
0.937222
0.930401
0.92402
0.924433
0.938092
0.9591
0.979246
0.993662
1.00699
1.01879
1.02855
1.03599
1.04098
1.04349
1.03565
1.03409
1.03125
1.0277
1.02432
1.02109
1.01656
1.01646
1.02488
1.03682
1.04697
1.05691
1.06679
1.07578
1.0833
1.08904
1.09285
1.0948
1.09517
1.09444
1.0934
1.09318
1.09247
1.09252
1.10089
1.12151
1.148
1.17305
1.19633
1.21987
1.24288
1.26483
1.28542
1.30451
1.32205
1.33804
1.35252
1.36553
1.37713
1.38736
1.39628
1.40392
1.41032
1.41551
1.41952
1.42237
1.42407
1.42464
1.42408
1.4224
1.41958
1.41562
1.41051
1.40423
1.39675
1.38805
1.37809
1.36682
1.3542
1.34018
1.32469
1.30767
1.28905
1.26876
1.24675
1.22297
1.19744
1.17025
1.14165
1.11212
1.07841
1.03625
0.989024
0.954018
0.93205
0.923097
0.926921
0.943352
0.969502
0.991076
1.00562
1.01798
1.02936
1.03917
1.04704
1.05274
1.05618
1.05731
1.05615
1.05275
1.04723
1.03979
1.03076
1.02064
1.01017
1.00019
0.988595
0.978828
0.975423
0.974931
0.973559
0.973402
0.973619
0.973677
0.973395
0.972955
0.972893
0.974056
0.974425
0.977701
0.987352
0.998901
1.009
1.01968
1.03007
1.03946
1.04737
1.05349
1.05765
1.05975
1.06493
1.06402
1.06243
1.06057
1.05906
1.05866
1.06024
1.06333
1.06757
1.07296
1.07995
1.08778
1.09573
1.1032
1.10976
1.11514
1.11925
1.12215
1.1241
1.12554
1.12713
1.12975
1.13458
1.14266
1.15336
1.16851
1.18501
1.20347
1.22327
1.24355
1.26367
1.28315
1.30167
1.31904
1.33517
1.35
1.36352
1.37573
1.38668
1.39637
1.40483
1.4121
1.4182
1.42315
1.42697
1.42968
1.43129
1.43181
1.43124
1.42958
1.42683
1.42298
1.41802
1.41194
1.40471
1.39631
1.38672
1.3759
1.36382
1.35044
1.33572
1.31962
1.30211
1.28316
1.26277
1.24096
1.21781
1.1935
1.16831
1.14271
1.11736
1.09144
1.06116
1.03128
1.00971
1.00059
1.00335
1.01294
1.02418
1.03219
1.0405
1.04915
1.0574
1.06466
1.07057
1.07485
1.07737
1.07806
1.0769
1.07394
1.06932
1.06321
1.05592
1.04787
1.03959
1.03169
1.02478
1.01897
1.01367
1.00997
1.00787
1.00684
1.00638
1.00617
1.00609
1.00624
1.00698
1.0088
1.01222
1.01728
1.02294
1.02978
1.03767
1.04599
1.05416
1.06162
1.06799
1.07297
1.07638
1.07811
1.09511
1.09464
1.09387
1.09308
1.09269
1.09314
1.0948
1.09765
1.10146
1.10629
1.1121
1.11854
1.12515
1.13154
1.1374
1.14252
1.14685
1.15045
1.15355
1.1565
1.15981
1.16412
1.17013
1.17844
1.18922
1.2019
1.21644
1.23254
1.24972
1.26741
1.2851
1.30242
1.31906
1.33482
1.34958
1.36326
1.37581
1.38721
1.39747
1.40659
1.41458
1.42145
1.42723
1.43192
1.43554
1.4381
1.43961
1.44007
1.43948
1.43785
1.43517
1.43144
1.42665
1.42079
1.41383
1.40577
1.39658
1.38625
1.37474
1.36204
1.34813
1.33299
1.31662
1.29901
1.28021
1.26028
1.23935
1.21762
1.19538
1.17306
1.15122
1.13057
1.11186
1.0931
1.07715
1.06757
1.06472
1.06503
1.06627
1.06994
1.07503
1.08074
1.0864
1.09151
1.09571
1.09872
1.1004
1.10064
1.09943
1.09681
1.09288
1.08781
1.08184
1.07532
1.06862
1.06215
1.05628
1.05114
1.04674
1.04338
1.04111
1.0397
1.0389
1.03854
1.03853
1.03895
1.04
1.04192
1.04493
1.04902
1.0539
1.05957
1.06588
1.07247
1.07893
1.08488
1.08999
1.09401
1.09678
1.09819
1.12575
1.12558
1.12533
1.12521
1.12547
1.12639
1.12816
1.13083
1.13433
1.13863
1.14363
1.14911
1.1548
1.16042
1.16576
1.17069
1.17517
1.17926
1.18315
1.18711
1.1915
1.19678
1.20338
1.21163
1.22164
1.23324
1.2463
1.26055
1.27567
1.29125
1.30692
1.32236
1.33732
1.35161
1.36508
1.37765
1.38925
1.39984
1.40941
1.41794
1.42544
1.43191
1.43734
1.44176
1.44517
1.44757
1.44897
1.44937
1.44877
1.44717
1.44457
1.44097
1.43636
1.43072
1.42406
1.41635
1.40759
1.39776
1.38685
1.37486
1.36177
1.3476
1.33235
1.31605
1.29878
1.28061
1.2617
1.24224
1.22252
1.20292
1.18387
1.16593
1.14963
1.13546
1.12388
1.11486
1.10863
1.10548
1.10487
1.10625
1.10896
1.11237
1.11595
1.11928
1.12203
1.12394
1.12485
1.12468
1.12338
1.12099
1.11758
1.11329
1.10833
1.10295
1.09741
1.09203
1.08702
1.08257
1.07876
1.07572
1.07347
1.07194
1.071
1.07055
1.07055
1.07104
1.07213
1.07394
1.07656
1.07997
1.08406
1.08873
1.09382
1.09908
1.10423
1.10897
1.11307
1.11631
1.11855
1.11969
1.15657
1.15658
1.15666
1.15695
1.1576
1.15879
1.16063
1.16318
1.1664
1.17026
1.17467
1.17948
1.18451
1.18957
1.19454
1.19931
1.20387
1.20828
1.21268
1.21727
1.22232
1.22812
1.23497
1.24306
1.25247
1.26314
1.27495
1.2877
1.30115
1.31499
1.32896
1.34279
1.35626
1.36921
1.38149
1.39301
1.40369
1.41349
1.42238
1.43033
1.43733
1.44338
1.44848
1.45262
1.45581
1.45804
1.45933
1.45966
1.45905
1.45749
1.45498
1.45151
1.44708
1.44169
1.43533
1.42799
1.41966
1.41035
1.40005
1.38877
1.3765
1.36327
1.34912
1.33408
1.31823
1.30169
1.28458
1.26713
1.24956
1.23221
1.21543
1.19963
1.18522
1.17256
1.16194
1.15347
1.14728
1.14337
1.14149
1.14125
1.14218
1.14382
1.14576
1.14764
1.14918
1.15015
1.1504
1.14984
1.14843
1.14618
1.14315
1.13946
1.13525
1.13072
1.12607
1.12151
1.11723
1.11336
1.11001
1.10726
1.10513
1.1036
1.1026
1.1021
1.10207
1.10253
1.10354
1.10515
1.1074
1.11025
1.11364
1.11746
1.12158
1.1258
1.12992
1.13372
1.137
1.1396
1.14141
1.14233
1.18738
1.1875
1.18779
1.18832
1.1892
1.19054
1.19241
1.19484
1.19783
1.20135
1.20531
1.20963
1.21418
1.21883
1.22351
1.22814
1.23272
1.23731
1.24201
1.24697
1.25237
1.25843
1.26531
1.27317
1.28204
1.2919
1.30266
1.31416
1.32622
1.33862
1.35114
1.36357
1.37573
1.38747
1.39866
1.4092
1.41902
1.42806
1.43629
1.44367
1.45018
1.45582
1.46057
1.46443
1.46739
1.46946
1.47063
1.47091
1.47029
1.46876
1.46634
1.46301
1.45877
1.45363
1.44757
1.44061
1.43272
1.42393
1.41424
1.40365
1.39219
1.37988
1.36677
1.35291
1.33839
1.32331
1.30783
1.29211
1.27639
1.26093
1.24601
1.23196
1.21907
1.20763
1.19784
1.18982
1.18363
1.17924
1.17648
1.17507
1.17468
1.17498
1.17563
1.17635
1.17689
1.17708
1.17676
1.17585
1.17431
1.17215
1.16939
1.16614
1.16249
1.1586
1.15463
1.15071
1.14701
1.14363
1.14067
1.13817
1.13619
1.13471
1.13371
1.13318
1.1331
1.13348
1.13435
1.13573
1.13762
1.13999
1.14278
1.1459
1.14924
1.15263
1.15594
1.15898
1.16161
1.1637
1.16515
1.16589
1.21807
1.21826
1.21866
1.21934
1.22035
1.22175
1.22361
1.22594
1.22874
1.23198
1.23561
1.23955
1.24374
1.24808
1.25251
1.25701
1.26157
1.26624
1.27108
1.27622
1.28178
1.28789
1.29469
1.30226
1.31062
1.31977
1.32962
1.34006
1.35095
1.36213
1.3734
1.38462
1.39563
1.40628
1.41647
1.42611
1.43512
1.44344
1.45104
1.45786
1.4639
1.46914
1.47355
1.47713
1.47987
1.48178
1.48284
1.48305
1.48242
1.48093
1.4786
1.47541
1.47137
1.46648
1.46073
1.45414
1.4467
1.43842
1.42932
1.41941
1.40872
1.39729
1.38516
1.3724
1.3591
1.34535
1.3313
1.31711
1.30297
1.28909
1.27572
1.26311
1.25148
1.24105
1.23196
1.22433
1.21819
1.21349
1.21011
1.20787
1.20651
1.20578
1.20543
1.20522
1.20497
1.2045
1.20371
1.2025
1.20083
1.1987
1.19614
1.1932
1.18998
1.18658
1.18312
1.17971
1.17647
1.17349
1.17084
1.16858
1.16675
1.16534
1.16436
1.1638
1.16366
1.16395
1.16466
1.1658
1.16736
1.16931
1.17159
1.17413
1.17682
1.17956
1.18221
1.18465
1.18676
1.18844
1.1896
1.1902
1.24857
1.2488
1.24927
1.25002
1.25109
1.25252
1.25434
1.25657
1.25921
1.26222
1.26558
1.26924
1.27314
1.27722
1.28146
1.28582
1.29032
1.29498
1.29986
1.30505
1.31062
1.31668
1.3233
1.33054
1.33842
1.34692
1.35598
1.36552
1.37541
1.38553
1.39573
1.40589
1.41587
1.42555
1.43484
1.44365
1.45191
1.45956
1.46655
1.47285
1.47843
1.48327
1.48736
1.49067
1.4932
1.49494
1.49589
1.49605
1.4954
1.49396
1.49171
1.48867
1.48482
1.48018
1.47474
1.46851
1.4615
1.45373
1.4452
1.43595
1.426
1.4154
1.40419
1.39245
1.38025
1.3677
1.35492
1.34205
1.32927
1.31675
1.30469
1.29327
1.28269
1.27311
1.26464
1.25736
1.25129
1.24641
1.24262
1.23978
1.2377
1.2362
1.23507
1.23415
1.23326
1.23226
1.23107
1.22959
1.2278
1.22568
1.22325
1.22055
1.21765
1.21462
1.21155
1.20854
1.20567
1.20301
1.20063
1.19857
1.19687
1.19554
1.19458
1.19401
1.1938
1.19398
1.19453
1.19545
1.19672
1.1983
1.20015
1.2022
1.20437
1.20657
1.2087
1.21065
1.21234
1.21368
1.21462
1.21509
1.27885
1.27909
1.2796
1.28039
1.28148
1.2829
1.28467
1.2868
1.28929
1.29212
1.29526
1.29868
1.30235
1.30622
1.31028
1.3145
1.3189
1.3235
1.32835
1.33348
1.33898
1.3449
1.35129
1.35819
1.36561
1.37352
1.38188
1.39062
1.39964
1.40884
1.41811
1.42733
1.4364
1.44522
1.45369
1.46174
1.46931
1.47633
1.48276
1.48856
1.49371
1.49817
1.50193
1.50498
1.50731
1.50889
1.50974
1.50984
1.50919
1.50778
1.50563
1.50272
1.49907
1.49467
1.48953
1.48366
1.47708
1.46979
1.46182
1.45319
1.44394
1.43411
1.42375
1.41294
1.40175
1.39027
1.37862
1.36692
1.35531
1.34395
1.333
1.3226
1.31291
1.30405
1.29612
1.28917
1.28322
1.27825
1.27418
1.27091
1.26832
1.26624
1.26453
1.26304
1.26164
1.26023
1.2587
1.25701
1.25511
1.25298
1.25064
1.24811
1.24544
1.2427
1.23994
1.23723
1.23465
1.23226
1.2301
1.22821
1.22663
1.22536
1.22443
1.22383
1.22357
1.22364
1.22404
1.22475
1.22575
1.22702
1.2285
1.23015
1.23189
1.23365
1.23536
1.23692
1.23827
1.23934
1.24009
1.24047
1.30888
1.30913
1.30965
1.31044
1.31153
1.31292
1.31464
1.31667
1.31903
1.3217
1.32466
1.32788
1.33135
1.33504
1.33892
1.343
1.34729
1.35178
1.35653
1.36156
1.36692
1.37265
1.37878
1.38533
1.3923
1.39967
1.4074
1.41543
1.42368
1.43208
1.44053
1.44893
1.45719
1.46523
1.47296
1.48032
1.48725
1.49369
1.49959
1.50493
1.50966
1.51377
1.51723
1.52003
1.52215
1.52359
1.52433
1.52438
1.52372
1.52236
1.52029
1.51753
1.51406
1.5099
1.50506
1.49954
1.49336
1.48653
1.47908
1.47105
1.46245
1.45334
1.44378
1.43382
1.42353
1.41301
1.40236
1.39168
1.3811
1.37075
1.36075
1.35123
1.3423
1.33408
1.32662
1.31998
1.31417
1.30917
1.30494
1.30138
1.29841
1.29591
1.29376
1.29184
1.29005
1.2883
1.28651
1.28463
1.28263
1.28049
1.2782
1.2758
1.27331
1.27078
1.26826
1.2658
1.26345
1.26127
1.25929
1.25754
1.25606
1.25485
1.25394
1.25332
1.253
1.25297
1.25323
1.25375
1.25453
1.25552
1.2567
1.25801
1.25939
1.26079
1.26215
1.2634
1.26447
1.26533
1.26592
1.26623
1.33865
1.3389
1.33942
1.34021
1.34127
1.34263
1.34428
1.34622
1.34846
1.35099
1.35379
1.35684
1.36013
1.36365
1.36737
1.37131
1.37545
1.37982
1.38443
1.38931
1.39449
1.39999
1.40584
1.41204
1.41858
1.42545
1.43261
1.44001
1.44759
1.45528
1.46299
1.47066
1.4782
1.48554
1.4926
1.49934
1.50568
1.51158
1.51699
1.52189
1.52624
1.53001
1.53319
1.53575
1.53768
1.53897
1.53962
1.53962
1.53896
1.53764
1.53566
1.53303
1.52975
1.52582
1.52126
1.51607
1.51028
1.50389
1.49694
1.48946
1.48148
1.47304
1.4642
1.45501
1.44555
1.43589
1.42613
1.41636
1.40667
1.39719
1.38802
1.37926
1.371
1.36333
1.3563
1.34995
1.3443
1.33934
1.33501
1.33127
1.32804
1.32523
1.32275
1.32051
1.31842
1.31641
1.31441
1.31239
1.3103
1.30813
1.30589
1.30358
1.30123
1.29886
1.29653
1.29426
1.29209
1.29008
1.28824
1.28661
1.28521
1.28406
1.28316
1.28252
1.28214
1.28202
1.28215
1.28251
1.28308
1.28384
1.28476
1.28578
1.28687
1.28798
1.28906
1.29004
1.2909
1.29158
1.29205
1.29229
1.36816
1.36842
1.36892
1.36969
1.37073
1.37204
1.37362
1.37548
1.37761
1.38001
1.38266
1.38556
1.38869
1.39205
1.39562
1.3994
1.40339
1.40761
1.41206
1.41676
1.42174
1.427
1.43255
1.4384
1.44454
1.45095
1.45759
1.46442
1.47139
1.47844
1.48551
1.49252
1.49941
1.50612
1.51258
1.51874
1.52455
1.52995
1.53492
1.53941
1.54339
1.54685
1.54976
1.55209
1.55385
1.55501
1.55556
1.55551
1.55485
1.55358
1.55169
1.54919
1.54608
1.54237
1.53808
1.53321
1.52778
1.52182
1.51534
1.50837
1.50096
1.49314
1.48496
1.47648
1.46776
1.45888
1.44991
1.44093
1.43204
1.42333
1.41488
1.40678
1.39911
1.39193
1.38529
1.37923
1.37375
1.36885
1.3645
1.36065
1.35725
1.35423
1.35151
1.34903
1.34671
1.3445
1.34234
1.3402
1.33804
1.33586
1.33364
1.3314
1.32915
1.32692
1.32472
1.3226
1.32059
1.3187
1.31698
1.31545
1.31412
1.313
1.31211
1.31145
1.31102
1.31082
1.31083
1.31105
1.31145
1.31201
1.3127
1.31349
1.31434
1.31521
1.31605
1.31682
1.3175
1.31803
1.3184
1.31859
1.39743
1.39767
1.39817
1.39891
1.39991
1.40117
1.40268
1.40446
1.40649
1.40877
1.41129
1.41405
1.41703
1.42023
1.42365
1.42727
1.43111
1.43516
1.43943
1.44394
1.4487
1.4537
1.45897
1.46448
1.47023
1.4762
1.48237
1.48869
1.49511
1.50159
1.50807
1.5145
1.52081
1.52695
1.53286
1.5385
1.54382
1.54877
1.55331
1.55743
1.56108
1.56424
1.56689
1.56902
1.57061
1.57164
1.57211
1.57202
1.57136
1.57013
1.56832
1.56595
1.56301
1.55952
1.55548
1.55091
1.54583
1.54026
1.53421
1.52773
1.52084
1.51359
1.50602
1.49819
1.49014
1.48195
1.47369
1.46543
1.45724
1.4492
1.44139
1.43388
1.42673
1.41999
1.41372
1.40793
1.40263
1.39782
1.39349
1.38959
1.38608
1.38291
1.38003
1.37737
1.37489
1.37253
1.37025
1.36802
1.36581
1.36362
1.36142
1.35923
1.35706
1.35493
1.35285
1.35084
1.34894
1.34717
1.34554
1.34408
1.34281
1.34172
1.34084
1.34016
1.33968
1.3394
1.33931
1.3394
1.33965
1.34005
1.34055
1.34114
1.34179
1.34245
1.3431
1.34371
1.34423
1.34465
1.34494
1.34509
1.42644
1.42668
1.42716
1.42788
1.42884
1.43004
1.43149
1.43318
1.43512
1.43729
1.43969
1.44231
1.44515
1.44821
1.45147
1.45493
1.45861
1.46248
1.46657
1.47088
1.47541
1.48016
1.48513
1.49032
1.4957
1.50127
1.507
1.51284
1.51877
1.52474
1.53069
1.53659
1.54237
1.548
1.55342
1.55858
1.56345
1.56798
1.57215
1.57591
1.57925
1.58214
1.58456
1.58649
1.58792
1.58884
1.58923
1.5891
1.58844
1.58725
1.58552
1.58327
1.58049
1.5772
1.57341
1.56913
1.56437
1.55916
1.55353
1.54749
1.54109
1.53437
1.52735
1.5201
1.51267
1.5051
1.49747
1.48984
1.48228
1.47484
1.4676
1.46061
1.45393
1.4476
1.44166
1.43612
1.43102
1.42632
1.42204
1.41813
1.41457
1.41132
1.40833
1.40555
1.40295
1.40048
1.39812
1.39582
1.39358
1.39137
1.38919
1.38705
1.38494
1.38288
1.38089
1.37898
1.37717
1.37549
1.37394
1.37254
1.3713
1.37024
1.36936
1.36866
1.36813
1.36779
1.36761
1.3676
1.36772
1.36797
1.36832
1.36874
1.36922
1.36972
1.37021
1.37067
1.37107
1.37139
1.37161
1.37173
1.45522
1.45545
1.45591
1.4566
1.45752
1.45867
1.46005
1.46167
1.46351
1.46558
1.46786
1.47036
1.47306
1.47597
1.47908
1.48239
1.4859
1.4896
1.4935
1.49759
1.50189
1.50639
1.51108
1.51595
1.52099
1.52619
1.53151
1.53692
1.5424
1.5479
1.55338
1.55879
1.5641
1.56926
1.57422
1.57896
1.58341
1.58757
1.59138
1.59482
1.59787
1.60051
1.60271
1.60446
1.60574
1.60655
1.60688
1.60671
1.60605
1.6049
1.60325
1.60111
1.59849
1.59539
1.59183
1.58781
1.58336
1.5785
1.57324
1.56762
1.56167
1.55542
1.54892
1.5422
1.53532
1.52832
1.52126
1.5142
1.50719
1.50029
1.49355
1.48703
1.48077
1.47481
1.46918
1.4639
1.45898
1.45442
1.45021
1.44633
1.44276
1.43946
1.4364
1.43355
1.43087
1.42834
1.42591
1.42357
1.4213
1.41909
1.41693
1.41482
1.41276
1.41077
1.40885
1.40702
1.40528
1.40367
1.40218
1.40083
1.39962
1.39858
1.3977
1.39697
1.39641
1.39601
1.39576
1.39565
1.39566
1.39579
1.396
1.39629
1.39662
1.39698
1.39735
1.39769
1.39799
1.39823
1.3984
1.39849
1.48377
1.48399
1.48443
1.48509
1.48597
1.48707
1.48839
1.48993
1.49168
1.49364
1.49582
1.49819
1.50077
1.50354
1.5065
1.50965
1.51299
1.51651
1.52022
1.52411
1.52818
1.53243
1.53684
1.54141
1.54613
1.55097
1.55592
1.56094
1.566
1.57107
1.57612
1.5811
1.58598
1.59071
1.59527
1.5996
1.60369
1.60749
1.61098
1.61413
1.61691
1.61931
1.62131
1.62289
1.62404
1.62475
1.62501
1.62481
1.62416
1.62304
1.62147
1.61944
1.61696
1.61405
1.6107
1.60693
1.60277
1.59822
1.59332
1.58808
1.58255
1.57674
1.5707
1.56446
1.55808
1.55159
1.54505
1.5385
1.53199
1.52557
1.51929
1.5132
1.50732
1.5017
1.49636
1.49132
1.48659
1.48216
1.47804
1.47422
1.47066
1.46736
1.46427
1.46138
1.45866
1.45608
1.45361
1.45125
1.44897
1.44676
1.44462
1.44254
1.44053
1.43859
1.43672
1.43495
1.43328
1.43172
1.43028
1.42896
1.42779
1.42676
1.42587
1.42513
1.42454
1.42408
1.42376
1.42357
1.42349
1.42351
1.42362
1.42379
1.424
1.42425
1.4245
1.42475
1.42497
1.42514
1.42527
1.42533
1.51209
1.5123
1.51272
1.51335
1.5142
1.51524
1.5165
1.51797
1.51963
1.5215
1.52357
1.52583
1.52828
1.53091
1.53373
1.53673
1.5399
1.54325
1.54676
1.55044
1.55429
1.55829
1.56244
1.56673
1.57114
1.57566
1.58025
1.58491
1.58959
1.59428
1.59893
1.60352
1.608
1.61235
1.61653
1.6205
1.62424
1.62772
1.63092
1.63379
1.63633
1.63852
1.64033
1.64176
1.64278
1.6434
1.6436
1.64337
1.64272
1.64165
1.64014
1.63822
1.63588
1.63313
1.62998
1.62645
1.62256
1.61831
1.61373
1.60885
1.60369
1.59829
1.59267
1.58688
1.58095
1.57492
1.56884
1.56275
1.5567
1.55071
1.54485
1.53914
1.53361
1.52831
1.52324
1.51843
1.51388
1.5096
1.50559
1.50183
1.49832
1.49503
1.49195
1.48904
1.4863
1.4837
1.48122
1.47885
1.47656
1.47436
1.47224
1.47019
1.46822
1.46632
1.46451
1.46279
1.46117
1.45965
1.45825
1.45697
1.45581
1.45479
1.4539
1.45314
1.45252
1.45202
1.45164
1.45138
1.45122
1.45116
1.45116
1.45124
1.45136
1.45151
1.45167
1.45183
1.45198
1.45211
1.45219
1.45224
1.54021
1.54041
1.54081
1.54141
1.54221
1.54321
1.54441
1.5458
1.54739
1.54916
1.55113
1.55327
1.5556
1.55811
1.56078
1.56363
1.56664
1.56981
1.57314
1.57662
1.58024
1.58401
1.58791
1.59193
1.59605
1.60026
1.60453
1.60885
1.61319
1.61752
1.62181
1.62603
1.63016
1.63415
1.63799
1.64163
1.64506
1.64825
1.65117
1.65379
1.65611
1.6581
1.65974
1.66102
1.66193
1.66246
1.66261
1.66236
1.66171
1.66067
1.65924
1.65741
1.6552
1.65261
1.64965
1.64634
1.64269
1.63872
1.63444
1.62989
1.62508
1.62005
1.61482
1.60943
1.60391
1.59831
1.59265
1.58698
1.58133
1.57574
1.57025
1.56489
1.55969
1.55467
1.54986
1.54527
1.54091
1.53678
1.53288
1.52921
1.52575
1.5225
1.51944
1.51655
1.51381
1.5112
1.50872
1.50635
1.50407
1.50189
1.49979
1.49777
1.49583
1.49397
1.4922
1.49052
1.48894
1.48747
1.4861
1.48484
1.4837
1.48269
1.48179
1.48102
1.48037
1.47983
1.47941
1.47909
1.47886
1.47872
1.47865
1.47864
1.47868
1.47875
1.47884
1.47893
1.47903
1.47911
1.47916
1.47919
1.56813
1.56832
1.5687
1.56927
1.57003
1.57098
1.57212
1.57344
1.57495
1.57664
1.5785
1.58054
1.58275
1.58512
1.58766
1.59036
1.59321
1.59621
1.59936
1.60264
1.60606
1.6096
1.61326
1.61702
1.62087
1.62479
1.62876
1.63277
1.63679
1.64079
1.64475
1.64864
1.65244
1.65611
1.65964
1.66298
1.66612
1.66904
1.67171
1.67411
1.67622
1.67802
1.6795
1.68065
1.68146
1.68191
1.68201
1.68174
1.6811
1.6801
1.67872
1.67699
1.6749
1.67246
1.66968
1.66657
1.66315
1.65943
1.65543
1.65118
1.64669
1.642
1.63713
1.63211
1.62697
1.62174
1.61647
1.61117
1.6059
1.60067
1.59552
1.59048
1.58558
1.58083
1.57626
1.57188
1.5677
1.56372
1.55994
1.55637
1.55298
1.54979
1.54676
1.54389
1.54117
1.53858
1.53611
1.53375
1.53149
1.52933
1.52725
1.52526
1.52336
1.52154
1.5198
1.51816
1.51662
1.51517
1.51383
1.5126
1.51147
1.51046
1.50957
1.50878
1.5081
1.50754
1.50707
1.5067
1.50642
1.50621
1.50608
1.506
1.50597
1.50597
1.506
1.50604
1.50608
1.50613
1.50616
1.50617
1.59585
1.59603
1.5964
1.59694
1.59766
1.59857
1.59965
1.6009
1.60233
1.60393
1.6057
1.60764
1.60973
1.61198
1.61438
1.61694
1.61963
1.62247
1.62544
1.62853
1.63175
1.63507
1.6385
1.64202
1.64561
1.64927
1.65296
1.65668
1.6604
1.6641
1.66776
1.67135
1.67485
1.67823
1.68146
1.68453
1.68741
1.69008
1.69252
1.69471
1.69663
1.69826
1.6996
1.70063
1.70134
1.70172
1.70177
1.70148
1.70085
1.69988
1.69857
1.69693
1.69495
1.69265
1.69003
1.68711
1.6839
1.68042
1.67668
1.67271
1.66852
1.66413
1.65959
1.6549
1.65011
1.64523
1.6403
1.63536
1.63042
1.62552
1.62068
1.61594
1.61131
1.60682
1.60247
1.59829
1.59429
1.59046
1.5868
1.58333
1.58003
1.5769
1.57392
1.57109
1.5684
1.56584
1.56339
1.56106
1.55882
1.55668
1.55463
1.55267
1.5508
1.54901
1.54731
1.54571
1.54419
1.54278
1.54146
1.54024
1.53913
1.53813
1.53722
1.53643
1.53573
1.53514
1.53464
1.53422
1.53389
1.53363
1.53344
1.53331
1.53322
1.53317
1.53314
1.53314
1.53315
1.53316
1.53317
1.53317
1.62339
1.62357
1.62391
1.62443
1.62512
1.62597
1.627
1.62819
1.62954
1.63106
1.63274
1.63457
1.63655
1.63868
1.64096
1.64337
1.64591
1.64859
1.65139
1.6543
1.65733
1.66045
1.66366
1.66695
1.6703
1.6737
1.67714
1.68059
1.68404
1.68746
1.69084
1.69415
1.69737
1.70048
1.70345
1.70627
1.70891
1.71135
1.71358
1.71558
1.71732
1.7188
1.72001
1.72093
1.72155
1.72187
1.72188
1.72157
1.72095
1.72001
1.71876
1.71719
1.71532
1.71315
1.71069
1.70794
1.70493
1.70167
1.69817
1.69445
1.69053
1.68643
1.68218
1.67781
1.67333
1.66877
1.66416
1.65953
1.6549
1.6503
1.64576
1.64129
1.63691
1.63265
1.62852
1.62453
1.6207
1.61701
1.61349
1.61012
1.60691
1.60385
1.60094
1.59816
1.59551
1.59298
1.59057
1.58826
1.58605
1.58394
1.58192
1.57999
1.57815
1.5764
1.57473
1.57316
1.57167
1.57028
1.56898
1.56779
1.56668
1.56568
1.56478
1.56397
1.56326
1.56264
1.56211
1.56166
1.56129
1.56099
1.56075
1.56057
1.56043
1.56034
1.56027
1.56023
1.5602
1.56019
1.56018
1.56018
1.65076
1.65093
1.65125
1.65174
1.6524
1.65321
1.65418
1.65531
1.65659
1.65803
1.65962
1.66135
1.66323
1.66524
1.66739
1.66967
1.67207
1.67459
1.67723
1.67997
1.6828
1.68573
1.68874
1.69181
1.69494
1.69811
1.7013
1.7045
1.7077
1.71087
1.71399
1.71704
1.72001
1.72287
1.7256
1.72819
1.73061
1.73284
1.73488
1.73669
1.73828
1.73962
1.7407
1.74152
1.74206
1.74232
1.74229
1.74197
1.74136
1.74045
1.73925
1.73777
1.73599
1.73394
1.73162
1.72904
1.72621
1.72315
1.71987
1.71638
1.71272
1.70888
1.70491
1.70081
1.69662
1.69236
1.68804
1.6837
1.67935
1.67503
1.67075
1.66653
1.6624
1.65836
1.65443
1.65062
1.64695
1.64341
1.64001
1.63676
1.63364
1.63066
1.62781
1.62509
1.62249
1.62001
1.61763
1.61536
1.61319
1.61111
1.60912
1.60723
1.60542
1.6037
1.60206
1.60051
1.59906
1.59769
1.59641
1.59523
1.59414
1.59314
1.59224
1.59142
1.5907
1.59006
1.5895
1.58903
1.58862
1.58829
1.58801
1.58779
1.58761
1.58747
1.58737
1.5873
1.58725
1.58721
1.58719
1.58718
1.67797
1.67812
1.67843
1.6789
1.67952
1.68029
1.68121
1.68228
1.68349
1.68485
1.68635
1.68799
1.68976
1.69166
1.69369
1.69584
1.6981
1.70048
1.70296
1.70553
1.70819
1.71093
1.71374
1.71662
1.71953
1.72248
1.72545
1.72842
1.73139
1.73432
1.7372
1.74002
1.74275
1.74539
1.7479
1.75027
1.75249
1.75453
1.75639
1.75804
1.75948
1.76069
1.76167
1.76239
1.76286
1.76306
1.763
1.76267
1.76207
1.76119
1.76004
1.75862
1.75694
1.755
1.75281
1.75039
1.74773
1.74485
1.74177
1.73851
1.73507
1.73148
1.72776
1.72392
1.71999
1.71599
1.71194
1.70787
1.70379
1.69972
1.69568
1.6917
1.68778
1.68395
1.68021
1.67658
1.67307
1.66967
1.6664
1.66325
1.66023
1.65733
1.65456
1.6519
1.64936
1.64692
1.64459
1.64236
1.64023
1.63819
1.63624
1.63437
1.6326
1.63091
1.6293
1.62778
1.62635
1.625
1.62375
1.62258
1.6215
1.62051
1.6196
1.61878
1.61805
1.61739
1.61682
1.61632
1.61589
1.61552
1.61521
1.61495
1.61475
1.61458
1.61445
1.61435
1.61427
1.61422
1.61419
1.61417
1.70502
1.70517
1.70546
1.7059
1.70648
1.70721
1.70808
1.70909
1.71024
1.71153
1.71295
1.71449
1.71617
1.71796
1.71987
1.7219
1.72403
1.72626
1.72859
1.73101
1.7335
1.73607
1.7387
1.74137
1.74409
1.74684
1.7496
1.75236
1.7551
1.75781
1.76048
1.76308
1.7656
1.76802
1.77033
1.77251
1.77454
1.77641
1.7781
1.77961
1.78091
1.782
1.78287
1.78351
1.78392
1.78407
1.78398
1.78364
1.78304
1.78219
1.78109
1.77974
1.77815
1.77631
1.77425
1.77196
1.76946
1.76675
1.76386
1.7608
1.75757
1.75421
1.75071
1.74712
1.74343
1.73968
1.73588
1.73204
1.7282
1.72437
1.72056
1.7168
1.71309
1.70945
1.70589
1.70243
1.69906
1.6958
1.69266
1.68962
1.6867
1.68389
1.68119
1.6786
1.67612
1.67374
1.67146
1.66927
1.66718
1.66517
1.66326
1.66143
1.65969
1.65803
1.65645
1.65496
1.65356
1.65223
1.65099
1.64984
1.64877
1.64778
1.64688
1.64606
1.64532
1.64465
1.64406
1.64354
1.64308
1.64269
1.64236
1.64207
1.64184
1.64165
1.64149
1.64137
1.64128
1.64121
1.64117
1.64114
1.73192
1.73206
1.73234
1.73275
1.73331
1.73399
1.73482
1.73577
1.73686
1.73807
1.73941
1.74087
1.74245
1.74414
1.74594
1.74785
1.74985
1.75195
1.75414
1.7564
1.75874
1.76114
1.76359
1.76609
1.76863
1.77118
1.77375
1.77631
1.77885
1.78136
1.78382
1.78622
1.78854
1.79077
1.79289
1.79489
1.79675
1.79846
1.8
1.80137
1.80255
1.80354
1.80431
1.80488
1.80522
1.80533
1.80521
1.80486
1.80427
1.80345
1.8024
1.80111
1.79959
1.79786
1.79591
1.79375
1.79139
1.78885
1.78613
1.78325
1.78022
1.77706
1.77378
1.7704
1.76694
1.76341
1.75984
1.75623
1.75261
1.749
1.7454
1.74184
1.73832
1.73486
1.73148
1.72817
1.72495
1.72183
1.7188
1.71588
1.71305
1.71033
1.70771
1.70519
1.70277
1.70045
1.69822
1.69608
1.69403
1.69207
1.6902
1.68841
1.6867
1.68507
1.68352
1.68206
1.68068
1.67937
1.67815
1.67701
1.67596
1.67498
1.67408
1.67325
1.67251
1.67183
1.67123
1.67069
1.67022
1.66981
1.66945
1.66915
1.66889
1.66868
1.6685
1.66836
1.66825
1.66817
1.66812
1.6681
1.75868
1.75882
1.75908
1.75947
1.75999
1.76064
1.76142
1.76232
1.76335
1.76449
1.76576
1.76713
1.76862
1.77021
1.77191
1.7737
1.77558
1.77755
1.7796
1.78172
1.78391
1.78616
1.78845
1.79078
1.79314
1.79552
1.7979
1.80027
1.80263
1.80495
1.80722
1.80944
1.81158
1.81363
1.81558
1.81741
1.81911
1.82067
1.82208
1.82333
1.82439
1.82528
1.82597
1.82646
1.82674
1.82682
1.82668
1.82632
1.82574
1.82494