/*--------------------------------*- C++ -*----------------------------------*\
| =========                 |                                                 |
| \\      /  F ield         | OpenFOAM: The Open Source CFD Toolbox           |
|  \\    /   O peration     | Version:  2406                                  |
|   \\  /    A nd           | Website:  www.openfoam.com                      |
|    \\/     M anipulation  |                                                 |
\*---------------------------------------------------------------------------*/
FoamFile
{
    version     2.0;
    format      ascii;
    arch        "LSB;label=32;scalar=64";
    class       volScalarField;
    location    "6.8";
    object      D;
}
// * * * * * * * * * * * * * * * * * * * * * * * * * * * * * * * * * * * * * //

dimensions      [0 2 -1 0 0 0 0];

internalField   nonuniform List<scalar> 
14400
(
6.57873e-05
6.56844e-05
6.55236e-05
6.5353e-05
6.52033e-05
6.50889e-05
6.50149e-05
6.49838e-05
6.49986e-05
6.50653e-05
6.51913e-05
6.53821e-05
6.56313e-05
6.58996e-05
6.60844e-05
6.60261e-05
6.56423e-05
6.5082e-05
6.44886e-05
6.39243e-05
6.34008e-05
6.29124e-05
6.24513e-05
6.20137e-05
6.16003e-05
6.12159e-05
6.08674e-05
6.05635e-05
6.0314e-05
6.01313e-05
6.00324e-05
6.00441e-05
6.0215e-05
6.06473e-05
6.16032e-05
6.40201e-05
7.32369e-05
0.000136598
0.00013824
0.00013824
0.00013824
0.00013824
0.00013824
0.00013824
0.00013824
0.00013824
0.00013824
0.00013824
0.00013824
0.00013824
0.00013824
0.00013824
0.00013824
0.00013824
0.00013824
0.00013824
0.00013824
0.00013824
0.00013824
0.00013824
0.000122921
6.88318e-05
6.31373e-05
6.15556e-05
6.09291e-05
6.07026e-05
6.07055e-05
6.08669e-05
6.11517e-05
6.15385e-05
6.20096e-05
6.25449e-05
6.31174e-05
6.36914e-05
6.42244e-05
6.46742e-05
6.50092e-05
6.52183e-05
6.53149e-05
6.53364e-05
6.53403e-05
6.54038e-05
6.56366e-05
6.62338e-05
6.76971e-05
7.22653e-05
9.89612e-05
0.000138215
0.00011357
7.31185e-05
6.73751e-05
6.55048e-05
6.46353e-05
6.41942e-05
6.39867e-05
6.39228e-05
6.39524e-05
6.40426e-05
6.41683e-05
6.4307e-05
6.44364e-05
6.45329e-05
6.45744e-05
6.45445e-05
6.4439e-05
6.42674e-05
6.40493e-05
6.38082e-05
6.35666e-05
6.33453e-05
6.31642e-05
6.30454e-05
6.30168e-05
6.31209e-05
6.34322e-05
6.41107e-05
6.56077e-05
6.99601e-05
9.41807e-05
0.000138195
6.57852e-05
6.56271e-05
6.53979e-05
6.51696e-05
6.49788e-05
6.4838e-05
6.47496e-05
6.47139e-05
6.47336e-05
6.48152e-05
6.49693e-05
6.5208e-05
6.55366e-05
6.59294e-05
6.62746e-05
6.63151e-05
6.58133e-05
6.51109e-05
6.44223e-05
6.38062e-05
6.32599e-05
6.27663e-05
6.23111e-05
6.18858e-05
6.14885e-05
6.1122e-05
6.07919e-05
6.05063e-05
6.02749e-05
6.01106e-05
6.00316e-05
6.00673e-05
6.02724e-05
6.07672e-05
6.1896e-05
6.52249e-05
8.39841e-05
0.000138123
0.00013824
0.00013824
0.00013824
0.00013824
0.00013824
0.00013824
0.00013824
0.00013824
0.00013824
0.00013824
0.00013824
0.00013824
0.00013824
0.00013824
0.00013824
0.00013824
0.00013824
0.00013824
0.00013824
0.00013824
0.00013824
0.00013824
0.000131974
7.02367e-05
6.36175e-05
6.17503e-05
6.10154e-05
6.07343e-05
6.07012e-05
6.0833e-05
6.10891e-05
6.14452e-05
6.1882e-05
6.2379e-05
6.29101e-05
6.34422e-05
6.3937e-05
6.43574e-05
6.4676e-05
6.4884e-05
6.49944e-05
6.50426e-05
6.50834e-05
6.51923e-05
6.5481e-05
6.61549e-05
6.77644e-05
7.29749e-05
0.000108801
0.000138238
0.000126465
7.45153e-05
6.77875e-05
6.56243e-05
6.4631e-05
6.41232e-05
6.3873e-05
6.37788e-05
6.37864e-05
6.38617e-05
6.39796e-05
6.4118e-05
6.42539e-05
6.43616e-05
6.44144e-05
6.43908e-05
6.42846e-05
6.41081e-05
6.38859e-05
6.36451e-05
6.34097e-05
6.32005e-05
6.30366e-05
6.29398e-05
6.29387e-05
6.30782e-05
6.34403e-05
6.42052e-05
6.59036e-05
7.12209e-05
0.000109584
0.000138239
6.59576e-05
6.56365e-05
6.52373e-05
6.48829e-05
6.46091e-05
6.44176e-05
6.4302e-05
6.42577e-05
6.42858e-05
6.43942e-05
6.45993e-05
6.49278e-05
6.5415e-05
6.60902e-05
6.68944e-05
6.73728e-05
6.63718e-05
6.52582e-05
6.4343e-05
6.36147e-05
6.30194e-05
6.25126e-05
6.20649e-05
6.16598e-05
6.12899e-05
6.09546e-05
6.06575e-05
6.04053e-05
6.02079e-05
6.0079e-05
6.00395e-05
6.01243e-05
6.04005e-05
6.10217e-05
6.24668e-05
6.73754e-05
0.000109137
0.00013824
0.00013824
0.00013824
0.00013824
0.00013824
0.00013824
0.00013824
0.00013824
0.00013824
0.00013824
0.00013824
0.00013824
0.00013824
0.00013824
0.00013824
0.00013824
0.00013824
0.00013824
0.00013824
0.00013824
0.00013824
0.00013824
0.00013824
0.00013809
8.27177e-05
6.53081e-05
6.22232e-05
6.12074e-05
6.08082e-05
6.07025e-05
6.07765e-05
6.0978e-05
6.12773e-05
6.16522e-05
6.20814e-05
6.25407e-05
6.30012e-05
6.34316e-05
6.38026e-05
6.4094e-05
6.43003e-05
6.44347e-05
6.45295e-05
6.46359e-05
6.4829e-05
6.5228e-05
6.60698e-05
6.80209e-05
7.43742e-05
0.000124693
0.00013824
0.000137775
8.34446e-05
6.92633e-05
6.59939e-05
6.46805e-05
6.40271e-05
6.36917e-05
6.35405e-05
6.35083e-05
6.35581e-05
6.36647e-05
6.38065e-05
6.39598e-05
6.40946e-05
6.41746e-05
6.41649e-05
6.40536e-05
6.38603e-05
6.36229e-05
6.33766e-05
6.31481e-05
6.29578e-05
6.28236e-05
6.27667e-05
6.28177e-05
6.3029e-05
6.35024e-05
6.44776e-05
6.67058e-05
7.39466e-05
0.000130876
0.00013824
6.68523e-05
6.59952e-05
6.52078e-05
6.46228e-05
6.42162e-05
6.39496e-05
6.3795e-05
6.37382e-05
6.37771e-05
6.39216e-05
6.41975e-05
6.46561e-05
6.53943e-05
6.66099e-05
6.87404e-05
7.23879e-05
6.80356e-05
6.57271e-05
6.43492e-05
6.34239e-05
6.27455e-05
6.22115e-05
6.1767e-05
6.13827e-05
6.10443e-05
6.0747e-05
6.04916e-05
6.02837e-05
6.01329e-05
6.00548e-05
6.00751e-05
6.02397e-05
6.06414e-05
6.15067e-05
6.35832e-05
7.09492e-05
0.000134109
0.00013824
0.00013824
0.00013824
0.00013824
0.00013824
0.00013824
0.00013824
0.00013824
0.00013824
0.00013824
0.00013824
0.00013824
0.00013824
0.00013824
0.00013824
0.00013824
0.00013824
0.00013824
0.00013824
0.00013824
0.00013824
0.00013824
0.00013824
0.00013824
0.000114703
6.82133e-05
6.30063e-05
6.15348e-05
6.09473e-05
6.0729e-05
6.07176e-05
6.08426e-05
6.10657e-05
6.13609e-05
6.17059e-05
6.20785e-05
6.24547e-05
6.28108e-05
6.31258e-05
6.33867e-05
6.35924e-05
6.37564e-05
6.3909e-05
6.40998e-05
6.44075e-05
6.49745e-05
6.61314e-05
6.90414e-05
8.08732e-05
0.000137367
0.00013824
0.00013824
0.000119533
7.29598e-05
6.68559e-05
6.48956e-05
6.39899e-05
6.35222e-05
6.32888e-05
6.32038e-05
6.32232e-05
6.33209e-05
6.34768e-05
6.36678e-05
6.38585e-05
6.39964e-05
6.40131e-05
6.38829e-05
6.36433e-05
6.33643e-05
6.30949e-05
6.28649e-05
6.26925e-05
6.2594e-05
6.25903e-05
6.27172e-05
6.30425e-05
6.37165e-05
6.51719e-05
6.95422e-05
9.92829e-05
0.00013823
0.00013824
7.13379e-05
6.74076e-05
6.55726e-05
6.45496e-05
6.39318e-05
6.35568e-05
6.33478e-05
6.32731e-05
6.33259e-05
6.35189e-05
6.38922e-05
6.45415e-05
6.56923e-05
6.80497e-05
7.53156e-05
0.000122875
7.39603e-05
6.69943e-05
6.45952e-05
6.33262e-05
6.25133e-05
6.19294e-05
6.14762e-05
6.11063e-05
6.07968e-05
6.0538e-05
6.0328e-05
6.0171e-05
6.00772e-05
6.00654e-05
6.01696e-05
6.04576e-05
6.10858e-05
6.25395e-05
6.74035e-05
0.00010922
0.00013824
0.00013824
0.00013824
0.00013824
0.00013824
0.00013824
0.00013824
0.00013824
0.00013824
0.00013824
0.00013824
0.00013824
0.00013824
0.00013824
0.00013824
0.00013824
0.00013824
0.00013824
0.00013824
0.00013824
0.00013824
0.00013824
0.00013824
0.00013824
0.00013824
0.000137276
7.49344e-05
6.45561e-05
6.21275e-05
6.12089e-05
6.08168e-05
6.06868e-05
6.07144e-05
6.08473e-05
6.10534e-05
6.13089e-05
6.1593e-05
6.18862e-05
6.2171e-05
6.24338e-05
6.26677e-05
6.28756e-05
6.30728e-05
6.32895e-05
6.3578e-05
6.40295e-05
6.48314e-05
6.65161e-05
7.18072e-05
0.000112529
0.000138239
0.00013824
0.00013824
0.000138138
8.89808e-05
6.92157e-05
6.55204e-05
6.41455e-05
6.34716e-05
6.31224e-05
6.29701e-05
6.29571e-05
6.30547e-05
6.3246e-05
6.3514e-05
6.38213e-05
6.40962e-05
6.41728e-05
6.39827e-05
6.36167e-05
6.32365e-05
6.29061e-05
6.26538e-05
6.2491e-05
6.243e-05
6.24928e-05
6.2726e-05
6.32305e-05
6.42579e-05
6.66305e-05
7.49202e-05
0.000135267
0.00013824
0.00013824
0.000113361
7.29738e-05
6.6932e-05
6.4899e-05
6.39025e-05
6.33574e-05
6.30653e-05
6.29634e-05
6.30363e-05
6.33022e-05
6.38277e-05
6.48121e-05
6.68511e-05
7.30685e-05
0.000120393
0.000138239
0.000111292
7.08848e-05
6.53796e-05
6.34396e-05
6.24021e-05
6.17313e-05
6.12489e-05
6.08802e-05
6.05912e-05
6.03671e-05
6.02031e-05
6.01025e-05
6.00769e-05
6.01509e-05
6.03738e-05
6.08555e-05
6.1897e-05
6.47675e-05
7.98223e-05
0.000138012
0.00013824
0.00013824
0.00013824
0.00013824
0.00013824
0.00013824
0.00013824
0.00013824
0.00013824
0.00013824
0.00013824
0.00013824
0.00013824
0.00013824
0.00013824
0.00013824
0.00013824
0.00013824
0.00013824
0.00013824
0.00013824
0.00013824
0.00013824
0.00013824
0.00013824
0.00013824
0.000121467
6.91551e-05
6.33734e-05
6.17147e-05
6.10252e-05
6.07253e-05
6.06304e-05
6.06604e-05
6.07725e-05
6.09393e-05
6.11403e-05
6.1359e-05
6.15823e-05
6.1802e-05
6.20163e-05
6.22317e-05
6.24665e-05
6.2755e-05
6.31596e-05
6.38016e-05
6.4963e-05
6.75714e-05
7.69619e-05
0.000136385
0.00013824
0.00013824
0.00013824
0.00013824
0.000135213
7.53498e-05
6.71201e-05
6.47441e-05
6.37033e-05
6.31658e-05
6.29179e-05
6.28683e-05
6.29816e-05
6.32497e-05
6.36817e-05
6.42585e-05
6.49627e-05
6.52366e-05
6.48215e-05
6.40433e-05
6.34112e-05
6.29371e-05
6.26215e-05
6.2451e-05
6.24297e-05
6.25828e-05
6.29846e-05
6.38292e-05
6.57606e-05
7.21271e-05
0.000124095
0.00013824
0.00013824
0.00013824
0.00013824
0.000114119
7.21934e-05
6.62794e-05
6.43743e-05
6.35104e-05
6.30663e-05
6.29159e-05
6.3024e-05
6.34233e-05
6.42383e-05
6.60251e-05
7.13094e-05
0.00010533
0.000138237
0.00013824
0.00013803
8.39773e-05
6.74129e-05
6.39574e-05
6.25156e-05
6.16906e-05
6.11431e-05
6.07534e-05
6.04713e-05
6.02754e-05
6.0158e-05
6.01222e-05
6.01833e-05
6.03788e-05
6.0788e-05
6.16232e-05
6.35993e-05
7.07023e-05
0.000133977
0.00013824
0.00013824
0.00013824
0.00013824
0.00013824
0.00013824
0.00013824
0.00013824
0.00013824
0.00013824
0.00013824
0.00013824
0.00013824
0.00013824
0.00013824
0.00013824
0.00013824
0.00013824
0.00013824
0.00013824
0.00013824
0.00013824
0.00013824
0.00013824
0.00013824
0.00013824
0.00013824
0.000138231
9.5522e-05
6.68052e-05
6.27482e-05
6.14587e-05
6.08937e-05
6.06361e-05
6.05448e-05
6.05566e-05
6.06363e-05
6.07611e-05
6.09152e-05
6.10884e-05
6.1276e-05
6.14799e-05
6.1711e-05
6.19924e-05
6.2368e-05
6.29253e-05
6.38641e-05
6.57778e-05
7.16924e-05
0.000118897
0.00013824
0.00013824
0.00013824
0.00013824
0.00013824
0.00013824
0.000129684
7.34543e-05
6.6605e-05
6.46001e-05
6.36393e-05
6.32182e-05
6.31155e-05
6.32765e-05
6.37149e-05
6.45654e-05
6.59117e-05
6.89761e-05
7.05179e-05
6.86137e-05
6.56246e-05
6.42499e-05
6.34021e-05
6.29316e-05
6.27176e-05
6.27477e-05
6.30523e-05
6.37901e-05
6.55042e-05
7.12836e-05
0.00011395
0.00013824
0.00013824
0.00013824
0.00013824
0.00013824
0.000138239
0.000111794
7.18432e-05
6.60711e-05
6.44045e-05
6.35754e-05
6.33174e-05
6.35026e-05
6.42316e-05
6.57827e-05
7.08537e-05
0.000100168
0.00013823
0.00013824
0.00013824
0.00013824
0.000133972
7.31052e-05
6.54232e-05
6.30654e-05
6.19269e-05
6.12403e-05
6.07882e-05
6.04901e-05
6.03138e-05
6.02479e-05
6.02967e-05
6.04852e-05
6.08876e-05
6.16635e-05
6.34312e-05
6.96758e-05
0.000126988
0.00013824
0.00013824
0.00013824
0.00013824
0.00013824
0.00013824
0.00013824
0.00013824
0.00013824
0.00013824
0.00013824
0.00013824
0.00013824
0.00013824
0.00013824
0.00013824
0.00013824
0.00013824
0.00013824
0.00013824
0.00013824
0.00013824
0.00013824
0.00013824
0.00013824
0.00013824
0.00013824
0.00013824
0.00013824
0.000137873
7.83058e-05
6.51042e-05
6.23421e-05
6.1301e-05
6.08001e-05
6.05504e-05
6.04461e-05
6.0435e-05
6.04873e-05
6.05848e-05
6.07178e-05
6.08841e-05
6.10889e-05
6.13484e-05
6.16946e-05
6.21896e-05
6.29745e-05
6.44555e-05
6.84665e-05
9.23082e-05
0.000138205
0.00013824
0.00013824
0.00013824
0.00013824
0.00013824
0.00013824
0.00013824
0.00012939
7.41344e-05
6.77883e-05
6.5166e-05
6.43028e-05
6.40769e-05
6.43868e-05
6.52869e-05
6.78953e-05
7.25139e-05
0.000101896
0.000121561
9.82767e-05
7.18961e-05
6.72158e-05
6.49063e-05
6.39958e-05
6.36236e-05
6.37651e-05
6.44385e-05
6.61847e-05
7.17748e-05
0.000115206
0.00013824
0.00013824
0.00013824
0.00013824
0.00013824
0.00013824
0.00013824
0.00013824
0.000119389
7.29573e-05
6.79357e-05
6.52926e-05
6.47192e-05
6.51266e-05
6.72855e-05
7.20297e-05
0.00010871
0.000138232
0.00013824
0.00013824
0.00013824
0.00013824
0.00013824
0.000126743
7.13924e-05
6.4764e-05
6.27349e-05
6.17054e-05
6.10947e-05
6.07337e-05
6.05652e-05
6.0569e-05
6.07579e-05
6.11806e-05
6.20697e-05
6.38756e-05
6.99101e-05
0.000124966
0.00013824
0.00013824
0.00013824
0.00013824
0.00013824
0.00013824
0.00013824
0.00013824
0.00013824
0.00013824
0.00013824
0.00013824
0.00013824
0.00013824
0.00013824
0.00013824
0.00013824
0.00013824
0.00013824
0.00013824
0.00013824
0.00013824
0.00013824
0.00013824
0.00013824
0.00013824
0.00013824
0.00013824
0.00013824
0.00013824
0.00013824
0.000136148
7.26692e-05
6.4443e-05
6.22263e-05
6.12618e-05
6.07588e-05
6.04961e-05
6.03773e-05
6.03531e-05
6.03968e-05
6.0497e-05
6.06529e-05
6.08737e-05
6.11839e-05
6.16338e-05
6.23211e-05
6.35066e-05
6.61677e-05
7.63198e-05
0.000137063
0.00013824
0.00013824
0.00013824
0.00013824
0.00013824
0.00013824
0.00013824
0.00013824
0.00013824
0.000134926
8.7999e-05
7.09801e-05
6.82175e-05
6.7337e-05
6.85213e-05
7.13455e-05
9.04056e-05
0.000131346
0.000138236
0.00013824
0.000138232
0.000128804
8.48364e-05
7.06318e-05
6.77466e-05
6.64218e-05
6.71458e-05
6.95812e-05
7.70335e-05
0.000127397
0.00013824
0.00013824
0.00013824
0.00013824
0.00013824
0.00013824
0.00013824
0.00013824
0.00013824
0.00013824
0.0001325
9.37915e-05
7.19356e-05
7.01874e-05
7.13844e-05
8.66734e-05
0.000127397
0.000138239
0.00013824
0.00013824
0.00013824
0.00013824
0.00013824
0.00013824
0.00013824
0.000125254
7.14312e-05
6.52634e-05
6.30387e-05
6.19493e-05
6.1394e-05
6.12111e-05
6.13466e-05
6.18786e-05
6.28978e-05
6.5887e-05
7.28574e-05
0.000130669
0.00013824
0.00013824
0.00013824
0.00013824
0.00013824
0.00013824
0.00013824
0.00013824
0.00013824
0.00013824
0.00013824
0.00013824
0.00013824
0.00013824
0.00013824
0.00013824
0.00013824
0.00013824
0.00013824
0.00013824
0.00013824
0.00013824
0.00013824
0.00013824
0.00013824
0.00013824
0.00013824
0.00013824
0.00013824
0.00013824
0.00013824
0.00013824
0.00013824
0.000134664
7.23475e-05
6.47795e-05
6.24211e-05
6.13498e-05
6.08101e-05
6.05344e-05
6.04138e-05
6.0397e-05
6.04678e-05
6.0627e-05
6.08885e-05
6.12946e-05
6.19456e-05
6.30341e-05
6.52325e-05
7.25672e-05
0.000133364
0.00013824
0.00013824
0.00013824
0.00013824
0.00013824
0.00013824
0.00013824
0.00013824
0.00013824
0.00013824
0.00013824
0.000138163
0.000121848
9.48435e-05
8.48434e-05
9.85861e-05
0.000125239
0.000138195
0.00013824
0.00013824
0.00013824
0.00013824
0.00013824
0.000138097
0.000121287
9.26379e-05
7.90621e-05
8.68473e-05
0.000113851
0.000137364
0.00013824
0.00013824
0.00013824
0.00013824
0.00013824
0.00013824
0.00013824
0.00013824
0.00013824
0.00013824
0.00013824
0.00013824
0.000138219
0.000131914
0.000121563
0.000129638
0.000138144
0.00013824
0.00013824
0.00013824
0.00013824
0.00013824
0.00013824
0.00013824
0.00013824
0.00013824
0.00013824
0.00013209
7.80071e-05
6.79629e-05
6.44259e-05
6.30776e-05
6.28217e-05
6.33371e-05
6.5522e-05
6.9034e-05
9.42603e-05
0.000136845
0.00013824
0.00013824
0.00013824
0.00013824
0.00013824
0.00013824
0.00013824
0.00013824
0.00013824
0.00013824
0.00013824
0.00013824
0.00013824
0.00013824
0.00013824
0.00013824
0.00013824
0.00013824
0.00013824
0.00013824
0.00013824
0.00013824
0.00013824
0.00013824
0.00013824
0.00013824
0.00013824
0.00013824
0.00013824
0.00013824
0.00013824
0.00013824
0.00013824
0.00013824
0.00013824
0.000135913
7.6909e-05
6.62328e-05
6.28882e-05
6.16486e-05
6.1069e-05
6.07912e-05
6.06827e-05
6.07199e-05
6.09075e-05
6.12646e-05
6.18764e-05
6.30542e-05
6.54225e-05
7.22778e-05
0.000131221
0.00013824
0.00013824
0.00013824
0.00013824
0.00013824
0.00013824
0.00013824
0.00013824
0.00013824
0.00013824
0.00013824
0.00013824
0.00013824
0.00013824
0.000138219
0.000138063
0.00013823
0.00013824
0.00013824
0.00013824
0.00013824
0.00013824
0.00013824
0.00013824
0.00013824
0.00013824
0.000138209
0.000137639
0.000138136
0.00013824
0.00013824
0.00013824
0.00013824
0.00013824
0.00013824
0.00013824
0.00013824
0.00013824
0.00013824
0.00013824
0.00013824
0.00013824
0.00013824
0.00013824
0.00013824
0.00013824
0.00013824
0.00013824
0.00013824
0.00013824
0.00013824
0.00013824
0.00013824
0.00013824
0.00013824
0.00013824
0.00013824
0.00013824
0.00013824
0.000137794
0.000111745
7.59182e-05
6.91077e-05
6.86105e-05
7.07002e-05
9.1491e-05
0.000125583
0.00013823
0.00013824
0.00013824
0.00013824
0.00013824
0.00013824
0.00013824
0.00013824
0.00013824
0.00013824
0.00013824
0.00013824
0.00013824
0.00013824
0.00013824
0.00013824
0.00013824
0.00013824
0.00013824
0.00013824
0.00013824
0.00013824
0.00013824
0.00013824
0.00013824
0.00013824
0.00013824
0.00013824
0.00013824
0.00013824
0.00013824
0.00013824
0.00013824
0.00013824
0.00013824
0.00013824
0.00013824
0.00013824
0.00013777
9.35593e-05
6.84774e-05
6.4001e-05
6.25033e-05
6.18531e-05
6.15181e-05
6.14895e-05
6.17845e-05
6.24207e-05
6.35892e-05
6.72019e-05
7.73482e-05
0.000134326
0.00013824
0.00013824
0.00013824
0.00013824
0.00013824
0.00013824
0.00013824
0.00013824
0.00013824
0.00013824
0.00013824
0.00013824
0.00013824
0.00013824
0.00013824
0.00013824
0.00013824
0.00013824
0.00013824
0.00013824
0.00013824
0.00013824
0.00013824
0.00013824
0.00013824
0.00013824
0.00013824
0.00013824
0.00013824
0.00013824
0.00013824
0.00013824
0.00013824
0.00013824
0.00013824
0.00013824
0.00013824
0.00013824
0.00013824
0.00013824
0.00013824
0.00013824
0.00013824
0.00013824
0.00013824
0.00013824
0.00013824
0.00013824
0.00013824
0.00013824
0.00013824
0.00013824
0.00013824
0.00013824
0.00013824
0.00013824
0.00013824
0.00013824
0.00013824
0.00013824
0.00013824
0.00013824
0.00013756
0.000128553
0.000126411
0.000134966
0.000138221
0.00013824
0.00013824
0.00013824
0.00013824
0.00013824
0.00013824
0.00013824
0.00013824
0.00013824
0.00013824
0.00013824
0.00013824
0.00013824
0.00013824
0.00013824
0.00013824
0.00013824
0.00013824
0.00013824
0.00013824
0.00013824
0.00013824
0.00013824
0.00013824
0.00013824
0.00013824
0.00013824
0.00013824
0.00013824
0.00013824
0.00013824
0.00013824
0.00013824
0.00013824
0.00013824
0.00013824
0.00013824
0.00013824
0.00013824
0.00013824
0.000138228
0.000120664
7.45512e-05
6.77599e-05
6.54382e-05
6.39241e-05
6.36171e-05
6.44889e-05
6.66423e-05
7.00541e-05
0.000100995
0.000137707
0.00013824
0.00013824
0.00013824
0.00013824
0.00013824
0.00013824
0.00013824
0.00013824
0.00013824
0.00013824
0.00013824
0.00013824
0.00013824
0.00013824
0.00013824
0.00013824
0.00013824
0.00013824
0.00013824
0.00013824
0.00013824
0.00013824
0.00013824
0.00013824
0.00013824
0.00013824
0.00013824
0.00013824
0.00013824
0.00013824
0.00013824
0.00013824
0.00013824
0.00013824
0.00013824
0.00013824
0.00013824
0.00013824
0.00013824
0.00013824
0.00013824
0.00013824
0.00013824
0.00013824
0.00013824
0.00013824
0.00013824
0.00013824
0.00013824
0.00013824
0.00013824
0.00013824
0.00013824
0.00013824
0.00013824
0.00013824
0.00013824
0.00013824
0.00013824
0.00013824
0.00013824
0.00013824
0.00013824
0.00013824
0.00013824
0.00013824
0.00013824
0.00013824
0.00013824
0.00013824
0.00013824
0.00013824
0.00013824
0.00013824
0.00013824
0.00013824
0.00013824
0.00013824
0.00013824
0.00013824
0.00013824
0.00013824
0.00013824
0.00013824
0.00013824
0.00013824
0.00013824
0.00013824
0.00013824
0.00013824
0.00013824
0.00013824
0.00013824
0.00013824
0.00013824
0.00013824
0.00013824
0.00013824
0.00013824
0.00013824
0.00013824
0.00013824
0.00013824
0.00013824
0.00013824
0.00013824
0.00013824
0.00013824
0.00013824
0.00013824
0.000137413
0.00011673
8.96927e-05
7.43733e-05
7.17958e-05
7.79776e-05
0.000100595
0.000129465
0.000138237
0.00013824
0.00013824
0.00013824
0.00013824
0.00013824
0.00013824
0.00013824
0.00013824
0.00013824
0.00013824
0.00013824
0.00013824
0.00013824
0.00013824
0.00013824
0.00013824
0.00013824
0.00013824
0.00013824
0.00013824
0.00013824
0.00013824
0.00013824
0.00013824
0.00013824
0.00013824
0.00013824
0.00013824
0.00013824
0.00013824
0.00013824
0.00013824
0.00013824
0.00013824
0.00013824
0.00013824
0.00013824
0.00013824
0.00013824
0.00013824
0.00013824
0.00013824
0.00013824
0.00013824
0.00013824
0.00013824
0.00013824
0.00013824
0.00013824
0.00013824
0.00013824
0.00013824
0.00013824
0.00013824
0.00013824
0.00013824
0.00013824
0.00013824
0.00013824
0.00013824
0.00013824
0.00013824
0.00013824
0.00013824
0.00013824
0.00013824
0.00013824
0.00013824
0.00013824
0.00013824
0.00013824
0.00013824
0.00013824
0.00013824
0.00013824
0.00013824
0.00013824
0.00013824
0.00013824
0.00013824
0.00013824
0.00013824
0.00013824
0.00013824
0.00013824
0.00013824
0.00013824
0.00013824
0.00013824
0.00013824
0.00013824
0.00013824
0.00013824
0.00013824
0.00013824
0.00013824
0.00013824
0.00013824
0.00013824
0.00013824
0.00013824
0.00013824
0.00013824
0.00013824
0.00013824
0.00013824
0.00013824
0.00013824
0.00013824
0.00013824
0.00013824
0.00013824
0.00013824
0.000138209
0.000137272
0.000136019
0.000137832
0.000138237
0.00013824
0.00013824
0.00013824
0.00013824
0.00013824
0.00013824
0.00013824
0.00013824
0.00013824
0.00013824
0.00013824
0.00013824
0.00013824
0.00013824
0.00013824
0.00013824
0.00013824
0.00013824
0.00013824
0.00013824
0.00013824
0.00013824
0.00013824
0.00013824
0.00013824
0.00013824
0.00013824
0.00013824
0.00013824
0.00013824
0.00013824
0.00013824
0.00013824
0.00013824
0.00013824
0.00013824
0.00013824
0.00013824
0.00013824
0.00013824
0.00013824
0.00013824
0.00013824
0.00013824
0.00013824
0.00013824
0.00013824
0.00013824
0.00013824
0.00013824
0.00013824
0.00013824
0.00013824
0.00013824
0.00013824
0.00013824
0.00013824
0.00013824
0.00013824
0.00013824
0.00013824
0.00013824
0.00013824
0.00013824
0.00013824
0.00013824
0.00013824
0.00013824
0.00013824
0.00013824
0.00013824
0.00013824
0.00013824
0.00013824
0.00013824
0.00013824
0.00013824
0.00013824
0.00013824
0.00013824
0.00013824
0.00013824
0.00013824
0.00013824
0.00013824
0.00013824
0.00013824
0.00013824
0.00013824
0.00013824
0.00013824
0.00013824
0.00013824
0.00013824
0.00013824
0.00013824
0.00013824
0.00013824
0.00013824
0.00013824
0.00013824
0.00013824
0.00013824
0.00013824
0.00013824
0.00013824
0.00013824
0.00013824
0.00013824
0.00013824
0.00013824
0.00013824
0.00013824
0.00013824
0.00013824
0.00013824
0.00013824
0.00013824
0.00013824
0.00013824
0.00013824
0.00013824
0.00013824
0.00013824
0.00013824
0.00013824
0.00013824
0.00013824
0.00013824
0.00013824
0.00013824
0.00013824
0.00013824
0.00013824
0.00013824
0.00013824
0.00013824
0.00013824
0.00013824
0.00013824
0.00013824
0.00013824
0.00013824
0.00013824
0.00013824
0.00013824
0.00013824
0.00013824
0.00013824
0.00013824
0.00013824
0.00013824
0.00013824
0.00013824
0.00013824
0.00013824
0.00013824
0.00013824
0.00013824
0.00013824
0.00013824
0.00013824
0.00013824
0.00013824
0.00013824
0.00013824
0.00013824
0.00013824
0.00013824
0.00013824
0.00013824
0.00013824
0.00013824
0.00013824
0.00013824
0.00013824
0.00013824
0.00013824
0.00013824
0.00013824
0.00013824
0.00013824
0.00013824
0.00013824
0.00013824
0.00013824
0.00013824
0.00013824
0.00013824
0.00013824
0.00013824
0.00013824
0.00013824
0.00013824
0.00013824
0.00013824
0.00013824
0.00013824
0.00013824
0.00013824
0.00013824
0.00013824
0.00013824
0.00013824
0.00013824
0.00013824
0.00013824
0.00013824
0.00013824
0.00013824
0.00013824
0.00013824
0.00013824
0.00013824
0.00013824
0.00013824
0.00013824
0.00013824
0.00013824
0.00013824
0.00013824
0.00013824
0.00013824
0.00013824
0.00013824
0.00013824
0.00013824
0.00013824
0.00013824
0.00013824
0.00013824
0.00013824
0.00013824
0.00013824
0.00013824
0.00013824
0.00013824
0.00013824
0.00013824
0.00013824
0.00013824
0.00013824
0.00013824
0.00013824
0.00013824
0.00013824
0.00013824
0.00013824
0.00013824
0.00013824
0.00013824
0.00013824
0.00013824
0.00013824
0.00013824
0.00013824
0.00013824
0.00013824
0.00013824
0.00013824
0.00013824
0.00013824
0.00013824
0.00013824
0.00013824
0.00013824
0.00013824
0.00013824
0.00013824
0.00013824
0.00013824
0.00013824
0.00013824
0.00013824
0.00013824
0.00013824
0.00013824
0.00013824
0.00013824
0.00013824
0.00013824
0.00013824
0.00013824
0.00013824
0.00013824
0.00013824
0.00013824
0.00013824
0.00013824
0.00013824
0.00013824
0.00013824
0.00013824
0.00013824
0.00013824
0.00013824
0.00013824
0.00013824
0.00013824
0.00013824
0.00013824
0.00013824
0.00013824
0.00013824
0.00013824
0.00013824
0.00013824
0.00013824
0.00013824
0.00013824
0.00013824
0.00013824
0.00013824
0.00013824
0.00013824
0.00013824
0.00013824
0.00013824
0.00013824
0.00013824
0.00013824
0.00013824
0.00013824
0.00013824
0.00013824
0.00013824
0.00013824
0.00013824
0.00013824
0.00013824
0.00013824
0.00013824
0.00013824
0.00013824
0.00013824
0.00013824
0.00013824
0.00013824
0.00013824
0.00013824
0.00013824
0.00013824
0.00013824
0.00013824
0.00013824
0.00013824
0.00013824
0.00013824
0.00013824
0.00013824
0.00013824
0.00013824
0.00013824
0.00013824
0.00013824
0.00013824
0.00013824
0.00013824
0.00013824
0.00013824
0.00013824
0.00013824
0.00013824
0.00013824
0.00013824
0.00013824
0.00013824
0.00013824
0.00013824
0.00013824
0.00013824
0.00013824
0.00013824
0.00013824
0.00013824
0.00013824
0.00013824
0.00013824
0.00013824
0.00013824
0.00013824
0.00013824
0.00013824
0.00013824
0.00013824
0.00013824
0.00013824
0.00013824
0.00013824
0.00013824
0.00013824
0.00013824
0.00013824
0.00013824
0.00013824
0.00013824
0.00013824
0.00013824
0.00013824
0.00013824
0.00013824
0.00013824
0.00013824
0.00013824
0.00013824
0.00013824
0.00013824
0.00013824
0.00013824
0.00013824
0.00013824
0.00013824
0.00013824
0.00013824
0.00013824
0.00013824
0.00013824
0.00013824
0.00013824
0.00013824
0.00013824
0.00013824
0.00013824
0.00013824
0.00013824
0.00013824
0.00013824
0.00013824
0.00013824
0.00013824
0.00013824
0.00013824
0.00013824
0.00013824
0.00013824
0.00013824
0.00013824
0.00013824
0.00013824
0.00013824
0.00013824
0.00013824
0.00013824
0.00013824
0.00013824
0.00013824
0.00013824
0.00013824
0.00013824
0.00013824
0.00013824
0.00013824
0.00013824
0.00013824
0.00013824
0.00013824
0.00013824
0.00013824
0.00013824
0.00013824
0.00013824
0.00013824
0.00013824
0.00013824
0.00013824
0.00013824
0.00013824
0.00013824
0.00013824
0.00013824
0.00013824
0.00013824
0.00013824
0.00013824
0.00013824
0.00013824
0.00013824
0.00013824
0.00013824
0.00013824
0.00013824
0.00013824
0.00013824
0.00013824
0.00013824
0.00013824
0.00013824
0.00013824
0.00013824
0.00013824
0.00013824
0.00013824
0.00013824
0.00013824
0.00013824
0.00013824
0.00013824
0.00013824
0.00013824
0.00013824
0.00013824
0.00013824
0.00013824
0.00013824
0.00013824
0.00013824
0.00013824
0.00013824
0.00013824
0.00013824
0.00013824
0.00013824
0.00013824
0.00013824
0.00013824
0.00013824
0.00013824
0.00013824
0.00013824
0.00013824
0.00013824
0.00013824
0.00013824
0.00013824
0.00013824
0.00013824
0.00013824
0.00013824
0.00013824
0.00013824
0.00013824
0.00013824
0.00013824
0.00013824
0.00013824
0.00013824
0.00013824
0.00013824
0.00013824
0.00013824
0.00013824
0.00013824
0.00013824
0.00013824
0.00013824
0.00013824
0.00013824
0.00013824
0.00013824
0.00013824
0.00013824
0.00013824
0.00013824
0.00013824
0.00013824
0.00013824
0.00013824
0.00013824
0.00013824
0.00013824
0.00013824
0.00013824
0.00013824
0.00013824
0.00013824
0.00013824
0.00013824
0.00013824
0.00013824
0.00013824
0.00013824
0.00013824
0.00013824
0.00013824
0.00013824
0.00013824
0.00013824
0.00013824
0.00013824
0.00013824
0.00013824
0.00013824
0.00013824
0.00013824
0.00013824
0.00013824
0.00013824
0.00013824
0.00013824
0.00013824
0.00013824
0.00013824
0.00013824
0.00013824
0.00013824
0.00013824
0.00013824
0.00013824
0.00013824
0.00013824
0.00013824
0.00013824
0.00013824
0.00013824
0.00013824
0.00013824
0.00013824
0.00013824
0.00013824
0.00013824
0.00013824
0.00013824
0.00013824
0.00013824
0.00013824
0.00013824
0.00013824
0.00013824
0.00013824
0.00013824
0.00013824
0.00013824
0.00013824
0.00013824
0.00013824
0.00013824
0.00013824
0.00013824
0.00013824
0.00013824
0.00013824
0.00013824
0.00013824
0.00013824
0.00013824
0.00013824
0.00013824
0.00013824
0.00013824
0.00013824
0.00013824
0.00013824
0.00013824
0.00013824
0.00013824
0.00013824
0.00013824
0.00013824
0.00013824
0.00013824
0.00013824
0.00013824
0.00013824
0.00013824
0.00013824
0.00013824
0.00013824
0.00013824
0.00013824
0.00013824
0.00013824
0.00013824
0.00013824
0.00013824
0.00013824
0.00013824
0.00013824
0.00013824
0.00013824
0.00013824
0.00013824
0.00013824
0.00013824
0.00013824
0.00013824
0.00013824
0.00013824
0.00013824
0.00013824
0.00013824
0.00013824
0.00013824
0.00013824
0.00013824
0.00013824
0.00013824
0.00013824
0.00013824
0.00013824
0.00013824
0.00013824
0.00013824
0.00013824
0.00013824
0.00013824
0.00013824
0.00013824
0.00013824
0.00013824
0.00013824
0.00013824
0.00013824
0.00013824
0.00013824
0.00013824
0.00013824
0.00013824
0.00013824
0.00013824
0.00013824
0.00013824
0.00013824
0.00013824
0.00013824
0.00013824
0.00013824
0.00013824
0.00013824
0.00013824
0.00013824
0.00013824
0.00013824
0.00013824
0.00013824
0.00013824
0.00013824
0.00013824
0.00013824
0.00013824
0.00013824
0.00013824
0.00013824
0.00013824
0.00013824
0.00013824
0.00013824
0.00013824
0.00013824
0.00013824
0.00013824
0.00013824
0.00013824
0.00013824
0.00013824
0.00013824
0.00013824
0.00013824
0.00013824
0.00013824
0.00013824
0.00013824
0.00013824
0.00013824
0.00013824
0.00013824
0.00013824
0.00013824
0.00013824
0.00013824
0.00013824
0.00013824
0.00013824
0.00013824
0.00013824
0.00013824
0.00013824
0.00013824
0.00013824
0.00013824
0.00013824
0.00013824
0.00013824
0.00013824
0.00013824
0.00013824
0.00013824
0.00013824
0.00013824
0.00013824
0.00013824
0.00013824
0.00013824
0.00013824
0.00013824
0.00013824
0.00013824
0.00013824
0.00013824
0.00013824
0.00013824
0.00013824
0.00013824
0.00013824
0.00013824
0.00013824
0.00013824
0.00013824
0.00013824
0.00013824
0.00013824
0.00013824
0.00013824
0.00013824
0.00013824
0.00013824
0.00013824
0.00013824
0.00013824
0.00013824
0.00013824
0.00013824
0.00013824
0.00013824