/*--------------------------------*- C++ -*----------------------------------*\
| =========                 |                                                 |
| \\      /  F ield         | OpenFOAM: The Open Source CFD Toolbox           |
|  \\    /   O peration     | Version:  2406                                  |
|   \\  /    A nd           | Website:  www.openfoam.com                      |
|    \\/     M anipulation  |                                                 |
\*---------------------------------------------------------------------------*/
FoamFile
{
    version     2.0;
    format      ascii;
    arch        "LSB;label=32;scalar=64";
    class       volScalarField;
    location    "9.65";
    object      C_0;
}
// * * * * * * * * * * * * * * * * * * * * * * * * * * * * * * * * * * * * * //

dimensions      [1 -3 0 0 0 0 0];

internalField   nonuniform List<scalar> 
14400
(
0.212784
0.21205
0.210746
0.209135
0.207491
0.206055
0.205009
0.204465
0.204465
0.204979
0.2059
0.207046
0.208158
0.20891
0.208951
0.207984
0.205904
0.202904
0.199346
0.195632
0.192128
0.189146
0.186941
0.185735
0.185733
0.187148
0.19021
0.195183
0.20236
0.212057
0.224592
0.240285
0.259456
0.282422
0.309481
0.340871
0.376627
0.416113
0.455842
0.484821
0.504306
0.520896
0.534914
0.546548
0.555944
0.56321
0.568429
0.57166
0.57294
0.572291
0.569714
0.565194
0.558701
0.550182
0.539565
0.526751
0.511612
0.493981
0.4734
0.442746
0.401593
0.362032
0.326478
0.295367
0.268619
0.245983
0.227151
0.211791
0.199554
0.190072
0.182975
0.177917
0.174608
0.17283
0.172425
0.173291
0.175366
0.178619
0.183051
0.188674
0.195514
0.203583
0.212855
0.223214
0.234371
0.245698
0.255702
0.261334
0.260454
0.255177
0.24802
0.240513
0.233323
0.226808
0.221159
0.21646
0.212715
0.209873
0.207838
0.206481
0.205657
0.205218
0.205038
0.205033
0.205185
0.20555
0.206248
0.207443
0.209322
0.212074
0.215879
0.220892
0.227232
0.234965
0.244086
0.254481
0.265878
0.277739
0.288929
0.296096
0.217565
0.216651
0.215061
0.213135
0.211207
0.209549
0.208359
0.207757
0.207788
0.20842
0.209545
0.210974
0.212426
0.213532
0.213852
0.212959
0.210647
0.207232
0.20321
0.199064
0.195198
0.191931
0.189523
0.18819
0.188134
0.189564
0.192708
0.197823
0.205196
0.215134
0.227952
0.243966
0.263497
0.286864
0.314372
0.346269
0.382611
0.422679
0.46097
0.488041
0.507127
0.523468
0.537297
0.548787
0.558073
0.565257
0.570418
0.57361
0.57487
0.574218
0.571656
0.567169
0.560727
0.552281
0.541762
0.529077
0.514105
0.496691
0.476583
0.447619
0.407579
0.3675
0.331356
0.299719
0.2725
0.249438
0.230216
0.214499
0.201939
0.192176
0.184846
0.179608
0.176174
0.174319
0.173885
0.174766
0.176902
0.180264
0.184855
0.190698
0.197822
0.20625
0.215965
0.226861
0.238668
0.250756
0.261298
0.26681
0.266528
0.261037
0.25338
0.245399
0.237796
0.230935
0.225013
0.220113
0.216239
0.213335
0.211299
0.209991
0.209245
0.208892
0.208777
0.208796
0.208924
0.209227
0.209848
0.210979
0.212828
0.215603
0.219496
0.224667
0.231238
0.23928
0.248788
0.259657
0.271616
0.284092
0.295695
0.302384
0.22764
0.226299
0.224064
0.22146
0.218933
0.216814
0.215328
0.214606
0.214694
0.215564
0.217103
0.219111
0.221278
0.223156
0.224136
0.223469
0.220581
0.21622
0.211196
0.206147
0.201535
0.197692
0.194873
0.193284
0.19312
0.194578
0.197878
0.203267
0.211019
0.221427
0.234796
0.251439
0.271679
0.295835
0.32421
0.357037
0.394324
0.435076
0.470316
0.494234
0.512686
0.528553
0.542019
0.553231
0.562303
0.569328
0.574374
0.577492
0.578713
0.578056
0.575522
0.571098
0.564756
0.556452
0.546124
0.533688
0.519041
0.502049
0.482552
0.456658
0.419296
0.378296
0.341096
0.308472
0.280344
0.256446
0.236457
0.220037
0.206843
0.196522
0.188726
0.183125
0.179431
0.177418
0.176922
0.177833
0.180092
0.183675
0.188594
0.19488
0.20258
0.211727
0.222318
0.234257
0.247281
0.26071
0.27196
0.277195
0.277727
0.272568
0.264183
0.255338
0.246943
0.239414
0.232962
0.227675
0.223556
0.220545
0.218525
0.217332
0.216767
0.216609
0.216644
0.216719
0.216789
0.216948
0.217392
0.218369
0.220139
0.222942
0.226991
0.232458
0.239472
0.248105
0.258357
0.270127
0.283146
0.296768
0.308674
0.313918
0.244019
0.241832
0.238439
0.234696
0.231203
0.228359
0.226411
0.225499
0.22567
0.226896
0.229062
0.231964
0.235267
0.238452
0.240697
0.240675
0.236527
0.230439
0.223751
0.217275
0.211514
0.206795
0.203353
0.201376
0.20104
0.202528
0.206044
0.211819
0.220108
0.231188
0.245355
0.262919
0.284199
0.309512
0.339143
0.373253
0.41157
0.451983
0.482426
0.50322
0.520828
0.53604
0.548996
0.559812
0.568581
0.575378
0.58026
0.58327
0.584435
0.58377
0.581277
0.576945
0.570748
0.562648
0.552593
0.540512
0.526321
0.509913
0.491159
0.468584
0.435414
0.394106
0.355717
0.32175
0.292315
0.267196
0.246083
0.228638
0.214516
0.203379
0.194892
0.188741
0.184648
0.182387
0.181789
0.182744
0.185192
0.189117
0.19454
0.201507
0.210078
0.220301
0.232182
0.245621
0.260304
0.275311
0.286783
0.291721
0.292973
0.289627
0.280644
0.270627
0.261114
0.252635
0.24543
0.239599
0.235149
0.232014
0.230063
0.229101
0.228871
0.229074
0.229392
0.229571
0.229526
0.229406
0.229512
0.230194
0.231786
0.234579
0.238817
0.244685
0.252317
0.261783
0.273079
0.286085
0.300458
0.315213
0.326055
0.329714
0.268166
0.264299
0.258983
0.253522
0.248649
0.244794
0.242212
0.241036
0.241312
0.243007
0.246009
0.250116
0.254997
0.260113
0.264506
0.266117
0.259338
0.250459
0.24136
0.232921
0.225614
0.219723
0.215446
0.21294
0.212356
0.213857
0.217625
0.22387
0.232828
0.24476
0.259951
0.278704
0.301337
0.328157
0.359418
0.395185
0.43475
0.471409
0.495997
0.514792
0.531367
0.545781
0.558114
0.568441
0.576832
0.583343
0.588018
0.590892
0.591986
0.591313
0.588873
0.584656
0.578642
0.5708
0.561086
0.549447
0.535818
0.520124
0.502283
0.482185
0.4546
0.415119
0.375452
0.339789
0.308667
0.281964
0.259393
0.240619
0.225304
0.213115
0.203734
0.196862
0.192236
0.189637
0.188899
0.189912
0.19262
0.197013
0.203123
0.211009
0.22074
0.232376
0.245927
0.261278
0.278001
0.294515
0.304878
0.309664
0.311527
0.310413
0.302683
0.291533
0.280711
0.271068
0.262929
0.25643
0.251594
0.248361
0.246586
0.246037
0.246389
0.247223
0.248051
0.248422
0.248145
0.24751
0.247013
0.247163
0.248405
0.251095
0.255507
0.26184
0.270225
0.280722
0.293307
0.307808
0.323658
0.338682
0.346263
0.348931
0.301475
0.294463
0.286267
0.278475
0.271809
0.266669
0.263288
0.26178
0.26218
0.264449
0.268475
0.274054
0.280868
0.288349
0.295127
0.29576
0.288595
0.276389
0.264329
0.253496
0.244304
0.236976
0.231662
0.228485
0.227569
0.229048
0.233084
0.239864
0.249603
0.262548
0.27897
0.299165
0.323438
0.352073
0.385233
0.422642
0.462111
0.491183
0.511122
0.528583
0.544067
0.557604
0.569235
0.579007
0.586963
0.593143
0.597578
0.600293
0.601305
0.600622
0.598245
0.594164
0.588365
0.580823
0.571505
0.560373
0.547381
0.532482
0.515631
0.496796
0.474528
0.441265
0.400465
0.362849
0.329713
0.301092
0.276747
0.256366
0.239614
0.226167
0.215716
0.207979
0.202709
0.199698
0.198791
0.199885
0.202927
0.207915
0.214889
0.223914
0.235067
0.248411
0.263951
0.281538
0.300526
0.317149
0.325613
0.330494
0.332942
0.333084
0.329168
0.318159
0.306117
0.295184
0.285965
0.2787
0.273452
0.270182
0.268746
0.268879
0.270177
0.27208
0.273822
0.274563
0.273809
0.272243
0.270714
0.269979
0.270616
0.27305
0.277581
0.284411
0.293653
0.305333
0.319378
0.335495
0.352531
0.364194
0.368669
0.370809
0.337377
0.331181
0.32016
0.309759
0.301034
0.294397
0.290082
0.288189
0.288736
0.291672
0.296868
0.304081
0.312915
0.322373
0.327482
0.325866
0.320943
0.307614
0.292713
0.279301
0.267993
0.259012
0.252484
0.248503
0.247165
0.248584
0.252896
0.260267
0.270895
0.285006
0.302857
0.324725
0.350895
0.381594
0.416838
0.455606
0.488694
0.510416
0.528242
0.54435
0.558715
0.571333
0.582217
0.591389
0.598871
0.604687
0.608857
0.611397
0.612319
0.611626
0.609319
0.605392
0.599831
0.592621
0.583738
0.573157
0.56085
0.546792
0.530964
0.513361
0.494003
0.468352
0.430378
0.391139
0.355804
0.324974
0.298565
0.27631
0.257894
0.242999
0.231326
0.222608
0.21661
0.21314
0.212054
0.213258
0.21671
0.222411
0.230406
0.240765
0.253565
0.268862
0.286622
0.306534
0.327227
0.341536
0.348808
0.353757
0.356663
0.357648
0.35684
0.35027
0.337621
0.325391
0.314983
0.30688
0.301202
0.297976
0.297086
0.298248
0.30098
0.304612
0.307966
0.309503
0.307711
0.304526
0.301336
0.299242
0.298948
0.300932
0.305501
0.31284
0.32302
0.335966
0.351455
0.368736
0.383344
0.389865
0.393146
0.394829
0.370748
0.368552
0.359499
0.347223
0.336491
0.328255
0.322933
0.320624
0.321345
0.325021
0.331482
0.340289
0.350617
0.358764
0.359455
0.35733
0.35381
0.343511
0.326537
0.310603
0.297059
0.286267
0.278374
0.273468
0.271629
0.272951
0.277552
0.285577
0.297205
0.312639
0.332107
0.355857
0.38411
0.416921
0.453673
0.489448
0.513161
0.530819
0.54708
0.561861
0.575108
0.586795
0.596912
0.605459
0.612444
0.617877
0.621767
0.624121
0.624946
0.624244
0.622015
0.618252
0.612948
0.606092
0.597669
0.587667
0.576071
0.562873
0.548071
0.531676
0.513719
0.493749
0.464565
0.424858
0.38732
0.354046
0.325303
0.300924
0.280624
0.2641
0.251063
0.241257
0.234462
0.230499
0.229237
0.230591
0.234526
0.241051
0.250211
0.262076
0.27672
0.294175
0.314335
0.336555
0.356772
0.367387
0.374117
0.379064
0.382305
0.383963
0.384209
0.382564
0.374675
0.361845
0.350271
0.34133
0.335203
0.332103
0.331981
0.334557
0.339236
0.345432
0.351261
0.354476
0.350559
0.344952
0.339335
0.335363
0.333788
0.335125
0.339645
0.347495
0.358672
0.372823
0.389222
0.405037
0.413057
0.41668
0.419222
0.42053
0.403644
0.403296
0.399962
0.390089
0.378145
0.368368
0.362068
0.359342
0.360269
0.364711
0.372446
0.382303
0.391525
0.393861
0.392342
0.390087
0.386919
0.381169
0.365665
0.347663
0.331889
0.319178
0.309799
0.303864
0.301456
0.302657
0.30757
0.316324
0.329073
0.345991
0.367257
0.393055
0.423497
0.458182
0.494525
0.519454
0.536632
0.552611
0.5674
0.580905
0.593062
0.603827
0.613175
0.621092
0.627571
0.63261
0.636211
0.638374
0.639101
0.638391
0.636243
0.632653
0.627617
0.621128
0.613181
0.60377
0.592895
0.580557
0.566769
0.551554
0.534947
0.516996
0.495783
0.463612
0.424526
0.388714
0.357434
0.330712
0.308322
0.289987
0.275439
0.264438
0.256777
0.252291
0.250857
0.252401
0.256894
0.264349
0.274811
0.288343
0.304996
0.324741
0.347261
0.370965
0.3867
0.394843
0.401208
0.406076
0.40953
0.411689
0.412723
0.412856
0.410919
0.403583
0.391671
0.382211
0.375599
0.372691
0.373513
0.377848
0.384569
0.393574
0.399271
0.400924
0.399105
0.392778
0.384505
0.378393
0.375286
0.375848
0.380235
0.388547
0.400738
0.415528
0.430157
0.438353
0.441796
0.444574
0.44653
0.447541
0.436889
0.436754
0.436562
0.433268
0.425078
0.414411
0.40747
0.404344
0.405513
0.410546
0.419122
0.426631
0.42916
0.427708
0.425965
0.423756
0.420958
0.417525
0.408828
0.390564
0.372859
0.358197
0.347245
0.340198
0.337166
0.338236
0.343498
0.353063
0.367064
0.385631
0.408832
0.436725
0.469217
0.504372
0.529231
0.545825
0.561163
0.575594
0.589003
0.601298
0.612407
0.622277
0.63087
0.638163
0.644137
0.648782
0.652092
0.654063
0.654692
0.653975
0.651912
0.6485
0.643738
0.637623
0.630155
0.621339
0.61118
0.599691
0.586895
0.572824
0.557521
0.541046
0.523477
0.500923
0.466664
0.429157
0.395389
0.366197
0.34154
0.321216
0.305003
0.292688
0.284083
0.279035
0.27743
0.279203
0.28433
0.292823
0.304722
0.32007
0.338861
0.360924
0.385398
0.406304
0.416633
0.423856
0.429797
0.434503
0.438048
0.440543
0.442137
0.443033
0.443491
0.44236
0.437278
0.428936
0.421958
0.419381
0.421069
0.427156
0.434057
0.43829
0.439923
0.439962
0.440539
0.438922
0.434591
0.427468
0.423074
0.422967
0.427117
0.435513
0.448218
0.459004
0.465749
0.468604
0.471174
0.473287
0.474785
0.475561
0.47027
0.470266
0.470327
0.470596
0.468773
0.464094
0.458041
0.454547
0.455985
0.460509
0.464127
0.465219
0.463479
0.461824
0.460053
0.458015
0.455617
0.452826
0.449406
0.438823
0.420221
0.403703
0.391181
0.382971
0.379289
0.380232
0.38589
0.396348
0.411719
0.43208
0.457203
0.486718
0.519557
0.542864
0.558479
0.572852
0.586603
0.599597
0.61172
0.622876
0.63299
0.642002
0.649867
0.656552
0.662032
0.66629
0.669314
0.671095
0.671627
0.670907
0.668931
0.665699
0.661211
0.65547
0.648479
0.64025
0.630794
0.620134
0.608297
0.595324
0.581266
0.56619
0.550178
0.533325
0.510071
0.475044
0.439492
0.407905
0.380868
0.358384
0.340344
0.326585
0.316946
0.311288
0.309508
0.311545
0.317378
0.327017
0.340483
0.357778
0.378744
0.402748
0.426847
0.440158
0.447661
0.454152
0.45962
0.46409
0.467618
0.470296
0.47225
0.473647
0.474697
0.475656
0.476151
0.474142
0.471551
0.470195
0.471364
0.473575
0.475277
0.474897
0.474463
0.474634
0.475416
0.476868
0.47765
0.476457
0.474938
0.474947
0.47864
0.484954
0.491017
0.495004
0.496991
0.499072
0.501009
0.502616
0.503762
0.504357
0.503654
0.503713
0.503877
0.50424
0.50494
0.50521
0.503677
0.502297
0.502197
0.502565
0.50144
0.499403
0.497672
0.496055
0.494409
0.492632
0.490671
0.488517
0.486213
0.48285
0.47273
0.455592
0.4419
0.432585
0.428288
0.429134
0.435245
0.446632
0.463382
0.485582
0.511923
0.54023
0.560714
0.574604
0.587715
0.600502
0.6128
0.624472
0.635403
0.645497
0.654676
0.662874
0.670044
0.676145
0.681148
0.685031
0.687777
0.689375
0.689815
0.689093
0.687206
0.684153
0.679938
0.674565
0.668043
0.660386
0.651614
0.641752
0.630836
0.618909
0.60603
0.592268
0.577708
0.562452
0.546561
0.523607
0.489529
0.45623
0.426878
0.4021
0.382081
0.366741
0.355973
0.34965
0.34768
0.35001
0.356616
0.367499
0.382634
0.401973
0.425029
0.44987
0.465482
0.473104
0.479684
0.485468
0.490443
0.494619
0.498039
0.500772
0.502919
0.504607
0.505993
0.507251
0.508559
0.510103
0.511015
0.511114
0.511115
0.510252
0.50913
0.508526
0.508371
0.508696
0.509527
0.510898
0.512842
0.515445
0.517255
0.518867
0.521327
0.523951
0.525235
0.526543
0.528088
0.529686
0.531172
0.532408
0.53329
0.533749
0.536979
0.537054
0.537229
0.537543
0.538038
0.538694
0.53943
0.539525
0.538487
0.536693
0.534914
0.533261
0.531749
0.530317
0.528895
0.527435
0.525916
0.524358
0.522827
0.521447
0.519174
0.51166
0.498887
0.489
0.484334
0.485136
0.491781
0.503982
0.521559
0.544815
0.565909
0.582387
0.594062
0.605687
0.617275
0.62864
0.639622
0.650088
0.659924
0.669034
0.67734
0.684776
0.691289
0.696836
0.701385
0.70491
0.70739
0.708812
0.709166
0.708445
0.706646
0.703771
0.699822
0.694809
0.688742
0.681639
0.673523
0.664425
0.654384
0.643448
0.631677
0.619144
0.605935
0.59215
0.577902
0.56324
0.54179
0.510745
0.479925
0.452871
0.430798
0.413765
0.401785
0.394741
0.392561
0.395199
0.402621
0.414808
0.431576
0.452824
0.476701
0.49273
0.500572
0.506812
0.512503
0.517595
0.522063
0.525904
0.529145
0.531835
0.534046
0.535871
0.537417
0.538795
0.540093
0.541341
0.542371
0.542952
0.542813
0.542375
0.541923
0.541705
0.541798
0.542252
0.543098
0.544356
0.546029
0.548093
0.550388
0.552619
0.554241
0.555439
0.55661
0.557838
0.559131
0.560413
0.561584
0.562552
0.563241
0.563599
0.57023
0.570297
0.570439
0.570667
0.570975
0.571312
0.57155
0.571403
0.570687
0.569541
0.568259
0.566978
0.565748
0.564568
0.563421
0.562296
0.5612
0.560172
0.55929
0.558677
0.558518
0.558427
0.55496
0.550103
0.54615
0.547025
0.554293
0.566707
0.581628
0.59559
0.607034
0.616573
0.626578
0.636808
0.64706
0.65716
0.66696
0.676333
0.685169
0.693376
0.700875
0.707601
0.713499
0.718526
0.722646
0.725832
0.728061
0.729318
0.729591
0.728874
0.727164
0.724461
0.720772
0.716105
0.710476
0.703904
0.696414
0.688041
0.678826
0.66882
0.658086
0.646696
0.634737
0.62231
0.609531
0.596532
0.583417
0.564793
0.539054
0.510701
0.486876
0.468139
0.454945
0.447135
0.444712
0.44765
0.455851
0.469309
0.487145
0.508878
0.523172
0.530416
0.535866
0.541071
0.545921
0.550347
0.554308
0.557791
0.560804
0.563377
0.565559
0.567414
0.569011
0.570417
0.571678
0.572795
0.573695
0.574282
0.574502
0.574512
0.574484
0.574572
0.574865
0.575416
0.576257
0.577398
0.578827
0.580494
0.582284
0.584018
0.585501
0.586761
0.587929
0.589067
0.590187
0.59125
0.5922
0.592975
0.593524
0.593808
0.603413
0.603464
0.603565
0.603711
0.603882
0.604027
0.604057
0.603843
0.603314
0.602526
0.601605
0.600643
0.599696
0.598786
0.597925
0.597127
0.596416
0.595842
0.595483
0.595452
0.595906
0.597052
0.599167
0.600346
0.601383
0.60448
0.610464
0.618474
0.626844
0.633942
0.641677
0.650061
0.65887
0.667907
0.676995
0.68598
0.694726
0.703115
0.711044
0.718426
0.725184
0.731253
0.736581
0.741123
0.744843
0.747711
0.749704
0.750807
0.751007
0.750296
0.748673
0.746138
0.742699
0.738365
0.733154
0.727086
0.720189
0.712499
0.70406
0.694922
0.68515
0.674816
0.664008
0.652824
0.64138
0.62981
0.618274
0.606955
0.592432
0.573201
0.549687
0.529799
0.515708
0.50711
0.504395
0.50759
0.516222
0.530467
0.546641
0.5574
0.56278
0.567049
0.571406
0.575683
0.579762
0.583562
0.587033
0.590147
0.592901
0.595309
0.5974
0.599214
0.600795
0.602184
0.603408
0.604466
0.605333
0.605977
0.606402
0.606685
0.60693
0.607235
0.607673
0.608291
0.609115
0.610153
0.611387
0.612773
0.614234
0.615668
0.616986
0.618176
0.619277
0.620316
0.621298
0.622201
0.62299
0.623625
0.624071
0.6243
0.636546
0.63658
0.636645
0.636731
0.636814
0.636858
0.636806
0.636597
0.636202
0.635645
0.634989
0.634294
0.633606
0.632956
0.632368
0.631869
0.631495
0.631297
0.631347
0.631742
0.632601
0.634068
0.636285
0.639326
0.643232
0.647506
0.652007
0.656876
0.66242
0.668725
0.675667
0.683121
0.690936
0.698955
0.707034
0.715038
0.722848
0.730356
0.737467
0.744099
0.75018
0.755647
0.760449
0.764542
0.76789
0.770463
0.772239
0.773199
0.773332
0.772631
0.771093
0.76872
0.76552
0.761503
0.756688
0.751096
0.744757
0.737707
0.729991
0.721659
0.712776
0.703412
0.693653
0.683596
0.673354
0.663055
0.652855
0.642934
0.633515
0.623521
0.610561
0.596169
0.582729
0.573461
0.570388
0.573671
0.581062
0.58878
0.59487
0.59753
0.600362
0.603596
0.607026
0.610494
0.613883
0.617108
0.620113
0.622864
0.625345
0.627558
0.629518
0.631247
0.632772
0.634118
0.635302
0.636328
0.637192
0.637892
0.638444
0.638897
0.639315
0.639765
0.640301
0.640959
0.641761
0.64271
0.643794
0.644978
0.646212
0.647435
0.648597
0.649679
0.650685
0.651623
0.652488
0.653266
0.653934
0.654464
0.654833
0.655023
0.669644
0.669666
0.669705
0.669752
0.669787
0.669785
0.669712
0.669538
0.66925
0.668864
0.668413
0.667939
0.667478
0.667062
0.666721
0.666487
0.666398
0.666504
0.666868
0.667567
0.66869
0.670332
0.672572
0.675448
0.678934
0.682864
0.68716
0.691869
0.697095
0.702871
0.709143
0.715822
0.722796
0.729944
0.737147
0.744291
0.751272
0.757993
0.764369
0.770324
0.775789
0.780706
0.785027
0.788707
0.791712
0.794014
0.795588
0.796418
0.796492
0.795803
0.794348
0.79213
0.789157
0.78544
0.780998
0.775853
0.770036
0.763582
0.756536
0.748949
0.740881
0.732403
0.723597
0.714555
0.705383
0.696203
0.687156
0.678402
0.670129
0.662545
0.655909
0.64861
0.640971
0.634863
0.631647
0.63146
0.632947
0.633863
0.634243
0.635569
0.637542
0.639947
0.642607
0.645383
0.648167
0.650874
0.653448
0.65585
0.658057
0.660061
0.661867
0.663484
0.664928
0.666214
0.667353
0.668352
0.669217
0.669955
0.670585
0.671142
0.671669
0.672211
0.672806
0.673483
0.674258
0.675134
0.6761
0.677134
0.678201
0.679263
0.680289
0.681258
0.682163
0.683002
0.683766
0.684442
0.685015
0.685465
0.685776
0.685935
0.702721
0.702735
0.702759
0.702784
0.702797
0.702782
0.702718
0.702592
0.702397
0.702146
0.701861
0.70157
0.701305
0.701094
0.700968
0.70096
0.701106
0.701453
0.702053
0.702967
0.704261
0.705996
0.708223
0.710961
0.714191
0.71785
0.721899
0.726346
0.731219
0.736521
0.742213
0.748229
0.754482
0.760878
0.767318
0.773708
0.779955
0.785976
0.791693
0.797037
0.801945
0.806363
0.810244
0.813547
0.816239
0.818291
0.819681
0.820394
0.820415
0.81974
0.818366
0.816296
0.813537
0.810103
0.80601
0.801283
0.795951
0.79005
0.783622
0.776718
0.769396
0.761723
0.753777
0.745642
0.73742
0.729219
0.721163
0.713391
0.706053
0.699305
0.693298
0.688104
0.683884
0.680363
0.677375
0.674874
0.673034
0.672207
0.672212
0.672962
0.674291
0.676041
0.678073
0.680266
0.682526
0.684774
0.686956
0.68903
0.690971
0.692763
0.694403
0.695894
0.697242
0.698456
0.699543
0.700511
0.701369
0.702126
0.7028
0.703417
0.704007
0.704602
0.705229
0.705909
0.706654
0.707467
0.70834
0.709256
0.710195
0.711129
0.712036
0.7129
0.713709
0.714455
0.71513
0.715722
0.716218
0.716605
0.71687
0.717005
0.735784
0.735793
0.73581
0.735827
0.735837
0.735827
0.735788
0.735713
0.735601
0.735463
0.735313
0.735176
0.735077
0.735041
0.735098
0.735277
0.735614
0.736149
0.736924
0.737988
0.739389
0.74117
0.743363
0.745983
0.749019
0.752445
0.75624
0.760397
0.764915
0.769781
0.77496
0.780397
0.786025
0.791767
0.797541
0.803267
0.808865
0.814263
0.819391
0.824186
0.828591
0.832557
0.836039
0.838998
0.841404
0.84323
0.844453
0.845059
0.845036
0.844377
0.84308
0.84115
0.838594
0.835423
0.831657
0.827319
0.822436
0.817044
0.811185
0.804906
0.798262
0.791318
0.784143
0.776819
0.769435
0.762088
0.754887
0.747947
0.741387
0.735326
0.729867
0.725079
0.721006
0.717569
0.714695
0.712374
0.71068
0.709715
0.709438
0.709774
0.710618
0.711855
0.713376
0.715084
0.716895
0.718742
0.720572
0.722344
0.724032
0.725617
0.72709
0.728447
0.729691
0.730824
0.731852
0.732782
0.733621
0.734379
0.735072
0.735719
0.736341
0.736962
0.7376
0.738271
0.738983
0.73974
0.740535
0.741357
0.742192
0.743021
0.743827
0.744596
0.745317
0.745981
0.746577
0.747097
0.74753
0.747866
0.748095
0.748211
0.768836
0.768845
0.768861
0.768879
0.768895
0.768902
0.768894
0.768871
0.768833
0.768789
0.768754
0.768745
0.768785
0.768896
0.769104
0.769437
0.769926
0.770603
0.771507
0.772672
0.774137
0.775931
0.778078
0.780587
0.783456
0.786671
0.790219
0.794087
0.798264
0.802728
0.807447
0.812375
0.817455
0.822623
0.827812
0.832952
0.837977
0.84282
0.847421
0.851724
0.855677
0.859235
0.862355
0.865004
0.867151
0.86877
0.869843
0.870353
0.870291
0.86965
0.868429
0.866631
0.864263
0.86134
0.857877
0.853898
0.84943
0.844506
0.839167
0.833458
0.82743
0.821142
0.81466
0.808056
0.801412
0.794812
0.78835
0.782121
0.776222
0.770744
0.765765
0.761339
0.757492
0.754206
0.751458
0.749245
0.747596
0.746538
0.74605
0.746079
0.746552
0.747385
0.748493
0.749797
0.751228
0.752726
0.754244
0.755744
0.757197
0.758584
0.759892
0.761115
0.762249
0.763297
0.76426
0.765143
0.765953
0.766698
0.767391
0.768045
0.768677
0.769303
0.769937
0.77059
0.771268
0.771974
0.772702
0.773447
0.774195
0.774936
0.775655
0.77634
0.776983
0.777573
0.778102
0.77856
0.77894
0.779233
0.779432
0.779533
0.80188
0.80189
0.801909
0.801934
0.801962
0.80199
0.802017
0.802042
0.80207
0.802108
0.802168
0.802267
0.802422
0.802654
0.802985
0.803441
0.804047
0.804833
0.805827
0.807058
0.808555
0.81034
0.81243
0.814832
0.817547
0.820565
0.823877
0.827469
0.831324
0.83542
0.839726
0.8442
0.848796
0.853459
0.858131
0.862754
0.867269
0.871619
0.87575
0.879612
0.883159
0.886349
0.889144
0.891511
0.893424
0.894858
0.895795
0.896221
0.896125
0.895503
0.894354
0.89268
0.89049
0.887795
0.884613
0.880965
0.876879
0.872384
0.86752
0.862328
0.856856
0.85116
0.845297
0.839335
0.833344
0.827399
0.82158
0.815966
0.810636
0.805664
0.80111
0.797019
0.793416
0.790306
0.787684
0.785553
0.783921
0.782791
0.782144
0.781941
0.782127
0.78264
0.783413
0.784384
0.785493
0.786691
0.787935
0.789189
0.790427
0.791629
0.792779
0.79387
0.794895
0.795854
0.796748
0.797578
0.798349
0.79907
0.799747
0.800394
0.80102
0.801637
0.802256
0.802884
0.803527
0.804184
0.804854
0.805531
0.806207
0.806872
0.807515
0.808128
0.808702
0.809227
0.809696
0.810101
0.810436
0.810693
0.810868
0.810957
0.834914
0.834927
0.834951
0.834985
0.835029
0.835081
0.835141
0.835211
0.835296
0.835404
0.835544
0.835732
0.835981
0.836312
0.836742
0.837294
0.83799
0.838854
0.839909
0.841179
0.842685
0.844444
0.846469
0.848765
0.851333
0.854166
0.857255
0.860587
0.864144
0.867904
0.871836
0.875905
0.88007
0.884285
0.888499
0.892663
0.896725
0.900636
0.904348
0.907816
0.910998
0.913857
0.916359
0.918474
0.920175
0.921443
0.922258
0.922609
0.922486
0.921884
0.920803
0.919246
0.91722
0.914738
0.911815
0.908472
0.904735
0.900632
0.8962
0.891477
0.886509
0.881343
0.876035
0.870643
0.86523
0.859861
0.854604
0.849526
0.844693
0.840165
0.835991
0.832211
0.828849
0.825917
0.823421
0.821363
0.819745
0.818561
0.817794
0.817413
0.817376
0.817634
0.818136
0.818831
0.81967
0.820611
0.821615
0.822652
0.823695
0.824724
0.825726
0.826689
0.827608
0.828478
0.829298
0.83007
0.830797
0.831483
0.832136
0.832762
0.83337
0.833969
0.834565
0.835164
0.83577
0.836382
0.836999
0.837617
0.838229
0.838828
0.839407
0.839956
0.840468
0.840937
0.841354
0.841713
0.842009
0.842237
0.842391
0.842469
0.867936
0.867951
0.867982
0.868028
0.868088
0.868163
0.868255
0.868365
0.8685
0.868666
0.868874
0.869134
0.869461
0.869869
0.870378
0.871003
0.871765
0.872683
0.873777
0.875064
0.876562
0.878283
0.880236
0.882426
0.884853
0.887511
0.890392
0.893481
0.896762
0.900213
0.903808
0.907514
0.911295
0.91511
0.918918
0.922674
0.926333
0.929853
0.93319
0.936305
0.939161
0.941724
0.943962
0.945849
0.947361
0.948479
0.949186
0.949471
0.949326
0.948745
0.947729
0.94628
0.944407
0.942121
0.939437
0.936373
0.932956
0.929211
0.925171
0.920873
0.916357
0.911669
0.906857
0.901972
0.897071
0.89221
0.887448
0.882842
0.878446
0.874311
0.870479
0.866985
0.863851
0.861093
0.858719
0.856733
0.855134
0.853914
0.853058
0.85254
0.852328
0.852384
0.852667
0.853134
0.853746
0.854467
0.855264
0.856107
0.856975
0.857848
0.858711
0.859554
0.860369
0.861151
0.861898
0.862608
0.863285
0.863931
0.864551
0.865149
0.865731
0.866304
0.866871
0.867438
0.868006
0.868575
0.869144
0.869709
0.870265
0.870806
0.871327
0.87182
0.872279
0.872697
0.873069
0.873389
0.873652
0.873853
0.873989
0.874058
0.900942
0.900961
0.900999
0.901055
0.901132
0.901229
0.901349
0.901495
0.901673
0.901888
0.90215
0.902469
0.902858
0.903328
0.903896
0.904576
0.905384
0.906338
0.907451
0.908739
0.910215
0.911888
0.913766
0.915851
0.918142
0.920634
0.923318
0.926182
0.92921
0.93238
0.935669
0.939048
0.942485
0.945944
0.949389
0.952781
0.956081
0.959251
0.962254
0.965054
0.967617
0.969914
0.971916
0.973599
0.974942
0.975926
0.976537
0.976764
0.9766
0.976041
0.975086
0.973739
0.972008
0.969902
0.967437
0.96463
0.961503
0.958084
0.9544
0.950486
0.946379
0.942119
0.93775
0.933318
0.928872
0.924461
0.920137
0.915947
0.911939
0.908154
0.904631
0.901397
0.898477
0.895885
0.89363
0.891716
0.890143
0.888903
0.887983
0.887362
0.887014
0.886908
0.887012
0.887292
0.887714
0.888248
0.888864
0.889539
0.89025
0.890981
0.891717
0.892447
0.893163
0.893859
0.894532
0.895181
0.895805
0.896406
0.896987
0.89755
0.898101
0.898643
0.899179
0.899711
0.900241
0.900768
0.901292
0.901809
0.902315
0.902805
0.903275
0.903719
0.90413
0.904505
0.904837
0.905122
0.905356
0.905535
0.905655
0.905716
0.933929
0.933951
0.933996
0.934064
0.934155
0.934272
0.934418
0.934594
0.934807
0.935063
0.93537
0.935736
0.936172
0.93669
0.937301
0.93802
0.938859
0.939832
0.94095
0.942227
0.943671
0.94529
0.947089
0.94907
0.95123
0.953565
0.956066
0.958721
0.961515
0.964428
0.96744
0.970524
0.973652
0.976792
0.979913
0.98298
0.985959
0.988817
0.991521
0.994038
0.99634
0.998399
1.00019
1.00169
1.00288
1.00375
1.00427
1.00445
1.00427
1.00373
1.00284
1.00158
0.999983
0.998043
0.995778
0.993205
0.990345
0.98722
0.98386
0.980293
0.976553
0.972678
0.968706
0.964678
0.960637
0.956627
0.95269
0.948871
0.945207
0.941737
0.938491
0.935497
0.932775
0.930339
0.928199
0.926359
0.924819
0.923572
0.922608
0.92191
0.921456
0.921223
0.921182
0.921308
0.921571
0.921945
0.922407
0.922934
0.923507
0.924109
0.924729
0.925354
0.925977
0.926591
0.927192
0.927777
0.928347
0.9289
0.929439
0.929965
0.930481
0.930988
0.93149
0.931986
0.932478
0.932966
0.933447
0.933919
0.93438
0.934825
0.935249
0.935649
0.936019
0.936354
0.936652
0.936906
0.937115
0.937274
0.937381
0.937436
0.966894
0.966919
0.96697
0.967048
0.967153
0.967288
0.967454
0.967657
0.967899
0.968188
0.96853
0.968932
0.969405
0.969957
0.9706
0.971344
0.9722
0.97318
0.974292
0.975547
0.976952
0.978512
0.980231
0.982108
0.984143
0.986329
0.988659
0.99112
0.993699
0.996379
0.999139
1.00196
1.00481
1.00766
1.01049
1.01327
1.01596
1.01854
1.02097
1.02324
1.02531
1.02715
1.02875
1.03009
1.03114
1.0319
1.03235
1.03249
1.0323
1.03178
1.03094
1.02978
1.0283
1.02651
1.02443
1.02207
1.01945
1.01659
1.01352
1.01027
1.00686
1.00333
0.999717
0.996051
0.992371
0.988718
0.985128
0.981638
0.978283
0.975095
0.972101
0.969325
0.966785
0.964497
0.962468
0.960703
0.959202
0.95796
0.956968
0.956214
0.955679
0.955344
0.955187
0.955185
0.955315
0.955555
0.955884
0.956282
0.956733
0.957221
0.957735
0.958264
0.958799
0.959335
0.959866
0.96039
0.960905
0.96141
0.961905
0.962391
0.962869
0.96334
0.963805
0.964265
0.96472
0.965169
0.96561
0.966042
0.966461
0.966865
0.967248
0.967609
0.967941
0.968243
0.968509
0.968737
0.968923
0.969065
0.969161
0.969209
0.999834
0.999862
0.999919
1
1.00012
1.00027
1.00046
1.00068
1.00095
1.00126
1.00163
1.00206
1.00256
1.00313
1.0038
1.00456
1.00542
1.00639
1.00749
1.00872
1.01008
1.01157
1.01321
1.01499
1.0169
1.01895
1.02112
1.0234
1.02578
1.02825
1.03078
1.03336
1.03595
1.03855
1.04112
1.04364
1.04607
1.0484
1.0506
1.05264
1.05449
1.05615
1.05758
1.05877
1.05971
1.06037
1.06075
1.06085
1.06065
1.06016
1.05937
1.05829
1.05692
1.05527
1.05336
1.05119
1.04879
1.04618
1.04338
1.0404
1.0373
1.03408
1.03078
1.02744
1.02408
1.02075
1.01746
1.01427
1.01119
1.00826
1.00549
1.00292
1.00055
0.998395
0.996472
0.994782
0.993325
0.992097
0.991091
0.990298
0.989702
0.989287
0.989037
0.988931
0.98895
0.989077
0.989291
0.989578
0.989921
0.990308
0.990726
0.991167
0.991621
0.992083
0.992548
0.993012
0.993473
0.993929
0.994379
0.994824
0.995263
0.995697
0.996126
0.99655
0.996968
0.99738
0.997784
0.998177
0.998558
0.998924
0.999271
0.999596
0.999895
1.00017
1.0004
1.00061
1.00078
1.0009
1.00099
1.00103
1.03275
1.03278
1.03284
1.03293
1.03306
1.03322
1.03342
1.03366
1.03394
1.03428
1.03467
1.03512
1.03563
1.03623
1.0369
1.03766
1.03852
1.03949
1.04056
1.04175
1.04306
1.0445
1.04606
1.04774
1.04953
1.05145
1.05347
1.05558
1.05778
1.06005
1.06238
1.06473
1.06711
1.06947
1.07181
1.07409
1.07629
1.0784
1.08038
1.08221
1.08389
1.08537
1.08665
1.08771
1.08854
1.08912
1.08944
1.08951
1.0893
1.08883
1.08809
1.08708
1.08581