/*--------------------------------*- C++ -*----------------------------------*\
| =========                 |                                                 |
| \\      /  F ield         | OpenFOAM: The Open Source CFD Toolbox           |
|  \\    /   O peration     | Version:  2406                                  |
|   \\  /    A nd           | Website:  www.openfoam.com                      |
|    \\/     M anipulation  |                                                 |
\*---------------------------------------------------------------------------*/
FoamFile
{
    version     2.0;
    format      ascii;
    arch        "LSB;label=32;scalar=64";
    class       volScalarField;
    location    "9.65";
    object      D;
}
// * * * * * * * * * * * * * * * * * * * * * * * * * * * * * * * * * * * * * //

dimensions      [0 2 -1 0 0 0 0];

internalField   nonuniform List<scalar> 
14400
(
7.96317e-05
7.9649e-05
7.96992e-05
7.97885e-05
7.99048e-05
8.00235e-05
8.01186e-05
8.01714e-05
8.01766e-05
8.01443e-05
8.00988e-05
8.00736e-05
8.01002e-05
8.01918e-05
8.03243e-05
8.04336e-05
8.04665e-05
8.04635e-05
8.04544e-05
8.04151e-05
8.02807e-05
7.99698e-05
7.94024e-05
7.85138e-05
7.72672e-05
7.56684e-05
7.37823e-05
7.17414e-05
6.97244e-05
6.78953e-05
6.63514e-05
6.51228e-05
6.42039e-05
6.35858e-05
6.32849e-05
6.33842e-05
6.41568e-05
6.6692e-05
7.76331e-05
0.000137174
0.00013824
0.00013824
0.00013824
0.00013824
0.00013824
0.00013824
0.00013824
0.00013824
0.00013824
0.00013824
0.00013824
0.00013824
0.00013824
0.00013824
0.00013824
0.00013824
0.00013824
0.00013824
0.000134955
7.42918e-05
6.65243e-05
6.4595e-05
6.41017e-05
6.42633e-05
6.48852e-05
6.59339e-05
6.74397e-05
6.94473e-05
7.1952e-05
7.48236e-05
7.77913e-05
8.05489e-05
8.28791e-05
8.4676e-05
8.59042e-05
8.6565e-05
8.66803e-05
8.62858e-05
8.54331e-05
8.41984e-05
8.26955e-05
8.10884e-05
7.95985e-05
7.85196e-05
7.83156e-05
8.02082e-05
9.06141e-05
0.000136991
9.82633e-05
7.93694e-05
7.55385e-05
7.44682e-05
7.43447e-05
7.46884e-05
7.52893e-05
7.60206e-05
7.67915e-05
7.75345e-05
7.82011e-05
7.87585e-05
7.91849e-05
7.94642e-05
7.95823e-05
7.95265e-05
7.92894e-05
7.88715e-05
7.8279e-05
7.75227e-05
7.66196e-05
7.55983e-05
7.4504e-05
7.34011e-05
7.23689e-05
7.1496e-05
7.088e-05
7.0649e-05
7.1039e-05
7.27107e-05
7.90128e-05
0.000127031
7.85703e-05
7.85176e-05
7.84679e-05
7.84596e-05
7.84963e-05
7.85586e-05
7.86216e-05
7.86664e-05
7.86874e-05
7.8695e-05
7.87148e-05
7.87828e-05
7.89336e-05
7.91782e-05
7.94668e-05
7.966e-05
7.96149e-05
7.94797e-05
7.93543e-05
7.92318e-05
7.90454e-05
7.87084e-05
7.81384e-05
7.72718e-05
7.60765e-05
7.45648e-05
7.2806e-05
7.09276e-05
6.9088e-05
6.74241e-05
6.60166e-05
6.48931e-05
6.4054e-05
6.34999e-05
6.32582e-05
6.34323e-05
6.43698e-05
6.77141e-05
8.69293e-05
0.000138115
0.00013824
0.00013824
0.00013824
0.00013824
0.00013824
0.00013824
0.00013824
0.00013824
0.00013824
0.00013824
0.00013824
0.00013824
0.00013824
0.00013824
0.00013824
0.00013824
0.00013824
0.00013824
0.000137623
8.01544e-05
6.73819e-05
6.47886e-05
6.41287e-05
6.42053e-05
6.47533e-05
6.57156e-05
6.71083e-05
6.89671e-05
7.12924e-05
7.39815e-05
7.68026e-05
7.94696e-05
8.17548e-05
8.35317e-05
8.47512e-05
8.54076e-05
8.55199e-05
8.51242e-05
8.42761e-05
8.30588e-05
8.15955e-05
8.00586e-05
7.86736e-05
7.77384e-05
7.77588e-05
8.03353e-05
9.60035e-05
0.000137964
0.000108793
7.99343e-05
7.52136e-05
7.38886e-05
7.35927e-05
7.37852e-05
7.42475e-05
7.48555e-05
7.55245e-05
7.61929e-05
7.68151e-05
7.73574e-05
7.77922e-05
7.80932e-05
7.82326e-05
7.81855e-05
7.79404e-05
7.75054e-05
7.69017e-05
7.6154e-05
7.52892e-05
7.43401e-05
7.33509e-05
7.23793e-05
7.14944e-05
7.07743e-05
7.03128e-05
7.02484e-05
7.08659e-05
7.30211e-05
8.09223e-05
0.000134296
7.67971e-05
7.65783e-05
7.63129e-05
7.61092e-05
7.59929e-05
7.59482e-05
7.59491e-05
7.59763e-05
7.60239e-05
7.61025e-05
7.62399e-05
7.64788e-05
7.68676e-05
7.74315e-05
7.80917e-05
7.85188e-05
7.82198e-05
7.77472e-05
7.73581e-05
7.70565e-05
7.67599e-05
7.63703e-05
7.58014e-05
7.49919e-05
7.39156e-05
7.25911e-05
7.10864e-05
6.95098e-05
6.79816e-05
6.66002e-05
6.54256e-05
6.44847e-05
6.37885e-05
6.3353e-05
6.32253e-05
6.3544e-05
6.47769e-05
6.94957e-05
0.000107184
0.000138239
0.00013824
0.00013824
0.00013824
0.00013824
0.00013824
0.00013824
0.00013824
0.00013824
0.00013824
0.00013824
0.00013824
0.00013824
0.00013824
0.00013824
0.00013824
0.00013824
0.00013824
0.00013824
0.000138227
9.8073e-05
6.91638e-05
6.51589e-05
6.41903e-05
6.41076e-05
6.45175e-05
6.5322e-05
6.65116e-05
6.81047e-05
7.01031e-05
7.2441e-05
7.49514e-05
7.73964e-05
7.95508e-05
8.12602e-05
8.24468e-05
8.30881e-05
8.31964e-05
8.28094e-05
8.19912e-05
8.08391e-05
7.94919e-05
7.81315e-05
7.69825e-05
7.63404e-05
7.67686e-05
8.05454e-05
0.000107779
0.000138226
0.000125286
8.10355e-05
7.48212e-05
7.29703e-05
7.23415e-05
7.22615e-05
7.24807e-05
7.28715e-05
7.33554e-05
7.38798e-05
7.44063e-05
7.49036e-05
7.53392e-05
7.56718e-05
7.58495e-05
7.58217e-05
7.55684e-05
7.51141e-05
7.45087e-05
7.38004e-05
7.30278e-05
7.22253e-05
7.14306e-05
7.06876e-05
7.00494e-05
6.95815e-05
6.93767e-05
6.96017e-05
7.06764e-05
7.43507e-05
9.47356e-05
0.000138135
7.49624e-05
7.44239e-05
7.38203e-05
7.3352e-05
7.30443e-05
7.28691e-05
7.27938e-05
7.27963e-05
7.28705e-05
7.30275e-05
7.32982e-05
7.37376e-05
7.44289e-05
7.54727e-05
7.68692e-05
7.79866e-05
7.68746e-05
7.5709e-05
7.48884e-05
7.43238e-05
7.38745e-05
7.34185e-05
7.28638e-05
7.21509e-05
7.12571e-05
7.01987e-05
6.90281e-05
6.7821e-05
6.66567e-05
6.56007e-05
6.46982e-05
6.39781e-05
6.3464e-05
6.3191e-05
6.32358e-05
6.38013e-05
6.55735e-05
7.21918e-05
0.000130125
0.00013824
0.00013824
0.00013824
0.00013824
0.00013824
0.00013824
0.00013824
0.00013824
0.00013824
0.00013824
0.00013824
0.00013824
0.00013824
0.00013824
0.00013824
0.00013824
0.00013824
0.00013824
0.00013824
0.00013824
0.000122153
7.14773e-05
6.57683e-05
6.43379e-05
6.40142e-05
6.42288e-05
6.48246e-05
6.57574e-05
6.70209e-05
6.86085e-05
7.04795e-05
7.25292e-05
7.45888e-05
7.64674e-05
7.80046e-05
7.90967e-05
7.96971e-05
7.98062e-05
7.94626e-05
7.8741e-05
7.77537e-05
7.66494e-05
7.56073e-05
7.48397e-05
7.46434e-05
7.56677e-05
8.08999e-05
0.000123061
0.00013824
0.000137581
8.81232e-05
7.52109e-05
7.21175e-05
7.09722e-05
7.05457e-05
7.04811e-05
7.06249e-05
7.08962e-05
7.12478e-05
7.16495e-05
7.20756e-05
7.24949e-05
7.28568e-05
7.30834e-05
7.30861e-05
7.283e-05
7.23646e-05
7.17778e-05
7.11408e-05
7.04978e-05
6.98788e-05
6.93105e-05
6.88228e-05
6.84557e-05
6.82682e-05
6.83616e-05
6.89512e-05
7.0657e-05
7.65209e-05
0.000120634
0.00013824
7.40398e-05
7.27759e-05
7.16535e-05
7.08692e-05
7.03628e-05
7.0061e-05
6.99124e-05
6.98882e-05
6.99803e-05
7.02016e-05
7.05895e-05
7.12189e-05
7.22379e-05
7.39548e-05
7.70108e-05
8.19777e-05
7.65439e-05
7.39278e-05
7.24911e-05
7.16176e-05
7.10057e-05
7.04853e-05
6.99539e-05
6.93523e-05
6.86559e-05
6.78707e-05
6.70261e-05
6.61665e-05
6.53395e-05
6.45887e-05
6.39505e-05
6.34572e-05
6.31454e-05
6.30739e-05
6.33709e-05
6.44176e-05
6.8148e-05
9.47476e-05
0.000138222
0.00013824
0.00013824
0.00013824
0.00013824
0.00013824
0.00013824
0.00013824
0.00013824
0.00013824
0.00013824
0.00013824
0.00013824
0.00013824
0.00013824
0.00013824
0.00013824
0.00013824
0.00013824
0.00013824
0.00013824
0.000137789
8.07597e-05
6.735e-05
6.47288e-05
6.39969e-05
6.3951e-05
6.43039e-05
6.49607e-05
6.58847e-05
6.70536e-05
6.84333e-05
6.99577e-05
7.152e-05
7.29852e-05
7.42204e-05
7.51237e-05
7.56384e-05
7.57558e-05
7.55118e-05
7.49831e-05
7.42802e-05
7.35407e-05
7.29251e-05
7.26377e-05
7.303e-05
7.50899e-05
8.38459e-05
0.000136127
0.00013824
0.00013824
0.000120067
7.76942e-05
7.17621e-05
6.9842e-05
6.90197e-05
6.86773e-05
6.85977e-05
6.86826e-05
6.88838e-05
6.91754e-05
6.9538e-05
6.9946e-05
7.03492e-05
7.06462e-05
7.06926e-05
7.04233e-05
6.99306e-05
6.93523e-05
6.8779e-05
6.82527e-05
6.77956e-05
6.74245e-05
6.71606e-05
6.70387e-05
6.71229e-05
6.7544e-05
6.86331e-05
7.16235e-05
8.49126e-05
0.000137663
0.00013824
7.71516e-05
7.25331e-05
7.03186e-05
6.90765e-05
6.83374e-05
6.79049e-05
6.76856e-05
6.7634e-05
6.77373e-05
6.8012e-05
6.85099e-05
6.93431e-05
7.07836e-05
7.36935e-05
8.26919e-05
0.000125713
7.97196e-05
7.30099e-05
7.06073e-05
6.93757e-05
6.85996e-05
6.80169e-05
6.75036e-05
6.6995e-05
6.64611e-05
6.58955e-05
6.53095e-05
6.4725e-05
6.41702e-05
6.36749e-05
6.32706e-05
6.29942e-05
6.28976e-05
6.3075e-05
6.37427e-05
6.55929e-05
7.24288e-05
0.000131416
0.00013824
0.00013824
0.00013824
0.00013824
0.00013824
0.00013824
0.00013824
0.00013824
0.00013824
0.00013824
0.00013824
0.00013824
0.00013824
0.00013824
0.00013824
0.00013824
0.00013824
0.00013824
0.00013824
0.00013824
0.00013824
0.00013824
0.00012003
7.11229e-05
6.55771e-05
6.4144e-05
6.37528e-05
6.38356e-05
6.42177e-05
6.48273e-05
6.56234e-05
6.65689e-05
6.76148e-05
6.86928e-05
6.97177e-05
7.06002e-05
7.12655e-05
7.16682e-05
7.18003e-05
7.16914e-05
7.1405e-05
7.10312e-05
7.06833e-05
7.05041e-05
7.07137e-05
7.18178e-05
7.61081e-05
0.000106694
0.000138233
0.00013824
0.00013824
0.000137993
8.93992e-05
7.27821e-05
6.92841e-05
6.79408e-05
6.73112e-05
6.70336e-05
6.69682e-05
6.70581e-05
6.72784e-05
6.76146e-05
6.80511e-05
6.85507e-05
6.89889e-05
6.91125e-05
6.87737e-05
6.8178e-05
6.75468e-05
6.69875e-05
6.65292e-05
6.61834e-05
6.59594e-05
6.58752e-05
6.59702e-05
6.63324e-05
6.71695e-05
6.91205e-05
7.54864e-05
0.000124776
0.00013824
0.00013824
0.000118031
7.6613e-05
7.03556e-05
6.81645e-05
6.7059e-05
6.64522e-05
6.61491e-05
6.60669e-05
6.61821e-05
6.65189e-05
6.71609e-05
6.83037e-05
7.0551e-05
7.69751e-05
0.000122536
0.000138215
9.9939e-05
7.39252e-05
6.94776e-05
6.7765e-05
6.67992e-05
6.61427e-05
6.56298e-05
6.51814e-05
6.47588e-05
6.43465e-05
6.39435e-05
6.35594e-05
6.32107e-05
6.29202e-05
6.2718e-05
6.26489e-05
6.27916e-05
6.33165e-05
6.47278e-05
6.96282e-05
0.000109225
0.000138239
0.00013824
0.00013824
0.00013824
0.00013824
0.00013824
0.00013824
0.00013824
0.00013824
0.00013824
0.00013824
0.00013824
0.00013824
0.00013824
0.00013824
0.00013824
0.00013824
0.00013824
0.00013824
0.00013824
0.00013824
0.00013824
0.00013824
0.000138127
8.6445e-05
6.77384e-05
6.46351e-05
6.37247e-05
6.34917e-05
6.36004e-05
6.39287e-05
6.44144e-05
6.50139e-05
6.5685e-05
6.63802e-05
6.70464e-05
6.76301e-05
6.80869e-05
6.83901e-05
6.8537e-05
6.85503e-05
6.84769e-05
6.83867e-05
6.83752e-05
6.85846e-05
6.92849e-05
7.1219e-05
7.78956e-05
0.000130233
0.00013824
0.00013824
0.00013824
0.00013824
0.000131772
7.71387e-05
6.98143e-05
6.75358e-05
6.65084e-05
6.60139e-05
6.58092e-05
6.58158e-05
6.60065e-05
6.63717e-05
6.69149e-05
6.76541e-05
6.8469e-05
6.88214e-05
6.81912e-05
6.72729e-05
6.64477e-05
6.58167e-05
6.53613e-05
6.50742e-05
6.49557e-05
6.50261e-05
6.53446e-05
6.60657e-05
6.76473e-05
7.23109e-05
0.000101977
0.000138231
0.00013824
0.00013824
0.000138237
0.000108123
7.38883e-05
6.84908e-05
6.65898e-05
6.56769e-05
6.52485e-05
6.51252e-05
6.52612e-05
6.56975e-05
6.65973e-05
6.84002e-05
7.32225e-05
0.000101229
0.000138226
0.00013824
0.000130353
7.64282e-05
6.92466e-05
6.68214e-05
6.55859e-05
6.48214e-05
6.42815e-05
6.3859e-05
6.35031e-05
6.31901e-05
6.29119e-05
6.26713e-05
6.24798e-05
6.23576e-05
6.23382e-05
6.24823e-05
6.29196e-05
6.39978e-05
6.72113e-05
8.53826e-05
0.00013812
0.00013824
0.00013824
0.00013824
0.00013824
0.00013824
0.00013824
0.00013824
0.00013824
0.00013824
0.00013824
0.00013824
0.00013824
0.00013824
0.00013824
0.00013824
0.00013824
0.00013824
0.00013824
0.00013824
0.00013824
0.00013824
0.00013824
0.00013824
0.00013824
0.000131306
7.25584e-05
6.58303e-05
6.40177e-05
6.33557e-05
6.31652e-05
6.32313e-05
6.34581e-05
6.37902e-05
6.4186e-05
6.46086e-05
6.50227e-05
6.53965e-05
6.57059e-05
6.59381e-05
6.60955e-05
6.61972e-05
6.62809e-05
6.64069e-05
6.66701e-05
6.72424e-05
6.85547e-05
7.25736e-05
9.81634e-05
0.000138213
0.00013824
0.00013824
0.00013824
0.00013824
0.00013824
0.000119771
7.46402e-05
6.84115e-05
6.64582e-05
6.56195e-05
6.52299e-05
6.51583e-05
6.53666e-05
6.58547e-05
6.66681e-05
6.80947e-05
7.04647e-05
7.24077e-05
6.97196e-05
6.75812e-05
6.61653e-05
6.53003e-05
6.47523e-05
6.44708e-05
6.44342e-05
6.46735e-05
6.53044e-05
6.66813e-05
7.02188e-05
8.66214e-05
0.000138028
0.00013824
0.00013824
0.00013824
0.00013824
0.000138213
9.69927e-05
7.20278e-05
6.73318e-05
6.56788e-05
6.50157e-05
6.48239e-05
6.50036e-05
6.56363e-05
6.7156e-05
7.10101e-05
8.78268e-05
0.000138041
0.00013824
0.00013824
0.000138235
0.000103901
7.15947e-05
6.67099e-05
6.49377e-05
6.3988e-05
6.3381e-05
6.295e-05
6.2625e-05
6.2373e-05
6.21808e-05
6.2048e-05
6.19859e-05
6.20179e-05
6.21889e-05
6.25928e-05
6.34757e-05
6.5677e-05
7.40712e-05
0.000136101
0.00013824
0.00013824
0.00013824
0.00013824
0.00013824
0.00013824
0.00013824
0.00013824
0.00013824
0.00013824
0.00013824
0.00013824
0.00013824
0.00013824
0.00013824
0.00013824
0.00013824
0.00013824
0.00013824
0.00013824
0.00013824
0.00013824
0.00013824
0.00013824
0.00013824
0.00013824
0.000113437
7.0352e-05
6.50929e-05
6.35735e-05
6.2976e-05
6.2764e-05
6.27577e-05
6.28746e-05
6.30659e-05
6.32972e-05
6.35412e-05
6.37771e-05
6.39913e-05
6.41788e-05
6.43458e-05
6.45112e-05
6.47111e-05
6.50092e-05
6.55216e-05
6.64951e-05
6.86414e-05
7.56129e-05
0.000130737
0.00013824
0.00013824
0.00013824
0.00013824
0.00013824
0.00013824
0.00013824
0.000113655
7.36976e-05
6.78278e-05
6.61782e-05
6.53827e-05
6.5194e-05
6.55096e-05
6.6387e-05
6.7954e-05
7.25561e-05
8.65675e-05
0.000111011
8.08451e-05
7.13232e-05
6.72508e-05
6.56874e-05
6.48199e-05
6.4467e-05
6.45118e-05
6.50245e-05
6.63458e-05
6.98694e-05
8.28663e-05
0.000137643
0.00013824
0.00013824
0.00013824
0.00013824
0.00013824
0.00013824
0.000138194
9.66096e-05
7.19147e-05
6.70748e-05
6.58233e-05
6.54646e-05
6.57642e-05
6.69073e-05
7.10376e-05
8.72112e-05
0.000137889
0.00013824
0.00013824
0.00013824
0.00013824
0.000137111
7.85096e-05
6.77739e-05
6.49235e-05
6.36328e-05
6.28905e-05
6.24074e-05
6.20803e-05
6.18616e-05
6.17316e-05
6.169e-05
6.17538e-05
6.19609e-05
6.23884e-05
6.32197e-05
6.51349e-05
7.19113e-05
0.000131293
0.00013824
0.00013824
0.00013824
0.00013824
0.00013824
0.00013824
0.00013824
0.00013824
0.00013824
0.00013824
0.00013824
0.00013824
0.00013824
0.00013824
0.00013824
0.00013824
0.00013824
0.00013824
0.00013824
0.00013824
0.00013824
0.00013824
0.00013824
0.00013824
0.00013824
0.00013824
0.00013824
0.000138223
9.48365e-05
6.85309e-05
6.44616e-05
6.31422e-05
6.25696e-05
6.23189e-05
6.22417e-05
6.22684e-05
6.23575e-05
6.24826e-05
6.26266e-05
6.27803e-05
6.29429e-05
6.31236e-05
6.33439e-05
6.36449e-05
6.41078e-05
6.4908e-05
6.65409e-05
7.13972e-05
0.000105867
0.000138237
0.00013824
0.00013824
0.00013824
0.00013824
0.00013824
0.00013824
0.00013824
0.00013824
0.000120055
7.45986e-05
6.96353e-05
6.69658e-05
6.64604e-05
6.72048e-05
7.01272e-05
7.49063e-05
0.000115144
0.000138027
0.000138239
0.000137469
0.00010444
7.32137e-05
6.84363e-05
6.61369e-05
6.55193e-05
6.56954e-05
6.69454e-05
7.13282e-05
9.09384e-05
0.000137786
0.00013824
0.00013824
0.00013824
0.00013824
0.00013824
0.00013824
0.00013824
0.00013824
0.000138218
0.000111276
7.36811e-05
7.00771e-05
6.88052e-05
6.97866e-05
7.30456e-05
0.000102547
0.000138069
0.00013824
0.00013824
0.00013824
0.00013824
0.00013824
0.00013824
0.00013012
7.3082e-05
6.60822e-05
6.39048e-05
6.28632e-05
6.22464e-05
6.18747e-05
6.1665e-05
6.15855e-05
6.16384e-05
6.18623e-05
6.23429e-05
6.32781e-05
6.51932e-05
7.16534e-05
0.000128409
0.00013824
0.00013824
0.00013824
0.00013824
0.00013824
0.00013824
0.00013824
0.00013824
0.00013824
0.00013824
0.00013824
0.00013824
0.00013824
0.00013824
0.00013824
0.00013824
0.00013824
0.00013824
0.00013824
0.00013824
0.00013824
0.00013824
0.00013824
0.00013824
0.00013824
0.00013824
0.00013824
0.00013824
0.00013824
0.000138029
8.29087e-05
6.71513e-05
6.39517e-05
6.27565e-05
6.21794e-05
6.18886e-05
6.17596e-05
6.17286e-05
6.17618e-05
6.18401e-05
6.19549e-05
6.21077e-05
6.23114e-05
6.25936e-05
6.30082e-05
6.36748e-05
6.48941e-05
6.77783e-05
7.98939e-05
0.000137547
0.00013824
0.00013824
0.00013824
0.00013824
0.00013824
0.00013824
0.00013824
0.00013824
0.00013824
0.00013824
0.000132737
9.67568e-05
7.4023e-05
7.22165e-05
7.51203e-05
0.000101709
0.00013376
0.00013824
0.00013824
0.00013824
0.00013824
0.000138237
0.000127572
8.69016e-05
7.20824e-05
7.04297e-05
7.10443e-05
7.58757e-05
0.000115356
0.000138182
0.00013824
0.00013824
0.00013824
0.00013824
0.00013824
0.00013824
0.00013824
0.00013824
0.00013824
0.00013824
0.000138239
0.000131647
0.000105042
8.9891e-05
0.000101138
0.000127903
0.000138235
0.00013824
0.00013824
0.00013824
0.00013824
0.00013824
0.00013824
0.00013824
0.00013824
0.000122626
7.18469e-05
6.54889e-05
6.3596e-05
6.26125e-05
6.21123e-05
6.18802e-05
6.18526e-05
6.20382e-05
6.25505e-05
6.369e-05
6.64694e-05
7.34628e-05
0.000131347
0.00013824
0.00013824
0.00013824
0.00013824
0.00013824
0.00013824
0.00013824
0.00013824
0.00013824
0.00013824
0.00013824
0.00013824
0.00013824
0.00013824
0.00013824
0.00013824
0.00013824
0.00013824
0.00013824
0.00013824
0.00013824
0.00013824
0.00013824
0.00013824
0.00013824
0.00013824
0.00013824
0.00013824
0.00013824
0.00013824
0.00013824
0.000137493
7.80845e-05
6.65611e-05
6.36676e-05
6.24687e-05
6.18618e-05
6.15456e-05
6.13891e-05
6.13376e-05
6.13624e-05
6.14517e-05
6.16087e-05
6.18528e-05
6.22255e-05
6.2809e-05
6.3826e-05
6.59645e-05
7.29462e-05
0.000130916
0.00013824
0.00013824
0.00013824
0.00013824
0.00013824
0.00013824
0.00013824
0.00013824
0.00013824
0.00013824
0.00013824
0.00013824
0.000138222
0.000133918
0.000127443
0.000135503
0.000138234
0.00013824
0.00013824
0.00013824
0.00013824
0.00013824
0.00013824
0.00013824
0.000138117
0.000127261
0.000113807
0.00012065
0.000136485
0.00013824
0.00013824
0.00013824
0.00013824
0.00013824
0.00013824
0.00013824
0.00013824
0.00013824
0.00013824
0.00013824
0.00013824
0.00013824
0.00013824
0.000138237
0.000138162
0.000138233
0.00013824
0.00013824
0.00013824
0.00013824
0.00013824
0.00013824
0.00013824
0.00013824
0.00013824
0.00013824
0.00013824
0.000124747
7.24015e-05
6.6664e-05
6.40883e-05
6.32067e-05
6.28769e-05
6.29411e-05
6.34092e-05
6.47528e-05
6.89341e-05
8.73152e-05
0.000136282
0.00013824
0.00013824
0.00013824
0.00013824
0.00013824
0.00013824
0.00013824
0.00013824
0.00013824
0.00013824
0.00013824
0.00013824
0.00013824
0.00013824
0.00013824
0.00013824
0.00013824
0.00013824
0.00013824
0.00013824
0.00013824
0.00013824
0.00013824
0.00013824
0.00013824
0.00013824
0.00013824
0.00013824
0.00013824
0.00013824
0.00013824
0.00013824
0.00013824
0.000137279
7.8934e-05
6.69324e-05
6.36421e-05
6.23308e-05
6.17092e-05
6.13754e-05
6.1223e-05
6.1194e-05
6.12663e-05
6.14451e-05
6.17647e-05
6.23043e-05
6.32164e-05
6.51411e-05
7.13513e-05
0.00012101
0.00013824
0.00013824
0.00013824
0.00013824
0.00013824
0.00013824
0.00013824
0.00013824
0.00013824
0.00013824
0.00013824
0.00013824
0.00013824
0.00013824
0.00013824
0.00013824
0.00013824
0.00013824
0.00013824
0.00013824
0.00013824
0.00013824
0.00013824
0.00013824
0.00013824
0.00013824
0.00013824
0.00013824
0.00013824
0.00013824
0.00013824
0.00013824
0.00013824
0.00013824
0.00013824
0.00013824
0.00013824
0.00013824
0.00013824
0.00013824
0.00013824
0.00013824
0.00013824
0.00013824
0.00013824
0.00013824
0.00013824
0.00013824
0.00013824
0.00013824
0.00013824
0.00013824
0.00013824
0.00013824
0.00013824
0.00013824
0.00013824
0.00013824
0.00013824
0.000133526
8.73229e-05
6.99556e-05
6.74387e-05
6.65429e-05
6.70732e-05
6.87321e-05
7.45286e-05
0.000116993
0.000138183
0.00013824
0.00013824
0.00013824
0.00013824
0.00013824
0.00013824
0.00013824
0.00013824
0.00013824
0.00013824
0.00013824
0.00013824
0.00013824
0.00013824
0.00013824
0.00013824
0.00013824
0.00013824
0.00013824
0.00013824
0.00013824
0.00013824
0.00013824
0.00013824
0.00013824
0.00013824
0.00013824
0.00013824
0.00013824
0.00013824
0.00013824
0.00013824
0.00013824
0.00013824
0.00013824
0.00013777
8.72169e-05
6.81904e-05
6.39176e-05
6.25623e-05
6.18497e-05
6.1531e-05
6.14281e-05
6.14887e-05
6.1722e-05
6.22022e-05
6.31604e-05
6.49456e-05
7.0957e-05
0.000117861
0.00013824
0.00013824
0.00013824
0.00013824
0.00013824
0.00013824
0.00013824
0.00013824
0.00013824
0.00013824
0.00013824
0.00013824
0.00013824
0.00013824
0.00013824
0.00013824
0.00013824
0.00013824
0.00013824
0.00013824
0.00013824
0.00013824
0.00013824
0.00013824
0.00013824
0.00013824
0.00013824
0.00013824
0.00013824
0.00013824
0.00013824
0.00013824
0.00013824
0.00013824
0.00013824
0.00013824
0.00013824
0.00013824
0.00013824
0.00013824
0.00013824
0.00013824
0.00013824
0.00013824
0.00013824
0.00013824
0.00013824
0.00013824
0.00013824
0.00013824
0.00013824
0.00013824
0.00013824
0.00013824
0.00013824
0.00013824
0.00013824
0.00013824
0.00013824
0.00013824
0.00013824
0.000138176
0.000123896
9.97661e-05
9.01004e-05
9.7854e-05
0.000118296
0.000137086
0.00013824
0.00013824
0.00013824
0.00013824
0.00013824
0.00013824
0.00013824
0.00013824
0.00013824
0.00013824
0.00013824
0.00013824
0.00013824
0.00013824
0.00013824
0.00013824
0.00013824
0.00013824
0.00013824
0.00013824
0.00013824
0.00013824
0.00013824
0.00013824
0.00013824
0.00013824
0.00013824
0.00013824
0.00013824
0.00013824
0.00013824
0.00013824
0.00013824
0.00013824
0.00013824
0.00013824
0.00013824
0.00013824
0.000138179
0.000106177
7.01951e-05
6.57091e-05
6.3419e-05
6.26992e-05
6.24338e-05
6.24832e-05
6.28701e-05
6.37878e-05
6.6666e-05
7.23048e-05
0.000124964
0.00013824
0.00013824
0.00013824
0.00013824
0.00013824
0.00013824
0.00013824
0.00013824
0.00013824
0.00013824
0.00013824
0.00013824
0.00013824
0.00013824
0.00013824
0.00013824
0.00013824
0.00013824
0.00013824
0.00013824
0.00013824
0.00013824
0.00013824
0.00013824
0.00013824
0.00013824
0.00013824
0.00013824
0.00013824
0.00013824
0.00013824
0.00013824
0.00013824
0.00013824
0.00013824
0.00013824
0.00013824
0.00013824
0.00013824
0.00013824
0.00013824
0.00013824
0.00013824
0.00013824
0.00013824
0.00013824
0.00013824
0.00013824
0.00013824
0.00013824
0.00013824
0.00013824
0.00013824
0.00013824
0.00013824
0.00013824
0.00013824
0.00013824
0.00013824
0.00013824
0.00013824
0.00013824
0.00013824
0.00013824
0.000138235
0.000138201
0.000138233
0.00013824
0.00013824
0.00013824
0.00013824
0.00013824
0.00013824
0.00013824
0.00013824
0.00013824
0.00013824
0.00013824
0.00013824
0.00013824
0.00013824
0.00013824
0.00013824
0.00013824
0.00013824
0.00013824
0.00013824
0.00013824
0.00013824
0.00013824
0.00013824
0.00013824
0.00013824
0.00013824
0.00013824
0.00013824
0.00013824
0.00013824
0.00013824
0.00013824
0.00013824
0.00013824
0.00013824
0.00013824
0.00013824
0.00013824
0.00013824
0.00013824
0.000138239
0.000128725
8.69844e-05
6.94586e-05
6.72234e-05
6.61364e-05
6.61395e-05
6.73543e-05
7.00103e-05
9.34328e-05
0.000134907
0.00013824
0.00013824
0.00013824
0.00013824
0.00013824
0.00013824
0.00013824
0.00013824
0.00013824
0.00013824
0.00013824
0.00013824
0.00013824
0.00013824
0.00013824
0.00013824
0.00013824
0.00013824
0.00013824
0.00013824
0.00013824
0.00013824
0.00013824
0.00013824
0.00013824
0.00013824
0.00013824
0.00013824
0.00013824
0.00013824
0.00013824
0.00013824
0.00013824
0.00013824
0.00013824
0.00013824
0.00013824
0.00013824
0.00013824
0.00013824
0.00013824
0.00013824
0.00013824
0.00013824
0.00013824
0.00013824
0.00013824
0.00013824
0.00013824
0.00013824
0.00013824
0.00013824
0.00013824
0.00013824
0.00013824
0.00013824
0.00013824
0.00013824
0.00013824
0.00013824
0.00013824
0.00013824
0.00013824
0.00013824
0.00013824
0.00013824
0.00013824
0.00013824
0.00013824
0.00013824
0.00013824
0.00013824
0.00013824
0.00013824
0.00013824
0.00013824
0.00013824
0.00013824
0.00013824
0.00013824
0.00013824
0.00013824
0.00013824
0.00013824
0.00013824
0.00013824
0.00013824
0.00013824
0.00013824
0.00013824
0.00013824
0.00013824
0.00013824
0.00013824
0.00013824
0.00013824
0.00013824
0.00013824
0.00013824
0.00013824
0.00013824
0.00013824
0.00013824
0.00013824
0.00013824
0.00013824
0.00013824
0.00013824
0.00013824
0.00013824
0.00013824
0.000138188
0.000127177
0.00010508
9.07168e-05
8.99976e-05
0.000104448
0.000128185
0.000138225
0.00013824
0.00013824
0.00013824
0.00013824
0.00013824
0.00013824
0.00013824
0.00013824
0.00013824
0.00013824
0.00013824
0.00013824
0.00013824
0.00013824
0.00013824
0.00013824
0.00013824
0.00013824
0.00013824
0.00013824
0.00013824
0.00013824
0.00013824
0.00013824
0.00013824
0.00013824
0.00013824
0.00013824
0.00013824
0.00013824
0.00013824
0.00013824
0.00013824
0.00013824
0.00013824
0.00013824
0.00013824
0.00013824
0.00013824
0.00013824
0.00013824
0.00013824
0.00013824
0.00013824
0.00013824
0.00013824
0.00013824
0.00013824
0.00013824
0.00013824
0.00013824
0.00013824
0.00013824
0.00013824
0.00013824
0.00013824
0.00013824
0.00013824
0.00013824
0.00013824
0.00013824
0.00013824
0.00013824
0.00013824
0.00013824
0.00013824
0.00013824
0.00013824
0.00013824
0.00013824
0.00013824
0.00013824
0.00013824
0.00013824
0.00013824
0.00013824
0.00013824
0.00013824
0.00013824
0.00013824
0.00013824
0.00013824
0.00013824
0.00013824
0.00013824
0.00013824
0.00013824
0.00013824
0.00013824
0.00013824
0.00013824
0.00013824
0.00013824
0.00013824
0.00013824
0.00013824
0.00013824
0.00013824
0.00013824
0.00013824
0.00013824
0.00013824
0.00013824
0.00013824
0.00013824
0.00013824
0.00013824
0.00013824
0.00013824
0.00013824
0.00013824
0.00013824
0.00013824
0.00013824
0.000138239
0.00013821
0.000138204
0.000138238
0.00013824
0.00013824
0.00013824
0.00013824
0.00013824
0.00013824
0.00013824
0.00013824
0.00013824
0.00013824
0.00013824
0.00013824
0.00013824
0.00013824
0.00013824
0.00013824
0.00013824
0.00013824
0.00013824
0.00013824
0.00013824
0.00013824
0.00013824
0.00013824
0.00013824
0.00013824
0.00013824
0.00013824
0.00013824
0.00013824
0.00013824
0.00013824
0.00013824
0.00013824
0.00013824
0.00013824
0.00013824
0.00013824
0.00013824
0.00013824
0.00013824
0.00013824
0.00013824
0.00013824
0.00013824
0.00013824
0.00013824
0.00013824
0.00013824
0.00013824
0.00013824
0.00013824
0.00013824
0.00013824
0.00013824
0.00013824
0.00013824
0.00013824
0.00013824
0.00013824
0.00013824
0.00013824
0.00013824
0.00013824
0.00013824
0.00013824
0.00013824
0.00013824
0.00013824
0.00013824
0.00013824
0.00013824
0.00013824
0.00013824
0.00013824
0.00013824
0.00013824
0.00013824
0.00013824
0.00013824
0.00013824
0.00013824
0.00013824
0.00013824
0.00013824
0.00013824
0.00013824
0.00013824
0.00013824
0.00013824
0.00013824
0.00013824
0.00013824
0.00013824
0.00013824
0.00013824
0.00013824
0.00013824
0.00013824
0.00013824
0.00013824
0.00013824
0.00013824
0.00013824
0.00013824
0.00013824
0.00013824
0.00013824
0.00013824
0.00013824
0.00013824
0.00013824
0.00013824
0.00013824
0.00013824
0.00013824
0.00013824
0.00013824
0.00013824
0.00013824
0.00013824
0.00013824
0.00013824
0.00013824
0.00013824
0.00013824
0.00013824
0.00013824
0.00013824
0.00013824
0.00013824
0.00013824
0.00013824
0.00013824
0.00013824
0.00013824
0.00013824
0.00013824
0.00013824
0.00013824
0.00013824
0.00013824
0.00013824
0.00013824
0.00013824
0.00013824
0.00013824
0.00013824
0.00013824
0.00013824
0.00013824
0.00013824
0.00013824
0.00013824
0.00013824
0.00013824
0.00013824
0.00013824
0.00013824
0.00013824
0.00013824
0.00013824
0.00013824
0.00013824
0.00013824
0.00013824
0.00013824
0.00013824
0.00013824
0.00013824
0.00013824
0.00013824
0.00013824
0.00013824
0.00013824
0.00013824
0.00013824
0.00013824
0.00013824
0.00013824
0.00013824
0.00013824
0.00013824
0.00013824
0.00013824
0.00013824
0.00013824
0.00013824
0.00013824
0.00013824
0.00013824
0.00013824
0.00013824
0.00013824
0.00013824
0.00013824
0.00013824
0.00013824
0.00013824
0.00013824
0.00013824
0.00013824
0.00013824
0.00013824
0.00013824
0.00013824
0.00013824
0.00013824
0.00013824
0.00013824
0.00013824
0.00013824
0.00013824
0.00013824
0.00013824
0.00013824
0.00013824
0.00013824
0.00013824
0.00013824
0.00013824
0.00013824
0.00013824
0.00013824
0.00013824
0.00013824
0.00013824
0.00013824
0.00013824
0.00013824
0.00013824
0.00013824
0.00013824
0.00013824
0.00013824
0.00013824
0.00013824
0.00013824
0.00013824
0.00013824
0.00013824
0.00013824
0.00013824
0.00013824
0.00013824
0.00013824
0.00013824
0.00013824
0.00013824
0.00013824
0.00013824
0.00013824
0.00013824
0.00013824
0.00013824
0.00013824
0.00013824
0.00013824
0.00013824
0.00013824
0.00013824
0.00013824
0.00013824
0.00013824
0.00013824
0.00013824
0.00013824
0.00013824
0.00013824
0.00013824
0.00013824
0.00013824
0.00013824
0.00013824
0.00013824
0.00013824
0.00013824
0.00013824
0.00013824
0.00013824
0.00013824
0.00013824
0.00013824
0.00013824
0.00013824
0.00013824
0.00013824
0.00013824
0.00013824
0.00013824
0.00013824
0.00013824
0.00013824
0.00013824
0.00013824
0.00013824
0.00013824
0.00013824
0.00013824
0.00013824
0.00013824
0.00013824
0.00013824
0.00013824
0.00013824
0.00013824
0.00013824
0.00013824
0.00013824
0.00013824
0.00013824
0.00013824
0.00013824
0.00013824
0.00013824
0.00013824
0.00013824
0.00013824
0.00013824
0.00013824
0.00013824
0.00013824
0.00013824
0.00013824
0.00013824
0.00013824
0.00013824
0.00013824
0.00013824
0.00013824
0.00013824
0.00013824
0.00013824
0.00013824
0.00013824
0.00013824
0.00013824
0.00013824
0.00013824
0.00013824
0.00013824
0.00013824
0.00013824
0.00013824
0.00013824
0.00013824
0.00013824
0.00013824
0.00013824
0.00013824
0.00013824
0.00013824
0.00013824
0.00013824
0.00013824
0.00013824
0.00013824
0.00013824
0.00013824
0.00013824
0.00013824
0.00013824
0.00013824
0.00013824
0.00013824
0.00013824
0.00013824
0.00013824
0.00013824
0.00013824
0.00013824
0.00013824
0.00013824
0.00013824
0.00013824
0.00013824
0.00013824
0.00013824
0.00013824
0.00013824
0.00013824
0.00013824
0.00013824
0.00013824
0.00013824
0.00013824
0.00013824
0.00013824
0.00013824
0.00013824
0.00013824
0.00013824
0.00013824
0.00013824
0.00013824
0.00013824
0.00013824
0.00013824
0.00013824
0.00013824
0.00013824
0.00013824
0.00013824
0.00013824
0.00013824
0.00013824
0.00013824
0.00013824
0.00013824
0.00013824
0.00013824
0.00013824
0.00013824
0.00013824
0.00013824
0.00013824
0.00013824
0.00013824
0.00013824
0.00013824
0.00013824
0.00013824
0.00013824
0.00013824
0.00013824
0.00013824
0.00013824
0.00013824
0.00013824
0.00013824
0.00013824
0.00013824
0.00013824
0.00013824
0.00013824
0.00013824