/*--------------------------------*- C++ -*----------------------------------*\
| =========                 |                                                 |
| \\      /  F ield         | OpenFOAM: The Open Source CFD Toolbox           |
|  \\    /   O peration     | Version:  2406                                  |
|   \\  /    A nd           | Website:  www.openfoam.com                      |
|    \\/     M anipulation  |                                                 |
\*---------------------------------------------------------------------------*/
FoamFile
{
    version     2.0;
    format      ascii;
    arch        "LSB;label=32;scalar=64";
    class       volScalarField;
    location    "1.55";
    object      C_0_0;
}
// * * * * * * * * * * * * * * * * * * * * * * * * * * * * * * * * * * * * * //

dimensions      [1 -3 0 0 0 0 0];

internalField   nonuniform List<scalar> 
14400
(
2.40389
2.40011
2.39219
2.37919
2.35685
2.3198
2.2874
2.27743
2.29354
2.3319
2.3737
2.40006
2.41724
2.42983
2.43876
2.44451
2.4473
2.44711
2.44369
2.43647
2.42438
2.40292
2.36737
2.33822
2.3327
2.35421
2.39889
2.44679
2.47858
2.50121
2.51999
2.53589
2.54955
2.56138
2.57168
2.58065
2.58845
2.5952
2.60099
2.60591
2.61
2.6133
2.61587
2.61773
2.61889
2.61938
2.6192
2.61837
2.61689
2.61476
2.61196
2.6085
2.60436
2.59951
2.59394
2.58762
2.58051
2.57256
2.56373
2.55395
2.54313
2.53119
2.518
2.50341
2.48721
2.46917
2.44892
2.42602
2.39978
2.36921
2.32723
2.26401
2.19736
2.14869
2.12091
2.11392
2.12761
2.16194
2.21416
2.26533
2.29736
2.31814
2.33375
2.34535
2.35367
2.35915
2.36208
2.36261
2.3608
2.3566
2.34985
2.34024
2.32724
2.30994
2.28422
2.2432
2.20401
2.18573
2.19245
2.22034
2.25224
2.26984
2.27823
2.28069
2.27769
2.26879
2.25069
2.21822
2.18956
2.18202
2.19949
2.23793
2.27837
2.30368
2.32067
2.33342
2.34288
2.34961
2.35394
2.35606
2.40766
2.40427
2.39726
2.38612
2.37009
2.34377
2.3143
2.30322
2.32046
2.35553
2.38632
2.4064
2.42183
2.43349
2.44192
2.44747
2.45028
2.45035
2.44749
2.44135
2.43133
2.41656
2.39168
2.36501
2.35848
2.38106
2.42245
2.45895
2.4841
2.50507
2.52285
2.53813
2.55138
2.56292
2.573
2.58182
2.5895
2.59615
2.60188
2.60673
2.61077
2.61405
2.61658
2.61842
2.61956
2.62004
2.61986
2.61903
2.61755
2.61542
2.61263
2.60918
2.60505
2.60023
2.59469
2.58841
2.58134
2.57345
2.56468
2.55498
2.54426
2.53244
2.5194
2.505
2.48907
2.47136
2.45159
2.42935
2.40409
2.37503
2.34086
2.2909
2.2275
2.17927
2.15217
2.14521
2.15823
2.19213
2.24136
2.28009
2.30448
2.3233
2.33775
2.34864
2.3565
2.3617
2.36447
2.36495
2.36319
2.35915
2.3527
2.34363
2.33155
2.31589
2.2958
2.26567
2.23052
2.21101
2.21903
2.24376
2.26533
2.27738
2.28415
2.28616
2.28359
2.27626
2.26367
2.24154
2.2161
2.20723
2.22591
2.26032
2.28989
2.30958
2.32489
2.33671
2.34562
2.35201
2.35614
2.35817
2.41482
2.41204
2.40644
2.39796
2.38672
2.37359
2.35687
2.34844
2.36286
2.38445
2.40189
2.41736
2.4302
2.44036
2.44798
2.45317
2.45601
2.45649
2.45456
2.4501
2.44301
2.43344
2.4223
2.40804
2.40389
2.42379
2.45083
2.4732
2.49379
2.5121
2.52823
2.54241
2.55491
2.56591
2.5756
2.58411
2.59156
2.59804
2.60362
2.60837
2.61232
2.61552
2.618
2.61979
2.6209
2.62136
2.62116
2.62032
2.61885
2.61673
2.61396
2.61054
2.60645
2.60167
2.59619
2.58997
2.58299
2.57521
2.56657
2.55702
2.54649
2.53491
2.52216
2.50814
2.49268
2.47562
2.45672
2.4357
2.41222
2.3859
2.35636
2.32361
2.28021
2.23675
2.21244
2.2056
2.21585
2.24476
2.2759
2.29806
2.31714
2.33282
2.34532
2.35495
2.36199
2.36667
2.36916
2.36954
2.36785
2.36409
2.35819
2.35002
2.33943
2.32625
2.31047
2.29265
2.27096
2.2548
2.26007
2.27281
2.28253
2.2902
2.29484
2.2962
2.29423
2.28899
2.28072
2.27039
2.25698
2.25087
2.26619
2.28721
2.3045
2.31983
2.33263
2.34291
2.35086
2.35666
2.36045
2.36232
2.42475
2.42265
2.41851
2.41254
2.40523
2.39773
2.39232
2.39076
2.39745
2.40752
2.41939
2.43097
2.44124
2.44979
2.45646
2.46122
2.46409
2.46506
2.46417
2.46147
2.45719
2.45187
2.44674
2.44428
2.44647
2.45783
2.47258
2.48922
2.50576
2.52131
2.53554
2.54839
2.55992
2.57021
2.57937
2.58747
2.5946
2.60083
2.60621
2.61079
2.61461
2.61771
2.62011
2.62184
2.6229
2.62332
2.62311
2.62226
2.62079
2.61868
2.61594
2.61256
2.60852
2.60382
2.59842
2.59231
2.58545
2.57782
2.56936
2.56004
2.54978
2.53853
2.5262
2.5127
2.49791
2.48172
2.46396
2.4445
2.4232
2.39998
2.37496
2.34876
2.32288
2.2959
2.27767
2.27103
2.27566
2.2897
2.3039
2.31903
2.33319
2.34553
2.35576
2.36384
2.36984
2.37385
2.37595
2.37618
2.37459
2.37118
2.36594
2.35884
2.3499
2.33922
2.32716
2.31463
2.30353
2.29541
2.29441
2.29715
2.30178
2.30605
2.30881
2.30956
2.30816
2.30475
2.29982
2.29451
2.29107
2.2913
2.29866
2.30911
2.32107
2.33262
2.34286
2.35144
2.35826
2.36333
2.36667
2.36834
2.43678
2.43528
2.43242
2.42846
2.42393
2.41977
2.4173
2.41793
2.42189
2.42877
2.43719
2.44589
2.45401
2.46108
2.46684
2.47118
2.47406
2.47549
2.47556
2.47443
2.47242
2.47011
2.4685
2.46906
2.47325
2.48125
2.49242
2.50533
2.51873
2.53184
2.54422
2.55569
2.56617
2.57566
2.58419
2.5918
2.59855
2.60446
2.60959
2.61397
2.61763
2.6206
2.62289
2.62454
2.62554
2.62592
2.62568
2.62483
2.62336
2.62127
2.61857
2.61524
2.61127
2.60665
2.60136
2.59538
2.58869
2.58125
2.57302
2.56398
2.55407
2.54323
2.53141
2.51854
2.50455
2.48936
2.47291
2.45515
2.43609
2.41584
2.39475
2.3735
2.35334
2.33604
2.3232
2.31691
2.31723
2.32233
2.33089
2.34095
2.35107
2.36035
2.36834
2.37481
2.37968
2.38294
2.38459
2.38465
2.38315
2.3801
2.37554
2.3695
2.3621
2.35356
2.34433
2.33516
2.32723
2.32179
2.31929
2.31958
2.32138
2.3234
2.32479
2.32507
2.3241
2.32202
2.31929
2.31678
2.31576
2.31751
2.32223
2.32949
2.33805
2.34673
2.35476
2.36173
2.36741
2.37171
2.37458
2.37602
2.4503
2.4493
2.44742
2.44493
2.44227
2.4401
2.43919
2.44023
2.44341
2.44848
2.45472
2.46137
2.46783
2.47368
2.47864
2.48259
2.48546
2.48729
2.48817
2.48827
2.48793
2.48764
2.48811
2.49019
2.4946
2.50149
2.51052
2.52094
2.53199
2.54309
2.55382
2.56397
2.5734
2.58206
2.58992
2.597
2.60331
2.60888
2.61372
2.61787
2.62134
2.62416
2.62633
2.62788
2.62881
2.62914
2.62887
2.628
2.62654
2.62448
2.62182
2.61855
2.61467
2.61015
2.60499
2.59917
2.59267
2.58546
2.57751
2.56879
2.55927
2.54891
2.53767
2.52551
2.51239
2.49828
2.48317
2.4671
2.45016
2.43256
2.41469
2.39716
2.3809
2.36704
2.35666
2.35071
2.34924
2.35145
2.35638
2.36283
2.36977
2.37647
2.38244
2.38738
2.39114
2.39363
2.39482
2.39469
2.39326
2.39055
2.3866
2.38152
2.37544
2.36861
2.36143
2.35446
2.34842
2.34396
2.34137
2.3405
2.34075
2.3414
2.34187
2.34182
2.34114
2.33994
2.33855
2.33756
2.33767
2.33951
2.34324
2.34858
2.35489
2.36147
2.36773
2.37331
2.37795
2.38151
2.38392
2.38513
2.46481
2.46418
2.46303
2.46157
2.46014
2.45916
2.45912
2.46038
2.46306
2.467
2.47183
2.47706
2.48227
2.48715
2.49146
2.49506
2.49792
2.50005
2.50153
2.50256
2.50339
2.50441
2.50611
2.509
2.51346
2.51959
2.52722
2.53592
2.54522
2.55469
2.56402
2.57297
2.58141
2.58925
2.59644
2.60297
2.60883
2.61402
2.61855
2.62244
2.62571
2.62835
2.63039
2.63183
2.63269
2.63296
2.63266
2.63178
2.63032
2.62829
2.62568
2.62248
2.61869
2.6143
2.60929
2.60364
2.59736
2.5904
2.58276
2.5744
2.56532
2.55547
2.54485
2.53343
2.52121
2.50818
2.49439
2.47992
2.46489
2.44956
2.43427
2.41955
2.40606
2.39455
2.38571
2.38003
2.37755
2.37787
2.38035
2.3842
2.38872
2.39332
2.39755
2.40113
2.40386
2.40563
2.40636
2.40603
2.40464
2.40222
2.39881
2.39453
2.38952
2.384
2.37831
2.37283
2.36803
2.36426
2.36172
2.36031
2.35973
2.35957
2.35948
2.35921
2.35871
2.35803
2.35742
2.35722
2.35785
2.35962
2.36263
2.36671
2.37148
2.37651
2.38139
2.38582
2.38956
2.39247
2.39445
2.39545
2.47996
2.47959
2.47895
2.47818
2.47754
2.4773
2.47775
2.4791
2.48144
2.48465
2.48852
2.49275
2.49706
2.50119
2.50497
2.50829
2.51111
2.51344
2.51536
2.51703
2.51865
2.52051
2.52293
2.52623
2.53063
2.53621
2.54285
2.5503
2.55826
2.56644
2.57458
2.58248
2.59002
2.59709
2.60363
2.60961
2.615
2.61981
2.62402
2.62765
2.63069
2.63315
2.63505
2.63637
2.63714
2.63735
2.63701
2.63612
2.63468
2.63268
2.63012
2.62701
2.62332
2.61906
2.61421
2.60876
2.60271
2.59603
2.58871
2.58075
2.57212
2.56281
2.55283
2.54216
2.53082
2.51885
2.5063
2.49328
2.47994
2.4665
2.45329
2.4407
2.42923
2.41938
2.41159
2.40615
2.40308
2.40214
2.40292
2.40492
2.4076
2.41052
2.41332
2.41573
2.41755
2.41865
2.41896
2.41843
2.41706
2.41487
2.4119
2.40827
2.4041
2.39958
2.39497
2.39054
2.38659
2.38334
2.38092
2.37929
2.37829
2.37768
2.37724
2.37685
2.37644
2.37606
2.37586
2.37606
2.37689
2.3785
2.38095
2.38413
2.38781
2.3917
2.39551
2.39901
2.402
2.40435
2.40596
2.40678
2.49546
2.49528
2.49498
2.49468
2.49453
2.49474
2.49547
2.49685
2.49893
2.50165
2.50486
2.50838
2.51201
2.51557
2.51894
2.52202
2.52478
2.52724
2.52945
2.53154
2.53367
2.53604
2.53887
2.54235
2.54664
2.55176
2.55766
2.56417
2.5711
2.57823
2.58537
2.59237
2.59909
2.60545
2.61137
2.61682
2.62177
2.62619
2.63008
2.63343
2.63625
2.63852
2.64026
2.64147
2.64215
2.6423
2.64192
2.64102
2.63958
2.63762
2.63513
2.6321
2.62852
2.6244
2.61973
2.61449
2.60868
2.6023
2.59532
2.58776
2.57959
2.57083
2.56148
2.55155
2.54107
2.53009
2.51869
2.50696
2.49507
2.48322
2.47167
2.46074
2.45079
2.44215
2.43512
2.42989
2.42646
2.42469
2.42429
2.42493
2.42623
2.42785
2.42949
2.43091
2.43195
2.43247
2.4324
2.43168
2.4303
2.42828
2.42567
2.42254
2.41902
2.41526
2.41144
2.40777
2.40444
2.4016
2.39934
2.39765
2.39645
2.3956
2.39498
2.3945
2.39413
2.39391
2.39391
2.39428
2.39513
2.39655
2.39855
2.40106
2.40393
2.40696
2.40994
2.4127
2.41508
2.41696
2.41826
2.41893
2.51115
2.51109
2.51102
2.51101
2.51118
2.51165
2.51253
2.5139
2.51578
2.51814
2.52089
2.52389
2.52702
2.53015
2.53319
2.53607
2.53876
2.54128
2.54367
2.54602
2.54846
2.55112
2.55415
2.55768
2.5618
2.56654
2.57185
2.57762
2.58372
2.59
2.59631
2.60252
2.60853
2.61424
2.6196
2.62455
2.62906
2.6331
2.63667
2.63975
2.64234
2.64443
2.64601
2.6471
2.64769
2.64777
2.64736
2.64644
2.64502
2.6431
2.64067
2.63773
2.63427
2.6303
2.62581
2.62079
2.61523
2.60915
2.60252
2.59536
2.58767
2.57944
2.57071
2.56149
2.55182
2.54176
2.53139
2.52081
2.51017
2.49964
2.48944
2.47981
2.47102
2.4633
2.45687
2.45182
2.44819
2.44585
2.44463
2.44429
2.44455
2.44515
2.44586
2.44649
2.44687
2.44689
2.44648
2.44558
2.44418
2.44228
2.43994
2.43721
2.43419
2.43099
2.42777
2.42465
2.42179
2.41928
2.41719
2.41553
2.41425
2.41328
2.41256
2.41204
2.41168
2.41152
2.41161
2.41201
2.41279
2.414
2.41563
2.41763
2.41988
2.42225
2.4246
2.42678
2.42866
2.43016
2.4312
2.43173
2.52689
2.52691
2.52699
2.52717
2.52753
2.52815
2.5291
2.53043
2.53216
2.53425
2.53665
2.53928
2.54203
2.54483
2.5476
2.55031
2.55291
2.55544
2.55792
2.56041
2.56301
2.56582
2.56892
2.57242
2.57635
2.58075
2.58557
2.59074
2.59617
2.60174
2.60735
2.61289
2.61826
2.62339
2.62822
2.63271
2.63681
2.6405
2.64375
2.64657
2.64893
2.65083
2.65226
2.65323
2.65372
2.65374
2.65329
2.65236
2.65096
2.64908
2.64671
2.64387
2.64054
2.63672
2.63241
2.62761
2.62232
2.61653
2.61026
2.6035
2.59626
2.58856
2.58043
2.57188
2.56296
2.55374
2.5443
2.53472
2.52515
2.51573
2.50663
2.49804
2.49017
2.48318
2.47722
2.47236
2.4686
2.4659
2.4641
2.46304
2.46252
2.46234
2.46232
2.4623
2.46214
2.46175
2.46104
2.45998
2.45854
2.45674
2.4546
2.45217
2.44952
2.44676
2.44398
2.44128
2.43878
2.43654
2.43461
2.43302
2.43173
2.43073
2.42996
2.4294
2.42904
2.42889
2.42898
2.42935
2.43003
2.43103
2.43236
2.43394
2.43572
2.43758
2.43942
2.44114
2.44263
2.44382
2.44465
2.44507
2.54261
2.54268
2.54285
2.54314
2.54361
2.54432
2.54529
2.54658
2.54817
2.55006
2.55219
2.55453
2.55699
2.55953
2.56209
2.56463
2.56715
2.56964
2.57214
2.5747
2.57736
2.58021
2.58331
2.58671
2.59045
2.59453
2.59893
2.6036
2.60847
2.61345
2.61846
2.62341
2.62822
2.63284
2.63719
2.64125
2.64496
2.64832
2.65128
2.65384
2.65598
2.6577
2.65898
2.65983
2.66023
2.66019
2.6597
2.65876
2.65738
2.65554
2.65324
2.65049
2.64729
2.64363
2.63951
2.63493
2.6299
2.62441
2.61848
2.61211
2.60532
2.59812
2.59055
2.58263
2.57441
2.56595
2.55733
2.54864
2.53998
2.53149
2.5233
2.51557
2.50844
2.50203
2.49646
2.49177
2.48798
2.48503
2.48283
2.48125
2.48015
2.47938
2.47878
2.47825
2.47765
2.47691
2.47596
2.47475
2.47328
2.47153
2.46954
2.46734
2.46498
2.46254
2.4601
2.45773
2.4555
2.45348
2.45171
2.45019
2.44894
2.44793
2.44714
2.44656
2.44619
2.44602
2.44608
2.44638
2.44694
2.44775
2.44881
2.45006
2.45146
2.45293
2.45437
2.45572
2.4569
2.45784
2.45849
2.45883
2.55825
2.55836
2.55858
2.55894
2.55947
2.56021
2.56118
2.5624
2.56388
2.5656
2.56754
2.56965
2.57188
2.57421
2.57658
2.57899
2.5814
2.58384
2.58632
2.58887
2.59153
2.59436
2.59739
2.60066
2.60419
2.60799
2.61203
2.61627
2.62066
2.62514
2.62963
2.63407
2.63839
2.64254
2.64646
2.65013
2.65349
2.65652
2.65921
2.66152
2.66346
2.665
2.66613
2.66686
2.66718
2.66708
2.66656
2.66561
2.66424
2.66245
2.66023
2.65758
2.6545
2.65099
2.64706
2.6427
2.63792
2.63273
2.62714
2.62115
2.61478
2.60806
2.60101
2.59368
2.58609
2.57832
2.57043
2.56251
2.55464
2.54694
2.53952
2.53249
2.52597
2.52005
2.51482
2.5103
2.50651
2.50341
2.50093
2.49898
2.49745
2.49623
2.49519
2.49425
2.4933
2.49228
2.49112
2.4898
2.48828
2.48657
2.48469
2.48266
2.48052
2.47833
2.47614
2.47402
2.47202
2.47018
2.46854
2.46711
2.4659
2.4649
2.46411
2.46352
2.46313
2.46293
2.46294
2.46315
2.46359
2.46423
2.46506
2.46604
2.46714
2.46828
2.46942
2.47048
2.4714
2.47214
2.47266
2.47292
2.5738
2.57392
2.57416
2.57456
2.57512
2.57586
2.57681
2.57798
2.57936
2.58094
2.58271
2.58463
2.58669
2.58883
2.59105
2.59332
2.59564
2.598
2.60042
2.60293
2.60554
2.6083
2.61123
2.61435
2.61768
2.6212
2.62492
2.62879
2.63276
2.6368
2.64084
2.64484
2.64873
2.65246
2.656
2.6593
2.66234
2.66508
2.6675
2.66959
2.67132
2.67269
2.67369
2.67431
2.67455
2.67439
2.67384
2.67289
2.67154
2.66979
2.66764
2.66508
2.66213
2.65878
2.65503
2.65089
2.64636
2.64146
2.63618
2.63056
2.6246
2.61832
2.61177
2.60497
2.59796
2.59081
2.58357
2.57632
2.56914
2.56211
2.55534
2.5489
2.5429
2.5374
2.53245
2.5281
2.52435
2.52116
2.5185
2.51628
2.51444
2.51288
2.51151
2.51025
2.50903
2.50778
2.50646
2.50503
2.50348
2.50179
2.49999
2.49808
2.49611
2.49411
2.49212
2.4902
2.48837
2.48668
2.48515
2.4838
2.48264
2.48167
2.48089
2.48029
2.47987
2.47963
2.47958
2.47971
2.48003
2.48051
2.48115
2.48191
2.48276
2.48366
2.48454
2.48536
2.48609
2.48667
2.48707
2.48728
2.58922
2.58934
2.58961
2.59001
2.59058
2.59131
2.59223
2.59333
2.59462
2.59609
2.59772
2.5995
2.60139
2.60339
2.60547
2.60761
2.60982
2.61209
2.61444
2.61687
2.6194
2.62207
2.62487
2.62783
2.63095
2.63423
2.63765
2.64119
2.64481
2.64846
2.65211
2.65571
2.65921
2.66258
2.66577
2.66875
2.67148
2.67395
2.67613
2.678
2.67955
2.68077
2.68163
2.68215
2.6823
2.68209
2.68151
2.68056
2.67923
2.67753
2.67545
2.67299
2.67016
2.66696
2.6634
2.65947
2.65518
2.65055
2.64559
2.6403
2.63472
2.62887
2.62277
2.61646
2.60998
2.60338
2.59672
2.59007
2.58348
2.57703
2.57081
2.56488
2.55932
2.55418
2.5495
2.54531
2.54161
2.53839
2.53561
2.53322
2.53115
2.52934
2.52772
2.52622
2.52478
2.52336
2.5219
2.52039
2.5188
2.51713
2.51538
2.51357
2.51173
2.50987
2.50804
2.50627
2.50458
2.50301
2.50158
2.50031
2.4992
2.49825
2.49747
2.49686
2.49642
2.49615
2.49603
2.49608
2.49629
2.49664
2.49712
2.4977
2.49835
2.49903
2.49971
2.50035
2.50091
2.50136
2.50168
2.50184
2.60451
2.60464
2.6049
2.60531
2.60586
2.60658
2.60745
2.6085
2.60971
2.61107
2.61259
2.61423
2.616
2.61786
2.61981
2.62184
2.62394
2.62612
2.62837
2.63071
2.63314
2.63569
2.63836
2.64115
2.64408
2.64712
2.65027
2.65351
2.65681
2.66012
2.66343
2.66668
2.66984
2.67287
2.67575
2.67843
2.68089
2.68311
2.68507
2.68674
2.68812
2.68918
2.68993
2.69034
2.69042
2.69016
2.68956
2.6886
2.6873
2.68564
2.68363
2.68127
2.67857
2.67551
2.67212
2.66839
2.66434
2.65997
2.6553
2.65035
2.64512
2.63966
2.63398
2.62812
2.62212
2.61602
2.60987
2.60374
2.59767
2.59173
2.58599
2.5805
2.57532
2.57049
2.56605
2.56202
2.5584
2.55519
2.55234
2.54983
2.54761
2.54562
2.54381
2.54213
2.54053
2.53896
2.5374
2.53582
2.5342
2.53254
2.53084
2.5291
2.52735
2.52561
2.5239
2.52225
2.52068
2.51921
2.51786
2.51665
2.51558
2.51466
2.51389
2.51328
2.51281
2.51249
2.51233
2.5123
2.51241
2.51264
2.51298
2.51341
2.5139
2.51441
2.51493
2.51542
2.51585
2.5162
2.51644
2.51656
2.61966
2.61979
2.62006
2.62045
2.62099
2.62168
2.62251
2.6235
2.62463
2.62591
2.62732
2.62885
2.6305
2.63224
2.63408
2.636
2.63799
2.64006
2.64221
2.64444
2.64677
2.64919
2.65171
2.65434
2.65707
2.6599
2.66281
2.66578
2.66878
2.6718
2.6748
2.67774
2.68059
2.68333
2.68592
2.68833
2.69055
2.69254
2.69428
2.69577
2.69699
2.69792
2.69855
2.69887
2.69888
2.69858
2.69795
2.697
2.69571
2.69411
2.69217
2.6899
2.68731
2.68441
2.68118
2.67765
2.67382
2.6697
2.6653
2.66065
2.65576
2.65066
2.64536
2.63992
2.63435
2.6287
2.62301
2.61734
2.61173
2.60624
2.60091
2.59581
2.59096
2.58642
2.5822
2.57832
2.57479
2.5716
2.56873
2.56615
2.56382
2.56171
2.55977
2.55795
2.55623
2.55456
2.55292
2.55129
2.54964
2.54799
2.54632
2.54464
2.54297
2.54132
2.53971
2.53815
2.53667
2.53528
2.53401
2.53285
2.53182
2.53092
2.53016
2.52953
2.52905
2.5287
2.52847
2.52838
2.5284
2.52854
2.52876
2.52906
2.52941
2.52979
2.53018
2.53054
2.53087
2.53113
2.53132
2.53141
2.63469
2.63482
2.63507
2.63546
2.63598
2.63663
2.63742
2.63835
2.63941
2.64061
2.64193
2.64336
2.6449
2.64654
2.64826
2.65007
2.65196
2.65393
2.65597
2.65809
2.6603
2.66259
2.66496
2.66743
2.66998
2.6726
2.67528
2.678
2.68075
2.6835
2.68622
2.68888
2.69146
2.69393
2.69626
2.69843
2.70042
2.7022
2.70376
2.70508
2.70614
2.70695
2.70747
2.70771
2.70766
2.70731
2.70667
2.70572
2.70446
2.7029
2.70103
2.69885
2.69638
2.69361
2.69055
2.6872
2.68358
2.6797
2.67556
2.6712
2.66662
2.66185
2.65691
2.65183
2.64666
2.64141
2.63614
2.63088
2.62568
2.62058
2.61562
2.61085
2.60631
2.60202
2.598
2.59427
2.59084
2.5877
2.58483
2.58222
2.57983
2.57763
2.57559
2.57369
2.57187
2.57013
2.56843
2.56676
2.5651
2.56345
2.56181
2.56018
2.55857
2.55699
2.55545
2.55397
2.55257
2.55125
2.55003
2.54891
2.54792
2.54704
2.54629
2.54566
2.54515
2.54476
2.5445
2.54434
2.54429
2.54434
2.54446
2.54465
2.54489
2.54516
2.54544
2.54571
2.54595
2.54614
2.54628
2.54635
2.64959
2.64971
2.64996
2.65033
2.65082
2.65144
2.65219
2.65307
2.65407
2.65518
2.65642
2.65776
2.6592
2.66074
2.66236
2.66407
2.66585
2.66771
2.66964
2.67165
2.67374
2.67589
2.67813
2.68043
2.6828
2.68523
2.6877
2.6902
2.69272
2.69522
2.69769
2.70011
2.70244
2.70467
2.70677
2.70872
2.7105
2.71209
2.71347
2.71464
2.71557
2.71625
2.71668
2.71684
2.71673
2.71635
2.71569
2.71474
2.71351
2.71199
2.71019
2.70811
2.70574
2.7031
2.7002
2.69703
2.69361
2.68994
2.68605
2.68195
2.67766
2.6732
2.66859
2.66385
2.65903
2.65415
2.64925
2.64436
2.63952
2.63476
2.63014
2.62567
2.6214
2.61734
2.61351
2.60993
2.6066
2.60352
2.60068
2.59806
2.59563
2.59339
2.59129
2.58932
2.58745
2.58565
2.58391
2.58221
2.58055
2.57891
2.57729
2.5757
2.57413
2.57261
2.57114
2.56972
2.56838
2.56711
2.56594
2.56487
2.5639
2.56304
2.56229
2.56165
2.56113
2.56071
2.5604
2.5602
2.56008
2.56005
2.56009
2.5602
2.56035
2.56052
2.56071
2.5609
2.56107
2.56121
2.56131
2.56136
2.66437
2.66448
2.66472
2.66507
2.66554
2.66613
2.66683
2.66766
2.66859
2.66964
2.6708
2.67206
2.67341
2.67485
2.67638
2.67799
2.67967
2.68142
2.68324
2.68514
2.6871
2.68913
2.69122
2.69337
2.69557
2.69782
2.7001
2.70239
2.70469
2.70698
2.70922
2.71141
2.71352
2.71553
2.71742
2.71917
2.72076
2.72218
2.72341
2.72443
2.72523
2.72581
2.72615
2.72624
2.72608
2.72567
2.72499
2.72405
2.72284
2.72137
2.71964
2.71764
2.71538
2.71287
2.71011
2.7071
2.70387
2.70042
2.69676
2.6929
2.68888
2.6847
2.68038
2.67596
2.67146
2.66691
2.66234
2.65778
2.65327
2.64883
2.6445
2.6403
2.63627
2.63242
2.62877
2.62533
2.62211
2.6191
2.6163
2.61369
2.61126
2.609
2.60687
2.60486
2.60295
2.60112
2.59935
2.59764
2.59597
2.59434
2.59274
2.59118
2.58966
2.58818
2.58676
2.5854
2.5841
2.58288
2.58175
2.58071
2.57977
2.57892
2.57818
2.57753
2.57699
2.57655
2.57621
2.57596
2.57579
2.57569
2.57567
2.5757
2.57577
2.57587
2.57599
2.57611
2.57622
2.57632
2.57639
2.57642
2.67902
2.67913
2.67936
2.67969
2.68013
2.68069
2.68136
2.68213
2.68301
2.684
2.68508
2.68626
2.68753
2.68888
2.69032
2.69183
2.69341
2.69506
2.69677
2.69855
2.7004
2.7023
2.70425
2.70625
2.7083
2.71037
2.71247
2.71458
2.71668
2.71877
2.72081
2.72279
2.7247
2.72651
2.72821
2.72978
2.73121
2.73246
2.73355
2.73444
2.73513
2.7356
2.73586
2.73589
2.73569
2.73524
2.73455
2.73362
2.73244
2.73102
2.72934
2.72743
2.72527
2.72288
2.72025
2.71741
2.71435
2.71109
2.70765
2.70402
2.70024
2.69633
2.69229
2.68815
2.68395
2.6797
2.67542
2.67116
2.66694
2.66278
2.65872
2.65477
2.65096
2.6473
2.64382
2.64052
2.63741
2.63448
2.63173
2.62915
2.62673
2.62446
2.62232
2.62029
2.61836
2.61651
2.61474
2.61302
2.61135
2.60973
2.60816
2.60662
2.60514
2.6037
2.60232
2.601
2.59975
2.59857
2.59747
2.59646
2.59553
2.5947
2.59396
2.59331
2.59276
2.5923
2.59192
2.59163
2.59141
2.59127
2.59118
2.59115
2.59116
2.5912
2.59126
2.59133
2.59139
2.59145
2.5915
2.59152
2.69357
2.69367
2.69388
2.6942
2.69462
2.69514
2.69577
2.6965
2.69732
2.69825
2.69926
2.70037
2.70156
2.70283
2.70417
2.70559
2.70708
2.70863
2.71024
2.71191
2.71363
2.71541
2.71723
2.71909
2.72098
2.7229
2.72484
2.72677
2.72869
2.73059
2.73245
2.73425
2.73597
2.73761
2.73914
2.74054
2.74181
2.74292
2.74387
2.74465
2.74523
2.74562
2.7458
2.74577
2.74553
2.74506
2.74436
2.74344
2.74229
2.7409
2.73929
2.73745
2.73539
2.73311
2.73062
2.72793
2.72504
2.72196
2.71871
2.7153
2.71175
2.70807
2.70429
2.70041
2.69648
2.69249
2.6885
2.68451
2.68055
2.67664
2.67282
2.66909
2.66549
2.66201
2.65869
2.65552
2.65252
2.64967
2.64698
2.64445
2.64206
2.6398
2.63766
2.63563
2.63369
2.63184
2.63006
2.62834
2.62669
2.62508
2.62353
2.62202
2.62057
2.61917
2.61782
2.61654
2.61532
2.61418
2.61311
2.61212
2.61121
2.61039
2.60965
2.609
2.60843
2.60795
2.60755
2.60722
2.60697
2.60678
2.60665
2.60656
2.60652
2.60651
2.60652
2.60654
2.60657
2.6066
2.60662
2.60664
2.70801
2.70811
2.70831
2.7086
2.709
2.70949
2.71008
2.71076
2.71154
2.7124
2.71336
2.71439
2.71551
2.7167
2.71796
2.71929
2.72068
2.72214
2.72365
2.72521
2.72682
2.72847
2.73017
2.7319
2.73365
2.73542
2.7372
2.73897
2.74073
2.74246
2.74415
2.74578
2.74734
2.74881
2.75018
2.75144
2.75256
2.75354
2.75437
2.75504
2.75553
2.75584
2.75596
2.75587
2.75559
2.7551
2.7544
2.75349
2.75236
2.75102
2.74947
2.7477
2.74573
2.74356
2.7412
2.73864
2.7359
2.733
2.72993
2.72672
2.72338
2.71993
2.71637
2.71274
2.70904
2.70531
2.70156
2.69782
2.6941
2.69042
2.68682
2.6833
2.67988
2.67658
2.6734
2.67036
2.66746
2.6647
2.66208
2.6596
2.65724
2.65501
2.65289
2.65087
2.64894
2.64709
2.64532
2.64361
2.64197
2.64038
2.63885
2.63737
2.63594
2.63457
2.63326
2.63201
2.63082
2.6297
2.62866
2.62769
2.6268
2.62599
2.62525
2.6246
2.62402
2.62353
2.6231
2.62275
2.62246
2.62223
2.62206
2.62193
2.62185
2.62179
2.62176
2.62175
2.62175
2.62175
2.62176
2.62176
2.72235
2.72244
2.72263
2.72291
2.72328
2.72374
2.72429
2.72494
2.72566
2.72647
2.72737
2.72834
2.72938
2.7305
2.73168
2.73292
2.73423
2.73559
2.737
2.73846
2.73996
2.7415
2.74307
2.74467
2.74629
2.74793
2.74956
2.75119
2.75279
2.75437
2.7559
2.75738
2.75879
2.76011
2.76134
2.76246
2.76345
2.76432
2.76504
2.76561
2.76601
2.76625
2.7663
2.76618
2.76586
2.76535
2.76465
2.76375
2.76265
2.76135
2.75985
2.75816
2.75628
2.75421
2.75196
2.74953
2.74694
2.74419
2.7413
2.73828
2.73513
2.73188
2.72853
2.72512
2.72165
2.71814
2.71462
2.7111
2.7076
2.70414
2.70073
2.6974
2.69416
2.69101
2.68798
2.68506
2.68227
2.6796
2.67705
2.67462
2.67231
2.67011
2.66801
2.66601
2.6641
2.66227
2.66051
2.65882
2.65719
2.65562
2.65411
2.65266
2.65126
2.64991
2.64863
2.64741
2.64625
2.64516
2.64414
2.64319
2.64231
2.6415
2.64077
2.64012
2.63953
2.63902
2.63858
2.63821
2.63789
2.63763
2.63742
2.63726
2.63714
2.63705
2.63699
2.63695
2.63692
2.6369
2.6369
2.63689
2.73659
2.73668
2.73686
2.73712
2.73747
2.7379
2.73842
2.73902
2.7397
2.74046
2.7413
2.7422
2.74318
2.74423
2.74533
2.74649
2.74771
2.74898
2.7503
2.75166
2.75306
2.75449
2.75595
2.75743
2.75893
2.76043
2.76193
2.76342
2.76489
2.76632
2.76771
2.76905
2.77032
2.77151
2.7726
2.7736
2.77448
2.77524
2.77586
2.77634
2.77667
2.77683
2.77684
2.77667
2.77632
2.7758
2.77509
2.7742
2.77313
2.77187
2.77043
2.7688
2.767
2.76503
2.76289
2.76059
2.75813
2.75554
2.7528
2.74995
2.74698
2.74392
2.74077
2.73756
2.73429
2.73099
2.72768
2.72436
2.72106
2.71779
2.71457
2.71141
2.70833
2.70534
2.70243
2.69964
2.69694
2.69436
2.69189
2.68953
2.68727
2.68511
2.68304
2.68107
2.67918
2.67737
2.67563
2.67396
2.67235
2.67081
2.66932
2.66789
2.66652
2.6652
2.66394
2.66275
2.66161
2.66055
2.65954
2.65861
2.65774
2.65695
2.65622
2.65556
2.65497
2.65445
2.65399
2.6536
2.65326
2.65298
2.65274
2.65255
2.6524
2.65228
2.65219
2.65213
2.65208
2.65205
2.65203
2.65202
2.75075
2.75083
2.751
2.75124
2.75157
2.75198
2.75246
2.75302
2.75366
2.75437
2.75515
2.756
2.75692
2.75789
2.75892
2.76001
2.76115
2.76233
2.76356
2.76483
2.76613
2.76745
2.76881
2.77017
2.77155
2.77293
2.77431
2.77567
2.77701
2.77832
2.77958
2.78079
2.78193
2.78299
2.78397
2.78485
2.78563
2.78629
2.78682
2.78722
2.78747
2.78758
2.78754
2.78733
2.78696
2.78643
2.78572
2.78484
2.78379
2.78257
2.78118
2.77963
2.7779
2.77602
2.77398
2.7718
2.76947
2.76701
2.76442
2.76173
2.75893
2.75604
2.75307
2.75004
2.74697
2.74386
2.74073
2.7376
2.73448
2.73139
2.72835
2.72535
2.72242
2.71956
2.71679
2.7141
2.71151
2.70902
2.70662
2.70432
2.70212
2.70001
2.69798
2.69604
2.69418
2.6924
2.69069
2.68904
2.68745
2.68593
2.68447
2.68306
2.68171
2.68042
2.67919
2.67802
2.67691
2.67586
2.67488
2.67396
2.6731
2.67232
2.67159
2.67094
2.67034
2.66981
2.66935
2.66893
2.66858
2.66827
2.66802
2.6678
2.66762
2.66748
2.66737
2.66728
2.66722
2.66718
2.66715
2.66713
2.76482
2.7649
2.76505
2.76528
2.76559
2.76597
2.76642
2.76695
2.76755
2.76821
2.76894
2.76973
2.77059
2.7715
2.77246
2.77348
2.77454
2.77564
2.77678
2.77796
2.77916
2.78039
2.78164
2.7829
2.78417
2.78544
2.7867
2.78795
2.78917
2.79035
2.7915
2.79259
2.79361
2.79457
2.79544
2.79622
2.79689
2.79746
2.79791
2.79824
2.79843
2.79849
2.7984
2.79816
2.79777
2.79722
2.79652
2.79565
2.79463
2.79345
2.79211
2.79061
2.78896
2.78717
2.78523
2.78315
2.78094
2.7786
2.77616
2.77361
2.77096
2.76823
2.76543
2.76258
2.75967
2.75674
2.75379
2.75083
2.74788
2.74496
2.74207
2.73922
2.73643
2.73371
2.73105
2.72848
2.72598
2.72358
2.72126
2.71902
2.71688
2.71482
2.71284
2.71094
2.70911
2.70736
2.70567
2.70405
2.70249
2.701
2.69956
2.69818
2.69685
2.69559
2.69438
2.69323
2.69215
2.69112
2.69015
2.68924
2.6884
2.68762
2.6869
2.68625
2.68565
2.68512
2.68464
2.68421
2.68384
2.68352
2.68324
2.68301
2.68281
2.68265
2.68252
2.68242
2.68234
2.68229
2.68225
2.68223
2.77882
2.77889
2.77903
2.77925
2.77953
2.77989
2.78031
2.78081
2.78136
2.78198
2.78267
2.78341
2.7842
2.78505
2.78595
2.78689
2.78788
2.7889
2.78996
2.79106
2.79217
2.79331
2.79446
2.79563
2.79679
2.79796
2.79911
2.80025
2.80136
2.80243
2.80347
2.80445
2.80537
2.80622
2.80699
2.80768
2.80827
2.80876
2.80913
2.80939
2.80953
2.80953
2.8094
2.80914
2.80873
2.80817
2.80747
2.80662
2.80563
2.80448
2.80319
2.80175
2.80017
2.79845
2.7966
2.79463
2.79253
2.79031
2.788
2.78558
2.78308
2.7805
2.77785
2.77515
2.77241
2.76964
2.76685
2.76405
2.76126
2.75849
2.75574
2.75304
2.75038
2.74778
2.74524
2.74277
2.74037
2.73805
2.7358
2.73364
2.73155
2.72954
2.72761
2.72575
2.72396
2.72224
2.72059
2.719
2.71747
2.716
2.71459
2.71323
2.71194
2.7107
2.70951
2.70839
2.70732
2.70631
2.70536
2.70446
2.70363
2.70286
2.70215
2.70149
2.7009
2.70036
2.69987
2.69944
2.69906
2.69872
2.69843
2.69818
2.69797
2.69779
2.69765
2.69753
2.69744
2.69738
2.69733
2.69731
2.79274
2.7928
2.79294
2.79314
2.79341
2.79374
2.79414
2.7946
2.79512
2.79569
2.79633
2.79702
2.79776
2.79855
2.79939
2.80026
2.80118
2.80213
2.80312
2.80413
2.80516
2.80621
2.80728
2.80835
2.80942
2.81048
2.81154
2.81257
2.81358
2.81456
2.81549
2.81637
2.81719
2.81795
2.81863
2.81923
2.81974
2.82016
2.82047
2.82067
2.82075
2.82071
2.82055
2.82026
2.81983
2.81927
2.81858
2.81774
2.81677
2.81566
2.81441
2.81303
2.81151
2.80987
2.80811
2.80622
2.80423
2.80213
2.79993
2.79764
2.79527
2.79283
2.79033
2.78777
2.78518
2.78255
2.77991
2.77726
2.77462
2.77198
2.76938
2.7668
2.76427
2.76178
2.75935
2.75698
2.75467
2.75244
2.75027
2.74817
2.74615
2.74419
2.74231
2.7405
2.73875
2.73706
2.73544
2.73388
2.73238
2.73094
2.72956
2.72823
2.72696
2.72574
2.72458
2.72348
2.72243
2.72144
2.7205
2.71963
2.7188
2.71804
2.71733
2.71668
2.71609
2.71554
2.71505
2.71461
2.71422
2.71388
2.71357
2.71331
2.71309
2.7129
2.71274
2.71261
2.71251
2.71244
2.7124
2.71237
2.80659
2.80665
2.80678
2.80697
2.80722
2.80753
2.8079
2.80832
2.80881
2.80935
2.80994
2.81058
2.81127
2.81201
2.81278
2.8136
2.81445
2.81533
2.81624
2.81718
2.81813
2.8191
2.82008
2.82106
2.82204
2.82302
2.82398
2.82492
2.82584
2.82672
2.82756
2.82835
2.82908
2.82975
2.83035
2.83088
2.83131
2.83166
2.83191
2.83206
2.83209
2.83202
2.83182
2.83151
2.83107
2.83051
2.82981
2.82899
2.82805
2.82697
2.82576
2.82444
2.82298
2.82141
2.81973
2.81793
2.81604
2.81404
2.81195
2.80978
2.80753
2.80522
2.80285
2.80043
2.79797
2.79549
2.79298
2.79047
2.78796
2.78546
2.78298
2.78052
2.77811
2.77573
2.7734
2.77113
2.76891
2.76676
2.76466
2.76264
2.76067
2.75877
2.75694
2.75517
2.75346
2.75182
2.75024
2.74871
2.74724
2.74583
2.74447
2.74317
2.74193
2.74073
2.7396
2.73851
2.73748
2.73651
2.73559
2.73473
2.73392
2.73316
2.73246
2.73181
2.73122
2.73068
2.73018
2.72974
2.72934
2.72899
2.72867
2.7284
2.72817
2.72797
2.7278
2.72767
2.72756
2.72748
2.72743
2.72741
2.82038
2.82044
2.82055
2.82073
2.82096
2.82125
2.8216
2.82199
2.82244
2.82295
2.8235
2.82409
2.82474
2.82542
2.82614
2.82689
2.82768
2.8285
2.82934
2.8302
2.83108
2.83198
2.83288
2.83378
2.83468
2.83557
2.83644
2.8373
2.83813
2.83892
2.83968
2.84038
2.84104
2.84163
2.84215
2.8426
2.84298
2.84326
2.84346
2.84355
2.84355
2.84344
2.84322
2.84288
2.84243
2.84187
2.84118
2.84038
2.83945
2.83841
2.83724
2.83596
2.83457
2.83307
2.83146
2.82975
2.82794
2.82604
2.82405
2.82199
2.81986
2.81767
2.81542
2.81312
2.81079
2.80844
2.80606
2.80368
2.80129
2.79891
2.79655
2.79421
2.7919
2.78963
2.7874
2.78522
2.78309
2.78101
2.77899
2.77703
2.77513
2.77329
2.77151
2.76978
2.76812
2.76651
2.76497
2.76348
2.76204