/*--------------------------------*- C++ -*----------------------------------*\
| =========                 |                                                 |
| \\      /  F ield         | OpenFOAM: The Open Source CFD Toolbox           |
|  \\    /   O peration     | Version:  2406                                  |
|   \\  /    A nd           | Website:  www.openfoam.com                      |
|    \\/     M anipulation  |                                                 |
\*---------------------------------------------------------------------------*/
FoamFile
{
    version     2.0;
    format      ascii;
    arch        "LSB;label=32;scalar=64";
    class       volScalarField;
    location    "7.6";
    object      Da;
}
// * * * * * * * * * * * * * * * * * * * * * * * * * * * * * * * * * * * * * //

dimensions      [0 2 -1 0 0 0 0];

internalField   nonuniform List<scalar> 
14400
(
4.73989e-05
4.73662e-05
4.73166e-05
4.72664e-05
4.72249e-05
4.71951e-05
4.71768e-05
4.71693e-05
4.71733e-05
4.71915e-05
4.72277e-05
4.72855e-05
4.73634e-05
4.74482e-05
4.75063e-05
4.74868e-05
4.73592e-05
4.71636e-05
4.69414e-05
4.67105e-05
4.6471e-05
4.62172e-05
4.5945e-05
4.56558e-05
4.53567e-05
4.50585e-05
4.47731e-05
4.45111e-05
4.42811e-05
4.40897e-05
4.39433e-05
4.38495e-05
4.38216e-05
4.38855e-05
4.4103e-05
4.46639e-05
4.65154e-05
5.88803e-05
7.79934e-05
7.8e-05
7.8e-05
7.8e-05
7.8e-05
7.8e-05
7.8e-05
7.8e-05
7.8e-05
7.8e-05
7.8e-05
7.8e-05
7.8e-05
7.8e-05
7.8e-05
7.8e-05
7.8e-05
7.8e-05
7.8e-05
7.8e-05
7.8e-05
7.78188e-05
5.22669e-05
4.6033e-05
4.47289e-05
4.43042e-05
4.4172e-05
4.41919e-05
4.43162e-05
4.45269e-05
4.4817e-05
4.51824e-05
4.56163e-05
4.61023e-05
4.66101e-05
4.70958e-05
4.75115e-05
4.78177e-05
4.79931e-05
4.80371e-05
4.79683e-05
4.78206e-05
4.76389e-05
4.74761e-05
4.73949e-05
4.74874e-05
4.79554e-05
4.95738e-05
5.77255e-05
7.79172e-05
6.32606e-05
4.97479e-05
4.74924e-05
4.67498e-05
4.64321e-05
4.63053e-05
4.62851e-05
4.63305e-05
4.64164e-05
4.65249e-05
4.66416e-05
4.67538e-05
4.68496e-05
4.69169e-05
4.69449e-05
4.69251e-05
4.68552e-05
4.67398e-05
4.65889e-05
4.64147e-05
4.623e-05
4.60474e-05
4.58796e-05
4.57397e-05
4.56426e-05
4.56079e-05
4.56671e-05
4.58813e-05
4.6403e-05
4.77778e-05
5.31422e-05
7.75781e-05
4.72903e-05
4.72312e-05
4.71468e-05
4.70648e-05
4.69987e-05
4.6952e-05
4.6924e-05
4.69137e-05
4.69215e-05
4.69502e-05
4.70044e-05
4.70895e-05
4.72073e-05
4.73473e-05
4.74693e-05
4.74881e-05
4.73197e-05
4.70668e-05
4.68013e-05
4.65451e-05
4.62953e-05
4.60428e-05
4.57807e-05
4.55078e-05
4.52287e-05
4.49518e-05
4.46872e-05
4.44443e-05
4.42313e-05
4.40548e-05
4.39219e-05
4.38412e-05
4.38273e-05
4.39091e-05
4.41551e-05
4.47808e-05
4.69486e-05
6.45357e-05
7.79996e-05
7.8e-05
7.8e-05
7.8e-05
7.8e-05
7.8e-05
7.8e-05
7.8e-05
7.8e-05
7.8e-05
7.8e-05
7.8e-05
7.8e-05
7.8e-05
7.8e-05
7.8e-05
7.8e-05
7.8e-05
7.8e-05
7.8e-05
7.8e-05
7.79818e-05
5.69566e-05
4.64851e-05
4.48277e-05
4.43377e-05
4.41789e-05
4.41806e-05
4.42882e-05
4.44803e-05
4.4748e-05
4.50857e-05
4.54855e-05
4.59318e-05
4.6397e-05
4.68427e-05
4.72261e-05
4.75115e-05
4.7679e-05
4.77277e-05
4.76749e-05
4.75525e-05
4.74029e-05
4.72762e-05
4.7234e-05
4.73713e-05
4.79127e-05
4.98402e-05
6.15152e-05
7.79888e-05
6.89978e-05
5.02003e-05
4.75655e-05
4.67255e-05
4.63592e-05
4.61998e-05
4.61542e-05
4.61781e-05
4.62459e-05
4.63399e-05
4.64466e-05
4.6554e-05
4.66501e-05
4.67218e-05
4.67554e-05
4.67397e-05
4.66708e-05
4.65554e-05
4.64064e-05
4.62382e-05
4.60642e-05
4.58964e-05
4.57465e-05
4.56264e-05
4.55506e-05
4.55392e-05
4.5626e-05
4.5881e-05
4.64966e-05
4.83305e-05
5.86198e-05
7.79749e-05
4.71776e-05
4.70487e-05
4.68849e-05
4.6739e-05
4.66272e-05
4.65506e-05
4.6506e-05
4.64906e-05
4.65042e-05
4.655e-05
4.66345e-05
4.67679e-05
4.69617e-05
4.72207e-05
4.75117e-05
4.76737e-05
4.73479e-05
4.69382e-05
4.65745e-05
4.62671e-05
4.59971e-05
4.57455e-05
4.54992e-05
4.52526e-05
4.50063e-05
4.47648e-05
4.45354e-05
4.43254e-05
4.41422e-05
4.39929e-05
4.38853e-05
4.383e-05
4.38452e-05
4.39672e-05
4.42836e-05
4.50798e-05
4.78662e-05
7.33419e-05
7.8e-05
7.8e-05
7.8e-05
7.8e-05
7.8e-05
7.8e-05
7.8e-05
7.8e-05
7.8e-05
7.8e-05
7.8e-05
7.8e-05
7.8e-05
7.8e-05
7.8e-05
7.8e-05
7.8e-05
7.8e-05
7.8e-05
7.8e-05
7.8e-05
7.79998e-05
6.61399e-05
4.72453e-05
4.50228e-05
4.44127e-05
4.41999e-05
4.41648e-05
4.42395e-05
4.43969e-05
4.4624e-05
4.49126e-05
4.52533e-05
4.56314e-05
4.6024e-05
4.64003e-05
4.67268e-05
4.69746e-05
4.71271e-05
4.71838e-05
4.71595e-05
4.70822e-05
4.69895e-05
4.69278e-05
4.69577e-05
4.71813e-05
4.78599e-05
5.02756e-05
6.82657e-05
7.79998e-05
7.62302e-05
5.14746e-05
4.78484e-05
4.67331e-05
4.62537e-05
4.60292e-05
4.59368e-05
4.59234e-05
4.59607e-05
4.60313e-05
4.61226e-05
4.62238e-05
4.63229e-05
4.64051e-05
4.64515e-05
4.64438e-05
4.63746e-05
4.62556e-05
4.61064e-05
4.59456e-05
4.57875e-05
4.56431e-05
4.55224e-05
4.54359e-05
4.53977e-05
4.54293e-05
4.55702e-05
4.5908e-05
4.67047e-05
4.92952e-05
6.90742e-05
7.79999e-05
4.72936e-05
4.69724e-05
4.66489e-05
4.63986e-05
4.62218e-05
4.6106e-05
4.60403e-05
4.60182e-05
4.60381e-05
4.61037e-05
4.62255e-05
4.64226e-05
4.67292e-05
4.72045e-05
4.79397e-05
4.89024e-05
4.77149e-05
4.68902e-05
4.6342e-05
4.59536e-05
4.56529e-05
4.53985e-05
4.51676e-05
4.49489e-05
4.47382e-05
4.45366e-05
4.43478e-05
4.41773e-05
4.40314e-05
4.39173e-05
4.38443e-05
4.38264e-05
4.38881e-05
4.40829e-05
4.45604e-05
4.60109e-05
5.47927e-05
7.7965e-05
7.8e-05
7.8e-05
7.8e-05
7.8e-05
7.8e-05
7.8e-05
7.8e-05
7.8e-05
7.8e-05
7.8e-05
7.8e-05
7.8e-05
7.8e-05
7.8e-05
7.8e-05
7.8e-05
7.8e-05
7.8e-05
7.8e-05
7.8e-05
7.8e-05
7.8e-05
7.57694e-05
4.85659e-05
4.54249e-05
4.45671e-05
4.42532e-05
4.41576e-05
4.41836e-05
4.42931e-05
4.44675e-05
4.4695e-05
4.49647e-05
4.52628e-05
4.55711e-05
4.58668e-05
4.6126e-05
4.63283e-05
4.64621e-05
4.65276e-05
4.65372e-05
4.65143e-05
4.64913e-05
4.65116e-05
4.66397e-05
4.70002e-05
4.79465e-05
5.11762e-05
7.55226e-05
7.8e-05
7.79977e-05
6.33541e-05
4.90196e-05
4.68947e-05
4.61852e-05
4.58571e-05
4.56994e-05
4.56386e-05
4.56398e-05
4.56846e-05
4.5761e-05
4.58594e-05
4.59686e-05
4.6072e-05
4.61427e-05
4.61487e-05
4.60727e-05
4.59394e-05
4.57807e-05
4.56214e-05
4.54766e-05
4.5356e-05
4.52679e-05
4.52218e-05
4.52321e-05
4.53248e-05
4.55526e-05
4.60478e-05
4.72785e-05
5.21219e-05
7.75048e-05
7.8e-05
4.8426e-05
4.72692e-05
4.65721e-05
4.61458e-05
4.58774e-05
4.57118e-05
4.56209e-05
4.55906e-05
4.56167e-05
4.57043e-05
4.58699e-05
4.61493e-05
4.66258e-05
4.75316e-05
4.98436e-05
5.94557e-05
4.92752e-05
4.70871e-05
4.61874e-05
4.56774e-05
4.53314e-05
4.50662e-05
4.48446e-05
4.46485e-05
4.44693e-05
4.43045e-05
4.4155e-05
4.40246e-05
4.39185e-05
4.38446e-05
4.38139e-05
4.38456e-05
4.39765e-05
4.42938e-05
4.50763e-05
4.78346e-05
7.24765e-05
7.8e-05
7.8e-05
7.8e-05
7.8e-05
7.8e-05
7.8e-05
7.8e-05
7.8e-05
7.8e-05
7.8e-05
7.8e-05
7.8e-05
7.8e-05
7.8e-05
7.8e-05
7.8e-05
7.8e-05
7.8e-05
7.8e-05
7.8e-05
7.8e-05
7.8e-05
7.8e-05
7.79986e-05
6.16383e-05
4.67499e-05
4.48996e-05
4.43717e-05
4.41791e-05
4.41383e-05
4.4189e-05
4.43036e-05
4.44661e-05
4.46639e-05
4.48841e-05
4.51123e-05
4.53324e-05
4.55284e-05
4.56876e-05
4.58033e-05
4.58771e-05
4.59196e-05
4.59502e-05
4.5998e-05
4.61072e-05
4.63565e-05
4.69412e-05
4.87232e-05
5.97367e-05
7.79856e-05
7.8e-05
7.8e-05
7.66203e-05
5.10979e-05
4.73607e-05
4.62524e-05
4.57592e-05
4.55105e-05
4.53917e-05
4.53536e-05
4.53737e-05
4.54402e-05
4.55446e-05
4.56778e-05
4.58235e-05
4.59432e-05
4.59777e-05
4.5875e-05
4.57019e-05
4.55126e-05
4.53405e-05
4.51995e-05
4.50971e-05
4.50399e-05
4.5037e-05
4.5106e-05
4.52838e-05
4.56574e-05
4.64965e-05
4.92e-05
7.04755e-05
7.8e-05
7.8e-05
5.69938e-05
4.87775e-05
4.68586e-05
4.60799e-05
4.56657e-05
4.54296e-05
4.53057e-05
4.52647e-05
4.52979e-05
4.54129e-05
4.56371e-05
4.60367e-05
4.68165e-05
4.8942e-05
6.18499e-05
7.79235e-05
5.60305e-05
4.78609e-05
4.62008e-05
4.54994e-05
4.50831e-05
4.47928e-05
4.45698e-05
4.43872e-05
4.42316e-05
4.40971e-05
4.39823e-05
4.38894e-05
4.38236e-05
4.37934e-05
4.38133e-05
4.39113e-05
4.41507e-05
4.47178e-05
4.65449e-05
6.00276e-05
7.79973e-05
7.8e-05
7.8e-05
7.8e-05
7.8e-05
7.8e-05
7.8e-05
7.8e-05
7.8e-05
7.8e-05
7.8e-05
7.8e-05
7.8e-05
7.8e-05
7.8e-05
7.8e-05
7.8e-05
7.8e-05
7.8e-05
7.8e-05
7.8e-05
7.8e-05
7.8e-05
7.8e-05
7.8e-05
7.64935e-05
4.88619e-05
4.55043e-05
4.46065e-05
4.42594e-05
4.4126e-05
4.41054e-05
4.41554e-05
4.42533e-05
4.43842e-05
4.45358e-05
4.46962e-05
4.48539e-05
4.49987e-05
4.51234e-05
4.52251e-05
4.53068e-05
4.53786e-05
4.5458e-05
4.5574e-05
4.57769e-05
4.61732e-05
4.70731e-05
4.99956e-05
7.30967e-05
7.8e-05
7.8e-05
7.8e-05
7.8e-05
7.04266e-05
4.94826e-05
4.67279e-05
4.58468e-05
4.54407e-05
4.52414e-05
4.51563e-05
4.5153e-05
4.52178e-05
4.53445e-05
4.55284e-05
4.57657e-05
4.60031e-05
4.61299e-05
4.59227e-05
4.56429e-05
4.53756e-05
4.51629e-05
4.50082e-05
4.49143e-05
4.48849e-05
4.49305e-05
4.50769e-05
4.53897e-05
4.60589e-05
4.79909e-05
5.98716e-05
7.79925e-05
7.8e-05
7.8e-05
7.79249e-05
5.70304e-05
4.81873e-05
4.63807e-05
4.56694e-05
4.53109e-05
4.5136e-05
4.50795e-05
4.51232e-05
4.52797e-05
4.56015e-05
4.62198e-05
4.76988e-05
5.41523e-05
7.78396e-05
7.8e-05
7.43247e-05
4.97042e-05
4.65416e-05
4.54933e-05
4.49512e-05
4.46091e-05
4.43685e-05
4.41878e-05
4.40465e-05
4.39349e-05
4.38495e-05
4.37916e-05
4.37669e-05
4.37864e-05
4.38705e-05
4.40643e-05
4.44894e-05
4.56067e-05
5.05877e-05
7.76998e-05
7.8e-05
7.8e-05
7.8e-05
7.8e-05
7.8e-05
7.8e-05
7.8e-05
7.8e-05
7.8e-05
7.8e-05
7.8e-05
7.8e-05
7.8e-05
7.8e-05
7.8e-05
7.8e-05
7.8e-05
7.8e-05
7.8e-05
7.8e-05
7.8e-05
7.8e-05
7.8e-05
7.8e-05
7.8e-05
7.8e-05
6.88331e-05
4.7585e-05
4.51593e-05
4.44622e-05
4.41791e-05
4.40659e-05
4.40437e-05
4.40775e-05
4.41477e-05
4.42409e-05
4.43467e-05
4.44562e-05
4.45629e-05
4.46628e-05
4.47558e-05
4.48467e-05
4.4946e-05
4.50725e-05
4.52593e-05
4.55741e-05
4.61994e-05
4.79806e-05
5.90687e-05
7.79871e-05
7.8e-05
7.8e-05
7.8e-05
7.8e-05
7.79988e-05
6.36821e-05
4.87118e-05
4.63724e-05
4.55969e-05
4.52583e-05
4.51018e-05
4.50718e-05
4.5149e-05
4.53322e-05
4.56284e-05
4.61114e-05
4.67296e-05
4.74574e-05
4.65773e-05
4.59575e-05
4.54715e-05
4.51565e-05
4.4954e-05
4.48537e-05
4.48517e-05
4.49631e-05
4.52359e-05
4.58264e-05
4.73209e-05
5.3941e-05
7.78736e-05
7.8e-05
7.8e-05
7.8e-05
7.8e-05
7.7868e-05
5.46595e-05
4.77635e-05
4.60981e-05
4.54475e-05
4.51764e-05
4.50923e-05
4.51555e-05
4.53923e-05
4.59429e-05
4.71565e-05
5.12195e-05
7.71682e-05
7.8e-05
7.8e-05
7.79996e-05
6.50441e-05
4.82384e-05
4.58471e-05
4.50001e-05
4.45479e-05
4.42625e-05
4.40683e-05
4.39311e-05
4.38353e-05
4.37753e-05
4.37522e-05
4.3774e-05
4.38584e-05
4.40387e-05
4.44018e-05
4.52626e-05
4.83527e-05
7.58395e-05
7.8e-05
7.8e-05
7.8e-05
7.8e-05
7.8e-05
7.8e-05
7.8e-05
7.8e-05
7.8e-05
7.8e-05
7.8e-05
7.8e-05
7.8e-05
7.8e-05
7.8e-05
7.8e-05
7.8e-05
7.8e-05
7.8e-05
7.8e-05
7.8e-05
7.8e-05
7.8e-05
7.8e-05
7.8e-05
7.8e-05
7.8e-05
7.79949e-05
5.89568e-05
4.67268e-05
4.49271e-05
4.43514e-05
4.41011e-05
4.39905e-05
4.39561e-05
4.39687e-05
4.40114e-05
4.4073e-05
4.41458e-05
4.42249e-05
4.43086e-05
4.43987e-05
4.4502e-05
4.46315e-05
4.48112e-05
4.50867e-05
4.55634e-05
4.657e-05
4.98783e-05
7.579e-05
7.8e-05
7.8e-05
7.8e-05
7.8e-05
7.8e-05
7.8e-05
7.79962e-05
6.18512e-05
4.85556e-05
4.62774e-05
4.56053e-05
4.52874e-05
4.52137e-05
4.53351e-05
4.56818e-05
4.62808e-05
4.78873e-05
5.03523e-05
5.8477e-05
4.97144e-05
4.75465e-05
4.60832e-05
4.54751e-05
4.51292e-05
4.49935e-05
4.50263e-05
4.52627e-05
4.58364e-05
4.74125e-05
5.31766e-05
7.7725e-05
7.8e-05
7.8e-05
7.8e-05
7.8e-05
7.8e-05
7.8e-05
7.78624e-05
5.60682e-05
4.80475e-05
4.61367e-05
4.56222e-05
4.54692e-05
4.55838e-05
4.60306e-05
4.7555e-05
5.19637e-05
7.69919e-05
7.8e-05
7.8e-05
7.8e-05
7.8e-05
7.79733e-05
5.65991e-05
4.71796e-05
4.53846e-05
4.46729e-05
4.42868e-05
4.40544e-05
4.39079e-05
4.38212e-05
4.37856e-05
4.38024e-05
4.38875e-05
4.40803e-05
4.44547e-05
4.52539e-05
4.80777e-05
7.3674e-05
7.8e-05
7.8e-05
7.8e-05
7.8e-05
7.8e-05
7.8e-05
7.8e-05
7.8e-05
7.8e-05
7.8e-05
7.8e-05
7.8e-05
7.8e-05
7.8e-05
7.8e-05
7.8e-05
7.8e-05
7.8e-05
7.8e-05
7.8e-05
7.8e-05
7.8e-05
7.8e-05
7.8e-05
7.8e-05
7.8e-05
7.8e-05
7.8e-05
7.8e-05
7.78984e-05
5.27855e-05
4.61163e-05
4.47689e-05
4.42676e-05
4.40276e-05
4.39093e-05
4.38609e-05
4.38557e-05
4.38793e-05
4.39231e-05
4.39824e-05
4.40568e-05
4.415e-05
4.4272e-05
4.44417e-05
4.46961e-05
4.51178e-05
4.59565e-05
4.85138e-05
6.83688e-05
7.8e-05
7.8e-05
7.8e-05
7.8e-05
7.8e-05
7.8e-05
7.8e-05
7.8e-05
7.79971e-05
6.59847e-05
4.91053e-05
4.70456e-05
4.6018e-05
4.58303e-05
4.61039e-05
4.72642e-05
4.91333e-05
6.30272e-05
7.70038e-05
7.7987e-05
7.63176e-05
6.00531e-05
4.87376e-05
4.68077e-05
4.58188e-05
4.55654e-05
4.56671e-05
4.63002e-05
4.82252e-05
5.77992e-05
7.78287e-05
7.8e-05
7.8e-05
7.8e-05
7.8e-05
7.8e-05
7.8e-05
7.8e-05
7.8e-05
7.79585e-05
6.39994e-05
4.90261e-05
4.75443e-05
4.70115e-05
4.74092e-05
4.87248e-05
5.97231e-05
7.76591e-05
7.8e-05
7.8e-05
7.8e-05
7.8e-05
7.8e-05
7.8e-05
7.78593e-05
5.32356e-05
4.6781e-05
4.51832e-05
4.45274e-05
4.42039e-05
4.40233e-05
4.39372e-05
4.39322e-05
4.40085e-05
4.42046e-05
4.4663e-05
4.56829e-05
4.8458e-05
7.40539e-05
7.8e-05
7.8e-05
7.8e-05
7.8e-05
7.8e-05
7.8e-05
7.8e-05
7.8e-05
7.8e-05
7.8e-05
7.8e-05
7.8e-05
7.8e-05
7.8e-05
7.8e-05
7.8e-05
7.8e-05
7.8e-05
7.8e-05
7.8e-05
7.8e-05
7.8e-05
7.8e-05
7.8e-05
7.8e-05
7.8e-05
7.8e-05
7.8e-05
7.8e-05
7.8e-05
7.8e-05
7.75834e-05
5.05345e-05
4.59059e-05
4.47191e-05
4.42227e-05
4.39728e-05
4.38456e-05
4.3787e-05
4.37733e-05
4.37917e-05
4.38364e-05
4.39076e-05
4.40117e-05
4.41643e-05
4.43973e-05
4.47821e-05
4.55188e-05
4.75594e-05
6.01989e-05
7.79955e-05
7.8e-05
7.8e-05
7.8e-05
7.8e-05
7.8e-05
7.8e-05
7.8e-05
7.8e-05
7.8e-05
7.79998e-05
7.38904e-05
5.69072e-05
4.89214e-05
4.83273e-05
4.92319e-05
5.9192e-05
7.44287e-05
7.79988e-05
7.8e-05
7.8e-05
7.8e-05
7.79949e-05
7.26059e-05
5.53471e-05
4.85543e-05
4.78632e-05
4.81911e-05
5.12457e-05
6.91697e-05
7.79854e-05
7.8e-05
7.8e-05
7.8e-05
7.8e-05
7.8e-05
7.8e-05
7.8e-05
7.8e-05
7.8e-05
7.8e-05
7.79993e-05
7.4543e-05
6.29337e-05
5.65348e-05
6.12216e-05
7.274e-05
7.79941e-05
7.8e-05
7.8e-05
7.8e-05
7.8e-05
7.8e-05
7.8e-05
7.8e-05
7.8e-05
7.78422e-05
5.48608e-05
4.71446e-05
4.52755e-05
4.46977e-05
4.4405e-05
4.42999e-05
4.43615e-05
4.45733e-05
4.50409e-05
4.67236e-05
5.23167e-05
7.64378e-05
7.8e-05
7.8e-05
7.8e-05
7.8e-05
7.8e-05
7.8e-05
7.8e-05
7.8e-05
7.8e-05
7.8e-05
7.8e-05
7.8e-05
7.8e-05
7.8e-05
7.8e-05
7.8e-05
7.8e-05
7.8e-05
7.8e-05
7.8e-05
7.8e-05
7.8e-05
7.8e-05
7.8e-05
7.8e-05
7.8e-05
7.8e-05
7.8e-05
7.8e-05
7.8e-05
7.8e-05
7.8e-05
7.8e-05
7.74395e-05
5.09176e-05
4.61453e-05
4.47813e-05
4.42307e-05
4.3971e-05
4.3835e-05
4.37757e-05
4.37677e-05
4.38008e-05
4.38756e-05
4.40028e-05
4.42115e-05
4.45663e-05
4.52555e-05
4.7044e-05
5.58875e-05
7.79651e-05
7.8e-05
7.8e-05
7.8e-05
7.8e-05
7.8e-05
7.8e-05
7.8e-05
7.8e-05
7.8e-05
7.8e-05
7.8e-05
7.8e-05
7.79774e-05
7.51575e-05
7.20255e-05
7.60405e-05
7.79922e-05
7.8e-05
7.8e-05
7.8e-05
7.8e-05
7.8e-05
7.8e-05
7.8e-05
7.79561e-05
7.38224e-05
6.85229e-05
7.17176e-05
7.76402e-05
7.8e-05
7.8e-05
7.8e-05
7.8e-05
7.8e-05
7.8e-05
7.8e-05
7.8e-05
7.8e-05
7.8e-05
7.8e-05
7.8e-05
7.8e-05
7.8e-05
7.79987e-05
7.79697e-05
7.79968e-05
7.8e-05
7.8e-05
7.8e-05
7.8e-05
7.8e-05
7.8e-05
7.8e-05
7.8e-05
7.8e-05
7.8e-05
7.8e-05
7.79561e-05
6.30374e-05
4.81404e-05
4.65036e-05
4.55707e-05
4.53383e-05
4.57357e-05
4.66237e-05
4.81255e-05
6.45591e-05
7.78996e-05
7.8e-05
7.8e-05
7.8e-05
7.8e-05
7.8e-05
7.8e-05
7.8e-05
7.8e-05
7.8e-05
7.8e-05
7.8e-05
7.8e-05
7.8e-05
7.8e-05
7.8e-05
7.8e-05
7.8e-05
7.8e-05
7.8e-05
7.8e-05
7.8e-05
7.8e-05
7.8e-05
7.8e-05
7.8e-05
7.8e-05
7.8e-05
7.8e-05
7.8e-05
7.8e-05
7.8e-05
7.8e-05
7.8e-05
7.8e-05
7.8e-05
7.77244e-05
5.46197e-05
4.67826e-05
4.49613e-05
4.43794e-05
4.40789e-05
4.39444e-05
4.38993e-05
4.39211e-05
4.40111e-05
4.41882e-05
4.45213e-05
4.51963e-05
4.71038e-05
5.59337e-05
7.79439e-05
7.8e-05
7.8e-05
7.8e-05
7.8e-05
7.8e-05
7.8e-05
7.8e-05
7.8e-05
7.8e-05
7.8e-05
7.8e-05
7.8e-05
7.8e-05
7.8e-05
7.8e-05
7.8e-05
7.8e-05
7.8e-05
7.8e-05
7.8e-05
7.8e-05
7.8e-05
7.8e-05
7.8e-05
7.8e-05
7.8e-05
7.8e-05
7.8e-05
7.8e-05
7.8e-05
7.8e-05
7.8e-05
7.8e-05
7.8e-05
7.8e-05
7.8e-05
7.8e-05
7.8e-05
7.8e-05
7.8e-05
7.8e-05
7.8e-05
7.8e-05
7.8e-05
7.8e-05
7.8e-05
7.8e-05
7.8e-05
7.8e-05
7.8e-05
7.8e-05
7.8e-05
7.8e-05
7.8e-05
7.8e-05
7.8e-05
7.8e-05
7.8e-05
7.8e-05
7.79993e-05
7.39945e-05
6.04549e-05
5.10195e-05
4.95443e-05
5.35123e-05
6.4246e-05
7.5762e-05
7.79998e-05
7.8e-05
7.8e-05
7.8e-05
7.8e-05
7.8e-05
7.8e-05
7.8e-05
7.8e-05
7.8e-05
7.8e-05
7.8e-05
7.8e-05
7.8e-05
7.8e-05
7.8e-05
7.8e-05
7.8e-05
7.8e-05
7.8e-05
7.8e-05
7.8e-05
7.8e-05
7.8e-05
7.8e-05
7.8e-05
7.8e-05
7.8e-05
7.8e-05
7.8e-05
7.8e-05
7.8e-05
7.8e-05
7.8e-05
7.8e-05
7.8e-05
7.8e-05
7.8e-05
7.79659e-05
6.32105e-05
4.77249e-05
4.57556e-05
4.47873e-05
4.44725e-05
4.43439e-05
4.4346e-05
4.44875e-05
4.47986e-05
4.55386e-05
4.77046e-05
6.10118e-05
7.79724e-05
7.8e-05
7.8e-05
7.8e-05
7.8e-05
7.8e-05
7.8e-05
7.8e-05
7.8e-05
7.8e-05
7.8e-05
7.8e-05
7.8e-05
7.8e-05
7.8e-05
7.8e-05
7.8e-05
7.8e-05
7.8e-05
7.8e-05
7.8e-05
7.8e-05
7.8e-05
7.8e-05
7.8e-05
7.8e-05
7.8e-05
7.8e-05
7.8e-05
7.8e-05
7.8e-05
7.8e-05
7.8e-05
7.8e-05
7.8e-05
7.8e-05
7.8e-05
7.8e-05
7.8e-05
7.8e-05
7.8e-05
7.8e-05
7.8e-05
7.8e-05
7.8e-05
7.8e-05
7.8e-05
7.8e-05
7.8e-05
7.8e-05
7.8e-05
7.8e-05
7.8e-05
7.8e-05
7.8e-05
7.8e-05
7.8e-05
7.8e-05
7.8e-05
7.8e-05
7.8e-05
7.8e-05
7.8e-05
7.79973e-05
7.77387e-05
7.73854e-05
7.79338e-05
7.79997e-05
7.8e-05
7.8e-05
7.8e-05
7.8e-05
7.8e-05
7.8e-05
7.8e-05
7.8e-05
7.8e-05
7.8e-05
7.8e-05
7.8e-05
7.8e-05
7.8e-05
7.8e-05
7.8e-05
7.8e-05
7.8e-05
7.8e-05
7.8e-05
7.8e-05
7.8e-05
7.8e-05
7.8e-05
7.8e-05
7.8e-05
7.8e-05
7.8e-05
7.8e-05
7.8e-05
7.8e-05
7.8e-05
7.8e-05
7.8e-05
7.8e-05
7.8e-05
7.8e-05
7.8e-05
7.8e-05
7.8e-05
7.79995e-05
7.35277e-05
5.46657e-05
4.74297e-05
4.64222e-05
4.58646e-05
4.57648e-05
4.62132e-05
4.71459e-05
5.03319e-05
7.09433e-05
7.79981e-05
7.8e-05
7.8e-05
7.8e-05
7.8e-05
7.8e-05
7.8e-05
7.8e-05
7.8e-05
7.8e-05
7.8e-05
7.8e-05
7.8e-05
7.8e-05
7.8e-05
7.8e-05
7.8e-05
7.8e-05
7.8e-05
7.8e-05
7.8e-05
7.8e-05
7.8e-05
7.8e-05
7.8e-05
7.8e-05
7.8e-05
7.8e-05
7.8e-05
7.8e-05
7.8e-05
7.8e-05
7.8e-05
7.8e-05
7.8e-05
7.8e-05
7.8e-05
7.8e-05
7.8e-05
7.8e-05
7.8e-05
7.8e-05
7.8e-05
7.8e-05
7.8e-05
7.8e-05
7.8e-05
7.8e-05
7.8e-05
7.8e-05
7.8e-05
7.8e-05
7.8e-05
7.8e-05
7.8e-05
7.8e-05
7.8e-05
7.8e-05
7.8e-05
7.8e-05
7.8e-05
7.8e-05
7.8e-05
7.8e-05
7.8e-05
7.8e-05
7.8e-05
7.8e-05
7.8e-05
7.8e-05
7.8e-05
7.8e-05
7.8e-05
7.8e-05
7.8e-05
7.8e-05
7.8e-05
7.8e-05
7.8e-05
7.8e-05
7.8e-05
7.8e-05
7.8e-05
7.8e-05
7.8e-05
7.8e-05
7.8e-05
7.8e-05
7.8e-05
7.8e-05
7.8e-05
7.8e-05
7.8e-05
7.8e-05
7.8e-05
7.8e-05
7.8e-05
7.8e-05
7.8e-05
7.8e-05
7.8e-05
7.8e-05
7.8e-05
7.8e-05
7.8e-05
7.8e-05
7.8e-05
7.8e-05
7.8e-05
7.8e-05
7.8e-05
7.79709e-05
7.26266e-05
6.22733e-05
5.51698e-05
5.37024e-05
5.84614e-05
6.88974e-05
7.76524e-05
7.8e-05
7.8e-05
7.8e-05
7.8e-05
7.8e-05
7.8e-05
7.8e-05
7.8e-05
7.8e-05
7.8e-05
7.8e-05
7.8e-05
7.8e-05
7.8e-05
7.8e-05
7.8e-05
7.8e-05
7.8e-05
7.8e-05
7.8e-05
7.8e-05
7.8e-05
7.8e-05
7.8e-05
7.8e-05
7.8e-05
7.8e-05
7.8e-05
7.8e-05
7.8e-05
7.8e-05
7.8e-05
7.8e-05
7.8e-05
7.8e-05
7.8e-05
7.8e-05
7.8e-05
7.8e-05
7.8e-05
7.8e-05
7.8e-05
7.8e-05
7.8e-05
7.8e-05
7.8e-05
7.8e-05
7.8e-05
7.8e-05
7.8e-05
7.8e-05
7.8e-05
7.8e-05
7.8e-05
7.8e-05
7.8e-05
7.8e-05
7.8e-05
7.8e-05
7.8e-05
7.8e-05
7.8e-05
7.8e-05
7.8e-05
7.8e-05
7.8e-05
7.8e-05
7.8e-05
7.8e-05
7.8e-05
7.8e-05
7.8e-05
7.8e-05
7.8e-05
7.8e-05
7.8e-05
7.8e-05
7.8e-05
7.8e-05
7.8e-05
7.8e-05
7.8e-05
7.8e-05
7.8e-05
7.8e-05
7.8e-05
7.8e-05
7.8e-05
7.8e-05
7.8e-05
7.8e-05
7.8e-05
7.8e-05
7.8e-05
7.8e-05
7.8e-05
7.8e-05
7.8e-05
7.8e-05
7.8e-05
7.8e-05
7.8e-05
7.8e-05
7.8e-05
7.8e-05
7.8e-05
7.8e-05
7.8e-05
7.8e-05
7.8e-05
7.8e-05
7.8e-05
7.8e-05
7.8e-05
7.79991e-05
7.79707e-05
7.79392e-05
7.79935e-05
7.8e-05
7.8e-05
7.8e-05
7.8e-05
7.8e-05
7.8e-05
7.8e-05
7.8e-05
7.8e-05
7.8e-05
7.8e-05
7.8e-05
7.8e-05
7.8e-05
7.8e-05
7.8e-05
7.8e-05
7.8e-05
7.8e-05
7.8e-05
7.8e-05
7.8e-05
7.8e-05
7.8e-05
7.8e-05
7.8e-05
7.8e-05
7.8e-05
7.8e-05
7.8e-05
7.8e-05
7.8e-05
7.8e-05
7.8e-05
7.8e-05
7.8e-05
7.8e-05
7.8e-05
7.8e-05
7.8e-05
7.8e-05
7.8e-05
7.8e-05
7.8e-05
7.8e-05
7.8e-05
7.8e-05
7.8e-05
7.8e-05
7.8e-05
7.8e-05
7.8e-05
7.8e-05
7.8e-05
7.8e-05
7.8e-05
7.8e-05
7.8e-05
7.8e-05
7.8e-05
7.8e-05
7.8e-05
7.8e-05
7.8e-05
7.8e-05
7.8e-05
7.8e-05
7.8e-05
7.8e-05
7.8e-05
7.8e-05
7.8e-05
7.8e-05
7.8e-05
7.8e-05
7.8e-05
7.8e-05
7.8e-05
7.8e-05
7.8e-05
7.8e-05
7.8e-05
7.8e-05
7.8e-05
7.8e-05
7.8e-05
7.8e-05
7.8e-05
7.8e-05
7.8e-05
7.8e-05
7.8e-05
7.8e-05
7.8e-05
7.8e-05
7.8e-05
7.8e-05
7.8e-05
7.8e-05
7.8e-05
7.8e-05
7.8e-05
7.8e-05
7.8e-05
7.8e-05
7.8e-05
7.8e-05
7.8e-05
7.8e-05
7.8e-05
7.8e-05
7.8e-05
7.8e-05
7.8e-05
7.8e-05
7.8e-05
7.8e-05
7.8e-05
7.8e-05
7.8e-05
7.8e-05
7.8e-05
7.8e-05
7.8e-05
7.8e-05
7.8e-05
7.8e-05
7.8e-05
7.8e-05
7.8e-05
7.8e-05
7.8e-05
7.8e-05
7.8e-05
7.8e-05
7.8e-05
7.8e-05
7.8e-05
7.8e-05
7.8e-05
7.8e-05
7.8e-05
7.8e-05
7.8e-05
7.8e-05
7.8e-05
7.8e-05
7.8e-05
7.8e-05
7.8e-05
7.8e-05
7.8e-05
7.8e-05
7.8e-05
7.8e-05
7.8e-05
7.8e-05
7.8e-05
7.8e-05
7.8e-05
7.8e-05
7.8e-05
7.8e-05
7.8e-05
7.8e-05
7.8e-05
7.8e-05
7.8e-05
7.8e-05
7.8e-05
7.8e-05
7.8e-05
7.8e-05
7.8e-05
7.8e-05
7.8e-05
7.8e-05
7.8e-05
7.8e-05
7.8e-05
7.8e-05
7.8e-05
7.8e-05
7.8e-05
7.8e-05
7.8e-05
7.8e-05
7.8e-05
7.8e-05
7.8e-05
7.8e-05
7.8e-05
7.8e-05
7.8e-05
7.8e-05
7.8e-05
7.8e-05
7.8e-05
7.8e-05
7.8e-05
7.8e-05
7.8e-05
7.8e-05
7.8e-05
7.8e-05
7.8e-05
7.8e-05
7.8e-05
7.8e-05
7.8e-05
7.8e-05
7.8e-05
7.8e-05
7.8e-05
7.8e-05
7.8e-05
7.8e-05
7.8e-05
7.8e-05
7.8e-05
7.8e-05
7.8e-05
7.8e-05
7.8e-05
7.8e-05
7.8e-05
7.8e-05
7.8e-05
7.8e-05
7.8e-05
7.8e-05
7.8e-05
7.8e-05
7.8e-05
7.8e-05
7.8e-05
7.8e-05
7.8e-05
7.8e-05
7.8e-05
7.8e-05
7.8e-05
7.8e-05
7.8e-05
7.8e-05
7.8e-05
7.8e-05
7.8e-05
7.8e-05
7.8e-05
7.8e-05
7.8e-05
7.8e-05
7.8e-05
7.8e-05
7.8e-05
7.8e-05
7.8e-05
7.8e-05
7.8e-05
7.8e-05
7.8e-05
7.8e-05
7.8e-05
7.8e-05
7.8e-05
7.8e-05
7.8e-05
7.8e-05
7.8e-05
7.8e-05
7.8e-05
7.8e-05
7.8e-05
7.8e-05
7.8e-05
7.8e-05
7.8e-05
7.8e-05
7.8e-05
7.8e-05
7.8e-05
7.8e-05
7.8e-05
7.8e-05
7.8e-05
7.8e-05
7.8e-05
7.8e-05
7.8e-05
7.8e-05
7.8e-05
7.8e-05
7.8e-05
7.8e-05
7.8e-05
7.8e-05
7.8e-05
7.8e-05
7.8e-05
7.8e-05
7.8e-05
7.8e-05
7.8e-05
7.8e-05
7.8e-05
7.8e-05
7.8e-05
7.8e-05
7.8e-05
7.8e-05
7.8e-05
7.8e-05
7.8e-05
7.8e-05
7.8e-05
7.8e-05
7.8e-05
7.8e-05
7.8e-05
7.8e-05
7.8e-05
7.8e-05
7.8e-05
7.8e-05
7.8e-05
7.8e-05
7.8e-05
7.8e-05
7.8e-05
7.8e-05
7.8e-05
7.8e-05
7.8e-05
7.8e-05
7.8e-05
7.8e-05
7.8e-05
7.8e-05
7.8e-05
7.8e-05
7.8e-05
7.8e-05
7.8e-05
7.8e-05
7.8e-05
7.8e-05
7.8e-05
7.8e-05
7.8e-05
7.8e-05
7.8e-05
7.8e-05
7.8e-05
7.8e-05
7.8e-05
7.8e-05
7.8e-05
7.8e-05
7.8e-05
7.8e-05
7.8e-05
7.8e-05
7.8e-05
7.8e-05
7.8e-05
7.8e-05
7.8e-05
7.8e-05
7.8e-05
7.8e-05
7.8e-05
7.8e-05
7.8e-05
7.8e-05
7.8e-05
7.8e-05
7.8e-05
7.8e-05
7.8e-05
7.8e-05
7.8e-05
7.8e-05
7.8e-05
7.8e-05
7.8e-05
7.8e-05
7.8e-05
7.8e-05
7.8e-05
7.8e-05
7.8e-05
7.8e-05
7.8e-05
7.8e-05
7.8e-05
7.8e-05
7.8e-05
7.8e-05
7.8e-05
7.8e-05
7.8e-05
7.8e-05
7.8e-05
7.8e-05
7.8e-05
7.8e-05
7.8e-05
7.8e-05
7.8e-05
7.8e-05
7.8e-05
7.8e-05
7.8e-05
7.8e-05
7.8e-05
7.8e-05
7.8e-05
7.8e-05
7.8e-05
7.8e-05
7.8e-05
7.8e-05
7.8e-05
7.8e-05
7.8e-05
7.8e-05
7.8e-05
7.8e-05
7.8e-05
7.8e-05
7.8e-05
7.8e-05
7.8e-05
7.8e-05
7.8e-05
7.8e-05
7.8e-05
7.8e-05
7.8e-05
7.8e-05
7.8e-05
7.8e-05
7.8e-05
7.8e-05
7.8e-05
7.8e-05
7.8e-05
7.8e-05
7.8e-05
7.8e-05
7.8e-05
7.8e-05
7.8e-05
7.8e-05
7.8e-05
7.8e-05
7.8e-05
7.8e-05
7.8e-05
7.8e-05
7.8e-05
7.8e-05
7.8e-05
7.8e-05
7.8e-05
7.8e-05
7.8e-05
7.8e-05
7.8e-05
7.8e-05
7.8e-05
7.8e-05
7.8e-05
7.8e-05
7.8e-05
7.8e-05
7.8e-05
7.8e-05
7.8e-05
7.8e-05
7.8e-05
7.8e-05
7.8e-05
7.8e-05
7.8e-05
7.8e-05
7.8e-05
7.8e-05
7.8e-05
7.8e-05
7.8e-05
7.8e-05
7.8e-05
7.8e-05
7.8e-05
7.8e-05
7.8e-05
7.8e-05
7.8e-05
7.8e-05
7.8e-05
7.8e-05
7.8e-05
7.8e-05
7.8e-05
7.8e-05
7.8e-05
7.8e-05
7.8e-05
7.8e-05
7.8e-05
7.8e-05
7.8e-05
7.8e-05
7.8e-05
7.8e-05
7.8e-05
7.8e-05
7.8e-05
7.8e-05
7.8e-05
7.8e-05
7.8e-05
7.8e-05
7.8e-05
7.8e-05
7.8e-05
7.8e-05
7.8e-05
7.8e-05
7.8e-05
7.8e-05
7.8e-05
7.8e-05
7.8e-05
7.8e-05
7.8e-05
7.8e-05
7.8e-05
7.8e-05
7.8e-05
7.8e-05
7.8e-05
7.8e-05
7.8e-05
7.8e-05
7.8e-05
7.8e-05
7.8e-05
7.8e-05
7.8e-05
7.8e-05
7.8e-05
7.8e-05
7.8e-05
7.8e-05
7.8e-05
7.8e-05
7.8e-05
7.8e-05
7.8e-05
7.8e-05
7.8e-05
7.8e-05
7.8e-05
7.8e-05
7.8e-05
7.8e-05
7.8e-05
7.8e-05
7.8e-05
7.8e-05
7.8e-05
7.8e-05
7.8e-05
7.8e-05
7.8e-05
7.8e-05
7.8e-05
7.8e-05
7.8e-05
7.8e-05
7.8e-05
7.8e-05
7.8e-05
7.8e-05
7.8e-05
7.8e-05
7.8e-05
7.8e-05
7.8e-05
7.8e-05
7.8e-05
7.8e-05
7.8e-05
7.8e-05
7.8e-05
7.8e-05
7.8e-05
7.8e-05
7.8e-05
7.8e-05
7.8e-05
7.8e-05
7.8e-05
7.8e-05
7.8e-05
7.8e-05
7.8e-05
7.8e-05
7.8e-05
7.8e-05
7.8e-05
7.8e-05
7.8e-05
7.8e-05
7.8e-05
7.8e-05
7.8e-05
7.8e-05
7.8e-05
7.8e-05
7.8e-05
7.8e-05
7.8e-05
7.8e-05
7.8e-05
7.8e-05
7.8e-05
7.8e-05
7.8e-05
7.8e-05
7.8e-05
7.8e-05
7.8e-05
7.8e-05
7.8e-05
7.8e-05
7.8e-05
7.8e-05
7.8e-05
7.8e-05
7.8e-05
7.8e-05
7.8e-05
7.8e-05
7.8e-05
7.8e-05
7.8e-05
7.8e-05
7.8e-05
7.8e-05
7.8e-05
7.8e-05
7.8e-05
7.8e-05
7.8e-05
7.8e-05
7.8e-05
7.8e-05
7.8e-05
7.8e-05
7.8e-05
7.8e-05
7.8e-05
7.8e-05
7.8e-05
7.8e-05
7.8e-05
7.8e-05
7.8e-05
7.8e-05
7.8e-05
7.8e-05
7.8e-05
7.8e-05
7.8e-05
7.8e-05
7.8e-05
7.8e-05
7.8e-05
7.8e-05
7.8e-05
7.8e-05
7.8e-05
7.8e-05
7.8e-05
7.8e-05
7.8e-05
7.8e-05
7.8e-05
7.8e-05
7.8e-05
7.8e-05
7.8e-05
7.8e-05
7.8e-05
7.8e-05
7.8e-05
7.8e-05
7.8e-05
7.8e-05
7.8e-05
7.8e-05
7.8e-05
7.8e-05
7.8e-05
7.8e-05
7.8e-05
7.8e-05
7.8e-05
7.8e-05
7.8e-05
7.8e-05
7.8e-05
7.8e-05
7.8e-05
7.8e-05
7.8e-05
7.8e-05
7.8e-05
7.8e-05
7.8e-05
7.8e-05
7.8e-05
7.8e-05
7.8e-05
7.8e-05
7.8e-05
7.8e-05
7.8e-05
7.8e-05
7.8e-05
7.8e-05
7.8e-05
7.8e-05
7.8e-05
7.8e-05
7.8e-05
7.8e-05
7.8e-05
7.8e-05
7.8e-05
7.8e-05
7.8e-05
7.8e-05
7.8e-05
7.8e-05
7.8e-05
7.8e-05
7.8e-05
7.8e-05
7.8e-05
7.8e-05
7.8e-05
7.8e-05
7.8e-05
7.8e-05
7.8e-05
7.8e-05
7.8e-05
7.8e-05
7.8e-05
7.8e-05
7.8e-05
7.8e-05
7.8e-05
7.8e-05
7.8e-05
7.8e-05
7.8e-05
7.8e-05
7.8e-05
7.8e-05
7.8e-05
7.8e-05
7.8e-05
7.8e-05
7.8e-05
7.8e-05
7.8e-05
7.8e-05
7.8e-05
7.8e-05
7.8e-05
7.8e-05
7.8e-05
7.8e-05
7.8e-05
7.8e-05
7.8e-05
7.8e-05
7.8e-05
7.8e-05
7.8e-05
7.8e-05
7.8e-05
7.8e-05
7.8e-05
7.8e-05
7.8e-05
7.8e-05
7.8e-05
7.8e-05
7.8e-05
7.8e-05
7.8e-05
7.8e-05
7.8e-05
7.8e-05
7.8e-05
7.8e-05
7.8e-05
7.8e-05
7.8e-05
7.8e-05
7.8e-05
7.8e-05
7.8e-05
7.8e-05
7.8e-05
7.8e-05
7.8e-05
7.8e-05
7.8e-05
7.8e-05
7.8e-05
7.8e-05
7.8e-05
7.8e-05
7.8e-05
7.8e-05
7.8e-05
7.8e-05
7.8e-05
7.8e-05
7.8e-05
7.8e-05
7.8e-05
7.8e-05
7.8e-05
7.8e-05
7.8e-05
7.8e-05
7.8e-05
7.8e-05
7.8e-05
7.8e-05
7.8e-05
7.8e-05
7.8e-05
7.8e-05
7.8e-05
7.8e-05
7.8e-05
7.8e-05
7.8e-05
7.8e-05
7.8e-05
7.8e-05
7.8e-05
7.8e-05
7.8e-05
7.8e-05
7.8e-05
7.8e-05
7.8e-05
7.8e-05
7.8e-05
7.8e-05
7.8e-05
7.8e-05
7.8e-05
7.8e-05
7.8e-05
7.8e-05
7.8e-05
7.8e-05
7.8e-05
7.8e-05
7.8e-05
7.8e-05
7.8e-05
7.8e-05
7.8e-05
7.8e-05
7.8e-05
7.8e-05
7.8e-05
7.8e-05
7.8e-05
7.8e-05
7.8e-05
7.8e-05
7.8e-05
7.8e-05
7.8e-05
7.8e-05
7.8e-05
7.8e-05
7.8e-05
7.8e-05
7.8e-05
7.8e-05
7.8e-05
7.8e-05
7.8e-05
7.8e-05
7.8e-05
7.8e-05
7.8e-05
7.8e-05
7.8e-05
7.8e-05
7.8e-05
7.8e-05
7.8e-05
7.8e-05
7.8e-05
7.8e-05
7.8e-05
7.8e-05
7.8e-05
7.8e-05
7.8e-05
7.8e-05
7.8e-05
7.8e-05
7.8e-05
7.8e-05
7.8e-05
7.8e-05
7.8e-05
7.8e-05
7.8e-05
7.8e-05
7.8e-05
7.8e-05
7.8e-05
7.8e-05
7.8e-05
7.8e-05
7.8e-05
7.8e-05
7.8e-05
7.8e-05
7.8e-05
7.8e-05
7.8e-05
7.8e-05
7.8e-05
7.8e-05
7.8e-05
7.8e-05
7.8e-05
7.8e-05
7.8e-05
7.8e-05
7.8e-05
7.8e-05
7.8e-05
7.8e-05
7.8e-05
7.8e-05
7.8e-05
7.8e-05
7.8e-05
7.8e-05
7.8e-05
7.8e-05
7.8e-05
7.8e-05
7.8e-05
7.8e-05
7.8e-05
7.8e-05
7.8e-05
7.8e-05
7.8e-05
7.8e-05
7.8e-05
7.8e-05
7.8e-05
7.8e-05
7.8e-05
7.8e-05
7.8e-05
7.8e-05
7.8e-05
7.8e-05
7.8e-05
7.8e-05
7.8e-05
7.8e-05
7.8e-05
7.8e-05
7.8e-05
7.8e-05
7.8e-05
7.8e-05
7.8e-05
7.8e-05
7.8e-05
7.8e-05
7.8e-05
7.8e-05
7.8e-05
7.8e-05
7.8e-05
7.8e-05
7.8e-05
7.8e-05
7.8e-05
7.8e-05
7.8e-05
7.8e-05
7.8e-05
7.8e-05
7.8e-05
7.8e-05
7.8e-05
7.8e-05
7.8e-05
7.8e-05
7.8e-05
7.8e-05
7.8e-05
7.8e-05
7.8e-05
7.8e-05
7.8e-05
7.8e-05
7.8e-05
7.8e-05
7.8e-05
7.8e-05
7.8e-05
7.8e-05
7.8e-05
7.8e-05
7.8e-05
7.8e-05
7.8e-05
7.8e-05
7.8e-05
7.8e-05
7.8e-05
7.8e-05
7.8e-05
7.8e-05
7.8e-05
7.8e-05
7.8e-05
7.8e-05
7.8e-05
7.8e-05
7.8e-05
7.8e-05
7.8e-05
7.8e-05
7.8e-05
7.8e-05
7.8e-05
7.8e-05
7.8e-05
7.8e-05
7.8e-05
7.8e-05
7.8e-05
7.8e-05
7.8e-05
7.8e-05
7.8e-05
7.8e-05
7.8e-05
7.8e-05
7.8e-05
7.8e-05
7.8e-05
7.8e-05
7.8e-05
7.8e-05
7.8e-05
7.8e-05
7.8e-05
7.8e-05
7.8e-05
7.8e-05
7.8e-05
7.8e-05
7.8e-05
7.8e-05
7.8e-05
7.8e-05
7.8e-05
7.8e-05
7.8e-05
7.8e-05
7.8e-05
7.8e-05
7.8e-05
7.8e-05
7.8e-05
7.8e-05
7.8e-05
7.8e-05
7.8e-05
7.8e-05
7.8e-05
7.8e-05
7.8e-05
7.8e-05
7.8e-05
7.8e-05
7.8e-05
7.8e-05
7.8e-05
7.8e-05
7.8e-05
7.8e-05
7.8e-05
7.8e-05
7.8e-05
7.8e-05
7.8e-05
7.8e-05
7.8e-05
7.8e-05
7.8e-05
7.8e-05
7.8e-05
7.8e-05
7.8e-05
7.8e-05
7.8e-05
7.8e-05
7.8e-05
7.8e-05
7.8e-05
7.8e-05
7.8e-05
7.8e-05
7.8e-05
7.8e-05
7.8e-05
7.8e-05
7.8e-05
7.8e-05
7.8e-05
7.8e-05
7.8e-05
7.8e-05
7.8e-05
7.8e-05
7.8e-05
7.8e-05
7.8e-05
7.8e-05
7.8e-05
7.8e-05
7.8e-05
7.8e-05
7.8e-05
7.8e-05
7.8e-05
7.8e-05
7.8e-05
7.8e-05
7.8e-05
7.8e-05
7.8e-05
7.8e-05
7.8e-05
7.8e-05
7.8e-05
7.8e-05
7.8e-05
7.8e-05
7.8e-05
7.8e-05
7.8e-05
7.8e-05
7.8e-05
7.8e-05
7.8e-05
7.8e-05
7.8e-05
7.8e-05
7.8e-05
7.8e-05
7.8e-05
7.8e-05
7.8e-05
7.8e-05
7.8e-05
7.8e-05
7.8e-05
7.8e-05
7.8e-05
7.8e-05
7.8e-05
7.8e-05
7.8e-05
7.8e-05
7.8e-05
7.8e-05
7.8e-05
7.8e-05
7.8e-05
7.8e-05
7.8e-05
7.8e-05
7.8e-05
7.8e-05
7.8e-05
7.8e-05
7.8e-05
7.8e-05
7.8e-05
7.8e-05
7.8e-05
7.8e-05
7.8e-05
7.8e-05
7.8e-05
7.8e-05
7.8e-05
7.8e-05
7.8e-05
7.8e-05
7.8e-05
7.8e-05
7.8e-05
7.8e-05
7.8e-05
7.8e-05
7.8e-05
7.8e-05
7.8e-05
7.8e-05
7.8e-05
7.8e-05
7.8e-05
7.8e-05
7.8e-05
7.8e-05
7.8e-05
7.8e-05
7.8e-05
7.8e-05
7.8e-05
7.8e-05
7.8e-05
7.8e-05
7.8e-05
7.8e-05
7.8e-05
7.8e-05
7.8e-05
7.8e-05
7.8e-05
7.8e-05
7.8e-05
7.8e-05
7.8e-05
7.8e-05
7.8e-05