/*--------------------------------*- C++ -*----------------------------------*\
| =========                 |                                                 |
| \\      /  F ield         | OpenFOAM: The Open Source CFD Toolbox           |
|  \\    /   O peration     | Version:  2406                                  |
|   \\  /    A nd           | Website:  www.openfoam.com                      |
|    \\/     M anipulation  |                                                 |
\*---------------------------------------------------------------------------*/
FoamFile
{
    version     2.0;
    format      ascii;
    arch        "LSB;label=32;scalar=64";
    class       volScalarField;
    location    "9.2";
    object      C_0;
}
// * * * * * * * * * * * * * * * * * * * * * * * * * * * * * * * * * * * * * //

dimensions      [1 -3 0 0 0 0 0];

internalField   nonuniform List<scalar> 
14400
(
0.215159
0.214374
0.212983
0.211271
0.209533
0.208028
0.206951
0.206425
0.206494
0.207125
0.208207
0.209545
0.210859
0.211799
0.211979
0.211075
0.20897
0.205876
0.202191
0.198355
0.194765
0.191761
0.189622
0.188594
0.188903
0.19078
0.194473
0.200252
0.208407
0.21924
0.23306
0.250184
0.270935
0.295641
0.324619
0.358118
0.396151
0.437713
0.475631
0.502361
0.521576
0.537995
0.551864
0.563372
0.57266
0.579836
0.584982
0.588154
0.589391
0.588711
0.586116
0.581591
0.575104
0.566603
0.556014
0.543239
0.52815
0.510576
0.490283
0.461424
0.42146
0.379919
0.342128
0.308916
0.280245
0.255855
0.235422
0.218607
0.205066
0.194449
0.186405
0.180594
0.176716
0.174532
0.173864
0.174593
0.176646
0.179988
0.184613
0.190537
0.197782
0.206359
0.216231
0.227269
0.239159
0.251226
0.26182
0.267685
0.266748
0.261058
0.253321
0.245222
0.237474
0.230455
0.224368
0.219301
0.215261
0.212192
0.209994
0.20853
0.207644
0.207177
0.206991
0.206998
0.207176
0.207585
0.208355
0.209662
0.211705
0.214685
0.21879
0.224178
0.230968
0.239225
0.248935
0.259978
0.272068
0.284632
0.296444
0.303885
0.220339
0.21936
0.217662
0.215614
0.213574
0.211835
0.210608
0.210021
0.210123
0.210881
0.212182
0.213823
0.215505
0.21683
0.21732
0.216504
0.21415
0.210611
0.206433
0.20214
0.198168
0.194867
0.192518
0.191361
0.191618
0.193514
0.197291
0.203213
0.211561
0.222634
0.236734
0.254179
0.27529
0.300396
0.329807
0.363761
0.402253
0.444197
0.480536
0.505486
0.52437
0.540543
0.554226
0.565592
0.574771
0.581867
0.586955
0.59009
0.591308
0.590625
0.588045
0.583554
0.577118
0.56869
0.5582
0.545555
0.530633
0.51328
0.493294
0.466184
0.427665
0.38558
0.347239
0.313531
0.284403
0.259593
0.238772
0.221602
0.207738
0.196834
0.188546
0.18254
0.178521
0.176248
0.175543
0.176283
0.178397
0.181851
0.186644
0.192796
0.200337
0.209284
0.219609
0.231194
0.243745
0.256585
0.267693
0.273381
0.273085
0.267231
0.258996
0.250418
0.242251
0.234884
0.228522
0.223255
0.219088
0.215963
0.21377
0.212362
0.211562
0.211188
0.211075
0.211108
0.21126
0.211602
0.212288
0.213522
0.215528
0.218525
0.222711
0.228251
0.235268
0.243829
0.253924
0.265441
0.2781
0.291288
0.303456
0.310236
0.231213
0.229774
0.227387
0.224619
0.221946
0.219722
0.218185
0.217474
0.21764
0.218651
0.220394
0.222654
0.225104
0.227269
0.22849
0.227941
0.224966
0.220413
0.215171
0.209926
0.205174
0.201274
0.198501
0.197083
0.197231
0.199157
0.203093
0.209287
0.218011
0.229549
0.244201
0.262278
0.284104
0.310001
0.340265
0.375085
0.414287
0.456228
0.489317
0.511605
0.529876
0.545581
0.558906
0.569997
0.578967
0.585906
0.590882
0.593944
0.595123
0.594438
0.591887
0.587459
0.581125
0.57284
0.562541
0.550146
0.535549
0.518615
0.499178
0.47487
0.439259
0.396673
0.357459
0.322826
0.292808
0.267166
0.24558
0.227709
0.21321
0.201742
0.192971
0.186577
0.182272
0.179818
0.179034
0.179796
0.182033
0.185716
0.190849
0.197464
0.205599
0.215283
0.226501
0.239141
0.252917
0.267092
0.278818
0.284152
0.284697
0.279355
0.270412
0.260959
0.251988
0.243946
0.237054
0.231404
0.227
0.223777
0.221615
0.22034
0.219741
0.21958
0.219631
0.219726
0.219816
0.22
0.220489
0.221551
0.223458
0.226466
0.230793
0.236619
0.244069
0.253213
0.264047
0.276461
0.290179
0.304501
0.31673
0.321891
0.248792
0.246436
0.242812
0.238838
0.235151
0.232168
0.230151
0.229245
0.229502
0.230893
0.233302
0.236512
0.240177
0.243757
0.246377
0.246577
0.242229
0.235829
0.22883
0.222092
0.216146
0.211339
0.207924
0.206106
0.206076
0.20803
0.212179
0.218756
0.228013
0.240225
0.255683
0.274693
0.297575
0.324644
0.356174
0.392276
0.432407
0.472538
0.500584
0.520537
0.537948
0.553
0.565821
0.576522
0.585193
0.591908
0.596723
0.599679
0.600805
0.600114
0.597607
0.593271
0.587083
0.579003
0.568978
0.55694
0.5428
0.526454
0.50777
0.486196
0.455163
0.413155
0.372922
0.336968
0.305637
0.278765
0.25605
0.237151
0.221723
0.209433
0.199957
0.19299
0.188257
0.185526
0.18462
0.185415
0.18784
0.191873
0.197526
0.204841
0.213868
0.224646
0.237167
0.251316
0.266749
0.282453
0.294182
0.299154
0.300422
0.297125
0.28774
0.277105
0.266998
0.257997
0.250352
0.244167
0.239445
0.236118
0.234049
0.233034
0.232805
0.23304
0.233402
0.233612
0.233576
0.233453
0.233567
0.234294
0.235989
0.238959
0.243453
0.249662
0.257718
0.267688
0.279559
0.293199
0.30824
0.32358
0.334262
0.337859
0.274527
0.270346
0.264676
0.258894
0.253761
0.249727
0.247053
0.245879
0.246254
0.248145
0.251439
0.255924
0.261261
0.2669
0.271856
0.273813
0.266701
0.257356
0.247839
0.239067
0.231525
0.225511
0.221236
0.218871
0.218583
0.220541
0.224937
0.231983
0.241914
0.254991
0.271493
0.291722
0.315984
0.344579
0.377732
0.415427
0.456523
0.490703
0.513344
0.531969
0.54838
0.562649
0.574856
0.585076
0.593375
0.599809
0.604422
0.607246
0.608304
0.607606
0.605154
0.600936
0.594932
0.587111
0.57743
0.565834
0.552259
0.53663
0.518871
0.498923
0.473416
0.435551
0.393907
0.35619
0.323141
0.294663
0.270473
0.250236
0.23361
0.220264
0.209884
0.202179
0.19689
0.193798
0.192731
0.193573
0.196257
0.200765
0.207117
0.215364
0.225565
0.237766
0.251962
0.268025
0.285487
0.302543
0.312834
0.317614
0.319486
0.318438
0.31079
0.29906
0.287632
0.277458
0.268883
0.262043
0.256955
0.253557
0.251698
0.25114
0.251543
0.25247
0.253394
0.253813
0.253528
0.252835
0.252279
0.252414
0.253709
0.256535
0.261176
0.267834
0.276638
0.287639
0.300794
0.315902
0.332338
0.347429
0.354592
0.357241
0.309677
0.302154
0.293468
0.285257
0.278261
0.272895
0.269396
0.267887
0.268402
0.270906
0.275284
0.281319
0.288668
0.296732
0.304003
0.304662
0.297711
0.284976
0.272428
0.261206
0.251733
0.244245
0.238904
0.235847
0.235209
0.237137
0.2418
0.249388
0.26012
0.274241
0.292018
0.313737
0.339684
0.370107
0.405086
0.444053
0.482693
0.509036
0.528315
0.545614
0.560953
0.574361
0.585879
0.595551
0.603423
0.609532
0.613909
0.616579
0.617558
0.616853
0.614466
0.610387
0.604599
0.59708
0.587796
0.576707
0.563771
0.548937
0.53216
0.5134
0.492143
0.461568
0.420067
0.380649
0.345608
0.315195
0.289211
0.267346
0.249267
0.234651
0.223192
0.214612
0.208665
0.205147
0.203898
0.204811
0.207825
0.21293
0.220152
0.229544
0.241171
0.255081
0.27126
0.289535
0.309177
0.325898
0.334121
0.338959
0.341387
0.341538
0.33792
0.326801
0.314203
0.302749
0.293112
0.285527
0.280052
0.276647
0.275169
0.275346
0.276769
0.278856
0.280797
0.281614
0.280826
0.279097
0.277401
0.276566
0.277189
0.279711
0.284445
0.291592
0.301257
0.313458
0.328073
0.344716
0.362012
0.372917
0.377166
0.379269
0.346194
0.340395
0.328958
0.318082
0.308957
0.302047
0.29759
0.295691
0.296371
0.299586
0.305209
0.312965
0.322386
0.332333
0.33713
0.335465
0.331066
0.317873
0.30258
0.288769
0.277146
0.26797
0.261382
0.257495
0.256418
0.258279
0.263225
0.271428
0.283087
0.298428
0.317703
0.341171
0.369078
0.401582
0.438476
0.477896
0.507543
0.527566
0.545246
0.561218
0.575458
0.587962
0.598745
0.607828
0.615234
0.620986
0.625103
0.627603
0.628495
0.627784
0.625469
0.621545
0.615999
0.608813
0.599965
0.58943
0.577179
0.563187
0.547432
0.529906
0.51062
0.487146
0.451608
0.410643
0.37339
0.340759
0.312687
0.288918
0.269144
0.253054
0.240355
0.230778
0.22409
0.220102
0.218666
0.219684
0.223105
0.228923
0.237169
0.247899
0.261176
0.277036
0.295418
0.315962
0.337099
0.350817
0.357859
0.362712
0.365567
0.366554
0.365861
0.359846
0.346921
0.334231
0.323453
0.315065
0.30919
0.305859
0.30497
0.306231
0.309176
0.31312
0.316889
0.318514
0.31668
0.313125
0.309602
0.30731
0.30692
0.308939
0.313692
0.321354
0.331967
0.345478
0.361557
0.37919
0.392671
0.398517
0.401746
0.403401
0.379569
0.377933
0.369802
0.357168
0.345974
0.337431
0.331946
0.329632
0.330497
0.334492
0.341469
0.350916
0.361739
0.36919
0.369526
0.367554
0.364411
0.355292
0.338309
0.322012
0.308124
0.297104
0.28912
0.284279
0.282683
0.284447
0.2897
0.298596
0.311311
0.32805
0.349037
0.374481
0.404539
0.43916
0.477171
0.509011
0.530152
0.547729
0.563885
0.578556
0.591697
0.603285
0.613313
0.621782
0.628699
0.634074
0.637916
0.640235
0.641034
0.640317
0.638083
0.634326
0.629038
0.622208
0.613822
0.603867
0.592329
0.579199
0.564475
0.54817
0.530318
0.510963
0.484637
0.445736
0.406746
0.371786
0.34138
0.315442
0.293732
0.275966
0.261866
0.251175
0.24367
0.239174
0.237552
0.238716
0.242622
0.249268
0.258684
0.270929
0.286058
0.304074
0.32482
0.347528
0.367286
0.37712
0.383658
0.388463
0.391614
0.393236
0.393506
0.392304
0.385172
0.371994
0.360156
0.350994
0.344703
0.341513
0.341441
0.344145
0.349099
0.355688
0.362312
0.365458
0.361652
0.355374
0.349226
0.345011
0.343248
0.344553
0.349252
0.357459
0.369043
0.383811
0.400607
0.414826
0.42183
0.425398
0.427899
0.429187
0.412741
0.412454
0.409993
0.40149
0.38916
0.379111
0.372655
0.369945
0.371
0.375755
0.384088
0.394526
0.402565
0.404232
0.402825
0.400769
0.397899
0.393216
0.379421
0.361146
0.345016
0.332075
0.322585
0.316686
0.314501
0.316147
0.321743
0.331419
0.345328
0.363638
0.386531
0.414094
0.446222
0.481994
0.514571
0.536419
0.553409
0.569311
0.584011
0.597423
0.609489
0.620169
0.629439
0.637287
0.643705
0.648694
0.652254
0.654385
0.65509
0.654369
0.652219
0.648637
0.643619
0.637158
0.629249
0.619888
0.609072
0.596805
0.5831
0.567982
0.551494
0.533697
0.514205
0.485526
0.446002
0.408751
0.37581
0.347454
0.323566
0.303918
0.288251
0.276321
0.267917
0.262873
0.261066
0.262418
0.266887
0.274472
0.285202
0.299125
0.316278
0.336587
0.359583
0.383158
0.397426
0.405075
0.411188
0.415869
0.41919
0.421269
0.42227
0.422413
0.421144
0.414706
0.40289
0.393405
0.386674
0.383635
0.3846
0.388989
0.395872
0.404839
0.409663
0.411131
0.409648
0.404502
0.395763
0.38968
0.386242
0.386676
0.391264
0.400051
0.412404
0.427701
0.440362
0.447273
0.450618
0.453344
0.455267
0.45626
0.446201
0.446111
0.446012
0.443834
0.437137
0.426543
0.419591
0.416608
0.417805
0.42293
0.432033
0.438125
0.439732
0.438354
0.436772
0.434799
0.432317
0.429289
0.422434
0.40577
0.388042
0.373306
0.362267
0.355221
0.352388
0.35391
0.359895
0.370453
0.385693
0.405713
0.430652
0.460267
0.493504
0.524965
0.546498
0.562501
0.57775
0.592097
0.605424
0.617637
0.628666
0.638462
0.646989
0.65422
0.660142
0.664744
0.668018
0.669962
0.670573
0.669849
0.667787
0.664385
0.659642
0.653557
0.646129
0.637362
0.627264
0.615848
0.603137
0.589165
0.57398
0.557642
0.540223
0.52028
0.490306
0.451894
0.416447
0.385491
0.359207
0.337476
0.320073
0.306771
0.297373
0.291732
0.289737
0.291315
0.296428
0.305064
0.317239
0.332978
0.352277
0.374928
0.399729
0.418517
0.427601
0.434486
0.440148
0.444633
0.44801
0.450381
0.451892
0.452736
0.453165
0.452733
0.448449
0.441364
0.434367
0.431467
0.433558
0.439344
0.444922
0.448307
0.449118
0.449099
0.449871
0.44926
0.446057
0.44033
0.435256
0.434942
0.439307
0.448501
0.460332
0.469431
0.474776
0.477511
0.480023
0.482094
0.483565
0.484327
0.479751
0.479777
0.479897
0.480248
0.479535
0.475947
0.47123
0.468325
0.469521
0.473039
0.475714
0.475831
0.474183
0.472679
0.47111
0.469337
0.46728
0.464925
0.462304
0.454246
0.437108
0.421142
0.408634
0.40037
0.396848
0.398261
0.404691
0.416231
0.432925
0.454649
0.481588
0.512236
0.540436
0.560373
0.575074
0.589334
0.602992
0.615904
0.62795
0.639033
0.649078
0.658026
0.665832
0.672464
0.677899
0.68212
0.685113
0.686873
0.687391
0.686666
0.684694
0.681475
0.677008
0.671297
0.664348
0.656169
0.646775
0.636187
0.624436
0.611562
0.597618
0.58267
0.566796
0.550091
0.530017
0.500057
0.463449
0.430016
0.401204
0.377231
0.357935
0.343121
0.332623
0.326322
0.324126
0.325969
0.331808
0.341607
0.355338
0.372953
0.394313
0.418622
0.440663
0.451902
0.458986
0.465119
0.470286
0.474507
0.477834
0.480352
0.48218
0.483475
0.484434
0.485291
0.486184
0.484809
0.482666
0.481522
0.482258
0.483894
0.48482
0.483962
0.483583
0.483769
0.484577
0.486014
0.487665
0.487317
0.486659
0.487301
0.490785
0.496063
0.501109
0.503975
0.505927
0.507968
0.509867
0.511445
0.512571
0.513156
0.513273
0.513351
0.513549
0.51395
0.514667
0.515635
0.514888
0.513906
0.513761
0.513675
0.511876
0.510041
0.508488
0.507067
0.505652
0.504158
0.502541
0.500809
0.499018
0.497156
0.489724
0.475249
0.461916
0.452427
0.44826
0.449632
0.456548
0.469118
0.487348
0.510161
0.537953
0.560982
0.577969
0.591084
0.60408
0.616768
0.628981
0.640577
0.651439
0.661469
0.670587
0.67873
0.685849
0.691906
0.696871
0.700722
0.703443
0.705023
0.705454
0.70473
0.702849
0.699811
0.695618
0.690277
0.683796
0.67619
0.667479
0.657689
0.646857
0.635028
0.62226
0.608622
0.5942
0.579095
0.563425
0.544088
0.515708
0.481189
0.44999
0.423752
0.402458
0.386003
0.374285
0.367251
0.364833
0.366976
0.373625
0.384691
0.400051
0.419444
0.442338
0.465702
0.478434
0.485206
0.49132
0.496718
0.501369
0.505275
0.508468
0.511013
0.513001
0.51455
0.515804
0.516919
0.518051
0.519344
0.520486
0.520766
0.520316
0.519173
0.518171
0.517607
0.51748
0.517816
0.518647
0.519995
0.521891
0.524469
0.527119
0.529131
0.531316
0.533033
0.534079
0.535438
0.536986
0.538568
0.540032
0.541249
0.542117
0.542569
0.546717
0.546805
0.547
0.547336
0.54784
0.54848
0.549117
0.549268
0.5484
0.546917
0.545398
0.543966
0.542663
0.541449
0.540274
0.5391
0.537918
0.536754
0.535679
0.53481
0.534214
0.529405
0.5209
0.510835
0.506538
0.508107
0.515434
0.52869
0.548182
0.568892
0.586091
0.599071
0.610383
0.621901
0.633394
0.644676
0.655585
0.665985
0.675761
0.684816
0.69307
0.700459
0.706929
0.712439
0.716956
0.720454
0.722915
0.724323
0.724671
0.723951
0.722161
0.719301
0.715377
0.710395
0.70437
0.697317
0.689262
0.680234
0.670275
0.659433
0.64777
0.63536
0.622289
0.608662
0.594603
0.580254
0.562751
0.537628
0.505494
0.477446
0.454208
0.43603
0.422961
0.415119
0.412451
0.41491
0.422452
0.43485
0.451801
0.472355
0.494595
0.507357
0.513481
0.519151
0.52437
0.529066
0.533198
0.536754
0.539751
0.542232
0.54426
0.545921
0.547312
0.548531
0.549658
0.550715
0.55157
0.551992
0.551861
0.551429
0.551012
0.550814
0.550916
0.551368
0.5522
0.553428
0.555055
0.557052
0.559228
0.561341
0.562963
0.564266
0.565461
0.566711
0.568011
0.569286
0.570445
0.571401
0.572081
0.572434
0.580074
0.580151
0.580309
0.580555
0.580879
0.581225
0.581471
0.581396
0.580828
0.579895
0.578831
0.577763
0.576747
0.575793
0.574896
0.574051
0.573275
0.57261
0.572134
0.571968
0.572293
0.573366
0.572653
0.570643
0.569594
0.571986
0.579259
0.590368
0.602639
0.614083
0.623208
0.632664
0.642587
0.652741
0.662922
0.672957
0.682698
0.692017
0.700803
0.708963
0.716419
0.723106
0.728969
0.733965
0.738059
0.741224
0.743438
0.744685
0.744955
0.744242
0.742542
0.739857
0.736192
0.731558
0.72597
0.719446
0.712016
0.703711
0.694575
0.68466
0.674029
0.662757
0.650933
0.638663
0.626069
0.613298
0.600523
0.585914
0.565254
0.537846
0.513399
0.493627
0.479094
0.470426
0.467473
0.470191
0.478655
0.492235
0.510069
0.528001
0.538965
0.54402
0.548869
0.553547
0.557943
0.561978
0.565602
0.568792
0.571551
0.573902
0.575887
0.577563
0.578992
0.580235
0.581333
0.582289
0.583043
0.583515
0.583685
0.58367
0.583636
0.583719
0.584003
0.584539
0.585356
0.586464
0.587847
0.589456
0.591173
0.592846
0.594316
0.595603
0.596787
0.597937
0.599059
0.600119
0.601062
0.601829
0.602371
0.602652
0.613355
0.613414
0.61353
0.613698
0.613894
0.61407
0.614146
0.614017
0.61362
0.613003
0.61227
0.611507
0.610768
0.610081
0.609464
0.608934
0.608522
0.608278
0.608279
0.608636
0.609496
0.611054
0.613549
0.616938
0.619806
0.623758
0.629563
0.636372
0.64275
0.649658
0.657422
0.665788
0.674561
0.683553
0.692594
0.701533
0.710234
0.718581
0.726471
0.733815
0.740538
0.746576
0.751876
0.756393
0.760092
0.762944
0.764927
0.766024
0.766224
0.765519
0.763907
0.761392
0.757977
0.753676
0.748504
0.742484
0.735644
0.728019
0.719655
0.710603
0.700929
0.690706
0.680024
0.668986
0.657713
0.646346
0.635052
0.624028
0.612774
0.597233
0.578259
0.558159
0.542451
0.533264
0.529998
0.532615
0.541587
0.554973
0.566058
0.573492
0.576914
0.580605
0.584428
0.588224
0.591876
0.5953
0.598439
0.601262
0.603758
0.605938
0.607823
0.609451
0.610859
0.612084
0.613151
0.614063
0.6148
0.61534
0.615695
0.615931
0.616144
0.616424
0.616837
0.617429
0.618222
0.619223
0.620414
0.621752
0.623162
0.624555
0.625853
0.627043
0.628147
0.629189
0.63017
0.63107
0.631853
0.632482
0.632924
0.633151
0.646576
0.646619
0.646701
0.646811
0.646928
0.647016
0.647026
0.646907
0.646633
0.646225
0.645739
0.645228
0.644737
0.6443
0.643944
0.643698
0.6436
0.6437
0.64407
0.644799
0.646
0.647798
0.650312
0.65358
0.657565
0.662015
0.666717
0.671863
0.677649
0.684043
0.691035
0.698506
0.706315
0.714316
0.722369
0.730345
0.738125
0.745602
0.752684
0.759288
0.765342
0.770785
0.775566
0.77964
0.782973
0.785534
0.787303
0.78826
0.788396
0.787703
0.786178
0.783824
0.780649
0.776664
0.771887
0.766341
0.760056
0.753067
0.745421
0.737169
0.728376
0.719115
0.709471
0.699544
0.68945
0.679322
0.669311
0.659596
0.650381
0.641911
0.631979
0.620691
0.609879
0.601707
0.598161
0.599319
0.603191
0.607654
0.610439
0.612036
0.614334
0.61706
0.620015
0.623046
0.626038
0.628907
0.631593
0.634058
0.636283
0.638267
0.640018
0.641558
0.642908
0.644091
0.645123
0.646011
0.646753
0.647351
0.647822
0.648214
0.648584
0.648994
0.649493
0.650116
0.650881
0.651792
0.652834
0.653976
0.655169
0.656358
0.657497
0.658568
0.659569
0.660502
0.661363
0.662136
0.662799
0.663324
0.663689
0.663877
0.679755
0.679786
0.679843
0.679918
0.679992
0.680041
0.680036
0.679952
0.679778
0.679528
0.679232
0.678929
0.678653
0.678438
0.678315
0.678315
0.678479
0.678854
0.6795
0.680491
0.681906
0.683827
0.68632
0.689406
0.693049
0.69715
0.701633
0.706543
0.711942
0.717828
0.72417
0.730887
0.737877
0.745027
0.752222
0.759353
0.766317
0.773019
0.779375
0.78531
0.790756
0.795656
0.799961
0.803629
0.806623
0.808917
0.810488
0.811319
0.811398
0.810718
0.809277
0.807079
0.804131
0.800445
0.796039
0.790938
0.78517
0.778774
0.771792
0.764278
0.756292
0.747905
0.7392
0.73027
0.721223
0.712178
0.703275
0.694665
0.68652
0.679028
0.672373
0.666762
0.6612
0.656021
0.652577
0.651033
0.650045
0.648938
0.648937
0.649807
0.651325
0.653286
0.655525
0.657906
0.660324
0.662698
0.664967
0.667093
0.66905
0.670827
0.672426
0.673854
0.675124
0.676249
0.67724
0.678106
0.678851
0.679487
0.680031
0.680517
0.680985
0.681476
0.682026
0.682661
0.683395
0.684229
0.685155
0.686149
0.687179
0.68821
0.689211
0.690164
0.691058
0.691888
0.692644
0.693314
0.693881
0.694326
0.694633
0.69479
0.712902
0.712926
0.712969
0.713025
0.71308
0.713119
0.713125
0.713087
0.713
0.712875
0.712733
0.712601
0.712509
0.712485
0.712561
0.712769
0.713146
0.713736
0.714587
0.715757
0.717305
0.719285
0.721736
0.724673
0.728077
0.731904
0.736122
0.740733
0.745749
0.751159
0.756928
0.762995
0.76928
0.775693
0.78214
0.788529
0.79477
0.800782
0.806489
0.81182
0.816717
0.821123
0.824994
0.828289
0.830975
0.833024
0.834414
0.835129
0.835158
0.834493
0.833134
0.831084
0.828349
0.824944
0.820887
0.8162
0.810914
0.805065
0.798696
0.791857
0.784608
0.777014
0.769154
0.761114
0.752992
0.744895
0.736944
0.729268
0.722006
0.715298
0.709272
0.704024
0.699534
0.695822
0.69265
0.689976
0.688051
0.6869
0.686561
0.686932
0.687872
0.689236
0.690892
0.692729
0.694654
0.696592
0.698486
0.700297
0.701996
0.703567
0.705004
0.706309
0.707485
0.708541
0.709483
0.71032
0.71106
0.711713
0.712298
0.712839
0.713363
0.7139
0.714475
0.715107
0.715807
0.716576
0.717408
0.718285
0.719188
0.720092
0.720974
0.721818
0.722612
0.723346
0.724011
0.724595
0.725084
0.725466
0.725727
0.725861
0.746026
0.746046
0.746083
0.746131
0.746183
0.746229
0.74626
0.74627
0.74626
0.746239
0.746223
0.746234
0.746295
0.746433
0.746676
0.747054
0.747602
0.748355
0.749355
0.750647
0.752273
0.754271
0.756668
0.759473
0.76268
0.766268
0.770216
0.774517
0.779162
0.78413
0.789389
0.794885
0.800555
0.806324
0.812116
0.817851
0.823454
0.828851
0.833976
0.838766
0.843166
0.847126
0.850603
0.85356
0.855964
0.857789
0.859015
0.859626
0.859611
0.858964
0.857683
0.855772
0.853239
0.850097
0.846363
0.842062
0.837221
0.831877
0.82607
0.819848
0.813267
0.80639
0.799289
0.792041
0.784735
0.777466
0.770338
0.763458
0.756939
0.750886
0.745392
0.74052
0.736285
0.732678
0.729633
0.72714
0.72527
0.724049
0.723475
0.723488
0.723995
0.724892
0.726079
0.727465
0.72897
0.730529
0.73209
0.733612
0.735069
0.73644
0.737716
0.738891
0.739966
0.740945
0.741831
0.742632
0.743354
0.744009
0.74461
0.745176
0.745727
0.746285
0.746866
0.747485
0.748149
0.74886
0.749614
0.750397
0.751197
0.751995
0.752775
0.753522
0.754226
0.754875
0.75546
0.75597
0.756395
0.756725
0.75695
0.757065
0.77913
0.779149
0.779185
0.779235
0.779293
0.779355
0.779415
0.779473
0.779531
0.779598
0.779687
0.779815
0.780004
0.780276
0.780656
0.781171
0.781851
0.782727
0.783832
0.785202
0.786868
0.788857
0.791189
0.793872
0.796903
0.80027
0.803959
0.807958
0.81225
0.816812
0.821611
0.826602
0.831729
0.836933
0.842148
0.847306
0.852342
0.857193
0.861798
0.866102
0.870056
0.873613
0.876733
0.879382
0.881531
0.883153
0.884231
0.884749
0.884696
0.884067
0.882862
0.881083
0.878738
0.875841
0.872408
0.868462
0.864032
0.859151
0.853857
0.848198
0.842223
0.835991
0.829568
0.823025
0.81644
0.809896
0.803482
0.797289
0.791405
0.785915
0.78089
0.776379
0.772406
0.768974
0.766065
0.76368
0.76184
0.760552
0.759803
0.75955
0.759727
0.760259
0.761068
0.762081
0.763232
0.764464
0.765731
0.766994
0.768227
0.769409
0.770527
0.771573
0.772545
0.773442
0.774266
0.775022
0.775716
0.776358
0.776957
0.777528
0.778086
0.778646
0.779219
0.779817
0.780445
0.781103
0.781789
0.782494
0.783207
0.783916
0.784608
0.785271
0.785894
0.786468
0.786983
0.78743
0.787802
0.788088
0.788284
0.788383
0.812215
0.812235
0.812274
0.81233
0.8124
0.812481
0.812573
0.812676
0.812794
0.812935
0.813111
0.813337
0.81363
0.81401
0.8145
0.815123
0.815903
0.816869
0.818046
0.819461
0.821139
0.823101
0.825361
0.827924
0.830789
0.83395
0.837393
0.841105
0.845068
0.849258
0.853642
0.858181
0.862828
0.867532
0.872236
0.876883
0.881416
0.885779
0.88992
0.89379
0.897342
0.900535
0.903334
0.905706
0.907623
0.909063
0.910007
0.910441
0.910357
0.909748
0.908614
0.906959
0.90479
0.90212
0.898965
0.895348
0.891294
0.886837
0.882012
0.876862
0.871435
0.865784
0.859968
0.854052
0.848104
0.842197
0.836407
0.830809
0.825477
0.82048
0.815874
0.811701
0.807988
0.804745
0.801974
0.799676
0.797858
0.796516
0.795635
0.79518
0.795104
0.795348
0.795853
0.79656
0.797413
0.798365
0.799374
0.800407
0.801436
0.802442
0.80341
0.804331
0.805198
0.806011
0.806768
0.807474
0.808132
0.808748
0.809333
0.809894
0.810444
0.810992
0.811548
0.81212
0.812709
0.813319
0.813945
0.814582
0.815221
0.815854
0.81647
0.817058
0.817611
0.818119
0.818574
0.818967
0.819293
0.819543
0.819714
0.8198
0.845279
0.845301
0.845346
0.84541
0.845494
0.845597
0.84572
0.845864
0.846034
0.846238
0.846486
0.846791
0.847168
0.847636
0.848212
0.848917
0.849772
0.850799
0.85202
0.853457
0.855128
0.857048
0.859228
0.861673
0.864381
0.867346
0.870558
0.874002
0.87766
0.881508
0.885517
0.889652
0.893871
0.89813
0.902381
0.906574
0.910659
0.914588
0.918315
0.921794
0.924986
0.927853
0.930362
0.932484
0.934193
0.935468
0.936292
0.936653
0.936542
0.935954
0.934888
0.933349
0.931343
0.928883
0.925985
0.922669
0.918961
0.91489
0.910492
0.905804
0.900871
0.895742
0.890469
0.885111
0.879727
0.874381
0.869138
0.864063
0.859215
0.854653
0.850423
0.846564
0.843099
0.840045
0.837408
0.835192
0.833398
0.83202
0.831041
0.830433
0.83016
0.830177
0.830437
0.830891
0.831496
0.832209
0.832995
0.833823
0.834669
0.835513
0.836341
0.837141
0.837906
0.838634
0.839323
0.839973
0.840588
0.841172
0.841731
0.842272
0.842803
0.843331
0.843863
0.844403
0.844955
0.845518
0.84609
0.846667
0.847243
0.847809
0.848359
0.848883
0.849373
0.849823
0.850225
0.850572
0.850859
0.851078
0.851228
0.851303
0.878322
0.878347
0.878397
0.878471
0.87857
0.878694
0.878845
0.879025
0.87924
0.879496
0.879803
0.880172
0.880617
0.881153
0.881795
0.88256
0.883468
0.884535
0.88578
0.887219
0.888867
0.890735
0.892831
0.895158
0.897715
0.900496
0.90349
0.906685
0.910061
0.913598
0.917267
0.921038
0.924874
0.928737
0.932584
0.936372
0.940058
0.9436
0.946956
0.950086
0.952955
0.955529
0.957778
0.959674
0.961196
0.962324
0.963041
0.963337
0.963204
0.962637
0.961636
0.960205
0.95835
0.956084
0.953422
0.950382
0.94699
0.943272
0.93926
0.93499
0.930503
0.925843
0.921056
0.916195
0.911312
0.906463
0.901703
0.897088
0.892669
0.888494
0.884603
0.881031
0.8778
0.874927
0.872421
0.870287
0.868523
0.867124
0.866075
0.865352
0.864926
0.864764
0.864825
0.865073
0.865469
0.86598
0.866573
0.867222
0.867904
0.868601
0.869298
0.869985
0.870652
0.871297
0.871916
0.872508
0.873075
0.87362
0.874147
0.87466
0.875164
0.875666
0.876168
0.876675
0.877189
0.877708
0.878231
0.878755
0.879273
0.879782
0.880273
0.88074
0.881176
0.881576
0.881932
0.882238
0.882491
0.882684
0.882815
0.882882
0.911339
0.911367
0.911423
0.911508
0.911621
0.911764
0.91194
0.912152
0.912404
0.912703
0.913058
0.913478
0.913976
0.914563
0.915253
0.916062
0.917004
0.918094
0.919345
0.920772
0.922385
0.924194
0.926203
0.928414
0.930826
0.933431
0.936222
0.939185
0.942303
0.945555
0.948916
0.952359
0.955852
0.959359
0.962845
0.966272
0.969602
0.972798
0.975822
0.97864
0.981219
0.98353
0.985545
0.98724
0.988594
0.989589
0.990212
0.990451
0.9903
0.989754
0.988814
0.987484
0.985769
0.983682
0.981236
0.978449
0.975345
0.971947
0.968286
0.964395
0.960309
0.956069
0.951718
0.9473
0.942863
0.938455
0.934123
0.929916
0.925878
0.922049
0.918466
0.915156
0.912143
0.909441
0.907063
0.905011
0.903285
0.901879
0.900781
0.899973
0.89943
0.899125
0.899027
0.899106
0.899329
0.899667
0.900095
0.900587
0.901124
0.901689
0.902266
0.902847
0.903422
0.903986
0.904535
0.905068
0.905585
0.906087
0.906576
0.907056
0.907529
0.907999
0.908469
0.908941
0.909416
0.909894
0.910371
0.910846
0.911315
0.911771
0.912211
0.912628
0.913017
0.913372
0.913687
0.913959
0.914182
0.914353
0.914468
0.914527
0.944328
0.944359
0.944421
0.944515
0.944642
0.944802
0.945
0.945238
0.945521
0.945855
0.946247
0.946707
0.947244
0.947869
0.948594
0.949431
0.950392
0.95149
0.952735
0.954139
0.955709
0.957452
0.959372
0.96147
0.963742
0.966182
0.968783
0.971531
0.97441
0.977402
0.980484
0.983631
0.986813
0.990003
0.993166
0.99627
0.999281
1.00217
1.00489
1.00743
1.00975
1.01183
1.01363
1.01515
1.01635
1.01723
1.01777
1.01796
1.01779
1.01727
1.01638
1.01515
1.01356
1.01164
1.00939
1.00683
1.00399
1.00089
0.997543
0.993993
0.990269
0.986407
0.982446
0.978425
0.974385
0.970369
0.96642
0.962576
0.958878
0.955361
0.952054
0.948985
0.946173
0.943634
0.941377
0.939408
0.937726
0.936326
0.935198
0.934328
0.933696
0.933279
0.933054
0.932994
0.933073
0.933267
0.933552
0.933908
0.934317
0.934763
0.935232
0.935715
0.936202
0.936689
0.937171
0.937645
0.93811
0.938566
0.939015
0.939458
0.939896
0.940333
0.940769
0.941205
0.941642
0.942079
0.942514
0.942945
0.943367
0.943778
0.944172
0.944544
0.944891
0.945207
0.945487
0.945728
0.945925
0.946076
0.946178
0.94623
0.977287
0.977321
0.977388
0.97749
0.977628
0.977804
0.97802
0.978279
0.978587
0.978948
0.97937
0.979859
0.980425
0.981076
0.981823
0.982676
0.983644
0.984738
0.985967
0.987339
0.98886
0.990534
0.992364
0.99435
0.996489
0.998774
1.0012
1.00375
1.00641
1.00916
1.01199
1.01487
1.01777
1.02067
1.02355
1.02636
1.02909
1.03169
1.03415
1.03644
1.03853
1.04039
1.04201
1.04336
1.04443
1.0452
1.04567
1.04581
1.04564
1.04514
1.04431
1.04316
1.04169
1.03992
1.03785
1.03551
1.0329
1.03006
1.02701
1.02376
1.02037
1.01685
1.01323
1.00957
1.00588
1.00222
0.998609
0.995091
0.991698
0.988461
0.985406
0.982556
0.979931
0.977544
0.975405
0.973518
0.971885
0.9705
0.969358
0.968445
0.967746
0.967243
0.966915
0.966742
0.966702
0.966774
0.966939
0.967177
0.967473
0.967813
0.968184
0.968577
0.968984
0.969397
0.969814
0.97023
0.970643
0.971053
0.97146
0.971864
0.972266
0.972667
0.973068
0.973468
0.973868
0.974266
0.974661
0.975051
0.975432
0.975801
0.976154
0.976487
0.976796
0.977077
0.977326
0.97754
0.977715
0.977848
0.977939
0.977984
1.01021
1.01025
1.01032
1.01043
1.01058
1.01076
1.011
1.01127
1.0116
1.01198
1.01242
1.01293
1.01352
1.01419
1.01495
1.01581
1.01677
1.01785
1.01906
1.02039
1.02186
1.02346
1.0252
1.02708
1.02909
1.03123
1.03348
1.03585
1.03831
1.04084
1.04344
1.04607
1.04873
1.05137
1.05398
1.05654
1.05901
1.06137
1.06359
1.06565
1.06753
1.06921
1.07066
1.07186
1.07281
1.07349
1.07389
1.074
1.07381
1.07333
1.07255
1.07148
1.07013
1.06849
1.06659
1.06444
1.06205
1.05945
1.05666
1.05369
1.05059
1.04737
1.04408
1.04073
1.03736
1.03401
1.03071
1.02748
1.02436
1.02138
1.01855
1.0159
1.01345
1.01121
1.00918
1.00737
1.00579
1.00443
1.00329
1.00235
1.0016
1.00103
1.00062
1.00036
1.00022
1.00019
1.00025
1.00039
1.00059
1.00083
1.00112
1.00143
1.00176
1.0021
1.00246
1.00282
1.00318
1.00354
1.00391
1.00427
1.00464
1.005
1.00537
1.00573
1.00609
1.00646
1.00681
1.00717
1.00751
1.00784
1.00816
1.00845
1.00873
1.00898
1.0092
1.00939
1.00955
1.00966
1.00974
1.00978
1.0431
1.04314
1.04321
1.04333
1.04349
1.04368
1.04392
1.04421
1.04456
1.04495
1.04541
1.04593
1.04653
1.04721
1.04797
1.04883
1.04978
1.05084
1.05202
1.05331
1.05472
1.05625
1.0579
1.05967
1.06156
1.06356
1.06566
1.06786
1.07013
1.07247
1.07485
1.07727
1.07969
1.0821
1.08448
1.0868
1.08904
1.09118
1.09318
1.09505
1.09674
1.09824
1.09954
1.10062
1.10146
1.10206
1.1024
1.10247
1.10228
1.10182
1.10109
1.1001
1.09884
1.09733
1.09558
1.09361
1.09142
1.08903
1.08647
1.08376
1.08092