/*--------------------------------*- C++ -*----------------------------------*\
| =========                 |                                                 |
| \\      /  F ield         | OpenFOAM: The Open Source CFD Toolbox           |
|  \\    /   O peration     | Version:  2406                                  |
|   \\  /    A nd           | Website:  www.openfoam.com                      |
|    \\/     M anipulation  |                                                 |
\*---------------------------------------------------------------------------*/
FoamFile
{
    version     2.0;
    format      ascii;
    arch        "LSB;label=32;scalar=64";
    class       volScalarField;
    location    "9.2";
    object      D;
}
// * * * * * * * * * * * * * * * * * * * * * * * * * * * * * * * * * * * * * //

dimensions      [0 2 -1 0 0 0 0];

internalField   nonuniform List<scalar> 
14400
(
7.71602e-05
7.71564e-05
7.71689e-05
7.72113e-05
7.7279e-05
7.73548e-05
7.74181e-05
7.74537e-05
7.74576e-05
7.74391e-05
7.74194e-05
7.74262e-05
7.74837e-05
7.75954e-05
7.77261e-05
7.78011e-05
7.77623e-05
7.76577e-05
7.75287e-05
7.73631e-05
7.71071e-05
7.66897e-05
7.60421e-05
7.51148e-05
7.38929e-05
7.24107e-05
7.07576e-05
6.90628e-05
6.74589e-05
6.6044e-05
6.48674e-05
6.39421e-05
6.32667e-05
6.28469e-05
6.272e-05
6.30069e-05
6.41114e-05
6.80302e-05
9.2602e-05
0.000138204
0.00013824
0.00013824
0.00013824
0.00013824
0.00013824
0.00013824
0.00013824
0.00013824
0.00013824
0.00013824
0.00013824
0.00013824
0.00013824
0.00013824
0.00013824
0.00013824
0.00013824
0.00013824
0.000138027
8.47226e-05
6.76921e-05
6.45147e-05
6.36614e-05
6.3597e-05
6.39937e-05
6.47691e-05
6.59239e-05
6.74895e-05
6.9485e-05
7.18594e-05
7.44435e-05
7.69789e-05
7.92224e-05
8.10158e-05
8.22838e-05
8.30062e-05
8.31966e-05
8.28916e-05
8.21487e-05
8.1054e-05
7.97314e-05
7.83492e-05
7.71215e-05
7.63232e-05
7.64036e-05
7.86391e-05
9.00469e-05
0.000137228
9.85329e-05
7.80562e-05
7.39761e-05
7.27536e-05
7.24768e-05
7.26618e-05
7.31068e-05
7.36949e-05
7.43437e-05
7.499e-05
7.55859e-05
7.60958e-05
7.64931e-05
7.67566e-05
7.68678e-05
7.68111e-05
7.65792e-05
7.61753e-05
7.56114e-05
7.49056e-05
7.40829e-05
7.31778e-05
7.22368e-05
7.13185e-05
7.04899e-05
6.98242e-05
6.94061e-05
6.93572e-05
6.99186e-05
7.1785e-05
7.84462e-05
0.000129171
7.62657e-05
7.61918e-05
7.61044e-05
7.60489e-05
7.60362e-05
7.60541e-05
7.60835e-05
7.61096e-05
7.61281e-05
7.61485e-05
7.6193e-05
7.62918e-05
7.64723e-05
7.67364e-05
7.70237e-05
7.71823e-05
7.706e-05
7.68165e-05
7.65652e-05
7.6312e-05
7.60019e-05
7.55602e-05
7.49174e-05
7.40264e-05
7.28762e-05
7.15024e-05
6.99874e-05
6.84445e-05
6.6987e-05
6.56985e-05
6.46234e-05
6.37771e-05
6.31643e-05
6.27982e-05
6.27251e-05
6.30822e-05
6.43307e-05
6.89534e-05
0.000104019
0.000138237
0.00013824
0.00013824
0.00013824
0.00013824
0.00013824
0.00013824
0.00013824
0.00013824
0.00013824
0.00013824
0.00013824
0.00013824
0.00013824
0.00013824
0.00013824
0.00013824
0.00013824
0.00013824
0.000138215
9.47265e-05
6.86075e-05
6.46965e-05
6.37002e-05
6.35659e-05
6.39026e-05
6.46097e-05
6.56761e-05
6.71233e-05
6.8966e-05
7.11645e-05
7.35799e-05
7.59864e-05
7.81487e-05
7.98971e-05
8.11424e-05
8.18553e-05
8.20446e-05
8.17461e-05
8.10213e-05
7.99627e-05
7.87012e-05
7.74091e-05
7.62996e-05
7.56487e-05
7.59492e-05
7.88821e-05
9.60165e-05
0.000138033
0.000109631
7.87278e-05
7.37655e-05
7.23031e-05
7.18714e-05
7.19226e-05
7.22434e-05
7.27179e-05
7.32692e-05
7.38406e-05
7.43883e-05
7.48775e-05
7.52776e-05
7.55584e-05
7.56887e-05
7.56417e-05
7.5406e-05
7.49927e-05
7.44277e-05
7.37416e-05
7.29665e-05
7.2138e-05
7.12984e-05
7.04982e-05
6.97956e-05
6.92574e-05
6.89683e-05
6.9065e-05
6.98473e-05
7.22716e-05
8.1278e-05
0.000135735
7.4827e-05
7.45895e-05
7.42921e-05
7.40484e-05
7.38895e-05
7.38051e-05
7.37745e-05
7.37818e-05
7.38226e-05
7.39067e-05
7.40592e-05
7.43183e-05
7.47265e-05
7.53027e-05
7.59616e-05
7.63594e-05
7.59683e-05
7.53787e-05
7.48628e-05
7.4433e-05
7.40183e-05
7.35341e-05
7.29091e-05
7.20987e-05
7.10936e-05
6.99242e-05
6.86559e-05
6.73748e-05
6.6165e-05
6.50906e-05
6.41898e-05
6.34827e-05
6.29843e-05
6.27215e-05
6.276e-05
6.32768e-05
6.48606e-05
7.07187e-05
0.000123137
0.00013824
0.00013824
0.00013824
0.00013824
0.00013824
0.00013824
0.00013824
0.00013824
0.00013824
0.00013824
0.00013824
0.00013824
0.00013824
0.00013824
0.00013824
0.00013824
0.00013824
0.00013824
0.00013824
0.00013824
0.000113457
7.01518e-05
6.50687e-05
6.38021e-05
6.35256e-05
6.37441e-05
6.43229e-05
6.52291e-05
6.64663e-05
6.80393e-05
6.9919e-05
7.20085e-05
7.41378e-05
7.6104e-05
7.77323e-05
7.8912e-05
7.95959e-05
7.97833e-05
7.95094e-05
7.88418e-05
7.78833e-05
7.67735e-05
7.56849e-05
7.48226e-05
7.44601e-05
7.51535e-05
7.92787e-05
0.000108539
0.000138231
0.000126558
8.00807e-05
7.3597e-05
7.16166e-05
7.08807e-05
7.06921e-05
7.08e-05
7.10819e-05
7.14658e-05
7.19033e-05
7.23587e-05
7.28008e-05
7.31961e-05
7.35018e-05
7.36659e-05
7.36385e-05
7.34011e-05
7.29794e-05
7.24251e-05
7.1788e-05
7.11076e-05
7.04174e-05
6.97504e-05
6.91451e-05
6.86477e-05
6.83181e-05
6.82458e-05
6.86002e-05
6.98261e-05
7.38979e-05
9.82616e-05
0.000138199
7.34521e-05
7.28903e-05
7.22594e-05
7.17635e-05
7.14284e-05
7.1227e-05
7.11281e-05
7.11121e-05
7.11739e-05
7.13241e-05
7.15927e-05
7.20334e-05
7.27289e-05
7.37819e-05
7.52043e-05
7.63596e-05
7.5068e-05
7.37641e-05
7.2827e-05
7.2153e-05
7.16064e-05
7.10779e-05
7.04894e-05
6.97947e-05
6.89798e-05
6.8062e-05
6.70839e-05
6.61023e-05
6.51741e-05
6.43462e-05
6.36522e-05
6.31177e-05
6.27697e-05
6.26543e-05
6.28748e-05
6.37175e-05
6.63214e-05
7.86319e-05
0.000137634
0.00013824
0.00013824
0.00013824
0.00013824
0.00013824
0.00013824
0.00013824
0.00013824
0.00013824
0.00013824
0.00013824
0.00013824
0.00013824
0.00013824
0.00013824
0.00013824
0.00013824
0.00013824
0.00013824
0.00013824
0.000133243
7.29909e-05
6.58933e-05
6.40576e-05
6.35244e-05
6.35609e-05
6.39622e-05
6.46615e-05
6.56386e-05
6.68829e-05
6.83679e-05
7.0028e-05
7.17487e-05
7.33807e-05
7.47739e-05
7.58119e-05
7.64305e-05
7.66172e-05
7.64039e-05
7.58627e-05
7.51011e-05
7.42568e-05
7.34911e-05
7.29959e-05
7.30553e-05
7.43313e-05
7.99159e-05
0.000124385
0.00013824
0.000137876
8.95799e-05
7.44081e-05
7.10638e-05
6.98296e-05
6.93275e-05
6.91863e-05
6.92536e-05
6.94528e-05
6.97397e-05
7.00853e-05
7.04648e-05
7.08459e-05
7.1178e-05
7.13863e-05
7.13878e-05
7.11518e-05
7.0725e-05
7.01928e-05
6.96231e-05
6.9058e-05
6.85245e-05
6.80462e-05
6.76507e-05
6.73762e-05
6.72816e-05
6.74702e-05
6.81677e-05
7.00416e-05
7.63446e-05
0.000124181
0.00013824
7.30611e-05
7.17099e-05
7.05405e-05
6.97333e-05
6.92126e-05
6.8898e-05
6.87351e-05
6.8696e-05
6.87736e-05
6.89803e-05
6.93534e-05
6.99709e-05
7.09902e-05
7.27541e-05
7.60526e-05
8.18837e-05
7.53135e-05
7.2457e-05
7.09136e-05
6.99567e-05
6.92767e-05
6.87104e-05
6.81638e-05
6.75849e-05
6.69519e-05
6.6268e-05
6.55552e-05
6.48465e-05
6.41787e-05
6.3586e-05
6.30991e-05
6.27485e-05
6.25743e-05
6.26489e-05
6.31416e-05
6.45892e-05
6.98948e-05
0.000116322
0.00013824
0.00013824
0.00013824
0.00013824
0.00013824
0.00013824
0.00013824
0.00013824
0.00013824
0.00013824
0.00013824
0.00013824
0.00013824
0.00013824
0.00013824
0.00013824
0.00013824
0.00013824
0.00013824
0.00013824
0.00013824
0.000138233
9.91575e-05
6.86321e-05
6.46668e-05
6.36339e-05
6.34071e-05
6.35899e-05
6.40587e-05
6.47639e-05
6.56772e-05
6.67676e-05
6.79854e-05
6.92539e-05
7.04739e-05
7.15384e-05
7.2355e-05
7.28639e-05
7.30479e-05
7.29332e-05
7.25852e-05
7.21004e-05
7.15986e-05
7.12227e-05
7.11638e-05
7.17784e-05
7.41595e-05
8.43932e-05
0.000136906
0.00013824
0.00013824
0.000122902
7.73109e-05
7.10463e-05
6.90242e-05
6.81385e-05
6.77427e-05
6.76121e-05
6.76499e-05
6.78086e-05
6.80623e-05
6.83914e-05
6.87698e-05
6.91453e-05
6.94226e-05
6.94648e-05
6.92183e-05
6.87631e-05
6.82336e-05
6.77141e-05
6.72435e-05
6.68414e-05
6.65239e-05
6.63127e-05
6.62444e-05
6.63874e-05
6.68804e-05
6.80927e-05
7.15831e-05
9.00196e-05
0.000138087
0.00013824
7.71183e-05
7.19025e-05
6.95641e-05
6.82912e-05
6.75438e-05
6.7107e-05
6.6879e-05
6.6816e-05
6.69067e-05
6.71669e-05
6.76474e-05
6.84669e-05
6.99197e-05
7.30083e-05
8.36937e-05
0.000129301
7.92035e-05
7.20009e-05
6.94743e-05
6.81759e-05
6.73554e-05
6.67459e-05
6.62259e-05
6.57337e-05
6.52398e-05
6.47364e-05
6.42307e-05
6.37399e-05
6.32872e-05
6.28988e-05
6.26042e-05
6.24401e-05
6.24636e-05
6.27891e-05
6.37199e-05
6.65102e-05
8.08772e-05
0.000137917
0.00013824
0.00013824
0.00013824
0.00013824
0.00013824
0.00013824
0.00013824
0.00013824
0.00013824
0.00013824
0.00013824
0.00013824
0.00013824
0.00013824
0.00013824
0.00013824
0.00013824
0.00013824
0.00013824
0.00013824
0.00013824
0.00013824
0.000132028
7.26602e-05
6.57636e-05
6.39455e-05
6.33476e-05
6.32692e-05
6.34966e-05
6.39419e-05
6.45571e-05
6.53042e-05
6.614e-05
6.70101e-05
6.78497e-05
6.85908e-05
6.91738e-05
6.95594e-05
6.97369e-05
6.97276e-05
6.95825e-05
6.9377e-05
6.92096e-05
6.92116e-05
6.95982e-05
7.08914e-05
7.55796e-05
0.000110167
0.000138237
0.00013824
0.00013824
0.000138166
9.41751e-05
7.27543e-05
6.87968e-05
6.7349e-05
6.66722e-05
6.63572e-05
6.62614e-05
6.63245e-05
6.65205e-05
6.6835e-05
6.72529e-05
6.77306e-05
6.81565e-05
6.82722e-05
6.79638e-05
6.73933e-05
6.67977e-05
6.62759e-05
6.58531e-05
6.55385e-05
6.53426e-05
6.52853e-05
6.541e-05
6.58149e-05
6.67217e-05
6.88174e-05
7.57512e-05
0.000129777
0.00013824
0.00013824
0.000124014
7.66582e-05
6.99188e-05
6.76485e-05
6.65266e-05
6.59173e-05
6.5605e-05
6.55123e-05
6.56189e-05
6.59479e-05
6.65806e-05
6.7727e-05
7.00266e-05
7.68152e-05
0.000126529
0.000138234
0.000105101
7.36209e-05
6.87482e-05
6.69485e-05
6.59453e-05
6.52671e-05
6.47451e-05
6.43019e-05
6.38993e-05
6.3521e-05
6.31647e-05
6.28379e-05
6.25559e-05
6.23413e-05
6.22261e-05
6.2259e-05
6.25284e-05
6.32379e-05
6.50342e-05
7.14822e-05
0.000128583
0.00013824
0.00013824
0.00013824
0.00013824
0.00013824
0.00013824
0.00013824
0.00013824
0.00013824
0.00013824
0.00013824
0.00013824
0.00013824
0.00013824
0.00013824
0.00013824
0.00013824
0.00013824
0.00013824
0.00013824
0.00013824
0.00013824
0.00013824
0.000138239
0.000107863
6.94667e-05
6.47837e-05
6.3489e-05
6.30679e-05
6.30385e-05
6.32409e-05
6.36008e-05
6.40705e-05
6.4609e-05
6.51746e-05
6.57241e-05
6.62161e-05
6.66163e-05
6.6904e-05
6.70769e-05
6.71534e-05
6.71726e-05
6.71943e-05
6.73054e-05
6.76448e-05
6.84922e-05
7.06434e-05
7.79904e-05
0.000133109
0.00013824
0.00013824
0.00013824
0.00013824
0.000135145
7.80222e-05
6.96523e-05
6.71888e-05
6.61145e-05
6.55845e-05
6.53582e-05
6.53475e-05
6.55234e-05
6.58776e-05
6.64221e-05
6.71555e-05
6.80144e-05
6.83449e-05
6.77742e-05
6.68124e-05
6.59901e-05
6.53761e-05
6.49382e-05
6.46647e-05
6.45601e-05
6.4646e-05
6.49865e-05
6.57721e-05
6.75382e-05
7.30031e-05
0.000111674
0.000138239
0.00013824
0.00013824
0.00013824
0.000116005
7.4292e-05
6.8281e-05
6.62828e-05
6.53553e-05
6.49037e-05
6.47656e-05
6.48981e-05
6.53429e-05
6.62652e-05
6.81849e-05
7.36431e-05
0.000108554
0.000138238
0.00013824
0.000134209
7.69644e-05
6.89315e-05
6.63506e-05
6.5054e-05
6.42524e-05
6.36898e-05
6.32581e-05
6.2906e-05
6.26091e-05
6.23583e-05
6.21555e-05
6.20124e-05
6.19531e-05
6.20202e-05
6.22908e-05
6.29347e-05
6.44675e-05
6.95838e-05
0.000109948
0.00013824
0.00013824
0.00013824
0.00013824
0.00013824
0.00013824
0.00013824
0.00013824
0.00013824
0.00013824
0.00013824
0.00013824
0.00013824
0.00013824
0.00013824
0.00013824
0.00013824
0.00013824
0.00013824
0.00013824
0.00013824
0.00013824
0.00013824
0.00013824
0.00013824
0.000137871
8.0491e-05
6.67093e-05
6.3987e-05
6.307e-05
6.27436e-05
6.27077e-05
6.28451e-05
6.30929e-05
6.34076e-05
6.37535e-05
6.40997e-05
6.44205e-05
6.46971e-05
6.49207e-05
6.50946e-05
6.52366e-05
6.53802e-05
6.55804e-05
6.59281e-05
6.66016e-05
6.80804e-05
7.27036e-05
0.000105568
0.000138236
0.00013824
0.00013824
0.00013824
0.00013824
0.00013824
0.00012773
7.51428e-05
6.835e-05
6.63338e-05
6.54255e-05
6.50147e-05
6.49283e-05
6.51323e-05
6.56236e-05
6.65039e-05
6.79887e-05
7.10078e-05
7.27835e-05
7.03235e-05
6.75221e-05
6.59872e-05
6.51014e-05
6.45462e-05
6.42592e-05
6.42329e-05
6.44972e-05
6.51613e-05
6.67489e-05
7.14012e-05
9.79003e-05
0.000138223
0.00013824
0.00013824
0.00013824
0.00013824
0.000138238
0.000107496
7.28553e-05
6.73434e-05
6.56099e-05
6.48622e-05
6.46393e-05
6.48226e-05
6.55073e-05
6.717e-05
7.19742e-05
9.73785e-05
0.000138216
0.00013824
0.00013824
0.00013824
0.000114486
7.24409e-05
6.67148e-05
6.47275e-05
6.36821e-05
6.30205e-05
6.25601e-05
6.22237e-05
6.19758e-05
6.18015e-05
6.1699e-05
6.16804e-05
6.17787e-05
6.20653e-05
6.26923e-05
6.40905e-05
6.83048e-05
9.47972e-05
0.000138225
0.00013824
0.00013824
0.00013824
0.00013824
0.00013824
0.00013824
0.00013824
0.00013824
0.00013824
0.00013824
0.00013824
0.00013824
0.00013824
0.00013824
0.00013824
0.00013824
0.00013824
0.00013824
0.00013824
0.00013824
0.00013824
0.00013824
0.00013824
0.00013824
0.00013824
0.00013824
0.000131668
7.20896e-05
6.53254e-05
6.34505e-05
6.26965e-05
6.23873e-05
6.23099e-05
6.2369e-05
6.25093e-05
6.26944e-05
6.28985e-05
6.31039e-05
6.33007e-05
6.34866e-05
6.36687e-05
6.38661e-05
6.41139e-05
6.44736e-05
6.50621e-05
6.61438e-05
6.85449e-05
7.68104e-05
0.000135217
0.00013824
0.00013824
0.00013824
0.00013824
0.00013824
0.00013824
0.00013824
0.000124295
7.45728e-05
6.8348e-05
6.63396e-05
6.54987e-05
6.52708e-05
6.56221e-05
6.65313e-05
6.85614e-05
7.35237e-05
9.75627e-05
0.000119891
9.09472e-05
7.24293e-05
6.7517e-05
6.58268e-05
6.48723e-05
6.44665e-05
6.45384e-05
6.51655e-05
6.6557e-05
7.12693e-05
9.57139e-05
0.000138201
0.00013824
0.00013824
0.00013824
0.00013824
0.00013824
0.00013824
0.000138237
0.000109699
7.30264e-05
6.76604e-05
6.59666e-05
6.55341e-05
6.58459e-05
6.72062e-05
7.22287e-05
9.95816e-05
0.000138207
0.00013824
0.00013824
0.00013824
0.00013824
0.000138171
9.02579e-05
6.91238e-05
6.51709e-05
6.36096e-05
6.2742e-05
6.21957e-05
6.18378e-05
6.16135e-05
6.14991e-05
6.14914e-05
6.16075e-05
6.19031e-05
6.25339e-05
6.3912e-05
6.77867e-05
8.78626e-05
0.000138165
0.00013824
0.00013824
0.00013824
0.00013824
0.00013824
0.00013824
0.00013824
0.00013824
0.00013824
0.00013824
0.00013824
0.00013824
0.00013824
0.00013824
0.00013824
0.00013824
0.00013824
0.00013824
0.00013824
0.00013824
0.00013824
0.00013824
0.00013824
0.00013824
0.00013824
0.00013824
0.00013824
0.00013824
0.000119056
7.05346e-05
6.47665e-05
6.30748e-05
6.23519e-05
6.20224e-05
6.18967e-05
6.1886e-05
6.19433e-05
6.20415e-05
6.2166e-05
6.23108e-05
6.24779e-05
6.26775e-05
6.29327e-05
6.32876e-05
6.3828e-05
6.47491e-05
6.66309e-05
7.24337e-05
0.000117845
0.00013824
0.00013824
0.00013824
0.00013824
0.00013824
0.00013824
0.00013824
0.00013824
0.00013824
0.00013054
7.91493e-05
7.10041e-05
6.80866e-05
6.72363e-05
6.84402e-05
7.14414e-05
8.07061e-05
0.00012624
0.000138222
0.00013824
0.000138169
0.000118704
7.5109e-05
6.98708e-05
6.67689e-05
6.58539e-05
6.61555e-05
6.83426e-05
7.27293e-05
0.000106974
0.000138216
0.00013824
0.00013824
0.00013824
0.00013824
0.00013824
0.00013824
0.00013824
0.00013824
0.000138239
0.000124671
7.851e-05
7.12194e-05
6.99047e-05
7.08245e-05
7.52157e-05
0.000117496
0.000138229
0.00013824
0.00013824
0.00013824
0.00013824
0.00013824
0.00013824
0.000137367
7.83917e-05
6.7283e-05
6.43283e-05
6.29717e-05
6.2221e-05
6.17832e-05
6.15564e-05
6.14982e-05
6.16082e-05
6.19204e-05
6.2546e-05
6.39774e-05
6.81999e-05
8.9068e-05
0.000138135
0.00013824
0.00013824
0.00013824
0.00013824
0.00013824
0.00013824
0.00013824
0.00013824
0.00013824
0.00013824
0.00013824
0.00013824
0.00013824
0.00013824
0.00013824
0.00013824
0.00013824
0.00013824
0.00013824
0.00013824
0.00013824
0.00013824
0.00013824
0.00013824
0.00013824
0.00013824
0.00013824
0.00013824
0.00013824
0.000138239
0.000108505
6.96446e-05
6.43935e-05
6.27689e-05
6.20487e-05
6.16985e-05
6.15309e-05
6.14695e-05
6.14773e-05
6.15385e-05
6.16487e-05
6.18121e-05
6.20434e-05
6.23735e-05
6.28681e-05
6.36696e-05
6.51915e-05
6.93387e-05
9.40342e-05
0.000138211
0.00013824
0.00013824
0.00013824
0.00013824
0.00013824
0.00013824
0.00013824
0.00013824
0.00013824
0.00013824
0.000137347
0.000111551
8.23619e-05
7.5612e-05
8.56316e-05
0.000115503
0.000137636
0.00013824
0.00013824
0.00013824
0.00013824
0.00013824
0.000135104
0.000104446
7.54363e-05
7.17132e-05
7.28618e-05
9.03307e-05
0.000127446
0.000138238
0.00013824
0.00013824
0.00013824
0.00013824
0.00013824
0.00013824
0.00013824
0.00013824
0.00013824
0.00013824
0.00013824
0.000137355
0.000119019
0.000104824
0.000115534
0.000135677
0.00013824
0.00013824
0.00013824
0.00013824
0.00013824
0.00013824
0.00013824
0.00013824
0.00013824
0.000136549
7.71976e-05
6.74226e-05
6.42112e-05
6.28725e-05
6.221e-05
6.19402e-05
6.19551e-05
6.22831e-05
6.30462e-05
6.44863e-05
6.94568e-05
9.94424e-05
0.000138191
0.00013824
0.00013824
0.00013824
0.00013824
0.00013824
0.00013824
0.00013824
0.00013824
0.00013824
0.00013824
0.00013824
0.00013824
0.00013824
0.00013824
0.00013824
0.00013824
0.00013824
0.00013824
0.00013824
0.00013824
0.00013824
0.00013824
0.00013824
0.00013824
0.00013824
0.00013824
0.00013824
0.00013824
0.00013824
0.00013824
0.00013824
0.000138238
0.000104445
6.93379e-05
6.41888e-05
6.25768e-05
6.18644e-05
6.1483e-05
6.12812e-05
6.11923e-05
6.1194e-05
6.12798e-05
6.14562e-05
6.17454e-05
6.21943e-05
6.29222e-05
6.42129e-05
6.71836e-05
7.95024e-05
0.000137648
0.00013824
0.00013824
0.00013824
0.00013824
0.00013824
0.00013824
0.00013824
0.00013824
0.00013824
0.00013824
0.00013824
0.00013824
0.000138239
0.000137843
0.000135904
0.000138047
0.00013824
0.00013824
0.00013824
0.00013824
0.00013824
0.00013824
0.00013824
0.00013824
0.000138237
0.000136231
0.000127845
0.000132794
0.000138184
0.00013824
0.00013824
0.00013824
0.00013824
0.00013824
0.00013824
0.00013824
0.00013824
0.00013824
0.00013824
0.00013824
0.00013824
0.00013824
0.00013824
0.00013824
0.000138237
0.00013824
0.00013824
0.00013824
0.00013824
0.00013824
0.00013824
0.00013824
0.00013824
0.00013824
0.00013824
0.00013824
0.00013824
0.000137274
8.7608e-05
6.93757e-05
6.51669e-05
6.36769e-05
6.32637e-05
6.34251e-05
6.44286e-05
6.74209e-05
7.22836e-05
0.000119406
0.000138235
0.00013824
0.00013824
0.00013824
0.00013824
0.00013824
0.00013824
0.00013824
0.00013824
0.00013824
0.00013824
0.00013824
0.00013824
0.00013824
0.00013824
0.00013824
0.00013824
0.00013824
0.00013824
0.00013824
0.00013824
0.00013824
0.00013824
0.00013824
0.00013824
0.00013824
0.00013824
0.00013824
0.00013824
0.00013824
0.00013824
0.00013824
0.00013824
0.00013824
0.000138238
0.000107921
6.96977e-05
6.4276e-05
6.27031e-05
6.18935e-05
6.14633e-05
6.12311e-05
6.11587e-05
6.1226e-05
6.14417e-05
6.18491e-05
6.25319e-05
6.38029e-05
6.65122e-05
7.54761e-05
0.000136292
0.00013824
0.00013824
0.00013824
0.00013824
0.00013824
0.00013824
0.00013824
0.00013824
0.00013824
0.00013824
0.00013824
0.00013824
0.00013824
0.00013824
0.00013824
0.00013824
0.00013824
0.00013824
0.00013824
0.00013824
0.00013824
0.00013824
0.00013824
0.00013824
0.00013824
0.00013824
0.00013824
0.00013824
0.00013824
0.00013824
0.00013824
0.00013824
0.00013824
0.00013824
0.00013824
0.00013824
0.00013824
0.00013824
0.00013824
0.00013824
0.00013824
0.00013824
0.00013824
0.00013824
0.00013824
0.00013824
0.00013824
0.00013824
0.00013824
0.00013824
0.00013824
0.00013824
0.00013824
0.00013824
0.00013824
0.00013824
0.00013824
0.00013824
0.00013824
0.000138172
0.000116041
7.61214e-05
6.93892e-05
6.84674e-05
6.9094e-05
7.37094e-05
0.000105823
0.000135529
0.00013824
0.00013824
0.00013824
0.00013824
0.00013824
0.00013824
0.00013824
0.00013824
0.00013824
0.00013824
0.00013824
0.00013824
0.00013824
0.00013824
0.00013824
0.00013824
0.00013824
0.00013824
0.00013824
0.00013824
0.00013824
0.00013824
0.00013824
0.00013824
0.00013824
0.00013824
0.00013824
0.00013824
0.00013824
0.00013824
0.00013824
0.00013824
0.00013824
0.00013824
0.00013824
0.00013824
0.000138239
0.000119337
7.10147e-05
6.57503e-05
6.33205e-05
6.23297e-05
6.17697e-05
6.15674e-05
6.16183e-05
6.19323e-05
6.26488e-05
6.39547e-05
6.74681e-05
7.82799e-05
0.000136319
0.00013824
0.00013824
0.00013824
0.00013824
0.00013824
0.00013824
0.00013824
0.00013824
0.00013824
0.00013824
0.00013824
0.00013824
0.00013824
0.00013824
0.00013824
0.00013824
0.00013824
0.00013824
0.00013824
0.00013824
0.00013824
0.00013824
0.00013824
0.00013824
0.00013824
0.00013824
0.00013824
0.00013824
0.00013824
0.00013824
0.00013824
0.00013824
0.00013824
0.00013824
0.00013824
0.00013824
0.00013824
0.00013824
0.00013824
0.00013824
0.00013824
0.00013824
0.00013824
0.00013824
0.00013824
0.00013824
0.00013824
0.00013824
0.00013824
0.00013824
0.00013824
0.00013824
0.00013824
0.00013824
0.00013824
0.00013824
0.00013824
0.00013824
0.00013824
0.00013824
0.00013824
0.00013824
0.000137434
0.000124748
0.000117213
0.000124621
0.000136837
0.000138239
0.00013824
0.00013824
0.00013824
0.00013824
0.00013824
0.00013824
0.00013824
0.00013824
0.00013824
0.00013824
0.00013824
0.00013824
0.00013824
0.00013824
0.00013824
0.00013824
0.00013824
0.00013824
0.00013824
0.00013824
0.00013824
0.00013824
0.00013824
0.00013824
0.00013824
0.00013824
0.00013824
0.00013824
0.00013824
0.00013824
0.00013824
0.00013824
0.00013824
0.00013824
0.00013824
0.00013824
0.00013824
0.00013824
0.00013824
0.000132749
8.57195e-05
6.89165e-05
6.54625e-05
6.34599e-05
6.29328e-05
6.29629e-05
6.35546e-05
6.56454e-05
6.97512e-05
9.4769e-05
0.000137694
0.00013824
0.00013824
0.00013824
0.00013824
0.00013824
0.00013824
0.00013824
0.00013824
0.00013824
0.00013824
0.00013824
0.00013824
0.00013824
0.00013824
0.00013824
0.00013824
0.00013824
0.00013824
0.00013824
0.00013824
0.00013824
0.00013824
0.00013824
0.00013824
0.00013824
0.00013824
0.00013824
0.00013824
0.00013824
0.00013824
0.00013824
0.00013824
0.00013824
0.00013824
0.00013824
0.00013824
0.00013824
0.00013824
0.00013824
0.00013824
0.00013824
0.00013824
0.00013824
0.00013824
0.00013824
0.00013824
0.00013824
0.00013824
0.00013824
0.00013824
0.00013824
0.00013824
0.00013824
0.00013824
0.00013824
0.00013824
0.00013824
0.00013824
0.00013824
0.00013824
0.00013824
0.00013824
0.00013824
0.00013824
0.00013824
0.00013824
0.00013824
0.00013824
0.00013824
0.00013824
0.00013824
0.00013824
0.00013824
0.00013824
0.00013824
0.00013824
0.00013824
0.00013824
0.00013824
0.00013824
0.00013824
0.00013824
0.00013824
0.00013824
0.00013824
0.00013824
0.00013824
0.00013824
0.00013824
0.00013824
0.00013824
0.00013824
0.00013824
0.00013824
0.00013824
0.00013824
0.00013824
0.00013824
0.00013824
0.00013824
0.00013824
0.00013824
0.00013824
0.00013824
0.00013824
0.00013824
0.00013824
0.00013824
0.00013824
0.00013817
0.00012119
8.59489e-05
6.99205e-05
6.83207e-05
6.82901e-05
6.9815e-05
8.47641e-05
0.000123162
0.000138227
0.00013824
0.00013824
0.00013824
0.00013824
0.00013824
0.00013824
0.00013824
0.00013824
0.00013824
0.00013824
0.00013824
0.00013824
0.00013824
0.00013824
0.00013824
0.00013824
0.00013824
0.00013824
0.00013824
0.00013824
0.00013824
0.00013824
0.00013824
0.00013824
0.00013824
0.00013824
0.00013824
0.00013824
0.00013824
0.00013824
0.00013824
0.00013824
0.00013824
0.00013824
0.00013824
0.00013824
0.00013824
0.00013824
0.00013824
0.00013824
0.00013824
0.00013824
0.00013824
0.00013824
0.00013824
0.00013824
0.00013824
0.00013824
0.00013824
0.00013824
0.00013824
0.00013824
0.00013824
0.00013824
0.00013824
0.00013824
0.00013824
0.00013824
0.00013824
0.00013824
0.00013824
0.00013824
0.00013824
0.00013824
0.00013824
0.00013824
0.00013824
0.00013824
0.00013824
0.00013824
0.00013824
0.00013824
0.00013824
0.00013824
0.00013824
0.00013824
0.00013824
0.00013824
0.00013824
0.00013824
0.00013824
0.00013824
0.00013824
0.00013824
0.00013824
0.00013824
0.00013824
0.00013824
0.00013824
0.00013824
0.00013824
0.00013824
0.00013824
0.00013824
0.00013824
0.00013824
0.00013824
0.00013824
0.00013824
0.00013824
0.00013824
0.00013824
0.00013824
0.00013824
0.00013824
0.00013824
0.00013824
0.00013824
0.00013824
0.00013824
0.00013824
0.00013824
0.000138173
0.000132204
0.000121207
0.000120055
0.000130692
0.000138148
0.00013824
0.00013824
0.00013824
0.00013824
0.00013824
0.00013824
0.00013824
0.00013824
0.00013824
0.00013824
0.00013824
0.00013824
0.00013824
0.00013824
0.00013824
0.00013824
0.00013824
0.00013824
0.00013824
0.00013824
0.00013824
0.00013824
0.00013824
0.00013824
0.00013824
0.00013824
0.00013824
0.00013824
0.00013824
0.00013824
0.00013824
0.00013824
0.00013824
0.00013824
0.00013824
0.00013824
0.00013824
0.00013824
0.00013824
0.00013824
0.00013824
0.00013824
0.00013824
0.00013824
0.00013824
0.00013824
0.00013824
0.00013824
0.00013824
0.00013824
0.00013824
0.00013824
0.00013824
0.00013824
0.00013824
0.00013824
0.00013824
0.00013824
0.00013824
0.00013824
0.00013824
0.00013824
0.00013824
0.00013824
0.00013824
0.00013824
0.00013824
0.00013824
0.00013824
0.00013824
0.00013824
0.00013824
0.00013824
0.00013824
0.00013824
0.00013824
0.00013824
0.00013824
0.00013824
0.00013824
0.00013824
0.00013824
0.00013824
0.00013824
0.00013824
0.00013824
0.00013824
0.00013824
0.00013824
0.00013824
0.00013824
0.00013824
0.00013824
0.00013824
0.00013824
0.00013824
0.00013824
0.00013824
0.00013824
0.00013824
0.00013824
0.00013824
0.00013824
0.00013824
0.00013824
0.00013824
0.00013824
0.00013824
0.00013824
0.00013824
0.00013824
0.00013824
0.00013824
0.00013824
0.00013824
0.00013824
0.00013824
0.00013824
0.00013824
0.00013824
0.00013824
0.00013824
0.00013824
0.00013824
0.00013824
0.00013824
0.00013824
0.00013824
0.00013824
0.00013824
0.00013824
0.00013824
0.00013824
0.00013824
0.00013824
0.00013824
0.00013824
0.00013824
0.00013824
0.00013824
0.00013824
0.00013824
0.00013824
0.00013824
0.00013824
0.00013824
0.00013824
0.00013824
0.00013824
0.00013824
0.00013824
0.00013824
0.00013824
0.00013824
0.00013824
0.00013824
0.00013824
0.00013824
0.00013824
0.00013824
0.00013824
0.00013824
0.00013824
0.00013824
0.00013824
0.00013824
0.00013824
0.00013824
0.00013824
0.00013824
0.00013824
0.00013824
0.00013824
0.00013824
0.00013824
0.00013824
0.00013824
0.00013824
0.00013824
0.00013824
0.00013824
0.00013824
0.00013824
0.00013824
0.00013824
0.00013824
0.00013824
0.00013824
0.00013824
0.00013824
0.00013824
0.00013824
0.00013824
0.00013824
0.00013824
0.00013824
0.00013824
0.00013824
0.00013824
0.00013824
0.00013824
0.00013824
0.00013824
0.00013824
0.00013824
0.00013824
0.00013824
0.00013824
0.00013824
0.00013824
0.00013824
0.00013824
0.00013824
0.00013824
0.00013824
0.00013824
0.00013824
0.00013824
0.00013824
0.00013824
0.00013824
0.00013824
0.00013824
0.00013824
0.00013824
0.00013824
0.00013824
0.00013824
0.00013824
0.00013824
0.00013824
0.00013824
0.00013824
0.00013824
0.00013824
0.00013824
0.00013824
0.00013824
0.00013824
0.00013824
0.00013824
0.00013824
0.00013824
0.00013824
0.00013824
0.00013824
0.00013824
0.00013824
0.00013824
0.00013824
0.00013824
0.00013824
0.00013824
0.00013824
0.00013824
0.00013824
0.00013824
0.00013824
0.00013824
0.00013824
0.00013824
0.00013824
0.00013824
0.00013824
0.00013824
0.00013824
0.00013824
0.00013824
0.00013824
0.00013824
0.00013824
0.00013824
0.00013824
0.00013824
0.00013824
0.00013824
0.00013824
0.00013824
0.00013824
0.00013824
0.00013824
0.00013824
0.00013824
0.00013824
0.00013824
0.00013824
0.00013824
0.00013824
0.00013824
0.00013824
0.00013824
0.00013824
0.00013824
0.00013824
0.00013824
0.00013824
0.00013824
0.00013824
0.00013824
0.00013824
0.00013824
0.00013824
0.00013824
0.00013824
0.00013824
0.00013824
0.00013824
0.00013824
0.00013824
0.00013824
0.00013824
0.00013824
0.00013824
0.00013824
0.00013824
0.00013824
0.00013824
0.00013824
0.00013824
0.00013824
0.00013824
0.00013824
0.00013824
0.00013824
0.00013824
0.00013824
0.00013824
0.00013824
0.00013824
0.00013824
0.00013824
0.00013824
0.00013824
0.00013824
0.00013824
0.00013824
0.00013824
0.00013824
0.00013824
0.00013824
0.00013824
0.00013824
0.00013824
0.00013824
0.00013824
0.00013824
0.00013824
0.00013824
0.00013824
0.00013824
0.00013824
0.00013824
0.00013824
0.00013824
0.00013824
0.00013824
0.00013824
0.00013824
0.00013824
0.00013824
0.00013824
0.00013824
0.00013824
0.00013824
0.00013824
0.00013824
0.00013824
0.00013824
0.00013824
0.00013824
0.00013824
0.00013824
0.00013824
0.00013824
0.00013824
0.00013824
0.00013824
0.00013824
0.00013824
0.00013824
0.00013824
0.00013824
0.00013824
0.00013824
0.00013824
0.00013824
0.00013824
0.00013824
0.00013824
0.00013824
0.00013824
0.00013824
0.00013824
0.00013824
0.00013824
0.00013824
0.00013824
0.00013824
0.00013824
0.00013824
0.00013824
0.00013824
0.00013824
0.00013824
0.00013824
0.00013824
0.00013824
0.00013824
0.00013824
0.00013824
0.00013824
0.00013824
0.00013824
0.00013824
0.00013824
0.00013824
0.00013824
0.00013824
0.00013824
0.00013824
0.00013824
0.00013824
0.00013824
0.00013824
0.00013824
0.00013824
0.00013824
0.00013824
0.00013824
0.00013824
0.00013824
0.00013824
0.00013824
0.00013824
0.00013824
0.00013824
0.00013824
0.00013824
0.00013824
0.00013824
0.00013824
0.00013824
0.00013824
0.00013824
0.00013824
0.00013824
0.00013824
0.00013824
0.00013824
0.00013824
0.00013824
0.00013824
0.00013824
0.00013824
0.00013824
0.00013824
0.00013824
0.00013824
0.00013824
0.00013824
0.00013824
0.00013824
0.00013824
0.00013824
0.00013824
0.00013824
0.00013824
0.00013824
0.00013824
0.00013824
0.00013824
0.00013824
0.00013824
0.00013824
0.00013824
0.00013824
0.00013824
0.00013824
0.00013824
0.00013824
0.00013824
0.00013824
0.00013824
0.00013824
0.00013824
0.00013824
0.00013824
0.00013824
0.00013824
0.00013824
0.00013824
0.00013824
0.00013824
0.00013824
0.00013824
0.00013824
0.00013824
0.00013824
0.00013824
0.00013824
0.00013824
0.00013824
0.00013824
0.00013824
0.00013824
0.00013824
0.00013824
0.00013824
0.00013824
0.00013824
0.00013824
0.00013824
0.00013824
0.00013824
0.00013824
0.00013824
0.00013824
0.00013824
0.00013824
0.00013824
0.00013824
0.00013824
0.00013824
0.00013824
0.00013824
0.00013824
0.00013824
0.00013824
0.00013824
0.00013824
0.00013824
0.00013824
0.00013824
0.00013824
0.00013824
0.00013824
0.00013824
0.00013824
0.00013824
0.00013824
0.00013824
0.00013824
0.00013824
0.00013824
0.00013824
0.00013824
0.00013824
0.00013824
0.00013824
0.00013824
0.00013824
0.00013824
0.00013824
0.00013824
0.00013824
0.00013824
0.00013824