/*--------------------------------*- C++ -*----------------------------------*\
| =========                 |                                                 |
| \\      /  F ield         | OpenFOAM: The Open Source CFD Toolbox           |
|  \\    /   O peration     | Version:  2406                                  |
|   \\  /    A nd           | Website:  www.openfoam.com                      |
|    \\/     M anipulation  |                                                 |
\*---------------------------------------------------------------------------*/
FoamFile
{
    version     2.0;
    format      ascii;
    arch        "LSB;label=32;scalar=64";
    class       volScalarField;
    location    "1.7";
    object      C_0_0;
}
// * * * * * * * * * * * * * * * * * * * * * * * * * * * * * * * * * * * * * //

dimensions      [1 -3 0 0 0 0 0];

internalField   nonuniform List<scalar> 
14400
(
2.11239
2.10788
2.0984
2.08284
2.05163
2.01033
1.98114
1.9731
1.98823
2.0244
2.0722
2.10845
2.12871
2.14352
2.15398
2.16067
2.16381
2.16337
2.15905
2.15014
2.13529
2.10463
2.06553
2.04047
2.03775
2.05935
2.10296
2.15944
2.20336
2.23029
2.25268
2.27171
2.2881
2.30233
2.31475
2.32559
2.33505
2.34326
2.35035
2.35639
2.36145
2.36559
2.36886
2.37129
2.37289
2.37371
2.37374
2.373
2.37149
2.36922
2.36617
2.36233
2.35769
2.35224
2.34593
2.33874
2.33063
2.32155
2.31142
2.30019
2.28775
2.274
2.2588
2.24196
2.22326
2.20242
2.17903
2.15257
2.1223
2.08663
2.03029
1.9555
1.89013
1.8416
1.81292
1.80489
1.81744
1.84967
1.89858
1.95719
2.00109
2.0258
2.04421
2.05792
2.06777
2.07429
2.07783
2.07856
2.07654
2.07173
2.06394
2.05281
2.03774
2.01767
1.98321
1.93623
1.89853
1.88087
1.88529
1.90983
1.94462
1.96905
1.97912
1.98211
1.97859
1.96803
1.9431
1.90763
1.88226
1.877
1.89384
1.93077
1.97705
2.01103
2.0308
2.04566
2.05669
2.06454
2.06958
2.07206
2.1169
2.11285
2.10446
2.09111
2.0708
2.03855
2.0073
1.9983
2.01449
2.05273
2.09066
2.11584
2.13412
2.14786
2.15776
2.16421
2.16738
2.16726
2.16363
2.15603
2.14371
2.12446
2.09397
2.0667
2.06304
2.0859
2.13184
2.1775
2.20962
2.23474
2.25603
2.27436
2.29026
2.30415
2.31632
2.32697
2.33629
2.34439
2.35139
2.35736
2.36237
2.36647
2.3697
2.3721
2.37369
2.37449
2.37451
2.37377
2.37226
2.36999
2.36695
2.36313
2.35852
2.35308
2.34681
2.33967
2.3316
2.32258
2.31253
2.30139
2.28907
2.27546
2.26043
2.24381
2.22541
2.20495
2.1821
2.15638
2.12715
2.09345
2.04952
1.98684
1.91968
1.86936
1.8401
1.83202
1.84503
1.87892
1.92954
1.97772
2.00956
2.03182
2.0489
2.06177
2.07109
2.07729
2.08063
2.0813
2.07933
2.0747
2.06727
2.05676
2.04273
2.02448
2.00005
1.96306
1.92382
1.90534
1.91056
1.93685
1.96321
1.9781
1.98619
1.98862
1.98562
1.97698
1.96156
1.93459
1.90747
1.90138
1.91899
1.95742
1.99379
2.01778
2.03569
2.04949
2.05988
2.06733
2.07216
2.07453
2.12546
2.12215
2.11547
2.10534
2.09194
2.07507
2.05406
2.04442
2.06132
2.08845
2.11054
2.12889
2.14407
2.15605
2.16498
2.17102
2.17425
2.17466
2.17217
2.16664
2.15795
2.14626
2.13131
2.11358
2.10918
2.13303
2.16725
2.19618
2.221
2.243
2.26237
2.27941
2.29443
2.30769
2.31939
2.32969
2.33874
2.34663
2.35346
2.3593
2.3642
2.36821
2.37138
2.37372
2.37527
2.37604
2.37605
2.3753
2.37379
2.37153
2.36851
2.36472
2.36015
2.35477
2.34857
2.3415
2.33354
2.32464
2.31474
2.30377
2.29167
2.27833
2.26364
2.24746
2.22961
2.20989
2.18803
2.1637
2.13648
2.10588
2.07137
2.02804
1.97394
1.92244
1.89322
1.8851
1.89787
1.93293
1.97166
2.00183
2.02446
2.04302
2.05779
2.06918
2.07754
2.08312
2.08612
2.08666
2.08479
2.08049
2.07368
2.06422
2.05193
2.0366
2.01822
1.99657
1.96908
1.95036
1.95596
1.97242
1.98445
1.99343
1.99891
2.00055
1.9983
1.9922
1.9826
1.96994
1.95274
1.94623
1.96402
1.99078
2.01185
2.02976
2.04471
2.05672
2.066
2.07276
2.07718
2.07937
2.13733
2.13484
2.12992
2.12284
2.11422
2.1055
2.0983
2.0946
2.10476
2.11754
2.13145
2.1451
2.15721
2.16727
2.1751
2.18065
2.18394
2.18496
2.18376
2.18041
2.17519
2.16877
2.16273
2.15879
2.15985
2.17628
2.19526
2.21527
2.23519
2.2539
2.27102
2.28649
2.30037
2.31279
2.32386
2.33367
2.34234
2.34993
2.35652
2.36217
2.36691
2.3708
2.37387
2.37614
2.37763
2.37836
2.37834
2.37758
2.37608
2.37383
2.37084
2.3671
2.36259
2.35729
2.35118
2.34423
2.33642
2.32769
2.318
2.3073
2.29551
2.28255
2.26834
2.25277
2.23569
2.21697
2.19643
2.1739
2.14919
2.12223
2.09313
2.06271
2.02943
1.99344
1.96841
1.96038
1.96872
1.98936
2.00903
2.02674
2.04343
2.05799
2.07007
2.07963
2.08675
2.09154
2.09408
2.09445
2.09268
2.08878
2.08273
2.07452
2.06415
2.05177
2.03779
2.02334
2.00992
1.99828
1.99866
2.00218
2.00735
2.01226
2.01548
2.01639
2.01481
2.0109
2.0053
1.99943
1.99515
1.99392
2.0047
2.01741
2.03126
2.04472
2.05666
2.06667
2.07463
2.08054
2.08444
2.08639
2.1517
2.14993
2.14654
2.14188
2.13659
2.1318
2.12913
2.13025
2.13476
2.14276
2.15262
2.16285
2.17241
2.18073
2.18748
2.19255
2.19588
2.1975
2.19749
2.19606
2.19361
2.19089
2.18912
2.19011
2.19573
2.20541
2.21888
2.23444
2.2506
2.26639
2.28132
2.29514
2.30778
2.31925
2.32957
2.33881
2.34701
2.35423
2.36053
2.36593
2.37048
2.37422
2.37716
2.37933
2.38075
2.38143
2.38137
2.3806
2.3791
2.37688
2.37393
2.37024
2.36581
2.36061
2.35463
2.34783
2.3402
2.3317
2.32228
2.3119
2.30051
2.28803
2.27441
2.25957
2.24341
2.22586
2.20683
2.18627
2.16417
2.14069
2.11622
2.09163
2.06843
2.04816
2.0322
2.02463
2.02555
2.03135
2.04102
2.05269
2.06453
2.07545
2.08487
2.09252
2.0983
2.10219
2.1042
2.10436
2.10269
2.09921
2.09395
2.08697
2.07841
2.06852
2.05783
2.04724
2.0381
2.03185
2.02852
2.02858
2.0305
2.03277
2.03437
2.03471
2.03363
2.0313
2.02828
2.0256
2.02475
2.02725
2.03271
2.04113
2.05107
2.06117
2.07055
2.07868
2.0853
2.09032
2.09367
2.09535
2.16783
2.16665
2.16444
2.16153
2.15846
2.15599
2.15506
2.15643
2.16018
2.16611
2.17343
2.18126
2.18886
2.19573
2.20156
2.20618
2.20954
2.21165
2.21263
2.21273
2.21232
2.21204
2.21275
2.21548
2.22105
2.22948
2.24042
2.25302
2.26637
2.27976
2.29272
2.30497
2.31636
2.32684
2.33637
2.34497
2.35266
2.35947
2.36542
2.37054
2.37487
2.37842
2.38122
2.38327
2.3846
2.38522
2.38513
2.38434
2.38285
2.38065
2.37775
2.37413
2.36979
2.36472
2.35888
2.35227
2.34486
2.33662
2.32752
2.31752
2.30658
2.29466
2.28171
2.26768
2.25253
2.23623
2.21876
2.20016
2.18054
2.16015
2.13944
2.11915
2.10037
2.08436
2.07223
2.06514
2.06319
2.06549
2.07102
2.07845
2.08655
2.0944
2.10143
2.10727
2.11174
2.11472
2.11618
2.11611
2.11451
2.11141
2.10688
2.10101
2.09398
2.08607
2.07776
2.0697
2.0627
2.05748
2.05429
2.05312
2.05328
2.05397
2.0545
2.05446
2.05371
2.0524
2.05092
2.04995
2.05031
2.05268
2.05709
2.06334
2.0707
2.07836
2.08567
2.09218
2.0976
2.10176
2.10457
2.10598
2.18513
2.18439
2.18305
2.18136
2.17971
2.17864
2.17867
2.18023
2.18342
2.18807
2.19374
2.1999
2.20604
2.21178
2.21684
2.22108
2.22444
2.22693
2.22867
2.22989
2.23091
2.23221
2.23436
2.23799
2.24352
2.25103
2.2603
2.27084
2.28209
2.29355
2.30482
2.31565
2.32587
2.33537
2.3441
2.35205
2.35919
2.36555
2.37113
2.37596
2.38003
2.38338
2.38601
2.38794
2.38917
2.38972
2.38959
2.38878
2.38729
2.38513
2.38228
2.37875
2.37452
2.36958
2.36391
2.35751
2.35034
2.3424
2.33365
2.32407
2.31364
2.30231
2.29008
2.27691
2.2628
2.24776
2.23182
2.21507
2.19768
2.17992
2.16222
2.14517
2.12956
2.11621
2.1059
2.09919
2.09616
2.09637
2.09913
2.10356
2.10881
2.11419
2.11917
2.1234
2.12665
2.12878
2.1297
2.12938
2.12783
2.12506
2.12115
2.11621
2.11042
2.10404
2.09744
2.0911
2.0855
2.08109
2.07804
2.07631
2.07555
2.07532
2.07519
2.0749
2.07436
2.07365
2.07305
2.07296
2.07385
2.07605
2.07964
2.08444
2.09002
2.0959
2.10161
2.10677
2.11114
2.11454
2.11686
2.11803
2.20317
2.20274
2.202
2.20113
2.20041
2.20017
2.20076
2.20241
2.20519
2.209
2.21356
2.21855
2.22362
2.22849
2.23295
2.23687
2.2402
2.24295
2.24524
2.24724
2.24921
2.25151
2.25451
2.25859
2.26402
2.27083
2.27891
2.28796
2.29761
2.30751
2.31737
2.32695
2.33609
2.34467
2.35262
2.35991
2.36651
2.37241
2.37761
2.38211
2.38592
2.38905
2.39151
2.3933
2.39443
2.3949
2.39473
2.3939
2.39242
2.39029
2.38751
2.38406
2.37995
2.37516
2.36968
2.3635
2.35661
2.34899
2.34062
2.33149
2.32158
2.31088
2.29938
2.28708
2.27401
2.26018
2.24568
2.23063
2.21519
2.19963
2.18433
2.16976
2.15647
2.14504
2.13596
2.12956
2.1259
2.12472
2.12556
2.12783
2.13094
2.13437
2.13766
2.14052
2.14269
2.14403
2.14445
2.14389
2.14235
2.13985
2.13645
2.13226
2.12744
2.12222
2.11687
2.11173
2.10713
2.10334
2.10047
2.09852
2.0973
2.09656
2.09605
2.09561
2.09517
2.0948
2.09466
2.09499
2.09606
2.09805
2.10098
2.10474
2.10906
2.11361
2.11807
2.12216
2.12566
2.12841
2.13029
2.13125
2.22162
2.22142
2.22108
2.22074
2.22061
2.22089
2.22179
2.22346
2.22594
2.22916
2.23296
2.23712
2.24141
2.24562
2.2496
2.25325
2.25652
2.25944
2.26209
2.26461
2.2672
2.2701
2.27358
2.27786
2.28311
2.28937
2.29655
2.30446
2.31287
2.32153
2.3302
2.33869
2.34686
2.35459
2.36181
2.36847
2.37453
2.37997
2.38478
2.38896
2.3925
2.3954
2.39767
2.39932
2.40034
2.40073
2.40051
2.39966
2.39819
2.3961
2.39339
2.39004
2.38605
2.38143
2.37615
2.37021
2.3636
2.35632
2.34835
2.33968
2.33031
2.32024
2.30948
2.29804
2.28596
2.27328
2.26011
2.24656
2.23281
2.21909
2.20573
2.19307
2.18153
2.1715
2.16332
2.1572
2.15316
2.15105
2.15054
2.15126
2.15277
2.15466
2.1566
2.1583
2.15956
2.16022
2.16018
2.15939
2.15783
2.15553
2.15253
2.14893
2.14487
2.14052
2.1361
2.13183
2.12796
2.12464
2.12199
2.11999
2.11856
2.11756
2.11684
2.11631
2.11592
2.11571
2.11579
2.11629
2.11737
2.1191
2.1215
2.12447
2.12785
2.13141
2.13491
2.13815
2.14093
2.14313
2.14465
2.14543
2.24028
2.24022
2.24015
2.24016
2.24039
2.24097
2.24205
2.24369
2.24594
2.24875
2.252
2.25556
2.25927
2.26298
2.26658
2.27
2.2732
2.2762
2.27907
2.28191
2.28487
2.28812
2.29183
2.29616
2.3012
2.30698
2.31345
2.32047
2.3279
2.33553
2.3432
2.35075
2.35806
2.36502
2.37156
2.37762
2.38317
2.38816
2.39259
2.39644
2.3997
2.40238
2.40447
2.40596
2.40687
2.40719
2.40691
2.40605
2.40459
2.40254
2.3999
2.39665
2.3928
2.38835
2.38328
2.37759
2.37128
2.36434
2.35677
2.34857
2.33974
2.33029
2.32025
2.30963
2.29849
2.28689
2.27491
2.26269
2.25039
2.23821
2.2264
2.21526
2.20507
2.19612
2.18863
2.18276
2.1785
2.17575
2.17431
2.1739
2.17421
2.17492
2.17577
2.17654
2.17702
2.17709
2.17665
2.17565
2.17407
2.1719
2.16921
2.16607
2.16259
2.1589
2.15516
2.15155
2.14822
2.14529
2.14285
2.1409
2.1394
2.13828
2.13745
2.13686
2.13648
2.13634
2.1365
2.13703
2.13801
2.13948
2.14144
2.14381
2.14647
2.14926
2.15202
2.15457
2.15678
2.15854
2.15976
2.16038
2.25901
2.25904
2.25914
2.25937
2.25982
2.26057
2.26173
2.26333
2.26539
2.26788
2.27073
2.27385
2.27712
2.28044
2.28374
2.28696
2.29008
2.2931
2.29608
2.2991
2.30226
2.30567
2.30947
2.31374
2.31855
2.32391
2.32979
2.33609
2.3427
2.34949
2.35632
2.36306
2.36961
2.37588
2.38179
2.3873
2.39235
2.39691
2.40097
2.4045
2.40749
2.40995
2.41185
2.4132
2.41399
2.41423
2.4139
2.41302
2.41158
2.40957
2.407
2.40387
2.40016
2.39588
2.39102
2.38559
2.37957
2.37298
2.36582
2.35808
2.34979
2.34095
2.33159
2.32175
2.31149
2.30086
2.28996
2.2789
2.26784
2.25695
2.24642
2.23649
2.22737
2.21927
2.21234
2.20669
2.20232
2.19916
2.19706
2.19582
2.19523
2.19504
2.19504
2.19504
2.1949
2.19447
2.19369
2.1925
2.19087
2.18881
2.18635
2.18355
2.18051
2.17731
2.17409
2.17097
2.16807
2.16546
2.16322
2.16136
2.15986
2.1587
2.15782
2.15719
2.15681
2.15667
2.15683
2.15731
2.15815
2.15938
2.16096
2.16285
2.16495
2.16715
2.16932
2.17134
2.17309
2.17449
2.17546
2.17595
2.27769
2.27778
2.27799
2.27835
2.27893
2.27978
2.28096
2.2825
2.2844
2.28665
2.2892
2.29198
2.29491
2.29794
2.30099
2.30403
2.30704
2.31004
2.31305
2.31614
2.31938
2.32285
2.32662
2.33078
2.33534
2.34033
2.3457
2.3514
2.35733
2.36341
2.36951
2.37556
2.38144
2.38709
2.39243
2.39742
2.40201
2.40617
2.40987
2.4131
2.41583
2.41806
2.41978
2.42098
2.42166
2.42182
2.42146
2.42056
2.41913
2.41717
2.41468
2.41165
2.40808
2.40398
2.39934
2.39416
2.38845
2.3822
2.37544
2.36815
2.36037
2.35212
2.34341
2.33431
2.32484
2.3151
2.30516
2.29512
2.28513
2.27531
2.26585
2.25691
2.24865
2.24123
2.23477
2.22933
2.22492
2.22149
2.21894
2.21711
2.21584
2.21496
2.2143
2.2137
2.21304
2.21221
2.21114
2.20978
2.2081
2.20611
2.20382
2.20129
2.19857
2.19576
2.19293
2.19019
2.18761
2.18527
2.18321
2.18145
2.18
2.17883
2.17793
2.17728
2.17688
2.17672
2.17683
2.17722
2.17791
2.17891
2.18018
2.18168
2.18334
2.18507
2.18678
2.18837
2.18975
2.19086
2.19163
2.19202
2.29629
2.29642
2.29668
2.29712
2.29777
2.29866
2.29983
2.3013
2.30307
2.30513
2.30743
2.30995
2.31262
2.3154
2.31824
2.32112
2.32402
2.32696
2.32995
2.33304
2.33627
2.33971
2.34341
2.3474
2.35171
2.35635
2.36128
2.36646
2.37182
2.37729
2.38278
2.38821
2.3935
2.3986
2.40343
2.40795
2.41211
2.41589
2.41926
2.42219
2.42467
2.42668
2.42823
2.42929
2.42986
2.42995
2.42953
2.42862
2.42721
2.4253
2.42289
2.41997
2.41655
2.41262
2.4082
2.40327
2.39785
2.39195
2.38557
2.37872
2.37144
2.36373
2.35564
2.34721
2.33848
2.32954
2.32044
2.3113
2.30223
2.29333
2.28476
2.27663
2.26909
2.26225
2.25618
2.25095
2.24655
2.24296
2.24008
2.23783
2.23607
2.23467
2.23349
2.23242
2.23135
2.2302
2.22889
2.22738
2.22565
2.22369
2.22153
2.2192
2.21674
2.21421
2.21169
2.20923
2.20692
2.20479
2.20289
2.20123
2.19984
2.19869
2.19779
2.19713
2.1967
2.1965
2.19654
2.19683
2.19738
2.19816
2.19917
2.20035
2.20165
2.20301
2.20435
2.2056
2.20669
2.20756
2.20817
2.20848
2.31476
2.3149
2.31521
2.31568
2.31636
2.31726
2.3184
2.3198
2.32145
2.32335
2.32546
2.32777
2.33022
2.33279
2.33545
2.33818
2.34097
2.34382
2.34674
2.34978
2.35296
2.35632
2.35989
2.3637
2.36776
2.37208
2.37662
2.38135
2.38621
2.39115
2.3961
2.401
2.40577
2.41037
2.41473
2.41882
2.42259
2.42602
2.42907
2.43173
2.43397
2.43578
2.43715
2.43808
2.43855
2.43856
2.43811
2.43719
2.4358
2.43393
2.4316
2.42879
2.42551
2.42176
2.41755
2.41287
2.40774
2.40217
2.39616
2.38974
2.38292
2.37573
2.36821
2.3604
2.35235
2.34412
2.33578
2.32742
2.31914
2.31103
2.30321
2.29578
2.28884
2.28248
2.27676
2.27173
2.26738
2.26369
2.26061
2.25806
2.25594
2.25415
2.25258
2.25115
2.24975
2.24833
2.24683
2.2452
2.24342
2.24149
2.23942
2.23723
2.23496
2.23266
2.23037
2.22814
2.22603
2.22408
2.22232
2.22076
2.21943
2.21831
2.21742
2.21674
2.21628
2.21604
2.21601
2.2162
2.2166
2.2172
2.21797
2.21889
2.21991
2.22097
2.22202
2.22299
2.22385
2.22453
2.22501
2.22525
2.33308
2.33323
2.33355
2.33404
2.33472
2.33561
2.33671
2.33804
2.33958
2.34135
2.3433
2.34543
2.34771
2.3501
2.3526
2.35518
2.35785
2.36059
2.36343
2.36638
2.36947
2.37271
2.37613
2.37975
2.38357
2.38758
2.39176
2.39609
2.40052
2.405
2.40948
2.4139
2.41821
2.42237
2.42631
2.43001
2.43342
2.43652
2.43928
2.44168
2.44369
2.44531
2.44653
2.44733
2.4477
2.44764
2.44715
2.44622
2.44485
2.44304
2.44078
2.43808
2.43495
2.43137
2.42736
2.42293
2.41808
2.41282
2.40717
2.40114
2.39476
2.38806
2.38107
2.37383
2.36639
2.3588
2.35114
2.34347
2.33588
2.32845
2.32127
2.31443
2.308
2.30206
2.29666
2.29181
2.28754
2.28382
2.28061
2.27785
2.27547
2.2734
2.27154
2.26982
2.26818
2.26655
2.26489
2.26316
2.26134
2.25943
2.25742
2.25535
2.25323
2.25109
2.24898
2.24694
2.24499
2.24319
2.24154
2.24007
2.23879
2.23771
2.23683
2.23614
2.23565
2.23536
2.23525
2.23534
2.23561
2.23605
2.23664
2.23734
2.23812
2.23894
2.23975
2.24051
2.24117
2.24171
2.24208
2.24227
2.35124
2.3514
2.35172
2.35221
2.35288
2.35374
2.3548
2.35605
2.35751
2.35915
2.36097
2.36295
2.36507
2.36731
2.36966
2.37211
2.37465
2.37728
2.38001
2.38285
2.38582
2.38892
2.39218
2.39559
2.39917
2.4029
2.40676
2.41073
2.41478
2.41885
2.42291
2.42692
2.43082
2.43457
2.43814
2.44148
2.44456
2.44736
2.44985
2.45201
2.45381
2.45525
2.45632
2.457
2.45728
2.45716
2.45663
2.45569
2.45434
2.45258
2.4504
2.44782
2.44482
2.44141
2.4376
2.4334
2.42882
2.42386
2.41855
2.4129
2.40693
2.40068
2.39418
2.38746
2.38057
2.37356
2.3665
2.35944
2.35245
2.34561
2.33899
2.33266
2.32668
2.32111
2.31599
2.31133
2.30716
2.30344
2.30016
2.29727
2.29471
2.29242
2.29035
2.28842
2.28659
2.2848
2.28302
2.28121
2.27935
2.27745
2.2755
2.27351
2.2715
2.2695
2.26753
2.26563
2.26382
2.26213
2.26058
2.25919
2.25796
2.25691
2.25603
2.25534
2.25482
2.25448
2.25431
2.25431
2.25446
2.25476
2.25518
2.2557
2.25629
2.25691
2.25753
2.25812
2.25863
2.25904
2.25933
2.25948
2.36925
2.36941
2.36972
2.3702
2.37085
2.37168
2.37269
2.37387
2.37524
2.37677
2.37847
2.38032
2.3823
2.38441
2.38662
2.38894
2.39135
2.39386
2.39647
2.39919
2.40202
2.40498
2.40806
2.41128
2.41462
2.41809
2.42166
2.4253
2.429
2.43271
2.4364
2.44003
2.44357
2.44696
2.45019
2.45321
2.45599
2.45851
2.46075
2.46269
2.4643
2.46557
2.46649
2.46706
2.46725
2.46708
2.46652
2.46558
2.46425
2.46254
2.46044
2.45796
2.45509
2.45185
2.44823
2.44426
2.43993
2.43526
2.43027
2.42497
2.41939
2.41356
2.4075
2.40126
2.39487
2.38838
2.38185
2.37533
2.36887
2.36255
2.35642
2.35053
2.34495
2.33971
2.33484
2.33037
2.3263
2.32263
2.31932
2.31635
2.31367
2.31124
2.30901
2.30693
2.30496
2.30305
2.30117
2.2993
2.29742
2.29552
2.29361
2.29169
2.28977
2.28787
2.28601
2.28422
2.28252
2.28093
2.27946
2.27813
2.27695
2.27593
2.27506
2.27436
2.27382
2.27343
2.2732
2.27311
2.27317
2.27334
2.27363
2.274
2.27443
2.27489
2.27535
2.27579
2.27618
2.2765
2.27672
2.27683
2.3871
2.38725
2.38756
2.38802
2.38865
2.38944
2.39039
2.39151
2.3928
2.39424
2.39583
2.39755
2.39941
2.40139
2.40348
2.40567
2.40796
2.41035
2.41283
2.41542
2.41811
2.42091
2.42382
2.42683
2.42996
2.43317
2.43647
2.43982
2.4432
2.44659
2.44995
2.45325
2.45645
2.45953
2.46244
2.46517
2.46768
2.46995
2.47196
2.47369
2.47512
2.47623
2.47703
2.47749
2.47761
2.47737
2.47679
2.47585
2.47454
2.47288
2.47086
2.46848
2.46574
2.46266
2.45923
2.45546
2.45138
2.44698
2.44229
2.43732
2.4321
2.42665
2.42101
2.4152
2.40926
2.40325
2.39719
2.39115
2.38517
2.3793
2.3736
2.36811
2.36288
2.35793
2.35331
2.34901
2.34506
2.34144
2.33814
2.33513
2.33238
2.32986
2.32752
2.32533
2.32326
2.32126
2.31931
2.3174
2.3155
2.31361
2.31173
2.30986
2.30801
2.3062
2.30443
2.30273
2.30112
2.2996
2.2982
2.29693
2.29579
2.29479
2.29393
2.29322
2.29265
2.29223
2.29194
2.29178
2.29175
2.29182
2.29199
2.29223
2.29253
2.29286
2.2932
2.29352
2.29381
2.29405
2.29421
2.2943
2.40479
2.40494
2.40523
2.40568
2.40628
2.40703
2.40793
2.40899
2.4102
2.41155
2.41304
2.41466
2.41641
2.41827
2.42023
2.4223
2.42447
2.42673
2.42909
2.43154
2.43408
2.43672
2.43946
2.44228
2.44519
2.44818
2.45122
2.45431
2.45741
2.4605
2.46356
2.46656
2.46946
2.47225
2.47488
2.47734
2.47961
2.48165
2.48344
2.48498
2.48625
2.48722
2.4879
2.48826
2.48831
2.48803
2.48742
2.48647
2.4852
2.48358
2.48163
2.47935
2.47674
2.47381
2.47055
2.46699
2.46313
2.45899
2.45458
2.44992
2.44503
2.43994
2.43468
2.42926
2.42374
2.41815
2.41252
2.40691
2.40135
2.39589
2.39057
2.38543
2.38051
2.37584
2.37143
2.36731
2.36348
2.35994
2.35666
2.35365
2.35087
2.34829
2.34588
2.34362
2.34148
2.33942
2.33742
2.33548
2.33357
2.33169
2.32984
2.32801
2.32622
2.32447
2.32278
2.32115
2.31961
2.31816
2.31682
2.31559
2.31448
2.3135
2.31265
2.31193
2.31134
2.31088
2.31055
2.31033
2.31021
2.3102
2.31027
2.31041
2.3106
2.31082
2.31106
2.31129
2.31149
2.31166
2.31178
2.31184
2.42233
2.42248
2.42276
2.42318
2.42375
2.42446
2.42532
2.42631
2.42745
2.42872
2.43012
2.43164
2.43328
2.43503
2.43688
2.43884
2.44088
2.44302
2.44524
2.44756
2.44996
2.45244
2.45501
2.45765
2.46036
2.46312
2.46593
2.46877
2.47161
2.47444
2.47723
2.47996
2.48259
2.48512
2.4875
2.48972
2.49175
2.49358
2.49519
2.49655
2.49767
2.49851
2.49907
2.49935
2.49933
2.49901
2.49838
2.49744
2.49618
2.49462
2.49274
2.49056
2.48806
2.48527
2.48219
2.47882
2.47518
2.47127
2.46713
2.46275
2.45817
2.45341
2.44849
2.44344
2.43829
2.43308
2.42784
2.42261
2.41743
2.41233
2.40735
2.40253
2.3979
2.39347
2.38928
2.38532
2.38162
2.37816
2.37493
2.37194
2.36915
2.36654
2.3641
2.36179
2.3596
2.35751
2.35549
2.35352
2.35161
2.34974
2.34791
2.34613
2.34438
2.34269
2.34106
2.33949
2.33801
2.33662
2.33532
2.33413
2.33305
2.33209
2.33124
2.33052
2.32991
2.32942
2.32904
2.32876
2.32858
2.3285
2.32848
2.32854
2.32863
2.32877
2.32892
2.32907
2.32921
2.32933
2.32941
2.32945
2.43974
2.43987
2.44014
2.44054
2.44108
2.44175
2.44256
2.4435
2.44457
2.44576
2.44708
2.44851
2.45005
2.45169
2.45344
2.45527
2.4572
2.45922
2.46131
2.46349
2.46575
2.46808
2.47048
2.47294
2.47546
2.47802
2.48062
2.48323
2.48584
2.48842
2.49097
2.49345
2.49584
2.49812
2.50027
2.50227
2.5041
2.50574
2.50717
2.50838
2.50935
2.51007
2.51054
2.51073
2.51065
2.51029
2.50964
2.50871
2.50748
2.50596
2.50416
2.50206
2.49969
2.49703
2.4941
2.49092
2.48748
2.4838
2.4799
2.47579
2.47149
2.46703
2.46243
2.45771
2.4529
2.44804
2.44315
2.43826
2.43342
2.42865
2.42398
2.41945
2.41507
2.41087
2.40687
2.40308
2.3995
2.39614
2.39298
2.39002
2.38724
2.38463
2.38218
2.37985
2.37764
2.37552
2.37349
2.37152
2.36961
2.36776
2.36595
2.3642
2.36249
2.36085
2.35926
2.35775
2.35632
2.35497
2.35371
2.35255
2.3515
2.35055
2.34971
2.34898
2.34835
2.34784
2.34742
2.3471
2.34687
2.34671
2.34663
2.34661
2.34664
2.3467
2.34678
2.34686
2.34695
2.34703
2.34708
2.34711
2.457
2.45713
2.45739
2.45777
2.45828
2.45891
2.45967
2.46056
2.46156
2.46268
2.46391
2.46526
2.46671
2.46825
2.46989
2.47162
2.47343
2.47533
2.4773
2.47935
2.48147
2.48365
2.48589
2.48818
2.49052
2.49289
2.49529
2.49769
2.50008
2.50244
2.50476
2.50702
2.50919
2.51126
2.5132
2.515
2.51664
2.51811
2.51938
2.52044
2.52128
2.5219
2.52227
2.52239
2.52226
2.52186
2.5212
2.52027
2.51907
2.5176
2.51586
2.51385
2.51158
2.50906
2.50628
2.50326
2.50001
2.49655
2.49287
2.48901
2.48498
2.4808
2.47648
2.47207
2.46757
2.46302
2.45845
2.45388
2.44934
2.44486
2.44048
2.4362
2.43207
2.42808
2.42426
2.42063
2.41717
2.41391
2.41082
2.40791
2.40517
2.40258
2.40012
2.3978
2.39558
2.39346
2.39142
2.38945
2.38755
2.38572
2.38394
2.38221
2.38055
2.37894
2.3774
2.37593
2.37454
2.37323
2.37201
2.37088
2.36984
2.36891
2.36807
2.36733
2.36669
2.36615
2.3657
2.36534
2.36507
2.36486
2.36472
2.36464
2.3646
2.3646
2.36462
2.36466
2.3647
2.36474
2.36477
2.36479
2.47414
2.47426
2.4745
2.47486
2.47534
2.47594
2.47666
2.47749
2.47843
2.47948
2.48064
2.48191
2.48326
2.48472
2.48626
2.48788
2.48959
2.49137
2.49322
2.49514
2.49712
2.49916
2.50124
2.50338
2.50555
2.50774
2.50995
2.51215
2.51435
2.51651
2.51863
2.52068
2.52265
2.52452
2.52627
2.52789
2.52936
2.53066
2.53179
2.53272
2.53345
2.53396
2.53425
2.5343
2.53412
2.5337
2.53302
2.5321
2.53093
2.5295
2.52783
2.52591
2.52374
2.52134
2.5187
2.51584
2.51277
2.5095
2.50604
2.5024
2.49861
2.49469
2.49064
2.4865
2.48229
2.47803
2.47374
2.46945
2.4652
2.46099
2.45686
2.45282
2.4489
2.44512
2.44147
2.43799
2.43466
2.43149
2.42849
2.42564
2.42294
2.42038
2.41794
2.41563
2.41342
2.4113
2.40927
2.40732
2.40544
2.40362
2.40186
2.40017
2.39854
2.39697
2.39547
2.39403
2.39268
2.3914
2.39021
2.3891
2.38808
2.38716
2.38633
2.38559
2.38494
2.38438
2.3839
2.38351
2.38319
2.38294
2.38275
2.38262
2.38253
2.38248
2.38246
2.38245
2.38246
2.38247
2.38248
2.38248
2.49116
2.49127
2.4915
2.49184
2.49229
2.49285
2.49353
2.49431
2.49519
2.49618
2.49727
2.49845
2.49973
2.50109
2.50254
2.50406
2.50566
2.50733
2.50906
2.51086
2.51271
2.51461
2.51655
2.51854
2.52054
2.52257
2.5246
2.52663
2.52864
2.53062
2.53255
2.53442
2.5362
2.53789
2.53947
2.54093
2.54224
2.5434
2.54439
2.5452
2.54582
2.54625
2.54646
2.54646
2.54623
2.54578
2.5451
2.54418
2.54304
2.54166
2.54004
2.5382
2.53613
2.53384
2.53134
2.52863
2.52573
2.52264
2.51937
2.51595
2.51239
2.50869
2.5049
2.50101
2.49705
2.49305
2.48903
2.48501
2.481
2.47704
2.47314
2.46933
2.46561
2.46201
2.45853
2.45519
2.45198
2.44892
2.446
2.44322
2.44057
2.43805
2.43565
2.43335
2.43116
2.42906
2.42705
2.42512
2.42325
2.42146
2.41973
2.41806
2.41646
2.41493
2.41346
2.41206
2.41074
2.40949
2.40832
2.40724
2.40623
2.40532
2.40449
2.40375
2.40309
2.40251
2.40201
2.40159
2.40124
2.40096
2.40073
2.40056
2.40043
2.40033
2.40027
2.40023
2.4002
2.40019
2.40018
2.40018
2.50806
2.50817
2.50838
2.5087
2.50913
2.50966
2.51029
2.51102
2.51185
2.51278
2.5138
2.51491
2.51611
2.51738
2.51874
2.52017
2.52166
2.52322
2.52485
2.52652
2.52825
2.53002
2.53183
2.53366
2.53552
2.53739
2.53927
2.54113
2.54297
2.54478
2.54654
2.54823
2.54985
2.55138
2.5528
2.5541
2.55528
2.5563
2.55717
2.55787
2.5584
2.55874
2.55888
2.55883
2.55856
2.55809
2.5574
2.5565
2.55538
2.55404
2.55249
2.55072
2.54874
2.54656
2.54418
2.54162
2.53887
2.53595
2.53287
2.52964
2.52628
2.52281
2.51924
2.51558
2.51187
2.50811
2.50432
2.50053
2.49676
2.49303
2.48934
2.48573
2.4822
2.47877
2.47545
2.47224
2.46916
2.4662
2.46337
2.46066
2.45807
2.4556
2.45324
2.45098
2.44881
2.44674
2.44475
2.44284
2.441
2.43923
2.43753
2.43589
2.43432
2.43282
2.43138
2.43001
2.42872
2.4275
2.42635
2.42529
2.4243
2.42339
2.42257
2.42182
2.42116
2.42057
2.42005
2.41961
2.41923
2.41891
2.41866
2.41845
2.41828
2.41815
2.41806
2.41799
2.41794
2.41791
2.41789
2.41788
2.52485
2.52495
2.52516
2.52546
2.52586
2.52635
2.52695
2.52763
2.52841
2.52928
2.53024
2.53128
2.5324
2.53359
2.53486
2.5362
2.5376
2.53906
2.54057
2.54214
2.54375
2.54539
2.54707
2.54877
2.55049
2.55221
2.55394
2.55565
2.55733
2.55898
2.56058
2.56212
2.56359
2.56497
2.56625
2.56741
2.56845
2.56936
2.57012
2.57072
2.57116
2.57142
2.57151
2.5714
2.57111
2.57061
2.56992
2.56903
2.56793
2.56664
2.56514
2.56345
2.56156
2.55948
2.55722
2.55478
2.55218
2.54941
2.5465
2.54346
2.5403
2.53702
2.53366
2.53022
2.52672
2.52318
2.51962
2.51605
2.51249
2.50896
2.50547
2.50205
2.4987
2.49543
2.49225
2.48918
2.48621
2.48336
2.48061
2.47798
2.47546
2.47304
2.47072
2.4685
2.46637
2.46433
2.46237
2.46049
2.45867
2.45693
2.45526
2.45365
2.45211
2.45064
2.44923
2.44789
2.44662
2.44543
2.4443
2.44325
2.44228
2.44138
2.44056
2.43982
2.43915
2.43855
2.43802
2.43755
2.43716
2.43681
2.43653
2.43629
2.4361
2.43594
2.43582
2.43573
2.43566
2.43561
2.43558
2.43556
2.54155
2.54164
2.54183
2.54211
2.54249
2.54295
2.54351
2.54415
2.54488
2.5457
2.54659
2.54757
2.54862
2.54973
2.55092
2.55217
2.55348
2.55484
2.55625
2.55771
2.5592
2.56073
2.56229
2.56386
2.56545
2.56704
2.56862
2.57019
2.57173
2.57323
2.57469
2.57609
2.57741
2.57866
2.5798
2.58084
2.58177
2.58256
2.58322
2.58374
2.58409
2.58429
2.58432
2.58417
2.58385
2.58334
2.58264
2.58176
2.58069
2.57944
2.57799
2.57637
2.57456
2.57258
2.57043
2.56811
2.56564
2.56303
2.56028
2.5574
2.55441
2.55133
2.54815
2.54491
2.54161
2.53828
2.53491
2.53154
2.52818
2.52484
2.52154
2.51829
2.5151
2.51199
2.50895
2.50601
2.50315
2.5004
2.49775
2.49519
2.49274
2.49038
2.48811
2.48594
2.48385
2.48184
2.47991
2.47806
2.47628
2.47457
2.47292
2.47135
2.46983
2.46839
2.46701
2.4657
2.46446
2.46328
2.46218
2.46115
2.46019
2.4593
2.45848
2.45774
2.45706
2.45646
2.45591
2.45544
2.45502
2.45466
2.45435
2.45409
2.45387
2.45369
2.45355
2.45344
2.45335
2.45329
2.45325
2.45323
2.55814
2.55823
2.55841
2.55867
2.55902
2.55946
2.55998
2.56059
2.56127
2.56203
2.56287
2.56378
2.56476
2.56581
2.56691
2.56808
2.5693
2.57057
2.57188
2.57324
2.57463
2.57604
2.57748
2.57894
2.5804
2.58186
2.58332
2.58475
2.58616
2.58753
2.58886
2.59012
2.59132
2.59244
2.59347
2.59439
2.59521
2.5959
2.59647
2.5969
2.59719
2.59732
2.5973
2.59712
2.59677
2.59624
2.59555
2.59468
2.59364
2.59242
2.59103
2.58947
2.58774
2.58585
2.5838
2.5816
2.57925
2.57678
2.57417
2.57145
2.56863
2.56571
2.56272
2.55966
2.55655
2.55339
2.55022
2.54704
2.54386
2.54069
2.53756
2.53447
2.53144
2.52846
2.52556
2.52274
2.52
2.51734
2.51478
2.5123
2.50992
2.50762
2.50541
2.50328
2.50124
2.49927
2.49738
2.49556
2.49381
2.49213
2.49052
2.48897
2.48749
2.48607
2.48472
2.48344
2.48222
2.48106
2.47998
2.47896
2.47802
2.47714
2.47633
2.47558
2.47491
2.4743
2.47375
2.47326
2.47283
2.47245
2.47212
2.47184
2.47161
2.47141
2.47125
2.47112
2.47102
2.47095
2.47091
2.47088
2.57465
2.57473
2.5749
2.57515
2.57548
2.57589
2.57637
2.57694
2.57758
2.57829
2.57907
2.57992
2.58084
2.58181
2.58285
2.58393
2.58507
2.58625
2.58747
2.58873
2.59002
2.59133
2.59266
2.594
2.59535
2.5967
2.59803
2.59935
2.60063
2.60188
2.60308
2.60423
2.60531
2.60631
2.60723
2.60805
2.60877
2.60937
2.60986
2.61021
2.61044
2.61051
2.61045
2.61023
2.60985
2.60932
2.60863
2.60777
2.60675
2.60557
2.60423
2.60273
2.60108
2.59927
2.59732
2.59523
2.593
2.59065
2.58818
2.58561
2.58294
2.58018
2.57735
2.57446
2.57152
2.56854
2.56553
2.56252
2.55951
2.55651
2.55354
2.5506
2.54771
2.54487
2.54209
2.53939
2.53675
2.5342
2.53172
2.52932
2.52701
2.52477
2.52262
2.52055
2.51855
2.51663
2.51477
2.51299
2.51128
2.50963
2.50805
2.50653
2.50508
2.50369
2.50237
2.50111
2.49991
2.49878
2.49771
2.49671
2.49578
2.49491
2.49411
2.49337
2.49269
2.49207
2.49152
2.49102
2.49058
2.49019
2.48985
2.48956
2.4893
2.48909
2.48892
2.48878
2.48867
2.48859
2.48854
2.48851
2.59108
2.59115
2.59131
2.59154
2.59185
2.59223
2.59268
2.59321
2.59381
2.59448
2.59521
2.596
2.59685
2.59776
2.59872
2.59974
2.60079
2.60189
2.60303
2.60419
2.60539
2.6066
2.60783
2.60907
2.61031
2.61154
2.61276
2.61396
2.61514
2.61627
2.61736
2.6184
2.61937
2.62027
2.62108
2.62181
2.62244
2.62296
2.62337
2.62366
2.62382
2.62385
2.62374
2.6235
2.6231
2.62256
2.62187
2.62103
2.62003
2.61889
2.61759
2.61615
2.61457
2.61284
2.61098
2.60899
2.60687
2.60464
2.6023
2.59986
2.59733
2.59472
2.59204
2.5893
2.58652
2.5837
2.58086
2.578
2.57515
2.5723
2.56947
2.56668
2.56392
2.56121
2.55856
2.55596
2.55343
2.55097
2.54858
2.54626
2.54402
2.54185
2.53975
2.53773
2.53578
2.53391
2.5321
2.53035
2.52868
2.52706
2.52551
2.52403
2.52261
2.52125
2.51995
2.51871
2.51754
2.51643
2.51538
2.5144
2.51347
2.51262
2.51182
2.51108
2.51041
2.50979
2.50923
2.50873
2.50828
2.50788
2.50753
2.50722
2.50696
2.50674
2.50655
2.5064
2.50628
2.50619
2.50614
2.50611
2.60742
2.60749
2.60764
2.60785
2.60814
2.6085
2.60892
2.60942
2.60997
2.61059
2.61128
2.61202
2.61281
2.61366
2.61455
2.61549
2.61648
2.6175
2.61855
2.61963
2.62073
2.62185
2.62299
2.62413
2.62526
2.6264
2.62751
2.62861
2.62968
2.63071
2.6317
2.63263
2.6335
2.6343
2.63503
2.63567
2.63621
2.63666
2.637
2.63723
2.63734
2.63732
2.63718
2.63691
2.6365
2.63595
2.63526
2.63443
2.63346
2.63235
2.6311
2.62972
2.62819
2.62654
2.62477
2.62287
2.62086
2.61874
2.61651
2.6142
2.6118
2.60933
2.60679
2.6042
2.60156
2.59889
2.59619
2.59348
2.59077
2.58807
2.58538
2.58272
2.58009
2.5775
2.57496
2.57247
2.57004
2.56767
2.56536
2.56312
2.56095
2.55885
2.55681
2.55485
2.55295
2.55112
2.54935
2.54765