/*--------------------------------*- C++ -*----------------------------------*\
| =========                 |                                                 |
| \\      /  F ield         | OpenFOAM: The Open Source CFD Toolbox           |
|  \\    /   O peration     | Version:  2406                                  |
|   \\  /    A nd           | Website:  www.openfoam.com                      |
|    \\/     M anipulation  |                                                 |
\*---------------------------------------------------------------------------*/
FoamFile
{
    version     2.0;
    format      ascii;
    arch        "LSB;label=32;scalar=64";
    class       volScalarField;
    location    "4.3";
    object      C;
}
// * * * * * * * * * * * * * * * * * * * * * * * * * * * * * * * * * * * * * //

dimensions      [1 -3 0 0 0 0 0];

internalField   nonuniform List<scalar> 
14400
(
0.397322
0.391677
0.38349
0.37497
0.367562
0.362197
0.359462
0.359711
0.363117
0.369698
0.379313
0.39164
0.406104
0.421729
0.436661
0.44597
0.442088
0.4306
0.417134
0.404695
0.394786
0.388309
0.385889
0.388011
0.395084
0.407485
0.425583
0.449748
0.48035
0.517736
0.562153
0.61353
0.670758
0.728325
0.769237
0.79664
0.82065
0.841757
0.860277
0.87646
0.890499
0.902546
0.912725
0.92113
0.927839
0.932909
0.936384
0.938294
0.938657
0.937482
0.934765
0.93049
0.924631
0.91715
0.907996
0.897101
0.884379
0.869724
0.853004
0.834051
0.812659
0.788566
0.761442
0.727937
0.677846
0.614913
0.556877
0.505705
0.46154
0.424126
0.393082
0.368007
0.348526
0.334309
0.32508
0.32062
0.320763
0.325389
0.33442
0.347798
0.365467
0.387334
0.413186
0.442517
0.473745
0.497802
0.510181
0.515434
0.514855
0.507834
0.489985
0.464855
0.440548
0.418836
0.400367
0.385368
0.373841
0.365624
0.360414
0.357761
0.357065
0.357595
0.358547
0.35921
0.359265
0.359073
0.359386
0.361044
0.364818
0.371353
0.381149
0.39457
0.411849
0.433071
0.458107
0.486421
0.516298
0.538505
0.549521
0.554516
0.414063
0.405848
0.395683
0.385793
0.377452
0.371474
0.368382
0.368495
0.371969
0.378817
0.3889
0.401907
0.417277
0.434031
0.450143
0.45923
0.456428
0.443681
0.428628
0.415061
0.40434
0.397275
0.394449
0.396323
0.403296
0.415735
0.434002
0.458458
0.489472
0.527398
0.572507
0.624784
0.683022
0.736557
0.773165
0.799954
0.823553
0.844342
0.862616
0.878604
0.892489
0.904415
0.914498
0.922827
0.929478
0.934504
0.937948
0.93984
0.940196
0.939025
0.936322
0.932073
0.926253
0.918824
0.909737
0.898927
0.886312
0.87179
0.855235
0.836491
0.815361
0.791597
0.764875
0.733577
0.687046
0.624935
0.566541
0.514745
0.46997
0.432026
0.400543
0.375118
0.355374
0.340979
0.331658
0.327191
0.327413
0.332205
0.341489
0.355212
0.373321
0.395717
0.422163
0.452011
0.483167
0.505308
0.516241
0.521265
0.520964
0.51522
0.500348
0.475792
0.45093
0.428644
0.409746
0.394484
0.382865
0.374743
0.369827
0.367666
0.367636
0.368932
0.370582
0.371563
0.371287
0.370388
0.369929
0.370917
0.374195
0.38043
0.390123
0.403624
0.421151
0.442776
0.468341
0.497115
0.526308
0.545386
0.554901
0.559511
0.443481
0.432745
0.419418
0.407154
0.397119
0.389999
0.38623
0.386086
0.3897
0.397073
0.408068
0.422375
0.439428
0.458111
0.47495
0.480973
0.479639
0.467904
0.450984
0.435609
0.423424
0.415246
0.411634
0.413027
0.419806
0.432326
0.45093
0.475964
0.507777
0.546709
0.592989
0.646379
0.704437
0.749782
0.780682
0.806457
0.829265
0.849442
0.867239
0.882852
0.896439
0.908128
0.918022
0.926204
0.93274
0.937681
0.941065
0.94292
0.943263
0.942099
0.939425
0.935227
0.929483
0.922156
0.913201
0.902558
0.890151
0.875889
0.859657
0.841316
0.820695
0.797586
0.771731
0.742816
0.703057
0.645329
0.586017
0.532902
0.486912
0.447924
0.415574
0.389456
0.369187
0.354438
0.344932
0.34045
0.340828
0.34595
0.355739
0.370144
0.389117
0.412558
0.440196
0.471121
0.50089
0.518541
0.527791
0.532422
0.532491
0.528016
0.51801
0.497262
0.471506
0.448186
0.428501
0.412737
0.400938
0.393002
0.388677
0.387521
0.388887
0.391855
0.395164
0.397012
0.395841
0.393265
0.391123
0.390708
0.392973
0.398606
0.408097
0.421756
0.439754
0.462129
0.488681
0.518317
0.543289
0.557025
0.565106
0.569116
0.47594
0.469122
0.453517
0.438582
0.426377
0.417723
0.413022
0.412528
0.416356
0.424495
0.436788
0.452889
0.472063
0.49242
0.504634
0.507596
0.507256
0.500778
0.483582
0.466176
0.452051
0.442311
0.437576
0.438274
0.44478
0.457433
0.476552
0.502442
0.535404
0.575723
0.623503
0.677838
0.729465
0.764662
0.791677
0.815927
0.837609
0.856923
0.874045
0.889125
0.902287
0.913636
0.923259
0.931227
0.937597
0.942414
0.945711
0.947514
0.947836
0.946683
0.944052
0.939929
0.934294
0.927116
0.918353
0.907952
0.895846
0.881957
0.866187
0.84842
0.828519
0.806321
0.781633
0.75423
0.721931
0.674704
0.614961
0.560164
0.512486
0.472006
0.438393
0.411248
0.390197
0.374915
0.36513
0.360626
0.361239
0.366852
0.377387
0.392794
0.413016
0.437921
0.467119
0.499038
0.523326
0.535967
0.543954
0.548139
0.54856
0.545321
0.53865
0.525332
0.501391
0.477234
0.456605
0.440159
0.428088
0.420407
0.416961
0.417335
0.420883
0.426607
0.433063
0.436856
0.43369
0.42794
0.423031
0.420425
0.42115
0.425887
0.435098
0.448997
0.467634
0.4909
0.518202
0.545969
0.562897
0.572725
0.579381
0.58273
0.508473
0.506591
0.496381
0.47952
0.46498
0.454577
0.448759
0.447854
0.451968
0.461078
0.474949
0.49307
0.513761
0.52912
0.535027
0.537381
0.537624
0.535707
0.525306
0.506536
0.490235
0.478583
0.472453
0.472267
0.478435
0.491288
0.511112
0.538135
0.572533
0.61444
0.663471
0.715999
0.753552
0.780674
0.805434
0.827965
0.848321
0.866596
0.882894
0.897315
0.909947
0.92087
0.930151
0.937848
0.944007
0.948666
0.951853
0.953588
0.953884
0.952745
0.950169
0.946143
0.94065
0.933661
0.925143
0.915049
0.903326
0.889906
0.874713
0.857658
0.83864
0.817544
0.794251
0.768642
0.740628
0.704899
0.652383
0.596417
0.546845
0.504541
0.469319
0.440831
0.418743
0.402749
0.392589
0.388055
0.38898
0.395243
0.406756
0.423455
0.445249
0.471861
0.502354
0.531407
0.547516
0.557183
0.56392
0.567618
0.568289
0.566051
0.561156
0.553947
0.539278
0.515385
0.493967
0.47674
0.464279
0.456865
0.454553
0.456903
0.463301
0.472548
0.483581
0.487317
0.484134
0.473772
0.465329
0.459866
0.458599
0.46218
0.471095
0.485341
0.504701
0.528742
0.555801
0.573662
0.583751
0.591583
0.596963
0.599694
0.542292
0.541571
0.538468
0.528186
0.512304
0.500352
0.493334
0.492007
0.496451
0.506641
0.522083
0.541409
0.556468
0.563732
0.567108
0.569277
0.570068
0.569502
0.566617
0.555305
0.537732
0.524068
0.516435
0.515203
0.520989
0.534126
0.55486
0.583285
0.619263
0.66264
0.711673
0.748358
0.774644
0.798871
0.82142
0.842177
0.861113
0.878246
0.893622
0.907293
0.919316
0.929745
0.938628
0.946006
0.951917
0.956389
0.959445
0.961101
0.961367
0.960246
0.957735
0.953825
0.948499
0.941737
0.933508
0.923777
0.9125
0.899628
0.885102
0.868861
0.850837
0.830965
0.809184
0.78546
0.759806
0.732251
0.694702
0.641122
0.590104
0.545859
0.508763
0.478634
0.455259
0.438371
0.427736
0.423161
0.424478
0.431543
0.444248
0.46248
0.486093
0.514392
0.544722
0.563389
0.57344
0.581326
0.586926
0.590125
0.590926
0.589437
0.585883
0.580615
0.573784
0.560268
0.539831
0.522184
0.50923
0.50197
0.501
0.505471
0.514562
0.52496
0.530155
0.531281
0.530688
0.5261
0.516457
0.508287
0.504874
0.507088
0.515811
0.530499
0.550184
0.573305
0.589482
0.598876
0.606683
0.612894
0.617194
0.619389
0.576833
0.576492
0.575933
0.573455
0.565877
0.554081
0.546163
0.544579
0.549265
0.560211
0.575991
0.58769
0.594121
0.597509
0.600397
0.602552
0.603868
0.604382
0.604277
0.601878
0.592832
0.578234
0.569552
0.567122
0.572533
0.586031
0.607844
0.637856
0.674775
0.717171
0.750038
0.774238
0.797012
0.818746
0.839197
0.85821
0.875707
0.891654
0.906052
0.918919
0.93028
0.940166
0.948608
0.955633
0.961266
0.965529
0.968438
0.970005
0.970237
0.969136
0.9667
0.962921
0.957786
0.951279
0.943376
0.93405
0.923271
0.911002
0.897207
0.881846
0.864884
0.846293
0.826061
0.804208
0.780799
0.755973
0.7296
0.692843
0.642131
0.596228
0.557159
0.525116
0.500227
0.482267
0.471048
0.466426
0.468217
0.476218
0.490282
0.510134
0.535593
0.564495
0.583539
0.593466
0.601406
0.607756
0.612331
0.615032
0.615854
0.614889
0.612324
0.608449
0.603651
0.598159
0.587959
0.574668
0.561645
0.554324
0.554792
0.560422
0.565689
0.568701
0.568226
0.568161
0.568817
0.569891
0.567545
0.563108
0.558478
0.559224
0.567966
0.582704
0.598118
0.61049
0.618132
0.625093
0.631213
0.636115
0.639529
0.641278
0.611715
0.611631
0.611563
0.611716
0.611392
0.608061
0.604484
0.603525
0.607859
0.615198
0.622187
0.626124
0.628932
0.631786
0.634419
0.636667
0.638469
0.639881
0.641079
0.64236
0.642375
0.638063
0.630951
0.627357
0.632695
0.646524
0.669152
0.700179
0.731775
0.758649
0.779579
0.800197
0.820419
0.839906
0.85841
0.875761
0.891849
0.906611
0.920015
0.93205
0.942719
0.952033
0.960005
0.966651
0.971985
0.976022
0.978772
0.980243
0.980439
0.979361
0.977008
0.973372
0.968446
0.962216
0.954666
0.945777
0.93553
0.923903
0.910876
0.896431
0.880559
0.863261
0.844561
0.824511
0.803209
0.780809
0.757531
0.7332
0.699744
0.655029
0.614712
0.580586
0.554084
0.534897
0.522965
0.518294
0.520653
0.529656
0.545128
0.566045
0.591824
0.608696
0.617654
0.624781
0.630962
0.63596
0.639609
0.641816
0.64257
0.641939
0.640075
0.637206
0.633641
0.629758
0.625994
0.620307
0.613663
0.608669
0.60704
0.60731
0.606735
0.605115
0.60436
0.604311
0.60497
0.606359
0.608663
0.609984
0.610624
0.613433
0.619863
0.62809
0.635497
0.641016
0.646711
0.652152
0.656958
0.660826
0.663529
0.664917
0.64668
0.646754
0.646973
0.64748
0.648488
0.650279
0.651325
0.652447
0.65496
0.65761
0.659143
0.661244
0.663699
0.666283
0.668826
0.671226
0.67346
0.675595
0.677797
0.680331
0.683578
0.687401
0.689095
0.692076
0.699126
0.712768
0.732247
0.753279
0.772718
0.79023
0.808315
0.82655
0.844562
0.862048
0.878776
0.894574
0.909318
0.922926
0.935346
0.946547
0.956514
0.96524
0.972727
0.978979
0.984003
0.987803
0.990386
0.991755
0.991914
0.990862
0.988597
0.985115
0.980409
0.974472
0.967293
0.958863
0.94917
0.938205
0.925963
0.912445
0.89766
0.881632
0.864409
0.846066
0.826716
0.806523
0.785704
0.764541
0.743148
0.715028
0.680121
0.644567
0.616958
0.596474
0.58364
0.578935
0.581986
0.591734
0.608124
0.626867
0.639568
0.646157
0.651763
0.657042
0.6617
0.665515
0.668329
0.670054
0.67067
0.670224
0.668829
0.66666
0.663949
0.660966
0.658006
0.655335
0.653025
0.650351
0.647293
0.644191
0.641943
0.640497
0.639787
0.639755
0.640394
0.641733
0.643859
0.646869
0.650853
0.654947
0.658836
0.662486
0.666575
0.671022
0.675545
0.679845
0.683642
0.686701
0.688843
0.689944
0.681572
0.681731
0.682094
0.682745
0.683786
0.685293
0.687159
0.689151
0.690694
0.692207
0.693945
0.696008
0.698335
0.700822
0.703377
0.70595
0.708548
0.711243
0.714183
0.71759
0.721772
0.727124
0.734216
0.742398
0.751669
0.763651
0.777225
0.790713
0.805335
0.820856
0.836901
0.853127
0.869229
0.884948
0.900073
0.91444
0.927922
0.940429
0.951896
0.962279
0.971548
0.979687
0.986685
0.992537
0.997242
1.0008
1.00321
1.00448
1.0046
1.00358
1.0014
0.998081
0.993605
0.98797
0.981173
0.973211
0.96408
0.953784
0.942327
0.929725
0.916002
0.901199
0.885378
0.868626
0.851067
0.832863
0.814221
0.795403
0.776721
0.758528
0.737438
0.712988
0.687363
0.665947
0.652056
0.64729
0.651003
0.659661
0.668509
0.675521
0.678779
0.682372
0.686198
0.689924
0.693283
0.696069
0.698137
0.699401
0.699832
0.699457
0.698356
0.696657
0.694527
0.692152
0.68972
0.687374
0.685135
0.682832
0.680405
0.678132
0.676346
0.675141
0.674537
0.674527
0.675117
0.676322
0.678169
0.680666
0.683738
0.687075
0.690398
0.693752
0.697282
0.700951
0.704603
0.70804
0.711062
0.713495
0.715197
0.716073
0.716304
0.716504
0.716927
0.717618
0.718619
0.719941
0.721517
0.723212
0.72486
0.726558
0.728421
0.730509
0.732813
0.735293
0.73791
0.74065
0.743539
0.746647
0.7501
0.754075
0.758798
0.764532
0.771536
0.779869
0.789536
0.800054
0.811459
0.823812
0.837041
0.850956
0.865305
0.879828
0.89428
0.908442
0.922129
0.93519
0.947502
0.958973
0.969531
0.979123
0.987713
0.995274
1.00179
1.00724
1.01163
1.01494
1.01718
1.01835
1.01843
1.01744
1.01536
1.0122
1.00796
1.00263
0.996219
0.988726
0.980157
0.970522
0.959837
0.948125
0.935424
0.921784
0.907276
0.891995
0.876064
0.859639
0.842915
0.826127
0.809549
0.793501
0.778349
0.763777
0.747916
0.733082
0.7217
0.715331
0.7136
0.714401
0.714864
0.715009
0.716327
0.718353
0.720732
0.723173
0.725437
0.727341
0.72875
0.729581
0.7298
0.729415
0.728481
0.727087
0.725348
0.723394
0.721349
0.719306
0.717298
0.715306
0.713357
0.711588
0.710166
0.709186
0.708691
0.708701
0.709224
0.710268
0.711831
0.713886
0.716353
0.719077
0.721918
0.724841
0.72785
0.730897
0.733876
0.736649
0.739074
0.741019
0.742378
0.743077
0.750838
0.751052
0.751494
0.752181
0.75313
0.754335
0.755754
0.757321
0.758977
0.760744
0.762672
0.764793
0.767114
0.769626
0.772319
0.775203
0.77831
0.781706
0.785495
0.78981
0.794813
0.800671
0.807525
0.815426
0.824344
0.834117
0.844692
0.856035
0.86806
0.880622
0.893536
0.906601
0.919619
0.93241
0.944812
0.956688
0.967924
0.978429
0.98813
0.99697
1.00491
1.01191
1.01795
1.02301
1.02709
1.03016
1.03223
1.0333
1.03334
1.03238
1.0304
1.0274
1.02339
1.01837
1.01235
1.00532
0.9973
0.988311
0.978372
0.967516
0.955785
0.943237
0.929948
0.916013
0.901553
0.886714
0.871674
0.85664
0.841848
0.827563
0.814071
0.801657
0.790684
0.78111
0.772766
0.765826
0.760253
0.756208
0.753966
0.753055
0.753167
0.75398
0.755206
0.756598
0.757953
0.759107
0.759941
0.760375
0.76037
0.759923
0.759067
0.757861
0.756384
0.754727
0.752976
0.751201
0.749446
0.747739
0.746127
0.744696
0.743545
0.742745
0.742342
0.74236
0.74281
0.743694
0.745
0.746694
0.748712
0.750963
0.753357
0.755843
0.75838
0.760911
0.763354
0.765606
0.767564
0.769128
0.770219
0.77078
0.785157
0.785374
0.785813
0.786483
0.787386
0.788514
0.789843
0.79134
0.792981
0.794771
0.79673
0.798878
0.801225
0.803776
0.806539
0.809531
0.81279
0.816374
0.820363
0.824859
0.829973
0.835814
0.842468
0.849968
0.858295
0.867378
0.877159
0.887575
0.898541
0.909937
0.921616
0.933419
0.945187
0.956767
0.96802
0.978825
0.989077
0.998689
1.00759
1.01572
1.02304
1.0295
1.03509
1.03977
1.04354
1.04639
1.04829
1.04925
1.04927
1.04834
1.04645
1.04362
1.03984
1.03512
1.02947
1.0229
1.01542
1.00705
0.997825
0.98778
0.976962
0.965432
0.953266
0.940557
0.92742
0.913991
0.900427
0.88691
0.873639
0.860832
0.848713
0.837499
0.827384
0.818427
0.810629
0.804006
0.798613
0.794517
0.791738
0.790076
0.789307
0.789194
0.789513
0.790061
0.790668
0.791194
0.791531
0.791607
0.791381
0.790841
0.790003
0.788905
0.787601
0.786154
0.784627
0.783076
0.781545
0.780076
0.778715
0.777526
0.776572
0.775908
0.775572
0.775587
0.775963
0.776699
0.777781
0.779177
0.780839
0.782703
0.784706
0.786793
0.788915
0.791014
0.793022
0.794859
0.796447
0.797712
0.798591
0.799042
0.819259
0.819473
0.819903
0.820551
0.821416
0.822492
0.823764
0.825216
0.826837
0.828628
0.830599
0.832763
0.835131
0.837715
0.840528
0.843594
0.846947
0.850636
0.854725
0.859289
0.864404
0.870145
0.876564
0.883682
0.891489
0.899941
0.908988
0.918566
0.928593
0.938968
0.949572
0.960274
0.970942
0.98145
0.991676
1.00151
1.01087
1.01966
1.02782
1.03529
1.04202
1.04797
1.05313
1.05745
1.06093
1.06355
1.06529
1.06616
1.06615
1.06524
1.06346
1.06079
1.05723
1.05281
1.04752
1.04138
1.03442
1.02664
1.0181
1.00882
0.998852
0.988263
0.977126
0.965529
0.95358
0.941402
0.929134
0.916933
0.904967
0.893414
0.882451
0.872242
0.862925
0.854575
0.847232
0.840922
0.835676
0.831509
0.828391
0.826204
0.824791
0.823978
0.823589
0.823465
0.823464
0.823468
0.823383
0.823143
0.822706
0.822057
0.821199
0.820155
0.818961
0.817662
0.816303
0.81493
0.813584
0.812304
0.811133
0.810119
0.809309
0.808742
0.80845
0.808452
0.808756
0.809359
0.810247
0.811395
0.812763
0.814305
0.81597
0.817709
0.819473
0.821209
0.822859
0.824362
0.825654
0.82668
0.827391
0.827756
0.853147
0.853356
0.853774
0.854401
0.855236
0.856274
0.857506
0.858924
0.860523
0.862304
0.864275
0.866444
0.868823
0.871424
0.874265
0.877369
0.880766
0.884498
0.888613
0.893166
0.898211
0.903798
0.909959
0.916709
0.924036
0.931911
0.940287
0.949107
0.958298
0.967771
0.977429
0.987161
0.996859
1.00641
1.01572
1.02469
1.03323
1.04127
1.04874
1.05559
1.06177
1.06725
1.07199
1.07597
1.07917
1.08158
1.08317
1.08395
1.08391
1.08304
1.08134
1.07883
1.0755
1.07135
1.06642
1.0607
1.05422
1.04701
1.03911
1.03054
1.02136
1.01164
1.00144
0.990854
0.97997
0.968902
0.957774
0.94672
0.935882
0.925405
0.915433
0.906095
0.897498
0.889717
0.8828
0.876775
0.871661
0.867452
0.864113
0.861559
0.859676
0.858335
0.857401
0.856747
0.856256
0.855831
0.85539
0.854874
0.854244
0.853481
0.85258
0.851554
0.850427
0.849228
0.847993
0.846757
0.845555
0.844422
0.843395
0.842509
0.841801
0.841302
0.841035
0.841015
0.841249
0.841732
0.842454
0.843391
0.844514
0.845784
0.84716
0.848599
0.850058
0.85149
0.852845
0.854074
0.855127
0.855961
0.856539
0.856834
0.886826
0.887029
0.887436
0.888044
0.888854
0.889861
0.891061
0.89245
0.894026
0.895792
0.897752
0.899914
0.902291
0.904894
0.907739
0.910849
0.914251
0.917976
0.922063
0.92655
0.931477
0.936876
0.942767
0.949157
0.956037
0.963378
0.971143
0.979277
0.987719
0.996391
1.00521
1.01408
1.02292
1.03162
1.04011
1.04829
1.05609
1.06344
1.07028
1.07656
1.08223
1.08726
1.09162
1.09528
1.09822
1.10042
1.10187
1.10256
1.10249
1.10166
1.10005
1.09769
1.09457
1.0907
1.08609
1.08078
1.07476
1.06808
1.06077
1.05287
1.04442
1.0355
1.02615
1.01647
1.00654
0.996462
0.98634
0.976291
0.966435
0.956893
0.947781
0.939206
0.931255
0.923996
0.917474
0.911718
0.906738
0.902527
0.899048
0.896241
0.894019
0.892285
0.890934
0.889865
0.888983
0.888208
0.887471
0.886719
0.885917
0.885041
0.884086
0.883055
0.881963
0.880831
0.879684
0.87855
0.877458
0.876436
0.875514
0.874721
0.874086
0.87363
0.873373
0.873325
0.873491
0.873868
0.874445
0.875203
0.876117
0.877156
0.878286
0.87947
0.880671
0.881847
0.882957
0.883962
0.884821
0.885499
0.885968
0.886208
0.920302
0.9205
0.920895
0.921486
0.922274
0.923254
0.924427
0.925789
0.927341
0.929084
0.931026
0.933172
0.935533
0.93812
0.940949
0.944039
0.947412
0.951093
0.955111
0.959495
0.964271
0.96946
0.975075
0.981117
0.987574
0.994423
1.00163
1.00914
1.01691
1.02486
1.03294
1.04104
1.04911
1.05705
1.0648
1.07227
1.07939
1.08612
1.09238
1.09813
1.10334
1.10795
1.11195
1.1153
1.11799
1.12001
1.12132
1.12194
1.12184
1.12104
1.11953
1.11731
1.11438
1.11077
1.10649
1.10154
1.09597
1.08978
1.08303
1.07574
1.06797
1.05977
1.0512
1.04234
1.03327
1.02407
1.01483
1.00567
0.996673
0.98795
0.979594
0.971693
0.964321
0.957538
0.951383
0.945884
0.941048
0.936868
0.933314
0.930338
0.927876
0.925851
0.924184
0.922794
0.921604
0.920548
0.919567
0.918616
0.917661
0.916682
0.915667
0.914617
0.91354
0.912448
0.911362
0.910301
0.909289
0.908349
0.907504
0.906777
0.906189
0.905759
0.9055
0.905421
0.905523
0.905805
0.906255
0.906859
0.907594
0.908437
0.909358
0.910326
0.911307
0.912269
0.913176
0.913995
0.914694
0.915246
0.915627
0.915821
0.953581
0.953773
0.954157
0.954733
0.9555
0.956457
0.957603
0.958938
0.960463
0.96218
0.964095
0.966215
0.968548
0.971105
0.973899
0.976946
0.980264
0.983873
0.987794
0.992048
0.996652
1.00162
1.00696
1.01266
1.01872
1.02511
1.0318
1.03875
1.04591
1.05322
1.06062
1.06805
1.07542
1.08268
1.08976
1.09659
1.1031
1.10925
1.11499
1.12026
1.12503
1.12926
1.13292
1.13599
1.13845
1.14029
1.14148
1.14202
1.14191
1.14113
1.1397
1.13762
1.13489
1.13153
1.12754
1.12295
1.11778
1.11206
1.10582
1.0991
1.09194
1.0844
1.07654
1.06842
1.06012
1.0517
1.04326
1.03488
1.02664
1.01864
1.01095
1.00365
0.996799
0.99045
0.984638
0.979386
0.974703
0.970582
0.967
0.963921
0.961293
0.95906
0.957158
0.955522
0.954092
0.952812
0.951633
0.950516
0.949431
0.948357
0.947284
0.946207
0.94513
0.944061
0.943014
0.942004
0.941049
0.940166
0.939375
0.938693
0.938136
0.937717
0.937448
0.937334
0.937377
0.937572
0.937911
0.938382
0.938965
0.93964
0.940383
0.941167
0.941964
0.942745
0.943482
0.944148
0.944715
0.945163
0.945472
0.945629
0.986667
0.986854
0.987228
0.987789
0.988536
0.98947
0.99059
0.991896
0.993391
0.995078
0.99696
0.999045
1.00134
1.00385
1.00659
1.00958
1.01282
1.01634
1.02014
1.02425
1.02867
1.03341
1.03847
1.04385
1.04953
1.0555
1.06172
1.06815
1.07476
1.08149
1.08829
1.0951
1.10185
1.1085
1.11497
1.12122
1.12718
1.13281
1.13806
1.14289
1.14725
1.15113
1.15448
1.15729
1.15954
1.16121
1.16228
1.16276
1.16263
1.16189
1.16054
1.15858
1.15603
1.1529
1.14919
1.14493
1.14014
1.13485
1.12908
1.12289
1.1163
1.10936
1.10214
1.09469
1.08707
1.07936
1.07162
1.06394
1.05638
1.04901
1.04192
1.03516
1.02878
1.02282
1.01733
1.01232
1.0078
1.00376
1.00018
0.997051
0.994317
0.991938
0.989865
0.988045
0.98643
0.984974
0.983637
0.982384
0.981189
0.980033
0.978904
0.977797
0.976711
0.975652
0.974629
0.973653
0.972736
0.971893
0.971137
0.970483
0.969943
0.969527
0.969241
0.969091
0.969077
0.969195
0.969437
0.969792
0.970244
0.970776
0.971367
0.971995
0.972636
0.973266
0.973861
0.974398
0.974857
0.975218
0.975468
0.975595
1.01957
1.01975
1.02011
1.02066
1.02139
1.0223
1.02339
1.02467
1.02613
1.02778
1.02962
1.03166
1.03391
1.03637
1.03905
1.04196
1.04511
1.04852
1.05219
1.05614
1.06037
1.06488
1.06967
1.07474
1.08007
1.08563
1.09142
1.09738
1.10349
1.10969
1.11594
1.1222
1.12839
1.13448
1.14041
1.14613
1.15159
1.15675
1.16155
1.16597
1.16997
1.17352
1.17659
1.17916
1.18121
1.18272
1.18369
1.1841
1.18396
1.18325
1.18197
1.18014
1.17776
1.17484
1.1714
1.16745
1.16301
1.15811
1.15279
1.14707
1.14099
1.13461
1.12797
1.12112
1.11413
1.10704
1.09994
1.09287
1.08591
1.07912
1.07256
1.06628
1.06033
1.05474
1.04954
1.04476
1.04041
1.03646
1.03293
1.02978
1.02699
1.02451
1.02232
1.02036
1.01861
1.01702
1.01556
1.01419
1.01291
1.01168
1.0105
1.00936
1.00827
1.00721
1.0062
1.00524
1.00435
1.00353
1.0028
1.00216
1.00163
1.0012
1.0009
1.00071
1.00065
1.00069
1.00085
1.0011
1.00144
1.00185
1.00231
1.00281
1.00332
1.00382
1.0043
1.00473
1.0051
1.00539
1.00559
1.00569
1.05228
1.05246
1.05281
1.05334
1.05405
1.05494
1.05601
1.05725
1.05868
1.06029
1.06209
1.06408
1.06627
1.06866
1.07127
1.07409
1.07715
1.08044
1.08397
1.08775
1.09178
1.09606
1.10059
1.10536
1.11036
1.11556
1.12094
1.12647
1.13212
1.13784
1.1436
1.14935
1.15504
1.16063
1.16607
1.17131
1.17631
1.18103
1.18543
1.18948
1.19314
1.19639
1.1992
1.20154
1.20341
1.20478
1.20565
1.20601
1.20585
1.20517
1.20397
1.20225
1.20003
1.19731
1.19411
1.19044
1.18633
1.1818
1.17688
1.1716
1.166
1.16012
1.15401
1.1477
1.14127
1.13475
1.12821
1.1217
1.11528
1.109
1.10292
1.09707
1.09151
1.08626
1.08135
1.07679
1.0726
1.06877
1.06529
1.06215
1.05933
1.0568
1.05453
1.05248
1.05063
1.04893
1.04738
1.04593
1.04457
1.04328
1.04206
1.04089
1.03978
1.03872
1.03771
1.03677
1.03589
1.03508
1.03436
1.03373
1.0332
1.03276
1.03244
1.03222
1.0321
1.03208
1.03216
1.03233
1.03257
1.03288
1.03323
1.03361
1.03401
1.0344
1.03478
1.03512
1.03541
1.03564
1.0358
1.03588
1.08482
1.08499
1.08534
1.08585
1.08654
1.08741
1.08844
1.08965
1.09104
1.09261
1.09436
1.0963
1.09842
1.10075
1.10327
1.106
1.10895
1.11211
1.11549
1.1191
1.12294
1.127
1.13128
1.13576
1.14044
1.1453
1.15031
1.15544
1.16067
1.16596
1.17127
1.17656
1.18179
1.18692
1.19192
1.19672
1.20131
1.20564
1.20967
1.21338
1.21673
1.2197
1.22226
1.2244
1.2261
1.22735
1.22813
1.22843
1.22826
1.22761
1.22648
1.22487
1.2228
1.22026
1.21729
1.21389
1.21008
1.20588
1.20133
1.19646
1.19129
1.18587
1.18023
1.17442
1.16849
1.16248
1.15645
1.15044
1.1445
1.13869
1.13303
1.12759
1.12238
1.11744
1.11279
1.10845
1.10442
1.10071
1.09731
1.09421
1.0914
1.08884
1.08652
1.08441
1.08248
1.08071
1.07908
1.07757
1.07615
1.07482
1.07356
1.07237
1.07124
1.07017
1.06916
1.06822
1.06735
1.06656
1.06584
1.06521
1.06467
1.06422
1.06387
1.06361
1.06345
1.06338
1.06339
1.06348
1.06364
1.06385
1.06411
1.0644
1.0647
1.065
1.0653
1.06556
1.06579
1.06597
1.0661
1.06616
1.11719
1.11736
1.11769
1.11819
1.11886
1.1197
1.1207
1.12188
1.12323
1.12475
1.12645
1.12832
1.13038
1.13263
1.13507
1.1377
1.14053
1.14356
1.14679
1.15023
1.15388
1.15772
1.16175
1.16597
1.17035
1.17488
1.17955
1.18432
1.18916
1.19405
1.19895
1.20383
1.20864
1.21336
1.21795
1.22236
1.22657
1.23053
1.23423
1.23763
1.24069
1.24341
1.24575
1.24771
1.24925
1.25038
1.25107
1.25133
1.25115
1.25053
1.24946
1.24795
1.24602
1.24366
1.2409
1.23774
1.23421
1.23032
1.22611
1.22161
1.21683
1.21182
1.20662
1.20126
1.19579
1.19024
1.18467
1.17911
1.17361
1.16821
1.16295
1.15786
1.15298
1.14833
1.14393
1.13979
1.13593
1.13235
1.12904
1.12599
1.12319
1.12064
1.11829
1.11615
1.11418
1.11236
1.11068
1.10911
1.10765
1.10628
1.105
1.10378
1.10264
1.10156
1.10055
1.09961
1.09874
1.09795
1.09723
1.09659
1.09604
1.09558
1.0952
1.09492
1.09471
1.09459
1.09454
1.09457
1.09465
1.09479
1.09496
1.09517
1.09539
1.09562
1.09584
1.09604
1.09621
1.09635
1.09645
1.0965
1.14939
1.14955
1.14988
1.15036
1.15101
1.15182
1.15279
1.15393
1.15524
1.15671
1.15835
1.16017
1.16216
1.16432
1.16667
1.16919
1.17191
1.17481
1.17789
1.18116
1.18461
1.18824
1.19204
1.196
1.20011
1.20434
1.20869
1.21312
1.21761
1.22213
1.22666
1.23116
1.23559
1.23993
1.24415
1.2482
1.25206
1.2557
1.25909
1.2622
1.26501
1.2675
1.26964
1.27142
1.27282
1.27384
1.27446
1.27468
1.27449
1.27389
1.27288
1.27147
1.26966
1.26747
1.26489
1.26196
1.25869
1.25509
1.25119
1.24702
1.2426
1.23798
1.23317
1.22821
1.22315
1.21803
1.21287
1.20772
1.20261
1.19759
1.19269
1.18793
1.18335
1.17897
1.1748
1.17086
1.16717
1.16371
1.16049
1.15751
1.15476
1.15222
1.14987
1.14771
1.14572
1.14387
1.14215
1.14056
1.13906
1.13767
1.13636
1.13513
1.13397
1.13288
1.13187
1.13093
1.13006
1.12926
1.12854
1.1279
1.12733
1.12685
1.12645
1.12613
1.12589
1.12572
1.12562
1.12559
1.12561
1.12568
1.12579
1.12592
1.12607
1.12624
1.1264
1.12655
1.12668
1.12678
1.12685
1.12689
1.18143
1.18159
1.1819
1.18237
1.18299
1.18378
1.18472
1.18582
1.18708
1.1885
1.19009
1.19184
1.19375
1.19583
1.19808
1.20051
1.2031
1.20587
1.2088
1.2119
1.21517
1.2186
1.22218
1.22589
1.22974
1.23369
1.23774
1.24186
1.24602
1.25021
1.25439
1.25855
1.26264
1.26663
1.27051
1.27424
1.27778
1.28112
1.28423
1.28708
1.28965
1.29193
1.29388
1.2955
1.29678
1.2977
1.29825
1.29843
1.29823
1.29765
1.2967
1.29538
1.29369
1.29165
1.28925
1.28653
1.28349
1.28015
1.27654
1.27268
1.26859
1.26431
1.25986
1.25528
1.25059
1.24584
1.24106
1.23628
1.23153
1.22686
1.22228
1.21783
1.21352
1.20939
1.20544
1.2017
1.19816
1.19483
1.19172
1.18881
1.18611
1.1836
1.18127
1.17911
1.17711
1.17524
1.17351
1.17189
1.17038
1.16897
1.16764
1.16639
1.16523
1.16413
1.16312
1.16217
1.1613
1.1605
1.15977
1.15912
1.15854
1.15804
1.15762
1.15727
1.157
1.15679
1.15664
1.15656
1.15652
1.15653
1.15658
1.15666
1.15675
1.15686
1.15697
1.15707
1.15716
1.15724
1.15729
1.15732
1.21331
1.21346
1.21376
1.21422
1.21482
1.21558
1.21649
1.21755
1.21876
1.22013
1.22166
1.22334
1.22518
1.22718
1.22933
1.23165
1.23412
1.23675
1.23954
1.24248
1.24557
1.24881
1.25217
1.25566
1.25925
1.26295
1.26672
1.27055
1.27441
1.27829
1.28216
1.286
1.28977
1.29345
1.29702
1.30045
1.30371
1.30678
1.30963
1.31224
1.31459
1.31667
1.31846
1.31993
1.32109
1.32192
1.32241
1.32255
1.32235
1.3218
1.3209
1.31966
1.31808
1.31617
1.31394
1.31141
1.30859
1.30549
1.30214
1.29856
1.29478
1.29081
1.28669
1.28244
1.2781
1.27369
1.26925
1.2648
1.26039
1.25603
1.25174
1.24757
1.24352
1.23962
1.23588
1.23232
1.22894
1.22574
1.22273
1.21991
1.21727
1.2148
1.2125
1.21036
1.20836
1.20649
1.20475
1.20312
1.2016
1.20017
1.19884
1.19758
1.19641
1.19531
1.19429
1.19334
1.19246
1.19166
1.19092
1.19026
1.18968
1.18916
1.18872
1.18834
1.18803
1.18779
1.1876
1.18747
1.18739
1.18735
1.18735
1.18737
1.18742
1.18748
1.18754
1.18761
1.18767
1.18772
1.18775
1.18777
1.24504
1.24519
1.24548
1.24592
1.2465
1.24723
1.2481
1.24912
1.25029
1.25161
1.25307
1.25469
1.25645
1.25836
1.26042
1.26263
1.26499
1.26749
1.27013
1.27292
1.27583
1.27888
1.28204
1.28531
1.28868
1.29213
1.29564
1.2992
1.30279
1.30639
1.30997
1.31351
1.31699
1.32039
1.32368
1.32683
1.32983
1.33264
1.33526
1.33766
1.33981
1.34171
1.34334
1.34469
1.34574
1.34648
1.34691
1.34702
1.34682
1.34629
1.34544
1.34427
1.3428
1.34102
1.33894
1.33658
1.33396
1.33108
1.32798
1.32465
1.32114
1.31746
1.31364
1.30969
1.30566
1.30157
1.29744
1.2933
1.28919
1.28511
1.2811
1.27719
1.27338
1.2697
1.26615
1.26276
1.25953
1.25646
1.25356
1.25082
1.24825
1.24584
1.24357
1.24145
1.23947
1.23762
1.23588
1.23425
1.23272
1.23129
1.22995
1.2287
1.22752
1.22642
1.22539
1.22444
1.22356
1.22275
1.22201
1.22134
1.22074
1.2202
1.21974
1.21934
1.219
1.21873
1.21851
1.21834
1.21821
1.21813
1.21808
1.21807
1.21807
1.21809
1.21812
1.21815
1.21818
1.21821
1.21823
1.21824
1.27663
1.27677
1.27705
1.27747
1.27803
1.27873
1.27957
1.28055
1.28167
1.28293
1.28434
1.28588
1.28757
1.28939
1.29136
1.29346
1.2957
1.29808
1.30058
1.30321
1.30597
1.30883
1.3118
1.31487
1.31802
1.32124
1.32451
1.32783
1.33116
1.33449
1.33781
1.34109
1.3443
1.34744
1.35047
1.35337
1.35612
1.35871
1.36111
1.36331
1.36529
1.36702
1.36851
1.36973
1.37068
1.37135
1.37173
1.37182
1.37161
1.3711
1.3703
1.3692
1.36782
1.36615
1.36422
1.36202
1.35958
1.35691
1.35402
1.35094
1.34767
1.34425
1.3407
1.33704
1.33329
1.32949
1.32564
1.32179
1.31794
1.31413
1.31037
1.30669
1.30311
1.29963
1.29627
1.29304
1.28996
1.28702
1.28422
1.28157
1.27908
1.27672
1.2745
1.27242
1.27046
1.26862
1.26689
1.26527
1.26375
1.26232
1.26098
1.25973
1.25855
1.25745
1.25642
1.25546
1.25458
1.25376
1.25302
1.25234
1.25173
1.25118
1.2507
1.25028
1.24992
1.24961
1.24936
1.24916
1.249
1.24888
1.24879
1.24874
1.2487
1.24869
1.24869
1.24869
1.2487
1.24871
1.24872
1.24873
1.30807
1.30821
1.30848
1.30888
1.30942
1.31009
1.3109
1.31184
1.31291
1.31412
1.31546
1.31694
1.31855
1.32029
1.32216
1.32416
1.32629
1.32854
1.33091
1.33339
1.33599
1.33868
1.34147
1.34434
1.34729
1.3503
1.35335
1.35643
1.35953
1.36262
1.36569
1.36872
1.3717
1.37459
1.37738
1.38005
1.38259
1.38497
1.38717
1.38919
1.391
1.39259
1.39394
1.39506
1.39592
1.39651
1.39685
1.39691
1.39669
1.39621
1.39545
1.39441
1.39312
1.39156
1.38976
1.38771
1.38544
1.38295
1.38026
1.37739
1.37436
1.37118
1.36788
1.36447
1.36099
1.35744
1.35386
1.35026
1.34666
1.34309
1.33957
1.33611
1.33273
1.32944
1.32626