/*--------------------------------*- C++ -*----------------------------------*\
| =========                 |                                                 |
| \\      /  F ield         | OpenFOAM: The Open Source CFD Toolbox           |
|  \\    /   O peration     | Version:  2406                                  |
|   \\  /    A nd           | Website:  www.openfoam.com                      |
|    \\/     M anipulation  |                                                 |
\*---------------------------------------------------------------------------*/
FoamFile
{
    version     2.0;
    format      ascii;
    arch        "LSB;label=32;scalar=64";
    class       volScalarField;
    location    "4.3";
    object      C_0_0;
}
// * * * * * * * * * * * * * * * * * * * * * * * * * * * * * * * * * * * * * //

dimensions      [1 -3 0 0 0 0 0];

internalField   nonuniform List<scalar> 
14400
(
0.398745
0.393033
0.384765
0.376173
0.368709
0.363307
0.360553
0.360802
0.364227
0.370846
0.380519
0.392922
0.407482
0.423219
0.438272
0.447648
0.443798
0.432243
0.418674
0.406144
0.396165
0.389641
0.387196
0.389314
0.396406
0.408848
0.427008
0.451257
0.481965
0.519479
0.564045
0.615587
0.672957
0.730289
0.770948
0.798301
0.822283
0.843366
0.861866
0.878032
0.892055
0.904089
0.914256
0.922652
0.929353
0.934416
0.937886
0.939792
0.940153
0.938976
0.936259
0.931985
0.926129
0.918652
0.909503
0.898615
0.885902
0.871259
0.854551
0.835615
0.814242
0.790172
0.763077
0.729764
0.679881
0.616855
0.558687
0.507375
0.463076
0.425539
0.394388
0.369224
0.349671
0.335398
0.326131
0.32165
0.321789
0.326427
0.335486
0.348909
0.36664
0.388582
0.414522
0.443946
0.475257
0.499291
0.511616
0.516859
0.516279
0.509279
0.491443
0.466256
0.44187
0.42008
0.401545
0.386495
0.374931
0.366692
0.361476
0.358828
0.358148
0.358699
0.35967
0.360341
0.360387
0.360174
0.360465
0.362105
0.365872
0.37241
0.382224
0.395678
0.413005
0.434287
0.459393
0.487777
0.517703
0.539877
0.550852
0.555839
0.415557
0.407241
0.396982
0.387017
0.378619
0.372603
0.369492
0.369604
0.373098
0.379985
0.390127
0.403211
0.418677
0.435543
0.451763
0.460864
0.458105
0.445335
0.430186
0.416531
0.40574
0.398628
0.395777
0.397648
0.40464
0.41712
0.43545
0.459991
0.491112
0.529165
0.57442
0.626852
0.685216
0.738476
0.77485
0.801609
0.825182
0.845948
0.864202
0.880173
0.894043
0.905956
0.916027
0.924348
0.93099
0.93601
0.939449
0.941336
0.94169
0.940518
0.937815
0.933567
0.927749
0.920324
0.911243
0.900439
0.887833
0.873322
0.85678
0.838051
0.816939
0.793198
0.766503
0.735344
0.689045
0.626922
0.568397
0.516454
0.471538
0.433468
0.401875
0.376359
0.356542
0.342091
0.332731
0.328242
0.328459
0.333264
0.342577
0.356346
0.374517
0.396993
0.423531
0.453473
0.48469
0.506772
0.517667
0.522682
0.522378
0.516639
0.501806
0.47723
0.452282
0.429913
0.410948
0.395632
0.383976
0.375833
0.370912
0.368759
0.36875
0.370073
0.37175
0.372747
0.372454
0.371527
0.371039
0.372004
0.375272
0.381509
0.39122
0.404754
0.422328
0.444016
0.469656
0.498505
0.527708
0.54673
0.556222
0.560827
0.444923
0.434165
0.420752
0.408413
0.398322
0.391164
0.387377
0.387233
0.390867
0.398282
0.409336
0.423723
0.440873
0.459665
0.476547
0.482552
0.481243
0.469578
0.45258
0.43712
0.424867
0.416641
0.413005
0.414395
0.421195
0.433757
0.452427
0.477546
0.509467
0.548526
0.594949
0.648473
0.706545
0.751601
0.782357
0.808104
0.830887
0.851042
0.86882
0.884416
0.897989
0.909666
0.919549
0.927721
0.934249
0.939184
0.942563
0.944415
0.944755
0.943589
0.940915
0.936719
0.930976
0.923653
0.914703
0.904067
0.891668
0.877416
0.861196
0.842869
0.822266
0.799177
0.773346
0.744466
0.704944
0.647449
0.587965
0.534684
0.488543
0.449423
0.416959
0.390745
0.3704
0.355593
0.346047
0.341543
0.341917
0.347051
0.356869
0.371321
0.390359
0.413884
0.441624
0.472657
0.502395
0.519964
0.529204
0.533826
0.533889
0.529409
0.519427
0.498735
0.472903
0.449501
0.429746
0.413928
0.402091
0.394135
0.389806
0.388665
0.39006
0.393068
0.396423
0.398313
0.397098
0.394475
0.392292
0.391846
0.394094
0.399727
0.409235
0.422927
0.440974
0.463412
0.490043
0.519751
0.544647
0.558335
0.566412
0.570419
0.477282
0.47053
0.454891
0.439893
0.427634
0.418944
0.414224
0.413731
0.417581
0.425764
0.438118
0.4543
0.473567
0.493998
0.506166
0.509138
0.508808
0.502412
0.48523
0.467748
0.453556
0.44377
0.439011
0.439707
0.446234
0.458932
0.478119
0.504098
0.537167
0.577611
0.625541
0.68003
0.731382
0.76635
0.793336
0.81756
0.83922
0.858514
0.875619
0.890682
0.903831
0.915168
0.924781
0.93274
0.939102
0.943913
0.947205
0.949004
0.949324
0.948169
0.945538
0.941416
0.935784
0.928609
0.919851
0.909456
0.897358
0.883478
0.867719
0.849964
0.830078
0.807897
0.783228
0.755843
0.723674
0.676747
0.616976
0.562036
0.514205
0.473586
0.439854
0.412608
0.391477
0.376135
0.366308
0.361782
0.36239
0.368015
0.37858
0.394035
0.414323
0.439314
0.468612
0.500602
0.52477
0.537371
0.545351
0.549528
0.549941
0.546693
0.540011
0.526746
0.502835
0.478605
0.457912
0.44141
0.429301
0.421601
0.418155
0.418548
0.422138
0.427917
0.434439
0.438349
0.435064
0.429246
0.424281
0.421633
0.422335
0.427069
0.436296
0.450228
0.468913
0.492236
0.519605
0.547332
0.564186
0.574015
0.580671
0.584019
0.5098
0.507959
0.497817
0.480902
0.466308
0.455874
0.450035
0.449129
0.453269
0.462426
0.476358
0.494566
0.515347
0.530643
0.536517
0.538894
0.539154
0.537266
0.526984
0.508181
0.491822
0.480125
0.473974
0.473785
0.479975
0.492878
0.512776
0.53989
0.57439
0.616399
0.665529
0.717962
0.755281
0.782338
0.807074
0.829582
0.849918
0.868176
0.884458
0.898864
0.911483
0.922395
0.931666
0.939355
0.945507
0.950159
0.953342
0.955073
0.955367
0.954227
0.95165
0.947625
0.942134
0.935149
0.926635
0.916547
0.90483
0.891419
0.876236
0.859192
0.840186
0.819104
0.795826
0.770231
0.742228
0.706714
0.654516
0.598403
0.548671
0.506226
0.470879
0.442286
0.420114
0.404056
0.393854
0.389295
0.390215
0.396489
0.408033
0.424778
0.446638
0.473335
0.503924
0.5329
0.548907
0.558572
0.565303
0.568993
0.569655
0.567407
0.562501
0.555292
0.540682
0.516801
0.49535
0.478066
0.465569
0.458136
0.455825
0.458197
0.464649
0.473948
0.484998
0.48869
0.48555
0.475168
0.466673
0.461154
0.459863
0.46344
0.47237
0.486646
0.506054
0.530116
0.557167
0.574952
0.585022
0.592856
0.598236
0.600967
0.543609
0.542885
0.539843
0.529638
0.513708
0.501747
0.494696
0.493366
0.497839
0.508089
0.523573
0.542983
0.557964
0.565174
0.568576
0.570766
0.571575
0.571024
0.568229
0.557046
0.539419
0.525711
0.518062
0.516825
0.522632
0.535825
0.556644
0.585163
0.62124
0.664646
0.713666
0.750141
0.776305
0.80051
0.823038
0.843777
0.862695
0.879813
0.895173
0.908832
0.920843
0.931262
0.940135
0.947506
0.95341
0.957877
0.960928
0.96258
0.962844
0.961721
0.95921
0.9553
0.949977
0.943217
0.934993
0.925267
0.913996
0.901131
0.886614
0.870382
0.852369
0.832508
0.810739
0.787026
0.761382
0.733857
0.696544
0.643156
0.592031
0.547665
0.510444
0.480203
0.45674
0.439787
0.429109
0.424509
0.425819
0.432895
0.44563
0.463904
0.487571
0.515933
0.546267
0.5648
0.574825
0.582704
0.588295
0.591486
0.592278
0.590778
0.587213
0.581933
0.575123
0.561657
0.541299
0.523589
0.510609
0.503331
0.502359
0.506836
0.515992
0.526291
0.531431
0.532491
0.531963
0.527429
0.517883
0.509646
0.506224
0.508436
0.517173
0.531883
0.551622
0.574659
0.590774
0.600128
0.607938
0.61415
0.618451
0.620647
0.578142
0.577799
0.577237
0.574827
0.567314
0.555595
0.54761
0.546021
0.55074
0.561774
0.577516
0.589155
0.595524
0.598936
0.601846
0.604021
0.605355
0.605885
0.605794
0.603507
0.594593
0.579973
0.571308
0.568858
0.574284
0.587847
0.60977
0.639868
0.676892
0.719109
0.751814
0.775884
0.798642
0.820359
0.840793
0.859791
0.877272
0.893206
0.907591
0.920446
0.931797
0.941673
0.950106
0.957124
0.962751
0.967009
0.969913
0.971477
0.971706
0.970604
0.968168
0.964389
0.959256
0.952751
0.944852
0.935531
0.924757
0.912494
0.898706
0.883354
0.866401
0.847819
0.827597
0.805753
0.782353
0.757537
0.731246
0.694707
0.644111
0.59817
0.55898
0.526817
0.501836
0.483814
0.472552
0.467904
0.469685
0.477697
0.491793
0.511679
0.537168
0.566106
0.585011
0.594855
0.602783
0.609123
0.613688
0.61638
0.617192
0.616216
0.613639
0.609751
0.604938
0.59946
0.589314
0.576099
0.563104
0.555761
0.556228
0.561795
0.566983
0.56992
0.569412
0.56935
0.57
0.571107
0.568833
0.564473
0.559904
0.560646
0.569407
0.584113
0.599438
0.611745
0.619361
0.626328
0.632451
0.637356
0.640772
0.642522
0.613017
0.612932
0.612863
0.613014
0.612744
0.609467
0.605948
0.605025
0.609355
0.61665
0.623599
0.627494
0.630324
0.633199
0.635852
0.638118
0.639937
0.641365
0.642578
0.643875
0.644003
0.639799
0.632852
0.629189
0.634534
0.648436
0.671217
0.702234
0.733611
0.760327
0.781194
0.801805
0.822017
0.841492
0.859983
0.877321
0.893397
0.908147
0.92154
0.933564
0.944224
0.953529
0.961493
0.968132
0.973461
0.977493
0.980239
0.981706
0.9819
0.980821
0.978467
0.974832
0.969907
0.963679
0.956132
0.947248
0.937005
0.925384
0.912363
0.897925
0.88206
0.86477
0.846077
0.826035
0.804741
0.782349
0.759079
0.734848
0.701574
0.657114
0.616685
0.582422
0.555833
0.536594
0.524625
0.519926
0.522267
0.531276
0.546791
0.567713
0.593458
0.610195
0.619045
0.626159
0.632328
0.637316
0.640955
0.643152
0.643895
0.643253
0.641376
0.638495
0.634915
0.631016
0.627237
0.621598
0.614978
0.609983
0.608334
0.608563
0.60792
0.6063
0.605543
0.605494
0.60615
0.607538
0.60984
0.611227
0.611905
0.614728
0.621152
0.629345
0.636695
0.642221
0.647925
0.653371
0.658182
0.662052
0.664757
0.666146
0.647977
0.64805
0.648268
0.648774
0.649779
0.651573
0.652684
0.653834
0.656338
0.658942
0.660485
0.662606
0.66508
0.667684
0.670245
0.672661
0.674911
0.677062
0.679278
0.681827
0.685089
0.689003
0.69079
0.693841
0.700981
0.714658
0.734065
0.754978
0.774289
0.791806
0.809893
0.828126
0.846131
0.863608
0.880327
0.896114
0.910848
0.924446
0.936856
0.948048
0.958006
0.966725
0.974205
0.980451
0.985469
0.989264
0.991843
0.99321
0.993367
0.992313
0.990048
0.986566
0.981861
0.975926
0.96875
0.960322
0.950633
0.939673
0.927437
0.913924
0.899145
0.883124
0.865907
0.84757
0.828226
0.808039
0.787225
0.766064
0.74472
0.716791
0.682181
0.6465
0.618838
0.598339
0.585477
0.580742
0.583754
0.593478
0.609944
0.628484
0.641062
0.647548
0.653141
0.658408
0.663055
0.666859
0.669662
0.671377
0.671982
0.671525
0.670118
0.667937
0.665212
0.662214
0.659237
0.656545
0.65422
0.651547
0.648471
0.645368
0.643122
0.641676
0.640966
0.640932
0.641569
0.642906
0.645028
0.648031
0.652011
0.656118
0.66
0.663655
0.667759
0.672215
0.676746
0.681051
0.684852
0.687915
0.690058
0.69116
0.682865
0.683023
0.683386
0.684036
0.685077
0.686584
0.688449
0.690443
0.691998
0.693529
0.695283
0.697363
0.699708
0.702211
0.704782
0.707371
0.709983
0.712692
0.715645
0.719066
0.723261
0.728624
0.735725
0.744002
0.753324
0.765285
0.778777
0.792244
0.806875
0.822401
0.838449
0.854673
0.870771
0.886484
0.901602
0.91596
0.929434
0.941932
0.953391
0.963765
0.973027
0.981159
0.98815
0.993997
0.998698
1.00225
1.00466
1.00592
1.00604
1.00502
1.00284
0.999522
0.995046
0.989413
0.982618
0.974658
0.965531
0.955239
0.943787
0.931189
0.917471
0.902673
0.886857
0.87011
0.852556
0.834355
0.815716
0.796898
0.778215
0.760023
0.739124
0.714836
0.689318
0.667962
0.654048
0.649254
0.65289
0.661403
0.670098
0.676977
0.680169
0.683749
0.687563
0.691277
0.694625
0.697401
0.699459
0.700713
0.701133
0.700747
0.699634
0.697924
0.69578
0.693391
0.690945
0.688584
0.686331
0.684018
0.681585
0.67931
0.677523
0.676317
0.675711
0.6757
0.676287
0.67749
0.679334
0.681827
0.684897
0.688233
0.69156
0.69492
0.698458
0.702135
0.705793
0.709234
0.712261
0.714696
0.7164
0.717276
0.717593
0.717792
0.718216
0.718907
0.719908
0.721231
0.722809
0.72451
0.726167
0.727878
0.729755
0.731857
0.734176
0.73667
0.739302
0.742056
0.744958
0.748079
0.751544
0.755531
0.760266
0.76601
0.773022
0.781362
0.791029
0.801551
0.812967
0.825323
0.838556
0.852475
0.866826
0.881348
0.895797
0.909954
0.923636
0.93669
0.948995
0.960458
0.971009
0.980595
0.989178
0.996733
1.00324
1.00869
1.01307
1.01638
1.01862
1.01978
1.01986
1.01887
1.01679
1.01363
1.00939
1.00406
0.997652
0.990162
0.981596
0.971964
0.961282
0.949574
0.936877
0.923241
0.908737
0.893459
0.877531
0.861109
0.844386
0.827598
0.811019
0.794968
0.779814
0.765335
0.749546
0.734759
0.72338
0.716982
0.715203
0.71592
0.71626
0.716395
0.717701
0.719715
0.722084
0.724513
0.726767
0.728661
0.73006
0.730881
0.731089
0.730694
0.729749
0.728343
0.726593
0.724626
0.722569
0.720513
0.718495
0.716494
0.714538
0.712765
0.711341
0.710359
0.709862
0.709869
0.71039
0.711431
0.712992
0.715045
0.717511
0.720235
0.723079
0.726006
0.72902
0.732072
0.735056
0.737833
0.740261
0.742208
0.743569
0.744269
0.752122
0.752337
0.752779
0.753467
0.754417
0.755624
0.757046
0.758619
0.760283
0.762061
0.764
0.766134
0.768468
0.770992
0.773698
0.776594
0.779714
0.783122
0.786922
0.791248
0.796261
0.802128
0.808989
0.816896
0.825818
0.835596
0.846177
0.857524
0.869552
0.882117
0.895032
0.908097
0.921113
0.9339
0.946297
0.958168
0.969398
0.979897
0.989592
0.998427
1.00636
1.01335
1.01939
1.02445
1.02852
1.03159
1.03366
1.03472
1.03477
1.0338
1.03182
1.02882
1.02481
1.01979
1.01377
1.00674
0.998726
0.989739
0.979802
0.968949
0.957221
0.944677
0.931391
0.917458
0.903
0.888162
0.873123
0.858088
0.843294
0.829006
0.815509
0.803089
0.792095
0.782513
0.774173
0.767216
0.761627
0.757585
0.75534
0.754421
0.754524
0.755327
0.756543
0.757925
0.75927
0.760414
0.761239
0.761663
0.761648
0.761191
0.760325
0.759108
0.757621
0.755953
0.754191
0.752405
0.75064
0.748925
0.747307
0.745872
0.744717
0.743914
0.743508
0.743524
0.743972
0.744854
0.746158
0.74785
0.749867
0.752118
0.754515
0.757003
0.759544
0.762079
0.764525
0.766781
0.768741
0.770307
0.7714
0.77196
0.786437
0.786654
0.787094
0.787765
0.78867
0.789801
0.791134
0.792637
0.794285
0.796083
0.798052
0.800211
0.802569
0.805131
0.807906
0.810909
0.814179
0.817774
0.821773
0.826278
0.831401
0.837251
0.843911
0.851417
0.859749
0.868837
0.878622
0.889043
0.900012
0.91141
0.92309
0.934893
0.946659
0.958236
0.969485
0.980286
0.990533
1.00014
1.00904
1.01716
1.02447
1.03093
1.03652
1.0412
1.04496
1.0478
1.04971
1.05067
1.05068
1.04975
1.04786
1.04503
1.04125
1.03653
1.03088
1.02431
1.01683
1.00846
0.99924
0.989198
0.978382
0.966855
0.95469
0.941983
0.928848
0.915419
0.901855
0.888336
0.875063
0.862253
0.850128
0.838907
0.82878
0.819813
0.812006
0.805376
0.799977
0.795877
0.793093
0.791425
0.790648
0.790526
0.790836
0.791375
0.791972
0.792489
0.792817
0.792884
0.792648
0.792099
0.791251
0.790143
0.788829
0.787373
0.785836
0.784275
0.782736
0.78126
0.779893
0.778698
0.77774
0.777073
0.776734
0.776746
0.77712
0.777854
0.778934
0.780329
0.781991
0.783855
0.785859
0.787948
0.790073
0.792175
0.794185
0.796025
0.797615
0.798881
0.799761
0.800213
0.820534
0.820749
0.821179
0.821829
0.822696
0.823775
0.825051
0.826509
0.828136
0.829935
0.831914
0.834088
0.836466
0.839059
0.841883
0.844958
0.848321
0.85202
0.856119
0.860691
0.865814
0.871562
0.877988
0.885112
0.892923
0.901381
0.910432
0.920013
0.930043
0.940419
0.951024
0.961726
0.972393
0.982898
0.993122
1.00296
1.01231
1.0211
1.02925
1.03671
1.04344
1.04939
1.05454
1.05886
1.06234
1.06495
1.06669
1.06756
1.06754
1.06664
1.06485
1.06218
1.05863
1.0542
1.04892
1.04278
1.03581
1.02804
1.0195
1.01022
1.00026
0.989668
0.978532
0.966937
0.954989
0.94281
0.930541
0.918338
0.90637
0.894813
0.883845
0.87363
0.864304
0.855946
0.848594
0.842278
0.837026
0.832854
0.82973
0.827537
0.826116
0.825295
0.824898
0.824766
0.824756
0.824751
0.824657
0.824408
0.823962
0.823304
0.822437
0.821384
0.820181
0.818873
0.817505
0.816124
0.81477
0.813483
0.812307
0.811288
0.810473
0.809903
0.809608
0.809607
0.809908
0.810509
0.811396
0.812543
0.81391
0.815452
0.817118
0.818858
0.820624
0.822362
0.824014
0.825518
0.826812
0.827839
0.828552
0.828917
0.854417
0.854626
0.855045
0.855675
0.856512
0.857552
0.858788
0.860211
0.861816
0.863604
0.865582
0.86776
0.870147
0.872758
0.875608
0.87872
0.882126
0.885867
0.88999
0.894551
0.899604
0.905197
0.911365
0.918119
0.925452
0.933331
0.941711
0.950534
0.959727
0.969202
0.97886
0.988593
0.998289
1.00784
1.01715
1.02611
1.03465
1.04268
1.05015
1.057
1.06318
1.06865
1.07339
1.07737
1.08057
1.08297
1.08456
1.08534
1.08529
1.08442
1.08273
1.08021
1.07688
1.07274
1.0678
1.06208
1.05561
1.0484
1.04049
1.03193
1.02275
1.01303
1.00283
0.992244
0.98136
0.970291
0.959162
0.948106
0.937265
0.926785
0.916808
0.907464
0.89886
0.891072
0.884148
0.878117
0.872996
0.868782
0.865436
0.862876
0.860986
0.859638
0.858696
0.858034
0.857535
0.857101
0.856652
0.856128
0.85549
0.854717
0.853808
0.852774
0.851638
0.850431
0.849188
0.847945
0.846736
0.845597
0.844564
0.843673
0.842961
0.842458
0.842188
0.842165
0.842396
0.842878
0.843598
0.844534
0.845656
0.846926
0.848302
0.849742
0.851202
0.852635
0.853992
0.855222
0.856277
0.857112
0.85769
0.857986
0.888091
0.888295
0.888702
0.889312
0.890124
0.891134
0.892337
0.893731
0.895313
0.897084
0.899051
0.901221
0.903605
0.906216
0.90907
0.912188
0.915597
0.91933
0.923424
0.927919
0.932853
0.938257
0.944154
0.95055
0.957433
0.964779
0.972547
0.980685
0.989128
0.997802
1.00662
1.0155
1.02433
1.03303
1.04152
1.04969
1.05749
1.06484
1.07168
1.07795
1.08362
1.08865
1.09301
1.09666
1.0996
1.10179
1.10324
1.10394
1.10386
1.10303
1.10142
1.09906
1.09593
1.09207
1.08746
1.08214
1.07613
1.06945
1.06214
1.05424
1.0458
1.03687
1.02753
1.01785
1.00791
0.997834
0.98771
0.977658
0.967799
0.958254
0.949138
0.940557
0.932601
0.925335
0.918807
0.913045
0.908059
0.903841
0.900357
0.897543
0.895315
0.893574
0.892215
0.891138
0.890249
0.889467
0.888721
0.887962
0.887151
0.886268
0.885305
0.884266
0.883166
0.882026
0.880872
0.879731
0.878632
0.877604
0.876677
0.87588
0.87524
0.874781
0.87452
0.87447
0.874634
0.875009
0.875584
0.87634
0.877254
0.878292
0.879422
0.880607
0.881808
0.882985
0.884097
0.885102
0.885962
0.886641
0.88711
0.88735
0.921561
0.921759
0.922155
0.922748
0.923537
0.924521
0.925697
0.927063
0.92862
0.930369
0.932317
0.934469
0.936837
0.939431
0.942268
0.945365
0.948744
0.952433
0.956458
0.960848
0.96563
0.970825
0.976445
0.982492
0.988953
0.995805
1.00301
1.01053
1.0183
1.02626
1.03433
1.04244
1.0505
1.05845
1.06619
1.07365
1.08078
1.0875
1.09376
1.09951
1.10471
1.10932
1.11332
1.11667
1.11936
1.12137
1.12268
1.1233
1.1232
1.1224
1.12088
1.11866
1.11574
1.11213
1.10784
1.1029
1.09732
1.09114
1.08438
1.0771
1.06932
1.06112
1.05256
1.0437
1.03462
1.02542
1.01618
1.00702
0.99802
0.989293
0.980932
0.973027
0.96565
0.958861
0.952701
0.947196
0.942354
0.938168
0.934608
0.931626
0.929157
0.927126
0.925452
0.924055
0.922858
0.921794
0.920806
0.919847
0.918885
0.917898
0.916876
0.915819
0.914734
0.913636
0.912543
0.911476
0.910457
0.909511
0.908661
0.90793
0.907338
0.906904
0.906642
0.90656
0.90666
0.906939
0.907388
0.90799
0.908725
0.909567
0.910488
0.911456
0.912438
0.9134
0.914307
0.915127
0.915827
0.916379
0.91676
0.916955
0.954833
0.955025
0.955411
0.955988
0.956757
0.957716
0.958866
0.960204
0.961734
0.963456
0.965377
0.967502
0.969841
0.972404
0.975205
0.978258
0.981583
0.985199
0.989126
0.993386
0.997995
1.00297
1.00831
1.01402
1.02008
1.02648
1.03317
1.04012
1.04728
1.0546
1.062
1.06942
1.0768
1.08406
1.09113
1.09796
1.10447
1.11062
1.11635
1.12162
1.12639
1.13061
1.13428
1.13735
1.13981
1.14164
1.14283
1.14337
1.14325
1.14248
1.14105
1.13896
1.13623
1.13287
1.12888
1.12429
1.11912
1.1134
1.10716
1.10044
1.09328
1.08574
1.07788
1.06976
1.06145
1.05304
1.04459
1.03621
1.02797
1.01996
1.01227
1.00497
0.998112
0.991757
0.98594
0.980683
0.975994
0.971867
0.96828
0.965194
0.962561
0.960321
0.958412
0.95677
0.955333
0.954046
0.95286
0.951736
0.950644
0.949563
0.948483
0.947399
0.946315
0.94524
0.944187
0.943171
0.94221
0.941322
0.940526
0.939839
0.939278
0.938856
0.938584
0.938467
0.938507
0.9387
0.939038
0.939507
0.94009
0.940764
0.941506
0.94229
0.943087
0.943869
0.944606
0.945272
0.94584
0.946287
0.946597
0.946754
0.987911
0.988099
0.988474
0.989036
0.989786
0.990722
0.991845
0.993155
0.994654
0.996345
0.998232
1.00032
1.00262
1.00514
1.00789
1.01088
1.01413
1.01765
1.02146
1.02557
1.03
1.03474
1.03981
1.04519
1.05088
1.05685
1.06307
1.06951
1.07611
1.08285
1.08964
1.09645
1.10321
1.10985
1.11633
1.12257
1.12854
1.13416
1.13941
1.14423
1.1486
1.15247
1.15582
1.15863
1.16088
1.16254
1.16362
1.16409
1.16396
1.16322
1.16187
1.15991
1.15736
1.15423
1.15052
1.14626
1.14147
1.13617
1.13041
1.12421
1.11762
1.11069
1.10347
1.09601
1.08839
1.08068
1.07294
1.06525
1.05769
1.05032
1.04323
1.03646
1.03007
1.02412
1.01862
1.0136
1.00907
1.00503
1.00145
0.99831
0.995571
0.993186
0.991106
0.98928
0.987659
0.986196
0.984852
0.983593
0.982391
0.981229
0.980093
0.978979
0.977888
0.976823
0.975794
0.974811
0.973889
0.973041
0.972281
0.971623
0.971079
0.970659
0.97037
0.970218
0.970201
0.970317
0.970557
0.97091
0.971362
0.971893
0.972483
0.973111
0.973751
0.974381
0.974977
0.975514
0.975973
0.976335
0.976584
0.976712
1.0208
1.02099
1.02135
1.0219
1.02263
1.02354
1.02464
1.02592
1.02738
1.02904
1.03089
1.03293
1.03518
1.03765
1.04033
1.04325
1.04641
1.04982
1.0535
1.05745
1.06168
1.06619
1.07099
1.07606
1.08139
1.08697
1.09275
1.09872
1.10482
1.11103
1.11728
1.12353
1.12973
1.13582
1.14175
1.14747
1.15293
1.15808
1.16289
1.16731
1.1713
1.17485
1.17792
1.18048
1.18253
1.18404
1.18501
1.18542
1.18527
1.18456
1.18329
1.18146
1.17908
1.17616
1.17271
1.16876
1.16432
1.15942
1.1541
1.14838
1.1423
1.13592
1.12928
1.12243
1.11543
1.10835
1.10124
1.09417
1.08721
1.08041
1.07385
1.06756
1.06161
1.05601
1.05082
1.04603
1.04167
1.03772
1.03418
1.03103
1.02823
1.02575
1.02355
1.02159
1.01983
1.01823
1.01676
1.01539
1.0141
1.01287
1.01168
1.01054
1.00943
1.00837
1.00735
1.00639
1.00549
1.00467
1.00393
1.00329
1.00276
1.00233
1.00202
1.00183
1.00176
1.00181
1.00196
1.00222
1.00255
1.00296
1.00342
1.00392
1.00443
1.00493
1.00541
1.00584
1.0062
1.00649
1.00669
1.0068
1.05351
1.05369
1.05404
1.05458
1.05529
1.05618
1.05724
1.05849
1.05992
1.06154
1.06334
1.06534
1.06753
1.06993
1.07254
1.07537
1.07843
1.08172
1.08526
1.08904
1.09308
1.09736
1.1019
1.10667
1.11167
1.11687
1.12225
1.12779
1.13344
1.13916
1.14492
1.15067
1.15636
1.16195
1.16739
1.17263
1.17763
1.18235
1.18675
1.1908
1.19446
1.1977
1.20051
1.20285
1.20472
1.20609
1.20696
1.20731
1.20715
1.20647
1.20527
1.20355
1.20133
1.19861
1.19541
1.19174
1.18763
1.1831
1.17818
1.1729
1.1673
1.16141
1.1553
1.149
1.14256
1.13604
1.12949
1.12298
1.11656
1.11028
1.10419
1.09834
1.09277
1.08752
1.0826
1.07804
1.07384
1.07001
1.06653
1.06339
1.06056
1.05802
1.05575
1.05369
1.05183
1.05013
1.04857
1.04711
1.04575
1.04446
1.04323
1.04206
1.04094
1.03987
1.03886
1.03791
1.03703
1.03622
1.03549
1.03486
1.03432
1.03388
1.03355
1.03333
1.03321
1.03319
1.03327
1.03344
1.03368
1.03398
1.03433
1.03471
1.03511
1.0355
1.03588
1.03622
1.03651
1.03674
1.0369
1.03698
1.08604
1.08621
1.08656
1.08708
1.08777
1.08863
1.08967
1.09089
1.09228
1.09385
1.0956
1.09754
1.09967
1.102
1.10453
1.10726
1.11021
1.11338
1.11677
1.12038
1.12422
1.12828
1.13256
1.13705
1.14174
1.14659
1.15161
1.15674
1.16197
1.16726
1.17257
1.17786
1.1831
1.18823
1.19322
1.19803
1.20261
1.20694
1.21097
1.21468
1.21803
1.221
1.22356
1.2257
1.2274
1.22864
1.22942
1.22972
1.22955
1.2289
1.22776
1.22616
1.22408
1.22155
1.21857
1.21517
1.21136
1.20717
1.20261
1.19774
1.19257
1.18714
1.1815
1.1757
1.16976
1.16375
1.15772
1.15171
1.14577
1.13995
1.13429
1.12884
1.12363
1.11868
1.11403
1.10969
1.10566
1.10194
1.09854
1.09543
1.09261
1.09005
1.08772
1.0856
1.08367
1.0819
1.08026
1.07874
1.07732
1.07598
1.07472
1.07352
1.07239
1.07131
1.0703
1.06936
1.06848
1.06768
1.06696
1.06633
1.06578
1.06533
1.06498
1.06472
1.06455
1.06448
1.06449
1.06458
1.06474
1.06495
1.0652
1.06549
1.06579
1.0661
1.06639
1.06665
1.06688
1.06706
1.06719
1.06725
1.1184
1.11857
1.1189
1.11941
1.12008
1.12091
1.12192
1.1231
1.12445
1.12598
1.12768
1.12956
1.13162
1.13387
1.13631
1.13895
1.14178
1.14482
1.14805
1.1515
1.15514
1.15899
1.16302
1.16724
1.17163
1.17617
1.18083
1.1856
1.19045
1.19534
1.20024
1.20512
1.20993
1.21465
1.21924
1.22365
1.22786
1.23182
1.23552
1.23891
1.24198
1.24469
1.24704
1.24899
1.25053
1.25166
1.25235
1.25261
1.25243
1.2518
1.25073
1.24923
1.24729
1.24493
1.24217
1.23901
1.23547
1.23159
1.22738
1.22287
1.21809
1.21309
1.20788
1.20252
1.19704
1.1915
1.18592
1.18036
1.17486
1.16945
1.16419
1.1591
1.15421
1.14956
1.14516
1.14102
1.13715
1.13356
1.13025
1.12719
1.12439
1.12183
1.11948
1.11733
1.11536
1.11353
1.11185
1.11028
1.10881
1.10744
1.10614
1.10493
1.10378
1.10269
1.10168
1.10073
1.09986
1.09906
1.09834
1.0977
1.09715
1.09668
1.0963
1.09601
1.09581
1.09568
1.09563
1.09566
1.09574
1.09587
1.09605
1.09625
1.09647
1.0967
1.09692
1.09712
1.0973
1.09744
1.09753
1.09758
1.15059
1.15075
1.15108
1.15157
1.15221
1.15303
1.154
1.15514
1.15645
1.15793
1.15957
1.16139
1.16338
1.16555
1.1679
1.17043
1.17315
1.17605
1.17914
1.18241
1.18587
1.1895
1.1933
1.19726
1.20137
1.20561
1.20995
1.21439
1.21888
1.2234
1.22793
1.23243
1.23687
1.24121
1.24542
1.24948
1.25334
1.25698
1.26036
1.26347
1.26628
1.26877
1.27091
1.27268
1.27409
1.2751
1.27572
1.27594
1.27575
1.27515
1.27414
1.27273
1.27092
1.26872
1.26615
1.26322
1.25994
1.25634
1.25244
1.24827
1.24385
1.23922
1.23441
1.22946
1.2244
1.21927
1.21411
1.20895
1.20385
1.19882
1.19391
1.18916
1.18457
1.18018
1.17601
1.17207
1.16837
1.16491
1.16169
1.15871
1.15595
1.1534
1.15105
1.14888
1.14688
1.14503
1.14331
1.14171
1.14021
1.13881
1.13749
1.13626
1.1351
1.13401
1.13299
1.13204
1.13117
1.13037
1.12964
1.129
1.12843
1.12795
1.12754
1.12722
1.12698
1.12681
1.12671
1.12667
1.12669
1.12676
1.12686
1.127
1.12715
1.12731
1.12747
1.12762
1.12775
1.12785
1.12793
1.12796
1.18262
1.18278
1.18309
1.18356
1.18419
1.18498
1.18592
1.18702
1.18829
1.18971
1.1913
1.19305
1.19497
1.19705
1.19931
1.20173
1.20433
1.2071
1.21003
1.21314
1.21641
1.21984
1.22342
1.22714
1.23099
1.23494
1.23899
1.24311
1.24728
1.25147
1.25565
1.2598
1.26389
1.26789
1.27177
1.2755
1.27904
1.28238
1.28549
1.28834
1.29091
1.29318
1.29513
1.29675
1.29803
1.29895
1.2995
1.29967
1.29948
1.2989
1.29795
1.29662
1.29493
1.29289
1.29049
1.28777
1.28473
1.28139
1.27778
1.27391
1.26983
1.26554
1.26109
1.25651
1.25182
1.24707
1.24228
1.2375
1.23275
1.22807
1.22349
1.21903
1.21473
1.21059
1.20664
1.20289
1.19935
1.19602
1.1929
1.18999
1.18728
1.18477
1.18244
1.18027
1.17826
1.1764
1.17466
1.17303
1.17152
1.1701
1.16877
1.16752
1.16635
1.16525
1.16423
1.16328
1.1624
1.16159
1.16086
1.16021
1.15963
1.15913
1.1587
1.15835
1.15807
1.15786
1.15772
1.15763
1.15759
1.1576
1.15765
1.15772
1.15782
1.15792
1.15803
1.15814
1.15823
1.1583
1.15836
1.15838
1.21449
1.21465
1.21495
1.2154
1.21601
1.21677
1.21768
1.21874
1.21996
1.22133
1.22286
1.22454
1.22638
1.22838
1.23054
1.23286
1.23534
1.23797
1.24076
1.24371
1.2468
1.25003
1.2534
1.25689
1.26049
1.26418
1.26796
1.27179
1.27565
1.27953
1.28341
1.28724
1.29101
1.2947
1.29827
1.30169
1.30495
1.30802
1.31087
1.31348
1.31584
1.31791
1.3197
1.32117
1.32233
1.32315
1.32364
1.32378
1.32358
1.32303
1.32213
1.32089
1.31931
1.3174
1.31517
1.31264
1.30981
1.30672
1.30337
1.29978
1.296
1.29203
1.2879
1.28365
1.27931
1.2749
1.27046
1.26601
1.26159
1.25723
1.25294
1.24877
1.24472
1.24081
1.23707
1.2335
1.23011
1.22691
1.2239
1.22107
1.21843
1.21596
1.21365
1.2115
1.2095
1.20763
1.20589
1.20425
1.20273
1.2013
1.19995
1.1987
1.19752
1.19642
1.19539
1.19444
1.19356
1.19275
1.19201
1.19135
1.19076
1.19024
1.18979
1.18941
1.1891
1.18886
1.18867
1.18854
1.18845
1.18841
1.18841
1.18843
1.18848
1.18853
1.1886
1.18867
1.18873
1.18878
1.18881
1.18883
1.24622
1.24636
1.24665
1.24709
1.24767
1.2484
1.24928
1.2503
1.25147
1.25279
1.25426
1.25587
1.25764
1.25955
1.26162
1.26383
1.26619
1.26869
1.27134
1.27413
1.27705
1.28009
1.28326
1.28653
1.2899
1.29335
1.29686
1.30042
1.30401
1.30761
1.31119
1.31474
1.31822
1.32162
1.32491
1.32806
1.33106
1.33387
1.33649
1.33888
1.34104
1.34294
1.34457
1.34591
1.34696
1.3477
1.34813
1.34824
1.34804
1.34751
1.34666
1.34549
1.34401
1.34223
1.34015
1.3378
1.33517
1.33229
1.32918
1.32586
1.32235
1.31866
1.31484
1.31089
1.30686
1.30277
1.29864
1.2945
1.29038
1.2863
1.28229
1.27837
1.27456
1.27087
1.26732
1.26393
1.26069
1.25762
1.25472
1.25198
1.2494
1.24698
1.24471
1.24259
1.2406
1.23874
1.237
1.23537
1.23384
1.2324
1.23106
1.2298
1.22862
1.22751
1.22648
1.22553
1.22464
1.22383
1.22308
1.22241
1.22181
1.22127
1.22081
1.22041
1.22007
1.21979
1.21957
1.21939
1.21927
1.21919
1.21914
1.21912
1.21912
1.21914
1.21917
1.2192
1.21923
1.21926
1.21928
1.21929
1.27779
1.27793
1.27821
1.27863
1.27919
1.27989
1.28074
1.28172
1.28284
1.28411
1.28551
1.28706
1.28875
1.29057
1.29254
1.29465
1.29689
1.29927
1.30178
1.30441
1.30716
1.31003
1.31301
1.31607
1.31922
1.32244
1.32572
1.32903
1.33237
1.3357
1.33902
1.3423
1.34552
1.34865
1.35168
1.35458
1.35734
1.35993
1.36233
1.36452
1.3665
1.36823
1.36972
1.37094
1.37189
1.37256
1.37294
1.37302
1.37281
1.3723
1.3715
1.3704
1.36902
1.36735
1.36542
1.36322
1.36078
1.3581
1.35521
1.35213
1.34886
1.34544
1.34189
1.33823
1.33448
1.33067
1.32682
1.32296
1.31912
1.3153
1.31154
1.30786
1.30427
1.30079
1.29743
1.2942
1.29111
1.28816
1.28536
1.28271
1.28021
1.27785
1.27563
1.27354
1.27158
1.26974
1.26801
1.26638
1.26486
1.26342
1.26208
1.26082
1.25964
1.25853
1.2575
1.25654
1.25565
1.25484
1.25409
1.2534
1.25279
1.25224
1.25176
1.25133
1.25097
1.25066
1.25041
1.25021
1.25005
1.24992
1.24984
1.24978
1.24975
1.24973
1.24973
1.24973
1.24974
1.24975
1.24976
1.24977
1.30923
1.30936
1.30963
1.31003
1.31057
1.31124
1.31205
1.31299
1.31407
1.31528
1.31662
1.3181
1.31971
1.32146
1.32333
1.32533
1.32746
1.32971
1.33209
1.33457
1.33717
1.33987
1.34266
1.34553
1.34848
1.35149
1.35454
1.35762
1.36072
1.36382
1.36689
1.36992
1.37289
1.37579
1.37858
1.38125
1.38379
1.38617
1.38837
1.39039
1.39219
1.39378
1.39514
1.39625
1.39711
1.39771
1.39804
1.3981
1.39788
1.3974
1.39663
1.3956
1.3943
1.39275
1.39094
1.38889
1.38662
1.38413
1.38144
1.37857
1.37554
1.37236
1.36905
1.36565
1.36216
1.35861
1.35502
1.35142
1.34782
1.34425
1.34073
1.33726
1.33388
1.33059
1.3274
1.32433