/*--------------------------------*- C++ -*----------------------------------*\
| =========                 |                                                 |
| \\      /  F ield         | OpenFOAM: The Open Source CFD Toolbox           |
|  \\    /   O peration     | Version:  2406                                  |
|   \\  /    A nd           | Website:  www.openfoam.com                      |
|    \\/     M anipulation  |                                                 |
\*---------------------------------------------------------------------------*/
FoamFile
{
    version     2.0;
    format      ascii;
    arch        "LSB;label=32;scalar=64";
    class       volScalarField;
    location    "4.3";
    object      D;
}
// * * * * * * * * * * * * * * * * * * * * * * * * * * * * * * * * * * * * * //

dimensions      [0 2 -1 0 0 0 0];

internalField   nonuniform List<scalar> 
14400
(
6.31797e-05
6.18904e-05
6.08087e-05
6.00753e-05
5.95941e-05
5.92872e-05
5.91095e-05
5.90382e-05
5.90668e-05
5.92039e-05
5.94776e-05
5.99533e-05
6.07902e-05
6.24815e-05
6.75406e-05
0.000104187
7.23867e-05
6.3481e-05
6.07977e-05
5.95587e-05
5.88438e-05
5.83837e-05
5.80729e-05
5.78626e-05
5.77291e-05
5.76618e-05
5.76597e-05
5.77309e-05
5.78963e-05
5.82004e-05
5.87426e-05
5.97907e-05
6.23687e-05
7.29932e-05
0.000137436
0.00013824
0.00013824
0.00013824
0.00013824
0.00013824
0.00013824
0.00013824
0.00013824
0.00013824
0.00013824
0.00013824
0.00013824
0.00013824
0.00013824
0.00013824
0.00013824
0.00013824
0.00013824
0.00013824
0.00013824
0.00013824
0.00013824
0.00013824
0.00013824
0.00013824
0.00013824
0.00013824
0.00013824
0.000113917
6.58561e-05
6.0726e-05
5.91877e-05
5.84632e-05
5.8058e-05
5.78183e-05
5.76786e-05
5.76059e-05
5.75817e-05
5.75955e-05
5.76414e-05
5.77174e-05
5.78249e-05
5.79695e-05
5.81622e-05
5.84228e-05
5.87881e-05
5.93301e-05
6.02172e-05
6.19777e-05
6.74701e-05
0.000114402
0.00013824
0.00013824
0.00013824
0.000125087
6.90589e-05
6.29225e-05
6.09862e-05
6.0057e-05
5.95367e-05
5.92346e-05
5.90705e-05
5.90047e-05
5.90145e-05
5.90837e-05
5.91955e-05
5.93253e-05
5.94349e-05
5.94752e-05
5.94146e-05
5.92862e-05
5.91397e-05
5.90126e-05
5.89284e-05
5.89031e-05
5.8952e-05
5.90961e-05
5.93733e-05
5.98595e-05
6.07349e-05
6.25671e-05
6.844e-05
0.00012213
0.00013824
0.00013824
6.64278e-05
6.28761e-05
6.11808e-05
6.02547e-05
5.96996e-05
5.93601e-05
5.91675e-05
5.90915e-05
5.91236e-05
5.92727e-05
5.95711e-05
6.00953e-05
6.10383e-05
6.30235e-05
6.92952e-05
0.000123646
8.72832e-05
6.50128e-05
6.11696e-05
5.9721e-05
5.8939e-05
5.84497e-05
5.81245e-05
5.79074e-05
5.77718e-05
5.77065e-05
5.77102e-05
5.77922e-05
5.7976e-05
5.83137e-05
5.89289e-05
6.01961e-05
6.40148e-05
9.1282e-05
0.000138227
0.00013824
0.00013824
0.00013824
0.00013824
0.00013824
0.00013824
0.00013824
0.00013824
0.00013824
0.00013824
0.00013824
0.00013824
0.00013824
0.00013824
0.00013824
0.00013824
0.00013824
0.00013824
0.00013824
0.00013824
0.00013824
0.00013824
0.00013824
0.00013824
0.00013824
0.00013824
0.00013824
0.00013824
0.000128039
6.72607e-05
6.12084e-05
5.94091e-05
5.85872e-05
5.81365e-05
5.78721e-05
5.77174e-05
5.7635e-05
5.76044e-05
5.7614e-05
5.76577e-05
5.77333e-05
5.78425e-05
5.79911e-05
5.81912e-05
5.84649e-05
5.88533e-05
5.94402e-05
6.04256e-05
6.24492e-05
6.88566e-05
0.000127692
0.00013824
0.00013824
0.00013824
0.000136976
7.38339e-05
6.39625e-05
6.13744e-05
6.02604e-05
5.9668e-05
5.93329e-05
5.91544e-05
5.90862e-05
5.91043e-05
5.91935e-05
5.93393e-05
5.95183e-05
5.9686e-05
5.97626e-05
5.96648e-05
5.94782e-05
5.92829e-05
5.91223e-05
5.90186e-05
5.89855e-05
5.90368e-05
5.9195e-05
5.95037e-05
6.00578e-05
6.11007e-05
6.34701e-05
7.1872e-05
0.000135965
0.00013824
0.00013824
9.28504e-05
6.596e-05
6.20365e-05
6.0649e-05
5.99336e-05
5.95238e-05
5.9299e-05
5.92131e-05
5.92531e-05
5.94302e-05
5.97869e-05
6.04326e-05
6.16784e-05
6.4865e-05
8.09964e-05
0.000138045
0.000118061
6.77929e-05
6.19516e-05
6.00795e-05
5.91513e-05
5.85966e-05
5.82388e-05
5.80059e-05
5.78655e-05
5.78041e-05
5.78206e-05
5.7926e-05
5.81505e-05
5.85638e-05
5.93451e-05
6.10899e-05
6.70343e-05
0.000123486
0.00013824
0.00013824
0.00013824
0.00013824
0.00013824
0.00013824
0.00013824
0.00013824
0.00013824
0.00013824
0.00013824
0.00013824
0.00013824
0.00013824
0.00013824
0.00013824
0.00013824
0.00013824
0.00013824
0.00013824
0.00013824
0.00013824
0.00013824
0.00013824
0.00013824
0.00013824
0.00013824
0.00013824
0.00013824
0.00013813
8.02446e-05
6.2975e-05
5.99686e-05
5.88675e-05
5.83084e-05
5.7989e-05
5.78021e-05
5.76991e-05
5.76551e-05
5.76562e-05
5.76955e-05
5.77705e-05
5.78832e-05
5.80404e-05
5.82564e-05
5.8558e-05
5.89976e-05
5.96899e-05
6.09492e-05
6.41047e-05
7.99792e-05
0.00013804
0.00013824
0.00013824
0.00013824
0.00013824
0.000111566
6.75728e-05
6.23637e-05
6.07323e-05
5.99656e-05
5.9554e-05
5.93421e-05
5.92679e-05
5.93045e-05
5.94404e-05
5.96707e-05
5.9984e-05
6.03421e-05
6.05866e-05
6.03186e-05
5.99413e-05
5.96129e-05
5.93691e-05
5.92197e-05
5.91685e-05
5.92258e-05
5.94164e-05
5.97985e-05
6.05186e-05
6.20541e-05
6.69518e-05
0.000108067
0.00013824
0.00013824
0.00013824
0.000134162
7.11803e-05
6.36084e-05
6.13784e-05
6.03644e-05
5.98254e-05
5.95408e-05
5.94366e-05
5.94921e-05
5.9724e-05
6.01989e-05
6.11113e-05
6.30978e-05
6.96463e-05
0.000127064
0.00013824
0.000138007
7.89452e-05
6.38674e-05
6.07939e-05
5.95457e-05
5.88609e-05
5.84409e-05
5.81781e-05
5.8028e-05
5.7973e-05
5.8012e-05
5.81602e-05
5.84606e-05
5.90235e-05
6.0197e-05
6.37324e-05
8.9081e-05
0.000138224
0.00013824
0.00013824
0.00013824
0.00013824
0.00013824
0.00013824
0.00013824
0.00013824
0.00013824
0.00013824
0.00013824
0.00013824
0.00013824
0.00013824
0.00013824
0.00013824
0.00013824
0.00013824
0.00013824
0.00013824
0.00013824
0.00013824
0.00013824
0.00013824
0.00013824
0.00013824
0.00013824
0.00013824
0.00013824
0.00013824
0.000122052
6.68425e-05
6.10651e-05
5.93744e-05
5.8607e-05
5.81894e-05
5.7947e-05
5.78096e-05
5.77434e-05
5.7731e-05
5.77635e-05
5.78381e-05
5.7957e-05
5.8129e-05
5.83721e-05
5.87216e-05
5.92514e-05
6.01403e-05
6.19658e-05
6.78122e-05
0.000119596
0.00013824
0.00013824
0.00013824
0.00013824
0.00013824
0.000138016
7.99348e-05
6.46734e-05
6.16677e-05
6.05293e-05
5.99623e-05
5.96835e-05
5.95956e-05
5.9667e-05
5.9896e-05
6.03119e-05
6.09668e-05
6.20065e-05
6.34269e-05
6.1976e-05
6.09176e-05
6.02511e-05
5.9824e-05
5.9583e-05
5.94978e-05
5.95685e-05
5.98236e-05
6.03536e-05
6.14194e-05
6.41705e-05
7.70774e-05
0.00013783
0.00013824
0.00013824
0.00013824
0.00013824
0.000121281
6.90909e-05
6.30392e-05
6.11985e-05
6.03817e-05
5.99742e-05
5.98334e-05
5.99196e-05
6.02647e-05
6.1001e-05
6.26612e-05
6.7918e-05
0.000108483
0.00013824
0.00013824
0.00013824
0.000129986
6.90678e-05
6.23337e-05
6.02902e-05
5.93261e-05
5.87848e-05
5.8464e-05
5.82942e-05
5.82495e-05
5.83291e-05
5.85568e-05
5.90036e-05
5.98687e-05
6.19432e-05
6.994e-05
0.00013645
0.00013824
0.00013824
0.00013824
0.00013824
0.00013824
0.00013824
0.00013824
0.00013824
0.00013824
0.00013824
0.00013824
0.00013824
0.00013824
0.00013824
0.00013824
0.00013824
0.00013824
0.00013824
0.00013824
0.00013824
0.00013824
0.00013824
0.00013824
0.00013824
0.00013824
0.00013824
0.00013824
0.00013824
0.00013824
0.00013824
0.00013824
0.000138229
9.07344e-05
6.40147e-05
6.03334e-05
5.91127e-05
5.8517e-05
5.81813e-05
5.79879e-05
5.78873e-05
5.78545e-05
5.78775e-05
5.79523e-05
5.80822e-05
5.82786e-05
5.85665e-05
5.89963e-05
5.96854e-05
6.09715e-05
6.44331e-05
8.53996e-05
0.000138188
0.00013824
0.00013824
0.00013824
0.00013824
0.00013824
0.00013824
0.000135359
7.13924e-05
6.37746e-05
6.1671e-05
6.07277e-05
6.02995e-05
6.01757e-05
6.03164e-05
6.07428e-05
6.16333e-05
6.3338e-05
6.78933e-05
8.32986e-05
6.78387e-05
6.32685e-05
6.15653e-05
6.06689e-05
6.02324e-05
6.00786e-05
6.01843e-05
6.05841e-05
6.14714e-05
6.34467e-05
7.05884e-05
0.000134231
0.00013824
0.00013824
0.00013824
0.00013824
0.00013824
0.00013824
0.000111958
6.8666e-05
6.3108e-05
6.1528e-05
6.0796e-05
6.05695e-05
6.07245e-05
6.13574e-05
6.28145e-05
6.77135e-05
0.000100282
0.000138237
0.00013824
0.00013824
0.00013824
0.00013824
0.000116737
6.77299e-05
6.19773e-05
6.0206e-05
5.93948e-05
5.89479e-05
5.87354e-05
5.8709e-05
5.88713e-05
5.92719e-05
6.00752e-05
6.18037e-05
6.81151e-05
0.000131432
0.00013824
0.00013824
0.00013824
0.00013824
0.00013824
0.00013824
0.00013824
0.00013824
0.00013824
0.00013824
0.00013824
0.00013824
0.00013824
0.00013824
0.00013824
0.00013824
0.00013824
0.00013824
0.00013824
0.00013824
0.00013824
0.00013824
0.00013824
0.00013824
0.00013824
0.00013824
0.00013824
0.00013824
0.00013824
0.00013824
0.00013824
0.00013824
0.00013824
0.000137404
7.20809e-05
6.23199e-05
6.00176e-05
5.90712e-05
5.85653e-05
5.82754e-05
5.81189e-05
5.80551e-05
5.80646e-05
5.81416e-05
5.82907e-05
5.85291e-05
5.88948e-05
5.9469e-05
6.04701e-05
6.2638e-05
7.01419e-05
0.000134975
0.00013824
0.00013824
0.00013824
0.00013824
0.00013824
0.00013824
0.00013824
0.00013824
0.000133385
7.16262e-05
6.48746e-05
6.2412e-05
6.15407e-05
6.12917e-05
6.16213e-05
6.25838e-05
6.5481e-05
7.26306e-05
0.000127128
0.000138184
0.00012691
7.24278e-05
6.53856e-05
6.25046e-05
6.15338e-05
6.11911e-05
6.14192e-05
6.22497e-05
6.45566e-05
7.08807e-05
0.0001318
0.00013824
0.00013824
0.00013824
0.00013824
0.00013824
0.00013824
0.00013824
0.00013824
0.000116814
6.98005e-05
6.48519e-05
6.26406e-05
6.21598e-05
6.25125e-05
6.43401e-05
6.9076e-05
0.000107507
0.000138237
0.00013824
0.00013824
0.00013824
0.00013824
0.00013824
0.00013824
0.000112436
6.77538e-05
6.2215e-05
6.06498e-05
5.98395e-05
5.95191e-05
5.95318e-05
5.99071e-05
6.08142e-05
6.30183e-05
6.88563e-05
0.000130114
0.00013824
0.00013824
0.00013824
0.00013824
0.00013824
0.00013824
0.00013824
0.00013824
0.00013824
0.00013824
0.00013824
0.00013824
0.00013824
0.00013824
0.00013824
0.00013824
0.00013824
0.00013824
0.00013824
0.00013824
0.00013824
0.00013824
0.00013824
0.00013824
0.00013824
0.00013824
0.00013824
0.00013824
0.00013824
0.00013824
0.00013824
0.00013824
0.00013824
0.00013824
0.00013824
0.000134446
6.88997e-05
6.20622e-05
6.01465e-05
5.92452e-05
5.87578e-05
5.85014e-05
5.83862e-05
5.83747e-05
5.84582e-05
5.86436e-05
5.89604e-05
5.94829e-05
6.03695e-05
6.22491e-05
6.85538e-05
0.000127241
0.00013824
0.00013824
0.00013824
0.00013824
0.00013824
0.00013824
0.00013824
0.00013824
0.00013824
0.00013824
0.000135873
8.3543e-05
6.80171e-05
6.49932e-05
6.39746e-05
6.53435e-05
6.86676e-05
9.16609e-05
0.00013696
0.00013824
0.00013824
0.00013824
0.000136896
9.12946e-05
6.85695e-05
6.52318e-05
6.38476e-05
6.4825e-05
6.77757e-05
8.18886e-05
0.000135144
0.00013824
0.00013824
0.00013824
0.00013824
0.00013824
0.00013824
0.00013824
0.00013824
0.00013824
0.00013824
0.000130681
8.59101e-05
6.88659e-05
6.74109e-05
6.85223e-05
8.07093e-05
0.000126362
0.00013824
0.00013824
0.00013824
0.00013824
0.00013824
0.00013824
0.00013824
0.00013824
0.00013824
0.000121555
6.93791e-05
6.45874e-05
6.18457e-05
6.1179e-05
6.12993e-05
6.25192e-05
6.59888e-05
8.00918e-05
0.00013494
0.00013824
0.00013824
0.00013824
0.00013824
0.00013824
0.00013824
0.00013824
0.00013824
0.00013824
0.00013824
0.00013824
0.00013824
0.00013824
0.00013824
0.00013824
0.00013824
0.00013824
0.00013824
0.00013824
0.00013824
0.00013824
0.00013824
0.00013824
0.00013824
0.00013824
0.00013824
0.00013824
0.00013824
0.00013824
0.00013824
0.00013824
0.00013824
0.00013824
0.00013824
0.00013824
0.00013824
0.00013824
0.000133374
6.97454e-05
6.30802e-05
6.06872e-05
5.96462e-05
5.91797e-05
5.89653e-05
5.89141e-05
5.90145e-05
5.92782e-05
5.97663e-05
6.07029e-05
6.24955e-05
6.85063e-05
0.000123412
0.00013824
0.00013824
0.00013824
0.00013824
0.00013824
0.00013824
0.00013824
0.00013824
0.00013824
0.00013824
0.00013824
0.00013824
0.000138148
0.000117501
8.47771e-05
7.41133e-05
8.87711e-05
0.000122593
0.000138224
0.00013824
0.00013824
0.00013824
0.00013824
0.00013824
0.000138223
0.000122389
8.83713e-05
7.37691e-05
8.40248e-05
0.000116618
0.000138115
0.00013824
0.00013824
0.00013824
0.00013824
0.00013824
0.00013824
0.00013824
0.00013824
0.00013824
0.00013824
0.00013824
0.00013824
0.000138188
0.000127807
0.000114963
0.000125878
0.000138079
0.00013824
0.00013824
0.00013824
0.00013824
0.00013824
0.00013824
0.00013824
0.00013824
0.00013824
0.00013824
0.00013824
0.000134253
9.63352e-05
6.87794e-05
6.67102e-05
6.71939e-05
7.47693e-05
0.000114751
0.000138131
0.00013824
0.00013824
0.00013824
0.00013824
0.00013824
0.00013824
0.00013824
0.00013824
0.00013824
0.00013824
0.00013824
0.00013824
0.00013824
0.00013824
0.00013824
0.00013824
0.00013824
0.00013824
0.00013824
0.00013824
0.00013824
0.00013824
0.00013824
0.00013824
0.00013824
0.00013824
0.00013824
0.00013824
0.00013824
0.00013824
0.00013824
0.00013824
0.00013824
0.00013824
0.00013824
0.00013824
0.00013824
0.00013824
0.00013824
0.000136186
7.99065e-05
6.54223e-05
6.16423e-05
6.06103e-05
6.01343e-05
5.99656e-05
6.01208e-05
6.06119e-05
6.15817e-05
6.44719e-05
7.06088e-05
0.000129032
0.00013824
0.00013824
0.00013824
0.00013824
0.00013824
0.00013824
0.00013824
0.00013824
0.00013824
0.00013824
0.00013824
0.00013824
0.00013824
0.00013824
0.00013824
0.000138154
0.000137112
0.000138203
0.00013824
0.00013824
0.00013824
0.00013824
0.00013824
0.00013824
0.00013824
0.00013824
0.00013824
0.000138201
0.000137031
0.000138142
0.00013824
0.00013824
0.00013824
0.00013824
0.00013824
0.00013824
0.00013824
0.00013824
0.00013824
0.00013824
0.00013824
0.00013824
0.00013824
0.00013824
0.00013824
0.00013824
0.00013824
0.00013824
0.00013824
0.00013824
0.00013824
0.00013824
0.00013824
0.00013824
0.00013824
0.00013824
0.00013824
0.00013824
0.00013824
0.00013824
0.00013824
0.000138236
0.000133957
0.000122108
0.000127214
0.00013781
0.00013824
0.00013824
0.00013824
0.00013824
0.00013824
0.00013824
0.00013824
0.00013824
0.00013824
0.00013824
0.00013824
0.00013824
0.00013824
0.00013824
0.00013824
0.00013824
0.00013824
0.00013824
0.00013824
0.00013824
0.00013824
0.00013824
0.00013824
0.00013824
0.00013824
0.00013824
0.00013824
0.00013824
0.00013824
0.00013824
0.00013824
0.00013824
0.00013824
0.00013824
0.00013824
0.00013824
0.00013824
0.00013824
0.00013824
0.00013824
0.00013824
0.00013824
0.000138128
0.000108647
6.86127e-05
6.53507e-05
6.35001e-05
6.26317e-05
6.3098e-05
6.4844e-05
6.78229e-05
9.31946e-05
0.000136355
0.00013824
0.00013824
0.00013824
0.00013824
0.00013824
0.00013824
0.00013824
0.00013824
0.00013824
0.00013824
0.00013824
0.00013824
0.00013824
0.00013824
0.00013824
0.00013824
0.00013824
0.00013824
0.00013824
0.00013824
0.00013824
0.00013824
0.00013824
0.00013824
0.00013824
0.00013824
0.00013824
0.00013824
0.00013824
0.00013824
0.00013824
0.00013824
0.00013824
0.00013824
0.00013824
0.00013824
0.00013824
0.00013824
0.00013824
0.00013824
0.00013824
0.00013824
0.00013824
0.00013824
0.00013824
0.00013824
0.00013824
0.00013824
0.00013824
0.00013824
0.00013824
0.00013824
0.00013824
0.00013824
0.00013824
0.00013824
0.00013824
0.00013824
0.00013824
0.00013824
0.00013824
0.00013824
0.00013824
0.00013824
0.00013824
0.00013824
0.00013824
0.00013824
0.00013824
0.00013824
0.00013824
0.00013824
0.00013824
0.00013824
0.00013824
0.00013824
0.00013824
0.00013824
0.00013824
0.00013824
0.00013824
0.00013824
0.00013824
0.00013824
0.00013824
0.00013824
0.00013824
0.00013824
0.00013824
0.00013824
0.00013824
0.00013824
0.00013824
0.00013824
0.00013824
0.00013824
0.00013824
0.00013824
0.00013824
0.00013824
0.00013824
0.00013824
0.00013824
0.00013824
0.00013824
0.00013824
0.00013824
0.00013824
0.00013824
0.00013824
0.00013824
0.000133872
0.000108085
8.37237e-05
7.4095e-05
7.80952e-05
9.81337e-05
0.000127018
0.000138232
0.00013824
0.00013824
0.00013824
0.00013824
0.00013824
0.00013824
0.00013824
0.00013824
0.00013824
0.00013824
0.00013824
0.00013824
0.00013824
0.00013824
0.00013824
0.00013824
0.00013824
0.00013824
0.00013824
0.00013824
0.00013824
0.00013824
0.00013824
0.00013824
0.00013824
0.00013824
0.00013824
0.00013824
0.00013824
0.00013824
0.00013824
0.00013824
0.00013824
0.00013824
0.00013824
0.00013824
0.00013824
0.00013824
0.00013824
0.00013824
0.00013824
0.00013824
0.00013824
0.00013824
0.00013824
0.00013824
0.00013824
0.00013824
0.00013824
0.00013824
0.00013824
0.00013824
0.00013824
0.00013824
0.00013824
0.00013824
0.00013824
0.00013824
0.00013824
0.00013824
0.00013824
0.00013824
0.00013824
0.00013824
0.00013824
0.00013824
0.00013824
0.00013824
0.00013824
0.00013824
0.00013824
0.00013824
0.00013824
0.00013824
0.00013824
0.00013824
0.00013824
0.00013824
0.00013824
0.00013824
0.00013824
0.00013824
0.00013824
0.00013824
0.00013824
0.00013824
0.00013824
0.00013824
0.00013824
0.00013824
0.00013824
0.00013824
0.00013824
0.00013824
0.00013824
0.00013824
0.00013824
0.00013824
0.00013824
0.00013824
0.00013824
0.00013824
0.00013824
0.00013824
0.00013824
0.00013824
0.00013824
0.00013824
0.00013824
0.00013824
0.00013824
0.00013824
0.00013824
0.00013824
0.000138174
0.000137612
0.000138001
0.000138237
0.00013824
0.00013824
0.00013824
0.00013824
0.00013824
0.00013824
0.00013824
0.00013824
0.00013824
0.00013824
0.00013824
0.00013824
0.00013824
0.00013824
0.00013824
0.00013824
0.00013824
0.00013824
0.00013824
0.00013824
0.00013824
0.00013824
0.00013824
0.00013824
0.00013824
0.00013824
0.00013824
0.00013824
0.00013824
0.00013824
0.00013824
0.00013824
0.00013824
0.00013824
0.00013824
0.00013824
0.00013824
0.00013824
0.00013824
0.00013824
0.00013824
0.00013824
0.00013824
0.00013824
0.00013824
0.00013824
0.00013824
0.00013824
0.00013824
0.00013824
0.00013824
0.00013824
0.00013824
0.00013824
0.00013824
0.00013824
0.00013824
0.00013824
0.00013824
0.00013824
0.00013824
0.00013824
0.00013824
0.00013824
0.00013824
0.00013824
0.00013824
0.00013824
0.00013824
0.00013824
0.00013824
0.00013824
0.00013824
0.00013824
0.00013824
0.00013824
0.00013824
0.00013824
0.00013824
0.00013824
0.00013824
0.00013824
0.00013824
0.00013824
0.00013824
0.00013824
0.00013824
0.00013824
0.00013824
0.00013824
0.00013824
0.00013824
0.00013824
0.00013824
0.00013824
0.00013824
0.00013824
0.00013824
0.00013824
0.00013824
0.00013824
0.00013824
0.00013824
0.00013824
0.00013824
0.00013824
0.00013824
0.00013824
0.00013824
0.00013824
0.00013824
0.00013824
0.00013824
0.00013824
0.00013824
0.00013824
0.00013824
0.00013824
0.00013824
0.00013824
0.00013824
0.00013824
0.00013824
0.00013824
0.00013824
0.00013824
0.00013824
0.00013824
0.00013824
0.00013824
0.00013824
0.00013824
0.00013824
0.00013824
0.00013824
0.00013824
0.00013824
0.00013824
0.00013824
0.00013824
0.00013824
0.00013824
0.00013824
0.00013824
0.00013824
0.00013824
0.00013824
0.00013824
0.00013824
0.00013824
0.00013824
0.00013824
0.00013824
0.00013824
0.00013824
0.00013824
0.00013824
0.00013824
0.00013824
0.00013824
0.00013824
0.00013824
0.00013824
0.00013824
0.00013824
0.00013824
0.00013824
0.00013824
0.00013824
0.00013824
0.00013824
0.00013824
0.00013824
0.00013824
0.00013824
0.00013824
0.00013824
0.00013824
0.00013824
0.00013824
0.00013824
0.00013824
0.00013824
0.00013824
0.00013824
0.00013824
0.00013824
0.00013824
0.00013824
0.00013824
0.00013824
0.00013824
0.00013824
0.00013824
0.00013824
0.00013824
0.00013824
0.00013824
0.00013824
0.00013824
0.00013824
0.00013824
0.00013824
0.00013824
0.00013824
0.00013824
0.00013824
0.00013824
0.00013824
0.00013824
0.00013824
0.00013824
0.00013824
0.00013824
0.00013824
0.00013824
0.00013824
0.00013824
0.00013824
0.00013824
0.00013824
0.00013824
0.00013824
0.00013824
0.00013824
0.00013824
0.00013824
0.00013824
0.00013824
0.00013824
0.00013824
0.00013824
0.00013824
0.00013824
0.00013824
0.00013824
0.00013824
0.00013824
0.00013824
0.00013824
0.00013824
0.00013824
0.00013824
0.00013824
0.00013824
0.00013824
0.00013824
0.00013824
0.00013824
0.00013824
0.00013824
0.00013824
0.00013824
0.00013824
0.00013824
0.00013824
0.00013824
0.00013824
0.00013824
0.00013824
0.00013824
0.00013824
0.00013824
0.00013824
0.00013824
0.00013824
0.00013824
0.00013824
0.00013824
0.00013824
0.00013824
0.00013824
0.00013824
0.00013824
0.00013824
0.00013824
0.00013824
0.00013824
0.00013824
0.00013824
0.00013824
0.00013824
0.00013824
0.00013824
0.00013824
0.00013824
0.00013824
0.00013824
0.00013824
0.00013824
0.00013824
0.00013824
0.00013824
0.00013824
0.00013824
0.00013824
0.00013824
0.00013824
0.00013824
0.00013824
0.00013824
0.00013824
0.00013824
0.00013824
0.00013824
0.00013824
0.00013824
0.00013824
0.00013824
0.00013824
0.00013824
0.00013824
0.00013824
0.00013824
0.00013824
0.00013824
0.00013824
0.00013824
0.00013824
0.00013824
0.00013824
0.00013824
0.00013824
0.00013824
0.00013824
0.00013824
0.00013824
0.00013824
0.00013824
0.00013824
0.00013824
0.00013824
0.00013824
0.00013824
0.00013824
0.00013824
0.00013824
0.00013824
0.00013824
0.00013824
0.00013824
0.00013824
0.00013824
0.00013824
0.00013824
0.00013824
0.00013824
0.00013824
0.00013824
0.00013824
0.00013824
0.00013824
0.00013824
0.00013824
0.00013824
0.00013824
0.00013824
0.00013824
0.00013824
0.00013824
0.00013824
0.00013824
0.00013824
0.00013824
0.00013824
0.00013824
0.00013824
0.00013824
0.00013824
0.00013824
0.00013824
0.00013824
0.00013824
0.00013824
0.00013824
0.00013824
0.00013824
0.00013824
0.00013824
0.00013824
0.00013824
0.00013824
0.00013824
0.00013824
0.00013824
0.00013824
0.00013824
0.00013824
0.00013824
0.00013824
0.00013824
0.00013824
0.00013824
0.00013824
0.00013824
0.00013824
0.00013824
0.00013824
0.00013824
0.00013824
0.00013824
0.00013824
0.00013824
0.00013824
0.00013824
0.00013824
0.00013824
0.00013824
0.00013824
0.00013824
0.00013824
0.00013824
0.00013824
0.00013824
0.00013824
0.00013824
0.00013824
0.00013824
0.00013824
0.00013824
0.00013824
0.00013824
0.00013824
0.00013824
0.00013824
0.00013824
0.00013824
0.00013824
0.00013824
0.00013824
0.00013824
0.00013824
0.00013824
0.00013824
0.00013824
0.00013824
0.00013824
0.00013824
0.00013824
0.00013824
0.00013824
0.00013824
0.00013824
0.00013824
0.00013824
0.00013824
0.00013824
0.00013824
0.00013824
0.00013824
0.00013824
0.00013824
0.00013824
0.00013824
0.00013824
0.00013824
0.00013824
0.00013824
0.00013824
0.00013824
0.00013824
0.00013824
0.00013824
0.00013824
0.00013824
0.00013824
0.00013824
0.00013824
0.00013824
0.00013824
0.00013824
0.00013824
0.00013824
0.00013824
0.00013824
0.00013824
0.00013824
0.00013824
0.00013824
0.00013824
0.00013824
0.00013824
0.00013824
0.00013824
0.00013824
0.00013824
0.00013824
0.00013824
0.00013824
0.00013824
0.00013824
0.00013824
0.00013824
0.00013824
0.00013824
0.00013824
0.00013824
0.00013824
0.00013824
0.00013824
0.00013824
0.00013824
0.00013824
0.00013824
0.00013824
0.00013824
0.00013824
0.00013824
0.00013824
0.00013824
0.00013824
0.00013824
0.00013824
0.00013824
0.00013824
0.00013824
0.00013824
0.00013824
0.00013824
0.00013824
0.00013824
0.00013824
0.00013824
0.00013824
0.00013824
0.00013824
0.00013824
0.00013824
0.00013824
0.00013824
0.00013824
0.00013824
0.00013824
0.00013824
0.00013824
0.00013824
0.00013824
0.00013824
0.00013824
0.00013824
0.00013824
0.00013824
0.00013824
0.00013824
0.00013824
0.00013824
0.00013824
0.00013824
0.00013824
0.00013824
0.00013824
0.00013824
0.00013824
0.00013824
0.00013824
0.00013824
0.00013824
0.00013824
0.00013824
0.00013824
0.00013824
0.00013824
0.00013824
0.00013824
0.00013824
0.00013824
0.00013824
0.00013824
0.00013824
0.00013824
0.00013824
0.00013824
0.00013824
0.00013824
0.00013824
0.00013824
0.00013824
0.00013824
0.00013824
0.00013824
0.00013824
0.00013824
0.00013824
0.00013824
0.00013824
0.00013824
0.00013824
0.00013824
0.00013824
0.00013824
0.00013824
0.00013824
0.00013824
0.00013824
0.00013824
0.00013824
0.00013824
0.00013824
0.00013824
0.00013824
0.00013824
0.00013824
0.00013824
0.00013824
0.00013824
0.00013824
0.00013824
0.00013824
0.00013824
0.00013824
0.00013824
0.00013824
0.00013824
0.00013824
0.00013824
0.00013824
0.00013824
0.00013824
0.00013824
0.00013824
0.00013824
0.00013824
0.00013824
0.00013824
0.00013824
0.00013824
0.00013824
0.00013824
0.00013824
0.00013824
0.00013824
0.00013824
0.00013824
0.00013824
0.00013824
0.00013824
0.00013824
0.00013824
0.00013824
0.00013824
0.00013824
0.00013824
0.00013824
0.00013824
0.00013824
0.00013824
0.00013824
0.00013824
0.00013824
0.00013824
0.00013824
0.00013824
0.00013824
0.00013824
0.00013824
0.00013824
0.00013824
0.00013824
0.00013824
0.00013824
0.00013824
0.00013824
0.00013824
0.00013824
0.00013824
0.00013824
0.00013824
0.00013824
0.00013824
0.00013824
0.00013824
0.00013824
0.00013824
0.00013824
0.00013824
0.00013824
0.00013824
0.00013824
0.00013824
0.00013824
0.00013824
0.00013824
0.00013824
0.00013824
0.00013824
0.00013824
0.00013824
0.00013824
0.00013824
0.00013824
0.00013824
0.00013824
0.00013824
0.00013824
0.00013824
0.00013824
0.00013824
0.00013824
0.00013824
0.00013824
0.00013824
0.00013824
0.00013824
0.00013824
0.00013824
0.00013824
0.00013824
0.00013824
0.00013824
0.00013824
0.00013824
0.00013824
0.00013824
0.00013824
0.00013824
0.00013824
0.00013824
0.00013824
0.00013824
0.00013824
0.00013824
0.00013824
0.00013824
0.00013824
0.00013824
0.00013824
0.00013824
0.00013824
0.00013824
0.00013824
0.00013824
0.00013824
0.00013824
0.00013824
0.00013824
0.00013824
0.00013824
0.00013824
0.00013824
0.00013824
0.00013824
0.00013824
0.00013824
0.00013824
0.00013824
0.00013824
0.00013824
0.00013824
0.00013824
0.00013824
0.00013824
0.00013824
0.00013824
0.00013824
0.00013824
0.00013824
0.00013824
0.00013824
0.00013824
0.00013824
0.00013824
0.00013824
0.00013824
0.00013824
0.00013824
0.00013824
0.00013824
0.00013824
0.00013824
0.00013824
0.00013824
0.00013824
0.00013824
0.00013824
0.00013824
0.00013824
0.00013824
0.00013824
0.00013824
0.00013824
0.00013824
0.00013824
0.00013824
0.00013824
0.00013824
0.00013824
0.00013824
0.00013824
0.00013824
0.00013824
0.00013824
0.00013824
0.00013824
0.00013824
0.00013824
0.00013824
0.00013824
0.00013824
0.00013824
0.00013824
0.00013824
0.00013824
0.00013824
0.00013824
0.00013824
0.00013824
0.00013824
0.00013824
0.00013824
0.00013824
0.00013824
0.00013824
0.00013824
0.00013824
0.00013824
0.00013824
0.00013824
0.00013824
0.00013824
0.00013824
0.00013824
0.00013824
0.00013824
0.00013824
0.00013824
0.00013824
0.00013824
0.00013824
0.00013824
0.00013824
0.00013824
0.00013824
0.00013824
0.00013824
0.00013824
0.00013824
0.00013824
0.00013824
0.00013824
0.00013824
0.00013824
0.00013824
0.00013824
0.00013824
0.00013824
0.00013824
0.00013824
0.00013824
0.00013824
0.00013824
0.00013824
0.00013824
0.00013824
0.00013824
0.00013824
0.00013824
0.00013824
0.00013824
0.00013824
0.00013824
0.00013824
0.00013824
0.00013824
0.00013824
0.00013824
0.00013824
0.00013824
0.00013824
0.00013824
0.00013824
0.00013824
0.00013824
0.00013824
0.00013824
0.00013824
0.00013824
0.00013824
0.00013824
0.00013824
0.00013824
0.00013824
0.00013824
0.00013824
0.00013824
0.00013824
0.00013824
0.00013824
0.00013824
0.00013824
0.00013824
0.00013824
0.00013824
0.00013824
0.00013824
0.00013824
0.00013824
0.00013824
0.00013824
0.00013824
0.00013824
0.00013824
0.00013824
0.00013824
0.00013824
0.00013824
0.00013824
0.00013824
0.00013824
0.00013824
0.00013824
0.00013824
0.00013824
0.00013824
0.00013824
0.00013824
0.00013824
0.00013824
0.00013824
0.00013824
0.00013824
0.00013824
0.00013824
0.00013824
0.00013824
0.00013824
0.00013824
0.00013824
0.00013824
0.00013824
0.00013824
0.00013824
0.00013824
0.00013824
0.00013824
0.00013824
0.00013824
0.00013824
0.00013824
0.00013824
0.00013824
0.00013824
0.00013824
0.00013824
0.00013824
0.00013824
0.00013824
0.00013824
0.00013824
0.00013824
0.00013824
0.00013824
0.00013824
0.00013824
0.00013824
0.00013824
0.00013824
0.00013824
0.00013824
0.00013824
0.00013824
0.00013824
0.00013824
0.00013824
0.00013824
0.00013824
0.00013824
0.00013824
0.00013824
0.00013824
0.00013824
0.00013824
0.00013824
0.00013824
0.00013824
0.00013824
0.00013824
0.00013824
0.00013824
0.00013824
0.00013824
0.00013824
0.00013824
0.00013824
0.00013824
0.00013824
0.00013824
0.00013824
0.00013824
0.00013824
0.00013824
0.00013824
0.00013824
0.00013824
0.00013824
0.00013824
0.00013824
0.00013824
0.00013824
0.00013824
0.00013824
0.00013824
0.00013824
0.00013824
0.00013824
0.00013824
0.00013824
0.00013824
0.00013824
0.00013824
0.00013824
0.00013824
0.00013824
0.00013824
0.00013824
0.00013824
0.00013824
0.00013824
0.00013824
0.00013824
0.00013824
0.00013824
0.00013824
0.00013824
0.00013824
0.00013824
0.00013824
0.00013824
0.00013824
0.00013824
0.00013824
0.00013824
0.00013824
0.00013824
0.00013824
0.00013824
0.00013824
0.00013824
0.00013824
0.00013824
0.00013824
0.00013824
0.00013824
0.00013824
0.00013824
0.00013824
0.00013824
0.00013824
0.00013824
0.00013824
0.00013824
0.00013824
0.00013824
0.00013824
0.00013824
0.00013824
0.00013824
0.00013824
0.00013824
0.00013824
0.00013824
0.00013824
0.00013824
0.00013824
0.00013824
0.00013824
0.00013824
0.00013824
0.00013824
0.00013824
0.00013824
0.00013824
0.00013824
0.00013824
0.00013824
0.00013824
0.00013824
0.00013824
0.00013824
0.00013824
0.00013824
0.00013824
0.00013824
0.00013824
0.00013824
0.00013824
0.00013824
0.00013824
0.00013824
0.00013824
0.00013824
0.00013824
0.00013824
0.00013824
0.00013824
0.00013824
0.00013824
0.00013824
0.00013824
0.00013824
0.00013824
0.00013824
0.00013824
0.00013824
0.00013824
0.00013824
0.00013824
0.00013824
0.00013824
0.00013824
0.00013824
0.00013824
0.00013824
0.00013824
0.00013824
0.00013824
0.00013824
0.00013824
0.00013824
0.00013824
0.00013824
0.00013824
0.00013824
0.00013824
0.00013824
0.00013824
0.00013824
0.00013824
0.00013824
0.00013824
0.00013824
0.00013824
0.00013824
0.00013824
0.00013824
0.00013824
0.00013824
0.00013824
0.00013824
0.00013824
0.00013824
0.00013824
0.00013824
0.00013824
0.00013824
0.00013824
0.00013824
0.00013824
0.00013824
0.00013824
0.00013824
0.00013824
0.00013824
0.00013824
0.00013824
0.00013824
0.00013824
0.00013824
0.00013824
0.00013824
0.00013824
0.00013824
0.00013824
0.00013824
0.00013824
0.00013824
0.00013824
0.00013824
0.00013824
0.00013824
0.00013824
0.00013824
0.00013824
0.00013824
0.00013824
0.00013824
0.00013824
0.00013824
0.00013824
0.00013824
0.00013824
0.00013824
0.00013824
0.00013824
0.00013824
0.00013824
0.00013824
0.00013824
0.00013824
0.00013824
0.00013824
0.00013824
0.00013824
0.00013824
0.00013824
0.00013824
0.00013824
0.00013824