/*--------------------------------*- C++ -*----------------------------------*\
| =========                 |                                                 |
| \\      /  F ield         | OpenFOAM: The Open Source CFD Toolbox           |
|  \\    /   O peration     | Version:  2406                                  |
|   \\  /    A nd           | Website:  www.openfoam.com                      |
|    \\/     M anipulation  |                                                 |
\*---------------------------------------------------------------------------*/
FoamFile
{
    version     2.0;
    format      ascii;
    arch        "LSB;label=32;scalar=64";
    class       volScalarField;
    location    "9.75";
    object      D;
}
// * * * * * * * * * * * * * * * * * * * * * * * * * * * * * * * * * * * * * //

dimensions      [0 2 -1 0 0 0 0];

internalField   nonuniform List<scalar> 
14400
(
8.01817e-05
8.02036e-05
8.02619e-05
8.03612e-05
8.04877e-05
8.06156e-05
8.07175e-05
8.07741e-05
8.07797e-05
8.07447e-05
8.06941e-05
8.06623e-05
8.06824e-05
8.07699e-05
8.09028e-05
8.10194e-05
8.10675e-05
8.10862e-05
8.11027e-05
8.10904e-05
8.09825e-05
8.06957e-05
8.01482e-05
7.92728e-05
7.80285e-05
7.64151e-05
7.44898e-05
7.23814e-05
7.02749e-05
6.83489e-05
6.6715e-05
6.54102e-05
6.44296e-05
6.37612e-05
6.34163e-05
6.34674e-05
6.41572e-05
6.6408e-05
7.54655e-05
0.000136261
0.00013824
0.00013824
0.00013824
0.00013824
0.00013824
0.00013824
0.00013824
0.00013824
0.00013824
0.00013824
0.00013824
0.00013824
0.00013824
0.00013824
0.00013824
0.00013824
0.00013824
0.00013824
0.000133239
7.3305e-05
6.63523e-05
6.46163e-05
6.4201e-05
6.44179e-05
6.50961e-05
6.62129e-05
6.78053e-05
6.99193e-05
7.25401e-05
7.55146e-05
7.85513e-05
8.13416e-05
8.36792e-05
8.54701e-05
8.66863e-05
8.73326e-05
8.74319e-05
8.70198e-05
8.61461e-05
8.48849e-05
8.33474e-05
8.16959e-05
8.01523e-05
7.90138e-05
7.87478e-05
8.05668e-05
9.07782e-05
0.000136943
9.82598e-05
7.96733e-05
7.58961e-05
7.48605e-05
7.47719e-05
7.5151e-05
7.5786e-05
7.65478e-05
7.73438e-05
7.81061e-05
7.87862e-05
7.93524e-05
7.97838e-05
8.00657e-05
8.01849e-05
8.01295e-05
7.98921e-05
7.94724e-05
7.88756e-05
7.81107e-05
7.71929e-05
7.6149e-05
7.50235e-05
7.38813e-05
7.28042e-05
7.18843e-05
7.12226e-05
7.09493e-05
7.13002e-05
7.29308e-05
7.91635e-05
0.000126608
7.90865e-05
7.90386e-05
7.89974e-05
7.89998e-05
7.90475e-05
7.91197e-05
7.91901e-05
7.92391e-05
7.92609e-05
7.92658e-05
7.92803e-05
7.93413e-05
7.94854e-05
7.97255e-05
8.0014e-05
8.02144e-05
8.01861e-05
8.00746e-05
7.99769e-05
7.98834e-05
7.97249e-05
7.94126e-05
7.88616e-05
7.80055e-05
7.68079e-05
7.52754e-05
7.34719e-05
7.15247e-05
6.95997e-05
6.78466e-05
6.63571e-05
6.5164e-05
6.42681e-05
6.36672e-05
6.33844e-05
6.35138e-05
6.43735e-05
6.73997e-05
8.34693e-05
0.000137975
0.00013824
0.00013824
0.00013824
0.00013824
0.00013824
0.00013824
0.00013824
0.00013824
0.00013824
0.00013824
0.00013824
0.00013824
0.00013824
0.00013824
0.00013824
0.00013824
0.00013824
0.00013824
0.000137087
7.76891e-05
6.71179e-05
6.48043e-05
6.42254e-05
6.43546e-05
6.49553e-05
6.59809e-05
6.74539e-05
6.94121e-05
7.18491e-05
7.46432e-05
7.75414e-05
8.02503e-05
8.255e-05
8.43253e-05
8.55349e-05
8.61775e-05
8.62733e-05
8.58583e-05
8.49865e-05
8.37388e-05
8.22361e-05
8.06497e-05
7.9207e-05
7.82103e-05
7.81688e-05
8.06684e-05
9.60497e-05
0.000137949
0.000108666
8.02136e-05
7.55455e-05
7.4252e-05
7.39872e-05
7.42119e-05
7.47059e-05
7.53433e-05
7.60376e-05
7.67262e-05
7.73635e-05
7.7916e-05
7.83573e-05
7.86618e-05
7.88028e-05
7.87558e-05
7.85094e-05
7.80709e-05
7.74605e-05
7.67013e-05
7.58189e-05
7.4845e-05
7.3824e-05
7.28148e-05
7.18887e-05
7.11269e-05
7.06252e-05
7.05232e-05
7.11037e-05
7.32063e-05
8.09339e-05
0.000133973
7.72429e-05
7.70286e-05
7.6771e-05
7.6577e-05
7.64709e-05
7.64355e-05
7.64439e-05
7.64759e-05
7.65251e-05
7.66024e-05
7.67361e-05
7.69699e-05
7.73536e-05
7.79138e-05
7.85736e-05
7.90073e-05
7.87284e-05
7.82823e-05
7.79227e-05
7.76513e-05
7.73831e-05
7.70174e-05
7.64647e-05
7.56604e-05
7.45743e-05
7.32215e-05
7.16685e-05
7.0027e-05
6.84245e-05
6.69684e-05
6.57255e-05
6.4726e-05
6.39811e-05
6.35046e-05
6.334e-05
6.36185e-05
6.47848e-05
6.92499e-05
0.000103518
0.000138236
0.00013824
0.00013824
0.00013824
0.00013824
0.00013824
0.00013824
0.00013824
0.00013824
0.00013824
0.00013824
0.00013824
0.00013824
0.00013824
0.00013824
0.00013824
0.00013824
0.00013824
0.00013824
0.000138213
9.46622e-05
6.89141e-05
6.51773e-05
6.42809e-05
6.42457e-05
6.47025e-05
6.55624e-05
6.68214e-05
6.85008e-05
7.05997e-05
7.30406e-05
7.5638e-05
7.81412e-05
8.03248e-05
8.20428e-05
8.32252e-05
8.38546e-05
8.39455e-05
8.35357e-05
8.26876e-05
8.1497e-05
8.01014e-05
7.86837e-05
7.74723e-05
7.67678e-05
7.7136e-05
8.08364e-05
0.000107666
0.000138225
0.000125052
8.12607e-05
7.51029e-05
7.32808e-05
7.26769e-05
7.26223e-05
7.28671e-05
7.32828e-05
7.37894e-05
7.4333e-05
7.4875e-05
7.5384e-05
7.58279e-05
7.61659e-05
7.63463e-05
7.63185e-05
7.60622e-05
7.56015e-05
7.49857e-05
7.42624e-05
7.34699e-05
7.26429e-05
7.18196e-05
7.10454e-05
7.03749e-05
6.98748e-05
6.9639e-05
6.98339e-05
7.08743e-05
7.44657e-05
9.40788e-05
0.000138114
7.53097e-05
7.47758e-05
7.41785e-05
7.37168e-05
7.34158e-05
7.3247e-05
7.31774e-05
7.31844e-05
7.32616e-05
7.34201e-05
7.3691e-05
7.41295e-05
7.48192e-05
7.58604e-05
7.7252e-05
7.83665e-05
7.72894e-05
7.61545e-05
7.53618e-05
7.48244e-05
7.43998e-05
7.39633e-05
7.34196e-05
7.27062e-05
7.1798e-05
7.07105e-05
6.94973e-05
6.82378e-05
6.70162e-05
6.59034e-05
6.49484e-05
6.41821e-05
6.36283e-05
6.33203e-05
6.3331e-05
6.38536e-05
6.5539e-05
7.18594e-05
0.000127581
0.00013824
0.00013824
0.00013824
0.00013824
0.00013824
0.00013824
0.00013824
0.00013824
0.00013824
0.00013824
0.00013824
0.00013824
0.00013824
0.00013824
0.00013824
0.00013824
0.00013824
0.00013824
0.00013824
0.00013824
0.000119375
7.12209e-05
6.57537e-05
6.44078e-05
6.41328e-05
6.43903e-05
6.50332e-05
6.60229e-05
6.7356e-05
6.90261e-05
7.09873e-05
7.3124e-05
7.52545e-05
7.71803e-05
7.87415e-05
7.98395e-05
8.04325e-05
8.05234e-05
8.01518e-05
7.93921e-05
7.83567e-05
7.71956e-05
7.60917e-05
7.5262e-05
7.5007e-05
7.59743e-05
8.11297e-05
0.000122816
0.00013824
0.000137505
8.79142e-05
7.54039e-05
7.236e-05
7.12349e-05
7.0826e-05
7.0779e-05
7.09403e-05
7.12281e-05
7.15948e-05
7.20094e-05
7.24464e-05
7.28745e-05
7.32434e-05
7.34742e-05
7.34773e-05
7.32166e-05
7.27423e-05
7.2143e-05
7.14904e-05
7.08297e-05
7.01913e-05
6.96025e-05
6.90937e-05
6.87051e-05
6.8496e-05
6.85675e-05
6.91327e-05
7.08018e-05
7.65744e-05
0.000119892
0.00013824
7.42772e-05
7.3027e-05
7.19124e-05
7.11323e-05
7.06289e-05
7.03301e-05
7.01849e-05
7.01642e-05
7.02597e-05
7.04842e-05
7.08753e-05
7.15073e-05
7.25268e-05
7.42357e-05
7.72504e-05
8.20878e-05
7.684e-05
7.42698e-05
7.28574e-05
7.20039e-05
7.14091e-05
7.09012e-05
7.03756e-05
6.97712e-05
6.90625e-05
6.82552e-05
6.73803e-05
6.64841e-05
6.56172e-05
6.48259e-05
6.41492e-05
6.36205e-05
6.32766e-05
6.31746e-05
6.3437e-05
6.44199e-05
6.78353e-05
9.00714e-05
0.00013819
0.00013824
0.00013824
0.00013824
0.00013824
0.00013824
0.00013824
0.00013824
0.00013824
0.00013824
0.00013824
0.00013824
0.00013824
0.00013824
0.00013824
0.00013824
0.00013824
0.00013824
0.00013824
0.00013824
0.00013824
0.000137304
7.80224e-05
6.71081e-05
6.47502e-05
6.4088e-05
6.40851e-05
6.44784e-05
6.51803e-05
6.61574e-05
6.73884e-05
6.88373e-05
7.04334e-05
7.20622e-05
7.35809e-05
7.48513e-05
7.57706e-05
7.62838e-05
7.63844e-05
7.61102e-05
7.55398e-05
7.47865e-05
7.39914e-05
7.33194e-05
7.29784e-05
7.33194e-05
7.53126e-05
8.38165e-05
0.000135947
0.00013824
0.00013824
0.000119486
7.77912e-05
7.19291e-05
7.00323e-05
6.92236e-05
6.88923e-05
6.88232e-05
6.89181e-05
6.91289e-05
6.94296e-05
6.98007e-05
7.02166e-05
7.06271e-05
7.09291e-05
7.09765e-05
7.07012e-05
7.01992e-05
6.96092e-05
6.90231e-05
6.8484e-05
6.80144e-05
6.7631e-05
6.73548e-05
6.72203e-05
6.72907e-05
6.76956e-05
6.8759e-05
7.16541e-05
8.40703e-05
0.000137502
0.00013824
7.72117e-05
7.26921e-05
7.04968e-05
6.92592e-05
6.85214e-05
6.809e-05
6.78726e-05
6.78236e-05
6.79298e-05
6.82076e-05
6.87088e-05
6.95448e-05
7.09845e-05
7.38665e-05
8.26042e-05
0.000124975
7.9866e-05
7.32495e-05
7.08717e-05
6.96535e-05
6.88873e-05
6.83118e-05
6.7802e-05
6.72921e-05
6.6751e-05
6.61721e-05
6.55671e-05
6.4959e-05
6.43772e-05
6.38533e-05
6.34203e-05
6.31156e-05
6.29912e-05
6.31383e-05
6.37658e-05
6.55358e-05
7.20581e-05
0.000128947
0.00013824
0.00013824
0.00013824
0.00013824
0.00013824
0.00013824
0.00013824
0.00013824
0.00013824
0.00013824
0.00013824
0.00013824
0.00013824
0.00013824
0.00013824
0.00013824
0.00013824
0.00013824
0.00013824
0.00013824
0.00013824
0.00013824
0.00011674
7.07839e-05
6.55467e-05
6.42038e-05
6.38582e-05
6.39767e-05
6.43946e-05
6.50434e-05
6.58835e-05
6.6877e-05
6.7973e-05
6.90997e-05
7.0167e-05
7.10811e-05
7.17639e-05
7.21689e-05
7.22886e-05
7.21546e-05
7.18333e-05
7.14186e-05
7.10271e-05
7.08051e-05
7.09737e-05
7.20353e-05
7.62414e-05
0.000106015
0.000138231
0.00013824
0.00013824
0.000137929
8.85336e-05
7.28169e-05
6.94067e-05
6.80819e-05
6.74597e-05
6.71875e-05
6.71272e-05
6.72224e-05
6.74484e-05
6.77907e-05
6.82332e-05
6.87387e-05
6.918e-05
6.93056e-05
6.89587e-05
6.83572e-05
6.77183e-05
6.71505e-05
6.66844e-05
6.63314e-05
6.61004e-05
6.60089e-05
6.60959e-05
6.64469e-05
6.72675e-05
6.91878e-05
7.54363e-05
0.00012362
0.00013824
0.00013824
0.000116795
7.66184e-05
7.0459e-05
6.82838e-05
6.71825e-05
6.65774e-05
6.62762e-05
6.61961e-05
6.63134e-05
6.66518e-05
6.72938e-05
6.84338e-05
7.067e-05
7.70197e-05
0.000121688
0.000138208
9.89669e-05
7.40169e-05
6.96493e-05
6.7951e-05
6.69931e-05
6.63427e-05
6.5834e-05
6.5387e-05
6.49619e-05
6.45425e-05
6.41281e-05
6.37284e-05
6.33608e-05
6.30486e-05
6.28227e-05
6.27279e-05
6.28406e-05
6.33214e-05
6.46396e-05
6.91703e-05
0.000104167
0.000138238
0.00013824
0.00013824
0.00013824
0.00013824
0.00013824
0.00013824
0.00013824
0.00013824
0.00013824
0.00013824
0.00013824
0.00013824
0.00013824
0.00013824
0.00013824
0.00013824
0.00013824
0.00013824
0.00013824
0.00013824
0.00013824
0.00013824
0.000137965
8.2533e-05
6.7434e-05
6.46416e-05
6.37981e-05
6.36001e-05
6.37382e-05
6.40959e-05
6.46125e-05
6.52438e-05
6.59469e-05
6.66727e-05
6.73657e-05
6.797e-05
6.84385e-05
6.87434e-05
6.88819e-05
6.8878e-05
6.87808e-05
6.8663e-05
6.86225e-05
6.88028e-05
6.94722e-05
7.13627e-05
7.79233e-05
0.000129605
0.00013824
0.00013824
0.00013824
0.00013824
0.000130954
7.70729e-05
6.98803e-05
6.76268e-05
6.66047e-05
6.61124e-05
6.59097e-05
6.59188e-05
6.61124e-05
6.64814e-05
6.70274e-05
6.7767e-05
6.85707e-05
6.8928e-05
6.82853e-05
6.73775e-05
6.65545e-05
6.59201e-05
6.54615e-05
6.51708e-05
6.50474e-05
6.51115e-05
6.54216e-05
6.61239e-05
6.76592e-05
7.21428e-05
9.99335e-05
0.000138226
0.00013824
0.00013824
0.000138236
0.000106468
7.37927e-05
6.85356e-05
6.66615e-05
6.57563e-05
6.53316e-05
6.52106e-05
6.5348e-05
6.57826e-05
6.66725e-05
6.84427e-05
7.31249e-05
9.97253e-05
0.00013822
0.00013824
0.000129472
7.63903e-05
6.93266e-05
6.69274e-05
6.57066e-05
6.49517e-05
6.44187e-05
6.40002e-05
6.3645e-05
6.33287e-05
6.30431e-05
6.27912e-05
6.25845e-05
6.24435e-05
6.24013e-05
6.25174e-05
6.29133e-05
6.38978e-05
6.67056e-05
8.07433e-05
0.000137898
0.00013824
0.00013824
0.00013824
0.00013824
0.00013824
0.00013824
0.00013824
0.00013824
0.00013824
0.00013824
0.00013824
0.00013824
0.00013824
0.00013824
0.00013824
0.00013824
0.00013824
0.00013824
0.00013824
0.00013824
0.00013824
0.00013824
0.00013824
0.00013824
0.000128806
7.22064e-05
6.57891e-05
6.40537e-05
6.34284e-05
6.32649e-05
6.33553e-05
6.36052e-05
6.39592e-05
6.43754e-05
6.48164e-05
6.52461e-05
6.56314e-05
6.59467e-05
6.61787e-05
6.63296e-05
6.64193e-05
6.64872e-05
6.65949e-05
6.68385e-05
6.73895e-05
6.86715e-05
7.25712e-05
9.67009e-05
0.000138202
0.00013824
0.00013824
0.00013824
0.00013824
0.00013824
0.000118001
7.45503e-05
6.8444e-05
6.6505e-05
6.56684e-05
6.52801e-05
6.52101e-05
6.54179e-05
6.59069e-05
6.67152e-05
6.81191e-05
7.0349e-05
7.23091e-05
6.96119e-05
6.75972e-05
6.6215e-05
6.53535e-05
6.48092e-05
6.45273e-05
6.44852e-05
6.4714e-05
6.53293e-05
6.6648e-05
6.99385e-05
8.44717e-05
0.000137893
0.00013824
0.00013824
0.00013824
0.00013824
0.000138196
9.481e-05
7.18235e-05
6.73324e-05
6.57136e-05
6.50598e-05
6.48705e-05
6.50513e-05
6.56766e-05
6.71514e-05
7.07828e-05
8.59897e-05
0.000137937
0.00013824
0.00013824
0.000138231
0.000101633
7.14196e-05
6.67203e-05
6.49964e-05
6.40658e-05
6.34695e-05
6.30452e-05
6.2723e-05
6.24698e-05
6.2272e-05
6.21294e-05
6.20529e-05
6.20654e-05
6.221e-05
6.25783e-05
6.34009e-05
6.54077e-05
7.26657e-05
0.000133956
0.00013824
0.00013824
0.00013824
0.00013824
0.00013824
0.00013824
0.00013824
0.00013824
0.00013824
0.00013824
0.00013824
0.00013824
0.00013824
0.00013824
0.00013824
0.00013824
0.00013824
0.00013824
0.00013824
0.00013824
0.00013824
0.00013824
0.00013824
0.00013824
0.00013824
0.000138239
0.00010864
6.99562e-05
6.50297e-05
6.3589e-05
6.30305e-05
6.28459e-05
6.28613e-05
6.29959e-05
6.32018e-05
6.34449e-05
6.36982e-05
6.39403e-05
6.41568e-05
6.43427e-05
6.45038e-05
6.46598e-05
6.48478e-05
6.51316e-05
6.56261e-05
6.65754e-05
6.8682e-05
7.55003e-05
0.000129637
0.00013824
0.00013824
0.00013824
0.00013824
0.00013824
0.00013824
0.000138239
0.000111313
7.35365e-05
6.77953e-05
6.61575e-05
6.53737e-05
6.51904e-05
6.54947e-05
6.63635e-05
6.79001e-05
7.23426e-05
8.45273e-05
0.000108916
7.9282e-05
7.10807e-05
6.72228e-05
6.5672e-05
6.48322e-05
6.44856e-05
6.45201e-05
6.50028e-05
6.62849e-05
6.95195e-05
8.06334e-05
0.000137226
0.00013824
0.00013824
0.00013824
0.00013824
0.00013824
0.00013824
0.00013816
9.38482e-05
7.16651e-05
6.70368e-05
6.58105e-05
6.5452e-05
6.57561e-05
6.68809e-05
7.07615e-05
8.4827e-05
0.000137673
0.00013824
0.00013824
0.00013824
0.00013824
0.000136424
7.70664e-05
6.76144e-05
6.49221e-05
6.36667e-05
6.29396e-05
6.24667e-05
6.21445e-05
6.19256e-05
6.17905e-05
6.17382e-05
6.17851e-05
6.19674e-05
6.23546e-05
6.3129e-05
6.49485e-05
7.13037e-05
0.000126754
0.00013824
0.00013824
0.00013824
0.00013824
0.00013824
0.00013824
0.00013824
0.00013824
0.00013824
0.00013824
0.00013824
0.00013824
0.00013824
0.00013824
0.00013824
0.00013824
0.00013824
0.00013824
0.00013824
0.00013824
0.00013824
0.00013824
0.00013824
0.00013824
0.00013824
0.00013824
0.00013824
0.00013819
8.96538e-05
6.79695e-05
6.43378e-05
6.31258e-05
6.26029e-05
6.23818e-05
6.23239e-05
6.23635e-05
6.24618e-05
6.25932e-05
6.27408e-05
6.28951e-05
6.30551e-05
6.323e-05
6.34418e-05
6.37321e-05
6.41805e-05
6.49553e-05
6.65281e-05
7.11669e-05
0.000103208
0.000138235
0.00013824
0.00013824
0.00013824
0.00013824
0.00013824
0.00013824
0.00013824
0.000138239
0.000117385
7.42875e-05
6.93482e-05
6.68315e-05
6.63658e-05
6.70315e-05
6.9841e-05
7.4487e-05
0.000112303
0.000137896
0.000138238
0.000137048
0.000101244
7.29479e-05
6.81453e-05
6.60718e-05
6.54837e-05
6.56336e-05
6.67433e-05
7.09721e-05
8.76116e-05
0.000137436
0.00013824
0.00013824
0.00013824
0.00013824
0.00013824
0.00013824
0.00013824
0.00013824
0.000138199
0.000107964
7.33908e-05
6.98395e-05
6.85366e-05
6.95497e-05
7.28108e-05
9.91929e-05
0.000137945
0.00013824
0.00013824
0.00013824
0.00013824
0.00013824
0.00013824
0.00012752
7.27715e-05
6.60185e-05
6.38909e-05
6.28698e-05
6.22715e-05
6.19081e-05
6.16987e-05
6.16132e-05
6.16518e-05
6.18496e-05
6.22894e-05
6.31268e-05
6.48746e-05
7.10096e-05
0.000122943
0.00013824
0.00013824
0.00013824
0.00013824
0.00013824
0.00013824
0.00013824
0.00013824
0.00013824
0.00013824
0.00013824
0.00013824
0.00013824
0.00013824
0.00013824
0.00013824
0.00013824
0.00013824
0.00013824
0.00013824
0.00013824
0.00013824
0.00013824
0.00013824
0.00013824
0.00013824
0.00013824
0.00013824
0.00013824
0.000137622
7.83563e-05
6.64965e-05
6.37817e-05
6.27185e-05
6.2198e-05
6.19353e-05
6.18212e-05
6.17994e-05
6.18382e-05
6.19191e-05
6.20337e-05
6.21833e-05
6.23807e-05
6.26539e-05
6.30574e-05
6.37074e-05
6.48831e-05
6.75636e-05
7.78664e-05
0.000137006
0.00013824
0.00013824
0.00013824
0.00013824
0.00013824
0.00013824
0.00013824
0.00013824
0.00013824
0.00013824
0.000131241
9.32092e-05
7.33794e-05
7.18943e-05
7.4123e-05
9.82207e-05
0.000132355
0.00013824
0.00013824
0.00013824
0.00013824
0.000138233
0.000125494
8.34633e-05
7.17769e-05
7.02051e-05
7.07678e-05
7.44694e-05
0.000111831
0.000138121
0.00013824
0.00013824
0.00013824
0.00013824
0.00013824
0.00013824
0.00013824
0.00013824
0.00013824
0.00013824
0.000138239
0.00012981
0.000101799
8.67531e-05
9.78928e-05
0.000125822
0.00013823
0.00013824
0.00013824
0.00013824
0.00013824
0.00013824
0.00013824
0.00013824
0.00013824
0.000118462
7.14974e-05
6.53671e-05
6.35169e-05
6.259e-05
6.21073e-05
6.18756e-05
6.18402e-05
6.20018e-05
6.24546e-05
6.35031e-05
6.57911e-05
7.18124e-05
0.000126234
0.00013824
0.00013824
0.00013824
0.00013824
0.00013824
0.00013824
0.00013824
0.00013824
0.00013824
0.00013824
0.00013824
0.00013824
0.00013824
0.00013824
0.00013824
0.00013824
0.00013824
0.00013824
0.00013824
0.00013824
0.00013824
0.00013824
0.00013824
0.00013824
0.00013824
0.00013824
0.00013824
0.00013824
0.00013824
0.00013824
0.00013824
0.000136134
7.44769e-05
6.58615e-05
6.34811e-05
6.24261e-05
6.18708e-05
6.15753e-05
6.14306e-05
6.13857e-05
6.14131e-05
6.15019e-05
6.16551e-05
6.18914e-05
6.22523e-05
6.28224e-05
6.38206e-05
6.59015e-05
7.26061e-05
0.000128336
0.00013824
0.00013824
0.00013824
0.00013824
0.00013824
0.00013824
0.00013824
0.00013824
0.00013824
0.00013824
0.00013824
0.00013824
0.000138203
0.000132144
0.000124918
0.000134066
0.000138227
0.00013824
0.00013824
0.00013824
0.00013824
0.00013824
0.00013824
0.00013824
0.000137976
0.000124659
0.000110453
0.000117509
0.000135216
0.00013824
0.00013824
0.00013824
0.00013824
0.00013824
0.00013824
0.00013824
0.00013824
0.00013824
0.00013824
0.00013824
0.00013824
0.00013824
0.00013824
0.000138234
0.000138087
0.000138225
0.00013824
0.00013824
0.00013824
0.00013824
0.00013824
0.00013824
0.00013824
0.00013824
0.00013824
0.00013824
0.00013824
0.000120028
7.18028e-05
6.61548e-05
6.39593e-05
6.31213e-05
6.27875e-05
6.28436e-05
6.3265e-05
6.43553e-05
6.82273e-05
8.0702e-05
0.000133755
0.00013824
0.00013824
0.00013824
0.00013824
0.00013824
0.00013824
0.00013824
0.00013824
0.00013824
0.00013824
0.00013824
0.00013824
0.00013824
0.00013824
0.00013824
0.00013824
0.00013824
0.00013824
0.00013824
0.00013824
0.00013824
0.00013824
0.00013824
0.00013824
0.00013824
0.00013824
0.00013824
0.00013824
0.00013824
0.00013824
0.00013824
0.00013824
0.00013824
0.000135416
7.46709e-05
6.61577e-05
6.34729e-05
6.22873e-05
6.16974e-05
6.13847e-05
6.12426e-05
6.12169e-05
6.12887e-05
6.14631e-05
6.17709e-05
6.22885e-05
6.31762e-05
6.5058e-05
7.10025e-05
0.000116562
0.00013824
0.00013824
0.00013824
0.00013824
0.00013824
0.00013824
0.00013824
0.00013824
0.00013824
0.00013824
0.00013824
0.00013824
0.00013824
0.00013824
0.00013824
0.00013824
0.00013824
0.00013824
0.00013824
0.00013824
0.00013824
0.00013824
0.00013824
0.00013824
0.00013824
0.00013824
0.00013824
0.000138239
0.00013824
0.00013824
0.00013824
0.00013824
0.00013824
0.00013824
0.00013824
0.00013824
0.00013824
0.00013824
0.00013824
0.00013824
0.00013824
0.00013824
0.00013824
0.00013824
0.00013824
0.00013824
0.00013824
0.00013824
0.00013824
0.00013824
0.00013824
0.00013824
0.00013824
0.00013824
0.00013824
0.00013824
0.00013824
0.00013824
0.00013824
0.000130771
8.14514e-05
6.94502e-05
6.69716e-05
6.60194e-05
6.6566e-05
6.82071e-05
7.1864e-05
0.000110364
0.000137996
0.00013824
0.00013824
0.00013824
0.00013824
0.00013824
0.00013824
0.00013824
0.00013824
0.00013824
0.00013824
0.00013824
0.00013824
0.00013824
0.00013824
0.00013824
0.00013824
0.00013824
0.00013824
0.00013824
0.00013824
0.00013824
0.00013824
0.00013824
0.00013824
0.00013824
0.00013824
0.00013824
0.00013824
0.00013824
0.00013824
0.00013824
0.00013824
0.00013824
0.00013824
0.00013824
0.000136694
8.06997e-05
6.74887e-05
6.3761e-05
6.24556e-05
6.18077e-05
6.1511e-05
6.1412e-05
6.14723e-05
6.17015e-05
6.21595e-05
6.30493e-05
6.47593e-05
7.05158e-05
0.000112501
0.00013824
0.00013824
0.00013824
0.00013824
0.00013824
0.00013824
0.00013824
0.00013824
0.00013824
0.00013824
0.00013824
0.00013824
0.00013824
0.00013824
0.00013824
0.00013824
0.00013824
0.00013824
0.00013824
0.00013824
0.00013824
0.00013824
0.00013824
0.00013824
0.00013824
0.00013824
0.00013824
0.00013824
0.00013824
0.00013824
0.00013824
0.00013824
0.00013824
0.00013824
0.00013824
0.00013824
0.00013824
0.00013824
0.00013824
0.00013824
0.00013824
0.00013824
0.00013824
0.00013824
0.00013824
0.00013824
0.00013824
0.00013824
0.00013824
0.00013824
0.00013824
0.00013824
0.00013824
0.00013824
0.00013824
0.00013824
0.00013824
0.00013824
0.00013824
0.00013824
0.00013824
0.000138006
0.000119479
9.39116e-05
8.42857e-05
9.1656e-05
0.000112619
0.000134983
0.00013824
0.00013824
0.00013824
0.00013824
0.00013824
0.00013824
0.00013824
0.00013824
0.00013824
0.00013824
0.00013824
0.00013824
0.00013824
0.00013824
0.00013824
0.00013824
0.00013824
0.00013824
0.00013824
0.00013824
0.00013824
0.00013824
0.00013824
0.00013824
0.00013824
0.00013824
0.00013824
0.00013824
0.00013824
0.00013824
0.00013824
0.00013824
0.00013824
0.00013824
0.00013824
0.00013824
0.00013824
0.00013824
0.000137987
9.84803e-05
6.95912e-05
6.50787e-05
6.32515e-05
6.25913e-05
6.23233e-05
6.2373e-05
6.27653e-05
6.36316e-05
6.60623e-05
7.13885e-05
0.000119398
0.00013824
0.00013824
0.00013824
0.00013824
0.00013824
0.00013824
0.00013824
0.00013824
0.00013824
0.00013824
0.00013824
0.00013824
0.00013824
0.00013824
0.00013824
0.00013824
0.00013824
0.00013824
0.00013824
0.00013824
0.00013824
0.00013824
0.00013824
0.00013824
0.00013824
0.00013824
0.00013824
0.00013824
0.00013824
0.00013824
0.00013824
0.00013824
0.00013824
0.00013824
0.00013824
0.00013824
0.00013824
0.00013824
0.00013824
0.00013824
0.00013824
0.00013824
0.00013824
0.00013824
0.00013824
0.00013824
0.00013824
0.00013824
0.00013824
0.00013824
0.00013824
0.00013824
0.00013824
0.00013824
0.00013824
0.00013824
0.00013824
0.00013824
0.00013824
0.00013824
0.00013824
0.00013824
0.00013824
0.00013824
0.000138222
0.000138106
0.000138212
0.00013824
0.00013824
0.00013824
0.00013824
0.00013824
0.00013824
0.00013824
0.00013824
0.00013824
0.00013824
0.00013824
0.00013824
0.00013824
0.00013824
0.00013824
0.00013824
0.00013824
0.00013824
0.00013824
0.00013824
0.00013824
0.00013824
0.00013824
0.00013824
0.00013824
0.00013824
0.00013824
0.00013824
0.00013824
0.00013824
0.00013824
0.00013824
0.00013824
0.00013824
0.00013824
0.00013824
0.00013824
0.00013824
0.00013824
0.00013824
0.00013824
0.000138235
0.000124167
7.95403e-05
6.88477e-05
6.66992e-05
6.55299e-05
6.55378e-05
6.68449e-05
6.94416e-05
8.59851e-05
0.000132036
0.00013824
0.00013824
0.00013824
0.00013824
0.00013824
0.00013824
0.00013824
0.00013824
0.00013824
0.00013824
0.00013824
0.00013824
0.00013824
0.00013824
0.00013824
0.00013824
0.00013824
0.00013824
0.00013824
0.00013824
0.00013824
0.00013824
0.00013824
0.00013824
0.00013824
0.00013824
0.00013824
0.00013824
0.00013824
0.00013824
0.00013824
0.00013824
0.00013824
0.00013824
0.00013824
0.00013824
0.00013824
0.00013824
0.00013824
0.00013824
0.00013824
0.00013824
0.00013824
0.00013824
0.00013824
0.00013824
0.00013824
0.00013824
0.00013824
0.00013824
0.00013824
0.00013824
0.00013824
0.00013824
0.00013824
0.00013824
0.00013824
0.00013824
0.00013824
0.00013824
0.00013824
0.00013824
0.00013824
0.00013824
0.00013824
0.00013824
0.00013824
0.00013824
0.00013824
0.00013824
0.00013824
0.00013824
0.00013824
0.00013824
0.00013824
0.00013824
0.00013824
0.00013824
0.00013824
0.00013824
0.00013824
0.00013824
0.00013824
0.00013824
0.00013824
0.00013824
0.00013824
0.00013824
0.00013824
0.00013824
0.00013824
0.00013824
0.00013824
0.00013824
0.00013824
0.00013824
0.00013824
0.00013824
0.00013824
0.00013824
0.00013824
0.00013824
0.00013824
0.00013824
0.00013824
0.00013824
0.00013824
0.00013824
0.00013824
0.00013824
0.00013824
0.000137964
0.000121925
9.81486e-05
8.40225e-05
8.3459e-05
9.78313e-05
0.000123607
0.000138167
0.00013824
0.00013824
0.00013824
0.00013824
0.00013824
0.00013824
0.00013824
0.00013824
0.00013824
0.00013824
0.00013824
0.00013824
0.00013824
0.00013824
0.00013824
0.00013824
0.00013824
0.00013824
0.00013824
0.00013824
0.00013824
0.00013824
0.00013824
0.00013824
0.00013824
0.00013824
0.00013824
0.00013824
0.00013824
0.00013824
0.00013824
0.00013824
0.00013824
0.00013824
0.00013824
0.00013824
0.00013824
0.00013824
0.00013824
0.00013824
0.00013824
0.00013824
0.00013824
0.00013824
0.00013824
0.00013824
0.00013824
0.00013824
0.00013824
0.00013824
0.00013824
0.00013824
0.00013824
0.00013824
0.00013824
0.00013824
0.00013824
0.00013824
0.00013824
0.00013824
0.00013824
0.00013824
0.00013824
0.00013824
0.00013824
0.00013824
0.00013824
0.00013824
0.00013824
0.00013824
0.00013824
0.00013824
0.00013824
0.00013824
0.00013824
0.00013824
0.00013824
0.00013824
0.00013824
0.00013824
0.00013824
0.00013824
0.00013824
0.00013824
0.00013824
0.00013824
0.00013824
0.00013824
0.00013824
0.00013824
0.00013824
0.00013824
0.00013824
0.00013824
0.00013824
0.00013824
0.00013824
0.00013824
0.00013824
0.00013824
0.00013824
0.00013824
0.00013824
0.00013824
0.00013824
0.00013824
0.00013824
0.00013824
0.00013824
0.00013824
0.00013824
0.00013824
0.00013824
0.00013824
0.000138234
0.000138118
0.000138099
0.000138233
0.00013824
0.00013824
0.00013824
0.00013824
0.00013824
0.00013824
0.00013824
0.00013824
0.00013824
0.00013824
0.00013824
0.00013824
0.00013824
0.00013824
0.00013824
0.00013824
0.00013824
0.00013824
0.00013824
0.00013824
0.00013824
0.00013824
0.00013824
0.00013824
0.00013824
0.00013824
0.00013824
0.00013824
0.00013824
0.00013824
0.00013824
0.00013824
0.00013824
0.00013824
0.00013824
0.00013824
0.00013824
0.00013824
0.00013824
0.00013824
0.00013824
0.00013824
0.00013824
0.00013824
0.00013824
0.00013824
0.00013824
0.00013824
0.00013824
0.00013824
0.00013824
0.00013824
0.00013824
0.00013824
0.00013824
0.00013824
0.00013824
0.00013824
0.00013824
0.00013824
0.00013824
0.00013824
0.00013824
0.00013824
0.00013824
0.00013824
0.00013824
0.00013824
0.00013824
0.00013824
0.00013824
0.00013824
0.00013824
0.00013824
0.00013824
0.00013824
0.00013824
0.00013824
0.00013824
0.00013824
0.00013824
0.00013824
0.00013824
0.00013824
0.00013824
0.00013824
0.00013824
0.00013824
0.00013824
0.00013824
0.00013824
0.00013824
0.00013824
0.00013824
0.00013824
0.00013824
0.00013824
0.00013824
0.00013824
0.00013824
0.00013824
0.00013824
0.00013824
0.00013824
0.00013824
0.00013824
0.00013824
0.00013824
0.00013824
0.00013824
0.00013824
0.00013824
0.00013824
0.00013824
0.00013824
0.00013824
0.00013824
0.00013824
0.00013824
0.00013824
0.00013824
0.00013824
0.00013824
0.00013824
0.00013824
0.00013824
0.00013824
0.00013824
0.00013824
0.00013824
0.00013824
0.00013824
0.00013824
0.00013824
0.00013824
0.00013824
0.00013824
0.00013824
0.00013824
0.00013824
0.00013824
0.00013824
0.00013824
0.00013824
0.00013824
0.00013824
0.00013824
0.00013824
0.00013824
0.00013824
0.00013824
0.00013824
0.00013824
0.00013824
0.00013824
0.00013824
0.00013824
0.00013824
0.00013824
0.00013824
0.00013824
0.00013824
0.00013824
0.00013824
0.00013824
0.00013824
0.00013824
0.00013824
0.00013824
0.00013824
0.00013824
0.00013824
0.00013824
0.00013824
0.00013824
0.00013824
0.00013824
0.00013824
0.00013824
0.00013824
0.00013824
0.00013824
0.00013824
0.00013824
0.00013824
0.00013824
0.00013824
0.00013824
0.00013824
0.00013824
0.00013824
0.00013824
0.00013824
0.00013824
0.00013824
0.00013824
0.00013824
0.00013824
0.00013824
0.00013824
0.00013824
0.00013824
0.00013824
0.00013824
0.00013824
0.00013824
0.00013824
0.00013824
0.00013824
0.00013824
0.00013824
0.00013824
0.00013824
0.00013824
0.00013824
0.00013824
0.00013824
0.00013824
0.00013824
0.00013824
0.00013824
0.00013824
0.00013824
0.00013824
0.00013824
0.00013824
0.00013824
0.00013824
0.00013824
0.00013824
0.00013824
0.00013824
0.00013824
0.00013824
0.00013824
0.00013824
0.00013824
0.00013824
0.00013824
0.00013824
0.00013824
0.00013824
0.00013824
0.00013824
0.00013824
0.00013824
0.00013824
0.00013824
0.00013824
0.00013824
0.00013824
0.00013824
0.00013824
0.00013824
0.00013824
0.00013824
0.00013824
0.00013824
0.00013824
0.00013824
0.00013824
0.00013824
0.00013824
0.00013824
0.00013824
0.00013824
0.00013824
0.00013824
0.00013824
0.00013824
0.00013824
0.00013824
0.00013824
0.00013824
0.00013824
0.00013824
0.00013824
0.00013824
0.00013824
0.00013824
0.00013824
0.00013824
0.00013824
0.00013824
0.00013824
0.00013824
0.00013824
0.00013824
0.00013824
0.00013824
0.00013824
0.00013824
0.00013824
0.00013824
0.00013824
0.00013824
0.00013824
0.00013824
0.00013824
0.00013824
0.00013824
0.00013824
0.00013824
0.00013824
0.00013824
0.00013824
0.00013824
0.00013824
0.00013824
0.00013824
0.00013824
0.00013824
0.00013824
0.00013824
0.00013824
0.00013824
0.00013824
0.00013824
0.00013824
0.00013824
0.00013824
0.00013824
0.00013824
0.00013824
0.00013824
0.00013824
0.00013824
0.00013824
0.00013824
0.00013824
0.00013824
0.00013824
0.00013824
0.00013824
0.00013824
0.00013824
0.00013824
0.00013824
0.00013824
0.00013824
0.00013824
0.00013824
0.00013824
0.00013824
0.00013824
0.00013824
0.00013824
0.00013824
0.00013824
0.00013824
0.00013824
0.00013824
0.00013824
0.00013824
0.00013824
0.00013824
0.00013824
0.00013824
0.00013824
0.00013824
0.00013824
0.00013824
0.00013824
0.00013824
0.00013824
0.00013824
0.00013824
0.00013824
0.00013824
0.00013824
0.00013824
0.00013824
0.00013824
0.00013824
0.00013824
0.00013824
0.00013824
0.00013824
0.00013824
0.00013824
0.00013824
0.00013824
0.00013824
0.00013824
0.00013824
0.00013824
0.00013824
0.00013824
0.00013824
0.00013824
0.00013824
0.00013824
0.00013824
0.00013824
0.00013824
0.00013824
0.00013824
0.00013824
0.00013824
0.00013824
0.00013824
0.00013824
0.00013824
0.00013824
0.00013824
0.00013824
0.00013824
0.00013824
0.00013824
0.00013824
0.00013824
0.00013824
0.00013824
0.00013824
0.00013824
0.00013824
0.00013824
0.00013824
0.00013824
0.00013824
0.00013824
0.00013824
0.00013824
0.00013824
0.00013824
0.00013824
0.00013824
0.00013824
0.00013824
0.00013824
0.00013824
0.00013824
0.00013824
0.00013824
0.00013824
0.00013824