/*--------------------------------*- C++ -*----------------------------------*\
| =========                 |                                                 |
| \\      /  F ield         | OpenFOAM: The Open Source CFD Toolbox           |
|  \\    /   O peration     | Version:  2406                                  |
|   \\  /    A nd           | Website:  www.openfoam.com                      |
|    \\/     M anipulation  |                                                 |
\*---------------------------------------------------------------------------*/
FoamFile
{
    version     2.0;
    format      ascii;
    arch        "LSB;label=32;scalar=64";
    class       volScalarField;
    location    "9.75";
    object      Da;
}
// * * * * * * * * * * * * * * * * * * * * * * * * * * * * * * * * * * * * * //

dimensions      [0 2 -1 0 0 0 0];

internalField   nonuniform List<scalar> 
14400
(
5.23517e-05
5.23615e-05
5.23875e-05
5.24316e-05
5.24877e-05
5.25444e-05
5.25896e-05
5.26147e-05
5.26172e-05
5.26017e-05
5.25792e-05
5.2565e-05
5.25738e-05
5.26123e-05
5.26711e-05
5.27228e-05
5.27444e-05
5.27531e-05
5.2761e-05
5.27561e-05
5.2709e-05
5.25828e-05
5.23412e-05
5.19546e-05
5.14048e-05
5.06914e-05
4.98397e-05
4.89064e-05
4.79734e-05
4.712e-05
4.63958e-05
4.58174e-05
4.53826e-05
4.50861e-05
4.49326e-05
4.49541e-05
4.52572e-05
4.62461e-05
5.02144e-05
7.70996e-05
7.8e-05
7.8e-05
7.8e-05
7.8e-05
7.8e-05
7.8e-05
7.8e-05
7.8e-05
7.8e-05
7.8e-05
7.8e-05
7.8e-05
7.8e-05
7.8e-05
7.8e-05
7.8e-05
7.8e-05
7.8e-05
7.57472e-05
4.9283e-05
4.62241e-05
4.54606e-05
4.52787e-05
4.53758e-05
4.56768e-05
4.6172e-05
4.68777e-05
4.78145e-05
4.89754e-05
5.02922e-05
5.16358e-05
5.28697e-05
5.3903e-05
5.46944e-05
5.52316e-05
5.5517e-05
5.55605e-05
5.5378e-05
5.49914e-05
5.44334e-05
5.37531e-05
5.30222e-05
5.23389e-05
5.18344e-05
5.17154e-05
5.25178e-05
5.70268e-05
7.74257e-05
6.03298e-05
5.21216e-05
5.04534e-05
4.99965e-05
4.99581e-05
5.01264e-05
5.04078e-05
5.07452e-05
5.10976e-05
5.14349e-05
5.17358e-05
5.19862e-05
5.2177e-05
5.23016e-05
5.23543e-05
5.23298e-05
5.22249e-05
5.20394e-05
5.17755e-05
5.14373e-05
5.10313e-05
5.05694e-05
5.00713e-05
4.95656e-05
4.90886e-05
4.8681e-05
4.83875e-05
4.82658e-05
4.842e-05
4.91398e-05
5.1893e-05
7.28497e-05
5.1867e-05
5.18459e-05
5.18279e-05
5.18292e-05
5.18505e-05
5.18826e-05
5.19139e-05
5.19357e-05
5.19453e-05
5.19474e-05
5.19537e-05
5.19805e-05
5.20441e-05
5.21501e-05
5.22776e-05
5.23663e-05
5.23542e-05
5.23054e-05
5.22629e-05
5.22222e-05
5.21527e-05
5.20152e-05
5.17721e-05
5.1394e-05
5.08647e-05
5.01869e-05
4.93889e-05
4.85268e-05
4.76741e-05
4.68973e-05
4.62371e-05
4.57082e-05
4.53109e-05
4.50443e-05
4.49184e-05
4.49746e-05
4.53528e-05
4.66832e-05
5.37189e-05
7.78784e-05
7.8e-05
7.8e-05
7.8e-05
7.8e-05
7.8e-05
7.8e-05
7.8e-05
7.8e-05
7.8e-05
7.8e-05
7.8e-05
7.8e-05
7.8e-05
7.8e-05
7.8e-05
7.8e-05
7.8e-05
7.8e-05
7.74748e-05
5.11893e-05
4.65602e-05
4.55435e-05
4.52895e-05
4.53477e-05
4.56144e-05
4.60691e-05
4.6722e-05
4.75897e-05
4.86693e-05
4.99065e-05
5.1189e-05
5.23872e-05
5.34039e-05
5.41884e-05
5.47228e-05
5.50065e-05
5.50485e-05
5.48647e-05
5.44788e-05
5.39267e-05
5.32617e-05
5.25595e-05
5.19206e-05
5.14787e-05
5.1459e-05
5.25621e-05
5.93541e-05
7.78711e-05
6.49265e-05
5.23599e-05
5.02979e-05
4.97269e-05
4.96106e-05
4.97106e-05
4.99296e-05
5.0212e-05
5.05194e-05
5.08242e-05
5.11061e-05
5.13506e-05
5.15458e-05
5.16804e-05
5.17428e-05
5.1722e-05
5.16131e-05
5.14192e-05
5.11493e-05
5.08135e-05
5.04231e-05
4.99921e-05
4.95402e-05
4.90933e-05
4.86831e-05
4.83454e-05
4.81228e-05
4.80769e-05
4.83327e-05
4.92608e-05
5.26726e-05
7.61072e-05
5.10506e-05
5.0956e-05
5.08423e-05
5.07568e-05
5.07101e-05
5.06947e-05
5.06986e-05
5.07128e-05
5.07346e-05
5.07687e-05
5.08277e-05
5.0931e-05
5.11004e-05
5.13479e-05
5.16395e-05
5.18314e-05
5.17086e-05
5.1512e-05
5.13537e-05
5.12344e-05
5.11165e-05
5.09554e-05
5.07115e-05
5.03561e-05
4.98759e-05
4.92774e-05
4.859e-05
4.7863e-05
4.71531e-05
4.65079e-05
4.5957e-05
4.5514e-05
4.51836e-05
4.49721e-05
4.48986e-05
4.50207e-05
4.55347e-05
4.75024e-05
6.25724e-05
7.79984e-05
7.8e-05
7.8e-05
7.8e-05
7.8e-05
7.8e-05
7.8e-05
7.8e-05
7.8e-05
7.8e-05
7.8e-05
7.8e-05
7.8e-05
7.8e-05
7.8e-05
7.8e-05
7.8e-05
7.8e-05
7.8e-05
7.79875e-05
5.86643e-05
4.73539e-05
4.57084e-05
4.53138e-05
4.52993e-05
4.55023e-05
4.58836e-05
4.64416e-05
4.71858e-05
4.81157e-05
4.91968e-05
5.03467e-05
5.14543e-05
5.242e-05
5.31794e-05
5.37019e-05
5.39798e-05
5.40196e-05
5.3838e-05
5.34625e-05
5.29355e-05
5.23176e-05
5.16897e-05
5.1153e-05
5.08402e-05
5.10016e-05
5.26354e-05
6.44845e-05
7.79933e-05
7.21661e-05
5.28215e-05
5.01012e-05
4.92965e-05
4.90301e-05
4.90065e-05
4.91153e-05
4.92996e-05
4.9524e-05
4.97647e-05
5.00046e-05
5.02298e-05
5.04262e-05
5.05757e-05
5.06555e-05
5.06432e-05
5.05298e-05
5.03261e-05
5.00537e-05
4.97337e-05
4.9383e-05
4.90169e-05
4.86524e-05
4.83096e-05
4.80125e-05
4.77907e-05
4.76858e-05
4.77713e-05
4.82304e-05
4.98158e-05
5.84678e-05
7.79437e-05
5.0194e-05
4.99581e-05
4.96943e-05
4.94904e-05
4.93575e-05
4.9283e-05
4.92524e-05
4.92556e-05
4.92898e-05
4.93599e-05
4.94796e-05
4.96734e-05
4.99782e-05
5.04383e-05
5.10533e-05
5.15458e-05
5.10705e-05
5.05696e-05
5.02198e-05
4.99829e-05
4.97958e-05
4.96034e-05
4.93633e-05
4.9048e-05
4.86463e-05
4.8165e-05
4.76279e-05
4.707e-05
4.65288e-05
4.60357e-05
4.56124e-05
4.52727e-05
4.50271e-05
4.48902e-05
4.48941e-05
4.51242e-05
4.58672e-05
4.86545e-05
7.32309e-05
7.8e-05
7.8e-05
7.8e-05
7.8e-05
7.8e-05
7.8e-05
7.8e-05
7.8e-05
7.8e-05
7.8e-05
7.8e-05
7.8e-05
7.8e-05
7.8e-05
7.8e-05
7.8e-05
7.8e-05
7.8e-05
7.8e-05
7.8e-05
6.95995e-05
4.83735e-05
4.59624e-05
4.53695e-05
4.5249e-05
4.53638e-05
4.5649e-05
4.60877e-05
4.66785e-05
4.74185e-05
4.82873e-05
4.92336e-05
5.01767e-05
5.10289e-05
5.17194e-05
5.22048e-05
5.24667e-05
5.25065e-05
5.23416e-05
5.2005e-05
5.15464e-05
5.1032e-05
5.05427e-05
5.01746e-05
5.00606e-05
5.04868e-05
5.27637e-05
7.11777e-05
7.8e-05
7.76735e-05
5.5753e-05
5.02322e-05
4.8888e-05
4.83912e-05
4.82108e-05
4.81904e-05
4.82621e-05
4.83897e-05
4.85521e-05
4.87356e-05
4.8929e-05
4.91185e-05
4.92816e-05
4.93837e-05
4.93851e-05
4.92698e-05
4.906e-05
4.87948e-05
4.85061e-05
4.82136e-05
4.7931e-05
4.76703e-05
4.7445e-05
4.72728e-05
4.71799e-05
4.7211e-05
4.74603e-05
4.81971e-05
5.07465e-05
6.98745e-05
7.79999e-05
4.97353e-05
4.9183e-05
4.86905e-05
4.83458e-05
4.81234e-05
4.79914e-05
4.79273e-05
4.79183e-05
4.79605e-05
4.80598e-05
4.82327e-05
4.85121e-05
4.89627e-05
4.97178e-05
5.10495e-05
5.31848e-05
5.08693e-05
4.97343e-05
4.91106e-05
4.87338e-05
4.84713e-05
4.82471e-05
4.8015e-05
4.77478e-05
4.74343e-05
4.7077e-05
4.66896e-05
4.62927e-05
4.59086e-05
4.5558e-05
4.5258e-05
4.50236e-05
4.48709e-05
4.48251e-05
4.49403e-05
4.53734e-05
4.6876e-05
5.66112e-05
7.79767e-05
7.8e-05
7.8e-05
7.8e-05
7.8e-05
7.8e-05
7.8e-05
7.8e-05
7.8e-05
7.8e-05
7.8e-05
7.8e-05
7.8e-05
7.8e-05
7.8e-05
7.8e-05
7.8e-05
7.8e-05
7.8e-05
7.8e-05
7.8e-05
7.75721e-05
5.13331e-05
4.65565e-05
4.55197e-05
4.52286e-05
4.52283e-05
4.5403e-05
4.57143e-05
4.61473e-05
4.66928e-05
4.73347e-05
4.80417e-05
4.87631e-05
4.94355e-05
4.99977e-05
5.04044e-05
5.06312e-05
5.06753e-05
5.05534e-05
5.03004e-05
4.99663e-05
4.96137e-05
4.93154e-05
4.91635e-05
4.93131e-05
5.01925e-05
5.39458e-05
7.69828e-05
7.8e-05
7.79999e-05
6.96983e-05
5.12853e-05
4.86959e-05
4.78581e-05
4.75009e-05
4.73547e-05
4.73244e-05
4.73666e-05
4.74599e-05
4.7593e-05
4.77573e-05
4.79413e-05
4.81229e-05
4.82565e-05
4.82774e-05
4.81556e-05
4.79336e-05
4.76725e-05
4.74132e-05
4.71746e-05
4.69668e-05
4.67971e-05
4.66747e-05
4.6615e-05
4.66458e-05
4.68244e-05
4.72938e-05
4.85714e-05
5.40408e-05
7.76701e-05
7.8e-05
5.10284e-05
4.9033e-05
4.80631e-05
4.75162e-05
4.71901e-05
4.69995e-05
4.69035e-05
4.68819e-05
4.69288e-05
4.70517e-05
4.72733e-05
4.76428e-05
4.82792e-05
4.95523e-05
5.34088e-05
7.2121e-05
5.22034e-05
4.92811e-05
4.82307e-05
4.76926e-05
4.73541e-05
4.70999e-05
4.68747e-05
4.66494e-05
4.641e-05
4.61539e-05
4.58861e-05
4.56168e-05
4.5359e-05
4.51268e-05
4.49348e-05
4.47995e-05
4.47439e-05
4.48082e-05
4.50847e-05
4.58653e-05
4.87416e-05
7.38358e-05
7.8e-05
7.8e-05
7.8e-05
7.8e-05
7.8e-05
7.8e-05
7.8e-05
7.8e-05
7.8e-05
7.8e-05
7.8e-05
7.8e-05
7.8e-05
7.8e-05
7.8e-05
7.8e-05
7.8e-05
7.8e-05
7.8e-05
7.8e-05
7.8e-05
7.79999e-05
6.84214e-05
4.81784e-05
4.58706e-05
4.52791e-05
4.51274e-05
4.51805e-05
4.5366e-05
4.56537e-05
4.6026e-05
4.64662e-05
4.69517e-05
4.74507e-05
4.79234e-05
4.83281e-05
4.86303e-05
4.88093e-05
4.88619e-05
4.88022e-05
4.86594e-05
4.84751e-05
4.83012e-05
4.82021e-05
4.82757e-05
4.8744e-05
5.06011e-05
6.37426e-05
7.79959e-05
7.8e-05
7.8e-05
7.78612e-05
5.60127e-05
4.90854e-05
4.75801e-05
4.69949e-05
4.67201e-05
4.65999e-05
4.65733e-05
4.66155e-05
4.67155e-05
4.6867e-05
4.70627e-05
4.72862e-05
4.74814e-05
4.75369e-05
4.73834e-05
4.71174e-05
4.68349e-05
4.65838e-05
4.63776e-05
4.62214e-05
4.61191e-05
4.60785e-05
4.61168e-05
4.62717e-05
4.6634e-05
4.7482e-05
5.02411e-05
7.15124e-05
7.8e-05
7.8e-05
6.84951e-05
5.07649e-05
4.80447e-05
4.70836e-05
4.6597e-05
4.63296e-05
4.61965e-05
4.61612e-05
4.6213e-05
4.63626e-05
4.66464e-05
4.71502e-05
4.81383e-05
5.09431e-05
7.06658e-05
7.79855e-05
6.06214e-05
4.9617e-05
4.76884e-05
4.69381e-05
4.65149e-05
4.62276e-05
4.60028e-05
4.58053e-05
4.56173e-05
4.54318e-05
4.52484e-05
4.50714e-05
4.49085e-05
4.477e-05
4.46696e-05
4.46272e-05
4.46764e-05
4.48879e-05
4.54684e-05
4.74626e-05
6.28283e-05
7.7999e-05
7.8e-05
7.8e-05
7.8e-05
7.8e-05
7.8e-05
7.8e-05
7.8e-05
7.8e-05
7.8e-05
7.8e-05
7.8e-05
7.8e-05
7.8e-05
7.8e-05
7.8e-05
7.8e-05
7.8e-05
7.8e-05
7.8e-05
7.8e-05
7.8e-05
7.8e-05
7.78729e-05
5.32989e-05
4.6699e-05
4.54715e-05
4.51001e-05
4.50133e-05
4.5075e-05
4.52338e-05
4.54628e-05
4.57426e-05
4.60541e-05
4.63755e-05
4.66824e-05
4.69499e-05
4.71573e-05
4.72921e-05
4.73531e-05
4.73509e-05
4.73075e-05
4.72548e-05
4.72362e-05
4.73152e-05
4.76104e-05
4.8445e-05
5.13422e-05
7.41698e-05
7.8e-05
7.8e-05
7.8e-05
7.8e-05
7.47615e-05
5.09644e-05
4.77882e-05
4.67927e-05
4.6341e-05
4.61235e-05
4.60339e-05
4.6038e-05
4.61236e-05
4.62868e-05
4.65282e-05
4.68551e-05
4.72101e-05
4.73681e-05
4.70838e-05
4.66828e-05
4.63191e-05
4.60386e-05
4.58358e-05
4.57073e-05
4.56526e-05
4.56808e-05
4.58177e-05
4.61276e-05
4.68052e-05
4.87828e-05
6.10248e-05
7.79936e-05
7.8e-05
7.8e-05
7.79982e-05
6.39213e-05
4.95137e-05
4.71933e-05
4.63656e-05
4.59657e-05
4.57781e-05
4.57246e-05
4.57854e-05
4.59774e-05
4.63705e-05
4.71521e-05
4.92185e-05
6.09447e-05
7.79911e-05
7.8e-05
7.41052e-05
5.06632e-05
4.75437e-05
4.64839e-05
4.59447e-05
4.56112e-05
4.53758e-05
4.51909e-05
4.50339e-05
4.4894e-05
4.47677e-05
4.46561e-05
4.45644e-05
4.45016e-05
4.44825e-05
4.45333e-05
4.47075e-05
4.51407e-05
4.63733e-05
5.24945e-05
7.78408e-05
7.8e-05
7.8e-05
7.8e-05
7.8e-05
7.8e-05
7.8e-05
7.8e-05
7.8e-05
7.8e-05
7.8e-05
7.8e-05
7.8e-05
7.8e-05
7.8e-05
7.8e-05
7.8e-05
7.8e-05
7.8e-05
7.8e-05
7.8e-05
7.8e-05
7.8e-05
7.8e-05
7.8e-05
7.37719e-05
4.88075e-05
4.59776e-05
4.52122e-05
4.49366e-05
4.4865e-05
4.49055e-05
4.50165e-05
4.51734e-05
4.53578e-05
4.55532e-05
4.57434e-05
4.5914e-05
4.60535e-05
4.6156e-05
4.62225e-05
4.62619e-05
4.62915e-05
4.63388e-05
4.6446e-05
4.6689e-05
4.7255e-05
4.8976e-05
5.96092e-05
7.79827e-05
7.8e-05
7.8e-05
7.8e-05
7.8e-05
7.79999e-05
6.90161e-05
4.98487e-05
4.71526e-05
4.62959e-05
4.59262e-05
4.57546e-05
4.57237e-05
4.58155e-05
4.60316e-05
4.63888e-05
4.70088e-05
4.79913e-05
4.88578e-05
4.76658e-05
4.67779e-05
4.61678e-05
4.57871e-05
4.55466e-05
4.5422e-05
4.54033e-05
4.55041e-05
4.57757e-05
4.63572e-05
4.78062e-05
5.41903e-05
7.78429e-05
7.8e-05
7.8e-05
7.8e-05
7.8e-05
7.798e-05
5.87575e-05
4.86409e-05
4.66605e-05
4.59459e-05
4.56571e-05
4.55734e-05
4.56534e-05
4.59296e-05
4.65804e-05
4.81805e-05
5.48676e-05
7.78632e-05
7.8e-05
7.8e-05
7.7996e-05
6.17711e-05
4.84633e-05
4.63903e-05
4.56295e-05
4.52186e-05
4.49552e-05
4.47678e-05
4.46255e-05
4.45135e-05
4.4426e-05
4.43627e-05
4.43286e-05
4.43337e-05
4.43971e-05
4.45593e-05
4.49218e-05
4.58056e-05
4.89974e-05
7.60495e-05
7.8e-05
7.8e-05
7.8e-05
7.8e-05
7.8e-05
7.8e-05
7.8e-05
7.8e-05
7.8e-05
7.8e-05
7.8e-05
7.8e-05
7.8e-05
7.8e-05
7.8e-05
7.8e-05
7.8e-05
7.8e-05
7.8e-05
7.8e-05
7.8e-05
7.8e-05
7.8e-05
7.8e-05
7.8e-05
7.79996e-05
6.48112e-05
4.78111e-05
4.56412e-05
4.50062e-05
4.47603e-05
4.46793e-05
4.46867e-05
4.47466e-05
4.48379e-05
4.49457e-05
4.50578e-05
4.5165e-05
4.52607e-05
4.53428e-05
4.54139e-05
4.54826e-05
4.55654e-05
4.56905e-05
4.59087e-05
4.63278e-05
4.7258e-05
5.02683e-05
7.41733e-05
7.8e-05
7.8e-05
7.8e-05
7.8e-05
7.8e-05
7.8e-05
7.79996e-05
6.60473e-05
4.93991e-05
4.68646e-05
4.61409e-05
4.57947e-05
4.57138e-05
4.58481e-05
4.62318e-05
4.69105e-05
4.88702e-05
5.42173e-05
6.49924e-05
5.19108e-05
4.83118e-05
4.66115e-05
4.59263e-05
4.55558e-05
4.54028e-05
4.54178e-05
4.56305e-05
4.61962e-05
4.76194e-05
5.24939e-05
7.75403e-05
7.8e-05
7.8e-05
7.8e-05
7.8e-05
7.8e-05
7.8e-05
7.79637e-05
5.83198e-05
4.85699e-05
4.65292e-05
4.59876e-05
4.58291e-05
4.59636e-05
4.64604e-05
4.81699e-05
5.43423e-05
7.77434e-05
7.8e-05
7.8e-05
7.8e-05
7.8e-05
7.71795e-05
5.09364e-05
4.67823e-05
4.55954e-05
4.50412e-05
4.47202e-05
4.45113e-05
4.4369e-05
4.42722e-05
4.42124e-05
4.41891e-05
4.42094e-05
4.42895e-05
4.44599e-05
4.48013e-05
4.56039e-05
4.84051e-05
7.28147e-05
7.8e-05
7.8e-05
7.8e-05
7.8e-05
7.8e-05
7.8e-05
7.8e-05
7.8e-05
7.8e-05
7.8e-05
7.8e-05
7.8e-05
7.8e-05
7.8e-05
7.8e-05
7.8e-05
7.8e-05
7.8e-05
7.8e-05
7.8e-05
7.8e-05
7.8e-05
7.8e-05
7.8e-05
7.8e-05
7.8e-05
7.8e-05
7.79765e-05
5.6414e-05
4.69294e-05
4.5334e-05
4.48007e-05
4.45708e-05
4.44738e-05
4.44487e-05
4.44665e-05
4.45102e-05
4.45684e-05
4.46337e-05
4.47019e-05
4.47726e-05
4.48498e-05
4.49432e-05
4.50713e-05
4.52691e-05
4.5611e-05
4.63048e-05
4.83503e-05
6.24583e-05
7.79976e-05
7.8e-05
7.8e-05
7.8e-05
7.8e-05
7.8e-05
7.8e-05
7.8e-05
7.79996e-05
6.87232e-05
4.97285e-05
4.75452e-05
4.64366e-05
4.62315e-05
4.65242e-05
4.7763e-05
4.98149e-05
6.64733e-05
7.78443e-05
7.79992e-05
7.74621e-05
6.15784e-05
4.91365e-05
4.70135e-05
4.6102e-05
4.58427e-05
4.59085e-05
4.63964e-05
4.82612e-05
5.55519e-05
7.76347e-05
7.8e-05
7.8e-05
7.8e-05
7.8e-05
7.8e-05
7.8e-05
7.8e-05
7.8e-05
7.79813e-05
6.45455e-05
4.93324e-05
4.77633e-05
4.71867e-05
4.76351e-05
4.90767e-05
6.06686e-05
7.78661e-05
7.8e-05
7.8e-05
7.8e-05
7.8e-05
7.8e-05
7.8e-05
7.32015e-05
4.90582e-05
4.60787e-05
4.51394e-05
4.46884e-05
4.44243e-05
4.42638e-05
4.41713e-05
4.41334e-05
4.41501e-05
4.4237e-05
4.44305e-05
4.47988e-05
4.55693e-05
4.82744e-05
7.11132e-05
7.8e-05
7.8e-05
7.8e-05
7.8e-05
7.8e-05
7.8e-05
7.8e-05
7.8e-05
7.8e-05
7.8e-05
7.8e-05
7.8e-05
7.8e-05
7.8e-05
7.8e-05
7.8e-05
7.8e-05
7.8e-05
7.8e-05
7.8e-05
7.8e-05
7.8e-05
7.8e-05
7.8e-05
7.8e-05
7.8e-05
7.8e-05
7.8e-05
7.8e-05
7.77125e-05
5.14442e-05
4.62773e-05
4.50873e-05
4.46203e-05
4.43915e-05
4.42761e-05
4.42261e-05
4.42166e-05
4.42339e-05
4.42698e-05
4.43204e-05
4.43865e-05
4.44736e-05
4.45941e-05
4.47723e-05
4.50592e-05
4.55779e-05
4.67586e-05
5.12782e-05
7.74396e-05
7.8e-05
7.8e-05
7.8e-05
7.8e-05
7.8e-05
7.8e-05
7.8e-05
7.8e-05
7.8e-05
7.8e-05
7.48721e-05
5.80197e-05
4.93217e-05
4.86704e-05
4.96444e-05
6.02346e-05
7.53664e-05
7.79998e-05
7.8e-05
7.8e-05
7.8e-05
7.79968e-05
7.23185e-05
5.37183e-05
4.86184e-05
4.79252e-05
4.8173e-05
4.97914e-05
6.62464e-05
7.79454e-05
7.8e-05
7.8e-05
7.8e-05
7.8e-05
7.8e-05
7.8e-05
7.8e-05
7.8e-05
7.8e-05
7.8e-05
7.79994e-05
7.42324e-05
6.18221e-05
5.51762e-05
6.00959e-05
7.24645e-05
7.79952e-05
7.8e-05
7.8e-05
7.8e-05
7.8e-05
7.8e-05
7.8e-05
7.8e-05
7.8e-05
6.91655e-05
4.84941e-05
4.57897e-05
4.49726e-05
4.4564e-05
4.4351e-05
4.42486e-05
4.42328e-05
4.43038e-05
4.45028e-05
4.49639e-05
4.59654e-05
4.86184e-05
7.25699e-05
7.8e-05
7.8e-05
7.8e-05
7.8e-05
7.8e-05
7.8e-05
7.8e-05
7.8e-05
7.8e-05
7.8e-05
7.8e-05
7.8e-05
7.8e-05
7.8e-05
7.8e-05
7.8e-05
7.8e-05
7.8e-05
7.8e-05
7.8e-05
7.8e-05
7.8e-05
7.8e-05
7.8e-05
7.8e-05
7.8e-05
7.8e-05
7.8e-05
7.8e-05
7.8e-05
7.8e-05
7.70242e-05
4.97586e-05
4.59965e-05
4.4954e-05
4.44909e-05
4.42467e-05
4.41167e-05
4.4053e-05
4.40333e-05
4.40455e-05
4.40847e-05
4.41524e-05
4.42567e-05
4.4416e-05
4.46677e-05
4.51085e-05
4.6027e-05
4.89846e-05
7.3562e-05
7.8e-05
7.8e-05
7.8e-05
7.8e-05
7.8e-05
7.8e-05
7.8e-05
7.8e-05
7.8e-05
7.8e-05
7.8e-05
7.8e-05
7.79832e-05
7.52635e-05
7.20544e-05
7.61198e-05
7.79941e-05
7.8e-05
7.8e-05
7.8e-05
7.8e-05
7.8e-05
7.8e-05
7.8e-05
7.78788e-05
7.19382e-05
6.56442e-05
6.87667e-05
7.66308e-05
7.79998e-05
7.8e-05
7.8e-05
7.8e-05
7.8e-05
7.8e-05
7.8e-05
7.8e-05
7.8e-05
7.8e-05
7.8e-05
7.8e-05
7.8e-05
7.8e-05
7.79972e-05
7.79303e-05
7.79933e-05
7.8e-05
7.8e-05
7.8e-05
7.8e-05
7.8e-05
7.8e-05
7.8e-05
7.8e-05
7.8e-05
7.8e-05
7.8e-05
6.9844e-05
4.86255e-05
4.61292e-05
4.51668e-05
4.47973e-05
4.46496e-05
4.46743e-05
4.48599e-05
4.5338e-05
4.70402e-05
5.2436e-05
7.59487e-05
7.8e-05
7.8e-05
7.8e-05
7.8e-05
7.8e-05
7.8e-05
7.8e-05
7.8e-05
7.8e-05
7.8e-05
7.8e-05
7.8e-05
7.8e-05
7.8e-05
7.8e-05
7.8e-05
7.8e-05
7.8e-05
7.8e-05
7.8e-05
7.8e-05
7.8e-05
7.8e-05
7.8e-05
7.8e-05
7.8e-05
7.8e-05
7.8e-05
7.8e-05
7.8e-05
7.8e-05
7.8e-05
7.8e-05
7.66901e-05
4.98323e-05
4.61245e-05
4.49507e-05
4.44296e-05
4.41697e-05
4.40319e-05
4.39694e-05
4.39581e-05
4.39899e-05
4.40668e-05
4.42027e-05
4.4431e-05
4.4823e-05
4.56537e-05
4.8275e-05
6.83194e-05
7.8e-05
7.8e-05
7.8e-05
7.8e-05
7.8e-05
7.8e-05
7.8e-05
7.8e-05
7.8e-05
7.8e-05
7.8e-05
7.8e-05
7.8e-05
7.8e-05
7.8e-05
7.8e-05
7.8e-05
7.8e-05
7.8e-05
7.8e-05
7.8e-05
7.8e-05
7.8e-05
7.8e-05
7.8e-05
7.8e-05
7.8e-05
7.79997e-05
7.8e-05
7.8e-05
7.8e-05
7.8e-05
7.8e-05
7.8e-05
7.8e-05
7.8e-05
7.8e-05
7.8e-05
7.8e-05
7.8e-05
7.8e-05
7.8e-05
7.8e-05
7.8e-05
7.8e-05
7.8e-05
7.8e-05
7.8e-05
7.8e-05
7.8e-05
7.8e-05
7.8e-05
7.8e-05
7.8e-05
7.8e-05
7.8e-05
7.8e-05
7.8e-05
7.8e-05
7.46319e-05
5.27821e-05
4.75851e-05
4.64901e-05
4.6068e-05
4.63099e-05
4.70359e-05
4.86285e-05
6.55201e-05
7.78842e-05
7.8e-05
7.8e-05
7.8e-05
7.8e-05
7.8e-05
7.8e-05
7.8e-05
7.8e-05
7.8e-05
7.8e-05
7.8e-05
7.8e-05
7.8e-05
7.8e-05
7.8e-05
7.8e-05
7.8e-05
7.8e-05
7.8e-05
7.8e-05
7.8e-05
7.8e-05
7.8e-05
7.8e-05
7.8e-05
7.8e-05
7.8e-05
7.8e-05
7.8e-05
7.8e-05
7.8e-05
7.8e-05
7.8e-05
7.8e-05
7.8e-05
7.72782e-05
5.24358e-05
4.67132e-05
4.50784e-05
4.45026e-05
4.42177e-05
4.40871e-05
4.40434e-05
4.40701e-05
4.41713e-05
4.43734e-05
4.47653e-05
4.55202e-05
4.80582e-05
6.65048e-05
7.79999e-05
7.8e-05
7.8e-05
7.8e-05
7.8e-05
7.8e-05
7.8e-05
7.8e-05
7.8e-05
7.8e-05
7.8e-05
7.8e-05
7.8e-05
7.8e-05
7.8e-05
7.8e-05
7.8e-05
7.8e-05
7.8e-05
7.8e-05
7.8e-05
7.8e-05
7.8e-05
7.8e-05
7.8e-05
7.8e-05
7.8e-05
7.8e-05
7.8e-05
7.8e-05
7.8e-05
7.8e-05
7.8e-05
7.8e-05
7.8e-05
7.8e-05
7.8e-05
7.8e-05
7.8e-05
7.8e-05
7.8e-05
7.8e-05
7.8e-05
7.8e-05
7.8e-05
7.8e-05
7.8e-05
7.8e-05
7.8e-05
7.8e-05
7.8e-05
7.8e-05
7.8e-05
7.8e-05
7.8e-05
7.8e-05
7.8e-05
7.8e-05
7.8e-05
7.8e-05
7.8e-05
7.78898e-05
6.96059e-05
5.82786e-05
5.4029e-05
5.72746e-05
6.65464e-05
7.64988e-05
7.79998e-05
7.8e-05
7.8e-05
7.8e-05
7.8e-05
7.8e-05
7.8e-05
7.8e-05
7.8e-05
7.8e-05
7.8e-05
7.8e-05
7.8e-05
7.8e-05
7.8e-05
7.8e-05
7.8e-05
7.8e-05
7.8e-05
7.8e-05
7.8e-05
7.8e-05
7.8e-05
7.8e-05
7.8e-05
7.8e-05
7.8e-05
7.8e-05
7.8e-05
7.8e-05
7.8e-05
7.8e-05
7.8e-05
7.8e-05
7.8e-05
7.8e-05
7.8e-05
7.8e-05
7.78803e-05
6.02563e-05
4.76448e-05
4.56507e-05
4.4853e-05
4.45625e-05
4.44439e-05
4.44659e-05
4.46395e-05
4.50214e-05
4.60862e-05
4.84391e-05
6.95444e-05
7.79999e-05
7.8e-05
7.8e-05
7.8e-05
7.8e-05
7.8e-05
7.8e-05
7.8e-05
7.8e-05
7.8e-05
7.8e-05
7.8e-05
7.8e-05
7.8e-05
7.8e-05
7.8e-05
7.8e-05
7.8e-05
7.8e-05
7.8e-05
7.8e-05
7.8e-05
7.8e-05
7.8e-05
7.8e-05
7.8e-05
7.8e-05
7.8e-05
7.8e-05
7.8e-05
7.8e-05
7.8e-05
7.8e-05
7.8e-05
7.8e-05
7.8e-05
7.8e-05
7.8e-05
7.8e-05
7.8e-05
7.8e-05
7.8e-05
7.8e-05
7.8e-05
7.8e-05
7.8e-05
7.8e-05
7.8e-05
7.8e-05
7.8e-05
7.8e-05
7.8e-05
7.8e-05
7.8e-05
7.8e-05
7.8e-05
7.8e-05
7.8e-05
7.8e-05
7.8e-05
7.8e-05
7.8e-05
7.8e-05
7.8e-05
7.79914e-05
7.7937e-05
7.7987e-05
7.79999e-05
7.8e-05
7.8e-05
7.8e-05
7.8e-05
7.8e-05
7.8e-05
7.8e-05
7.8e-05
7.8e-05
7.8e-05
7.8e-05
7.8e-05
7.8e-05
7.8e-05
7.8e-05
7.8e-05
7.8e-05
7.8e-05
7.8e-05
7.8e-05
7.8e-05
7.8e-05
7.8e-05
7.8e-05
7.8e-05
7.8e-05
7.8e-05
7.8e-05
7.8e-05
7.8e-05
7.8e-05
7.8e-05
7.8e-05
7.8e-05
7.8e-05
7.8e-05
7.8e-05
7.8e-05
7.8e-05
7.8e-05
7.79975e-05
7.16696e-05
5.19101e-05
4.73166e-05
4.63683e-05
4.58497e-05
4.58533e-05
4.64331e-05
4.758e-05
5.47484e-05
7.51868e-05
7.8e-05
7.8e-05
7.8e-05
7.8e-05
7.8e-05
7.8e-05
7.8e-05
7.8e-05
7.8e-05
7.8e-05
7.8e-05
7.8e-05
7.8e-05
7.8e-05
7.8e-05
7.8e-05
7.8e-05
7.8e-05
7.8e-05
7.8e-05
7.8e-05
7.8e-05
7.8e-05
7.8e-05
7.8e-05
7.8e-05
7.8e-05
7.8e-05
7.8e-05
7.8e-05
7.8e-05
7.8e-05
7.8e-05
7.8e-05
7.8e-05
7.8e-05
7.8e-05
7.8e-05
7.8e-05
7.8e-05
7.8e-05
7.8e-05
7.8e-05
7.8e-05
7.8e-05
7.8e-05
7.8e-05
7.8e-05
7.8e-05
7.8e-05
7.8e-05
7.8e-05
7.8e-05
7.8e-05
7.8e-05
7.8e-05
7.8e-05
7.8e-05
7.8e-05
7.8e-05
7.8e-05
7.8e-05
7.8e-05
7.8e-05
7.8e-05
7.8e-05
7.8e-05
7.8e-05
7.8e-05
7.8e-05
7.8e-05
7.8e-05
7.8e-05
7.8e-05
7.8e-05
7.8e-05
7.8e-05
7.8e-05
7.8e-05
7.8e-05
7.8e-05
7.8e-05
7.8e-05
7.8e-05
7.8e-05
7.8e-05
7.8e-05
7.8e-05
7.8e-05
7.8e-05
7.8e-05
7.8e-05
7.8e-05
7.8e-05
7.8e-05
7.8e-05
7.8e-05
7.8e-05
7.8e-05
7.8e-05
7.8e-05
7.8e-05
7.8e-05
7.8e-05
7.8e-05
7.8e-05
7.8e-05
7.8e-05
7.8e-05
7.8e-05
7.8e-05
7.78682e-05
7.06663e-05
6.0126e-05
5.38937e-05
5.36484e-05
5.99928e-05
7.14257e-05
7.79653e-05
7.8e-05
7.8e-05
7.8e-05
7.8e-05
7.8e-05
7.8e-05
7.8e-05
7.8e-05
7.8e-05
7.8e-05
7.8e-05
7.8e-05
7.8e-05
7.8e-05
7.8e-05
7.8e-05
7.8e-05
7.8e-05
7.8e-05
7.8e-05
7.8e-05
7.8e-05
7.8e-05
7.8e-05
7.8e-05
7.8e-05
7.8e-05
7.8e-05
7.8e-05
7.8e-05
7.8e-05
7.8e-05
7.8e-05
7.8e-05
7.8e-05
7.8e-05
7.8e-05
7.8e-05
7.8e-05
7.8e-05
7.8e-05
7.8e-05
7.8e-05
7.8e-05
7.8e-05
7.8e-05
7.8e-05
7.8e-05
7.8e-05
7.8e-05
7.8e-05
7.8e-05
7.8e-05
7.8e-05
7.8e-05
7.8e-05
7.8e-05
7.8e-05
7.8e-05
7.8e-05
7.8e-05
7.8e-05
7.8e-05
7.8e-05
7.8e-05
7.8e-05
7.8e-05
7.8e-05
7.8e-05
7.8e-05
7.8e-05
7.8e-05
7.8e-05
7.8e-05
7.8e-05
7.8e-05
7.8e-05
7.8e-05
7.8e-05
7.8e-05
7.8e-05
7.8e-05
7.8e-05
7.8e-05
7.8e-05
7.8e-05
7.8e-05
7.8e-05
7.8e-05
7.8e-05
7.8e-05
7.8e-05
7.8e-05
7.8e-05
7.8e-05
7.8e-05
7.8e-05
7.8e-05
7.8e-05
7.8e-05
7.8e-05
7.8e-05
7.8e-05
7.8e-05
7.8e-05
7.8e-05
7.8e-05
7.8e-05
7.8e-05
7.8e-05
7.8e-05
7.8e-05
7.8e-05
7.8e-05
7.79971e-05
7.7942e-05
7.79333e-05
7.79967e-05
7.8e-05
7.8e-05
7.8e-05
7.8e-05
7.8e-05
7.8e-05
7.8e-05
7.8e-05
7.8e-05
7.8e-05
7.8e-05
7.8e-05
7.8e-05
7.8e-05
7.8e-05
7.8e-05
7.8e-05
7.8e-05
7.8e-05
7.8e-05
7.8e-05
7.8e-05
7.8e-05
7.8e-05
7.8e-05
7.8e-05
7.8e-05
7.8e-05
7.8e-05
7.8e-05
7.8e-05
7.8e-05
7.8e-05
7.8e-05
7.8e-05
7.8e-05
7.8e-05
7.8e-05
7.8e-05
7.8e-05
7.8e-05
7.8e-05
7.8e-05
7.8e-05
7.8e-05
7.8e-05
7.8e-05
7.8e-05
7.8e-05
7.8e-05
7.8e-05
7.8e-05
7.8e-05
7.8e-05
7.8e-05
7.8e-05
7.8e-05
7.8e-05
7.8e-05
7.8e-05
7.8e-05
7.8e-05
7.8e-05
7.8e-05
7.8e-05
7.8e-05
7.8e-05
7.8e-05
7.8e-05
7.8e-05
7.8e-05
7.8e-05
7.8e-05
7.8e-05
7.8e-05
7.8e-05
7.8e-05
7.8e-05
7.8e-05
7.8e-05
7.8e-05
7.8e-05
7.8e-05
7.8e-05
7.8e-05
7.8e-05
7.8e-05
7.8e-05
7.8e-05
7.8e-05
7.8e-05
7.8e-05
7.8e-05
7.8e-05
7.8e-05
7.8e-05
7.8e-05
7.8e-05
7.8e-05
7.8e-05
7.8e-05
7.8e-05
7.8e-05
7.8e-05
7.8e-05
7.8e-05
7.8e-05
7.8e-05
7.8e-05
7.8e-05
7.8e-05
7.8e-05
7.8e-05
7.8e-05
7.8e-05
7.8e-05
7.8e-05
7.8e-05
7.8e-05
7.8e-05
7.8e-05
7.8e-05
7.8e-05
7.8e-05
7.8e-05
7.8e-05
7.8e-05
7.8e-05
7.8e-05
7.8e-05
7.8e-05
7.8e-05
7.8e-05
7.8e-05
7.8e-05
7.8e-05
7.8e-05
7.8e-05
7.8e-05
7.8e-05
7.8e-05
7.8e-05
7.8e-05
7.8e-05
7.8e-05
7.8e-05
7.8e-05
7.8e-05
7.8e-05
7.8e-05
7.8e-05
7.8e-05
7.8e-05
7.8e-05
7.8e-05
7.8e-05
7.8e-05
7.8e-05
7.8e-05
7.8e-05
7.8e-05
7.8e-05
7.8e-05
7.8e-05
7.8e-05
7.8e-05
7.8e-05
7.8e-05
7.8e-05
7.8e-05
7.8e-05
7.8e-05
7.8e-05
7.8e-05
7.8e-05
7.8e-05
7.8e-05
7.8e-05
7.8e-05
7.8e-05
7.8e-05
7.8e-05
7.8e-05
7.8e-05
7.8e-05
7.8e-05
7.8e-05
7.8e-05
7.8e-05
7.8e-05
7.8e-05
7.8e-05
7.8e-05
7.8e-05
7.8e-05
7.8e-05
7.8e-05
7.8e-05
7.8e-05
7.8e-05
7.8e-05
7.8e-05
7.8e-05
7.8e-05
7.8e-05
7.8e-05
7.8e-05
7.8e-05
7.8e-05
7.8e-05
7.8e-05
7.8e-05
7.8e-05
7.8e-05
7.8e-05
7.8e-05
7.8e-05
7.8e-05
7.8e-05
7.8e-05
7.8e-05
7.8e-05
7.8e-05
7.8e-05
7.8e-05
7.8e-05
7.8e-05
7.8e-05
7.8e-05
7.8e-05
7.8e-05
7.8e-05
7.8e-05
7.8e-05
7.8e-05
7.8e-05
7.8e-05
7.8e-05
7.8e-05
7.8e-05
7.8e-05
7.8e-05
7.8e-05
7.8e-05
7.8e-05
7.8e-05
7.8e-05
7.8e-05
7.8e-05
7.8e-05
7.8e-05
7.8e-05
7.8e-05
7.8e-05
7.8e-05
7.8e-05
7.8e-05
7.8e-05
7.8e-05
7.8e-05
7.8e-05
7.8e-05
7.8e-05
7.8e-05
7.8e-05
7.8e-05
7.8e-05
7.8e-05
7.8e-05
7.8e-05
7.8e-05
7.8e-05
7.8e-05
7.8e-05
7.8e-05
7.8e-05
7.8e-05
7.8e-05
7.8e-05
7.8e-05
7.8e-05
7.8e-05
7.8e-05
7.8e-05
7.8e-05
7.8e-05
7.8e-05
7.8e-05
7.8e-05
7.8e-05
7.8e-05
7.8e-05
7.8e-05
7.8e-05
7.8e-05
7.8e-05
7.8e-05
7.8e-05
7.8e-05
7.8e-05
7.8e-05
7.8e-05
7.8e-05
7.8e-05
7.8e-05
7.8e-05
7.8e-05
7.8e-05
7.8e-05
7.8e-05
7.8e-05
7.8e-05
7.8e-05
7.8e-05
7.8e-05
7.8e-05
7.8e-05
7.8e-05
7.8e-05
7.8e-05
7.8e-05
7.8e-05
7.8e-05
7.8e-05
7.8e-05
7.8e-05
7.8e-05
7.8e-05
7.8e-05
7.8e-05
7.8e-05
7.8e-05
7.8e-05
7.8e-05
7.8e-05
7.8e-05
7.8e-05
7.8e-05
7.8e-05
7.8e-05
7.8e-05
7.8e-05
7.8e-05
7.8e-05
7.8e-05
7.8e-05
7.8e-05
7.8e-05
7.8e-05
7.8e-05
7.8e-05
7.8e-05
7.8e-05
7.8e-05
7.8e-05
7.8e-05
7.8e-05
7.8e-05
7.8e-05
7.8e-05
7.8e-05
7.8e-05
7.8e-05
7.8e-05
7.8e-05
7.8e-05
7.8e-05
7.8e-05
7.8e-05
7.8e-05
7.8e-05
7.8e-05
7.8e-05
7.8e-05
7.8e-05
7.8e-05
7.8e-05
7.8e-05
7.8e-05
7.8e-05
7.8e-05
7.8e-05
7.8e-05
7.8e-05
7.8e-05
7.8e-05
7.8e-05
7.8e-05
7.8e-05
7.8e-05
7.8e-05
7.8e-05
7.8e-05
7.8e-05
7.8e-05
7.8e-05
7.8e-05
7.8e-05
7.8e-05
7.8e-05
7.8e-05
7.8e-05
7.8e-05
7.8e-05
7.8e-05
7.8e-05
7.8e-05
7.8e-05
7.8e-05
7.8e-05
7.8e-05
7.8e-05
7.8e-05
7.8e-05
7.8e-05
7.8e-05
7.8e-05
7.8e-05
7.8e-05
7.8e-05
7.8e-05
7.8e-05
7.8e-05
7.8e-05
7.8e-05
7.8e-05
7.8e-05
7.8e-05
7.8e-05
7.8e-05
7.8e-05
7.8e-05
7.8e-05
7.8e-05
7.8e-05
7.8e-05
7.8e-05
7.8e-05
7.8e-05
7.8e-05
7.8e-05
7.8e-05
7.8e-05
7.8e-05
7.8e-05
7.8e-05
7.8e-05
7.8e-05
7.8e-05
7.8e-05
7.8e-05
7.8e-05
7.8e-05
7.8e-05
7.8e-05
7.8e-05
7.8e-05
7.8e-05
7.8e-05
7.8e-05
7.8e-05
7.8e-05
7.8e-05
7.8e-05
7.8e-05
7.8e-05
7.8e-05
7.8e-05
7.8e-05
7.8e-05
7.8e-05
7.8e-05
7.8e-05
7.8e-05
7.8e-05
7.8e-05
7.8e-05
7.8e-05
7.8e-05
7.8e-05
7.8e-05
7.8e-05
7.8e-05
7.8e-05
7.8e-05
7.8e-05
7.8e-05
7.8e-05
7.8e-05
7.8e-05
7.8e-05
7.8e-05
7.8e-05
7.8e-05
7.8e-05
7.8e-05
7.8e-05
7.8e-05
7.8e-05
7.8e-05
7.8e-05
7.8e-05
7.8e-05
7.8e-05
7.8e-05
7.8e-05
7.8e-05
7.8e-05
7.8e-05
7.8e-05
7.8e-05
7.8e-05
7.8e-05
7.8e-05
7.8e-05
7.8e-05
7.8e-05
7.8e-05
7.8e-05
7.8e-05
7.8e-05
7.8e-05
7.8e-05
7.8e-05
7.8e-05
7.8e-05
7.8e-05
7.8e-05
7.8e-05
7.8e-05
7.8e-05
7.8e-05
7.8e-05
7.8e-05
7.8e-05
7.8e-05
7.8e-05
7.8e-05
7.8e-05
7.8e-05
7.8e-05
7.8e-05
7.8e-05
7.8e-05
7.8e-05
7.8e-05
7.8e-05
7.8e-05
7.8e-05
7.8e-05
7.8e-05
7.8e-05
7.8e-05
7.8e-05
7.8e-05
7.8e-05
7.8e-05
7.8e-05
7.8e-05
7.8e-05
7.8e-05
7.8e-05
7.8e-05
7.8e-05
7.8e-05
7.8e-05
7.8e-05
7.8e-05
7.8e-05
7.8e-05
7.8e-05
7.8e-05
7.8e-05
7.8e-05
7.8e-05
7.8e-05
7.8e-05
7.8e-05
7.8e-05
7.8e-05
7.8e-05
7.8e-05
7.8e-05
7.8e-05
7.8e-05
7.8e-05
7.8e-05
7.8e-05
7.8e-05
7.8e-05
7.8e-05
7.8e-05
7.8e-05
7.8e-05
7.8e-05
7.8e-05
7.8e-05
7.8e-05
7.8e-05
7.8e-05
7.8e-05
7.8e-05
7.8e-05
7.8e-05
7.8e-05
7.8e-05
7.8e-05
7.8e-05
7.8e-05
7.8e-05
7.8e-05
7.8e-05
7.8e-05
7.8e-05
7.8e-05
7.8e-05
7.8e-05
7.8e-05
7.8e-05
7.8e-05
7.8e-05
7.8e-05
7.8e-05
7.8e-05
7.8e-05
7.8e-05
7.8e-05
7.8e-05
7.8e-05
7.8e-05
7.8e-05
7.8e-05
7.8e-05
7.8e-05
7.8e-05
7.8e-05
7.8e-05
7.8e-05
7.8e-05
7.8e-05
7.8e-05
7.8e-05
7.8e-05
7.8e-05
7.8e-05
7.8e-05
7.8e-05
7.8e-05
7.8e-05
7.8e-05
7.8e-05
7.8e-05
7.8e-05
7.8e-05
7.8e-05
7.8e-05
7.8e-05
7.8e-05
7.8e-05
7.8e-05
7.8e-05
7.8e-05
7.8e-05
7.8e-05
7.8e-05
7.8e-05
7.8e-05
7.8e-05
7.8e-05
7.8e-05
7.8e-05
7.8e-05
7.8e-05
7.8e-05
7.8e-05
7.8e-05
7.8e-05
7.8e-05
7.8e-05
7.8e-05
7.8e-05
7.8e-05
7.8e-05
7.8e-05
7.8e-05
7.8e-05
7.8e-05
7.8e-05
7.8e-05
7.8e-05
7.8e-05
7.8e-05
7.8e-05
7.8e-05
7.8e-05
7.8e-05
7.8e-05
7.8e-05
7.8e-05
7.8e-05
7.8e-05
7.8e-05
7.8e-05
7.8e-05
7.8e-05
7.8e-05
7.8e-05
7.8e-05
7.8e-05
7.8e-05
7.8e-05
7.8e-05
7.8e-05
7.8e-05
7.8e-05
7.8e-05
7.8e-05
7.8e-05
7.8e-05
7.8e-05
7.8e-05
7.8e-05
7.8e-05
7.8e-05
7.8e-05
7.8e-05
7.8e-05
7.8e-05
7.8e-05
7.8e-05
7.8e-05
7.8e-05
7.8e-05
7.8e-05
7.8e-05
7.8e-05
7.8e-05
7.8e-05
7.8e-05
7.8e-05
7.8e-05
7.8e-05
7.8e-05
7.8e-05
7.8e-05
7.8e-05
7.8e-05
7.8e-05
7.8e-05
7.8e-05
7.8e-05
7.8e-05
7.8e-05
7.8e-05
7.8e-05
7.8e-05
7.8e-05
7.8e-05
7.8e-05
7.8e-05
7.8e-05
7.8e-05
7.8e-05
7.8e-05
7.8e-05
7.8e-05
7.8e-05
7.8e-05
7.8e-05
7.8e-05
7.8e-05
7.8e-05
7.8e-05
7.8e-05
7.8e-05
7.8e-05
7.8e-05
7.8e-05
7.8e-05
7.8e-05
7.8e-05
7.8e-05
7.8e-05
7.8e-05
7.8e-05
7.8e-05
7.8e-05
7.8e-05
7.8e-05
7.8e-05
7.8e-05
7.8e-05
7.8e-05
7.8e-05
7.8e-05
7.8e-05
7.8e-05
7.8e-05
7.8e-05
7.8e-05
7.8e-05
7.8e-05
7.8e-05
7.8e-05
7.8e-05
7.8e-05
7.8e-05
7.8e-05
7.8e-05
7.8e-05
7.8e-05
7.8e-05
7.8e-05
7.8e-05
7.8e-05
7.8e-05
7.8e-05
7.8e-05
7.8e-05
7.8e-05
7.8e-05
7.8e-05
7.8e-05
7.8e-05
7.8e-05
7.8e-05
7.8e-05
7.8e-05
7.8e-05
7.8e-05
7.8e-05
7.8e-05
7.8e-05
7.8e-05
7.8e-05
7.8e-05
7.8e-05
7.8e-05
7.8e-05
7.8e-05
7.8e-05
7.8e-05
7.8e-05
7.8e-05
7.8e-05
7.8e-05
7.8e-05
7.8e-05
7.8e-05
7.8e-05
7.8e-05
7.8e-05
7.8e-05
7.8e-05
7.8e-05
7.8e-05
7.8e-05
7.8e-05
7.8e-05
7.8e-05
7.8e-05
7.8e-05
7.8e-05
7.8e-05
7.8e-05
7.8e-05
7.8e-05
7.8e-05
7.8e-05
7.8e-05
7.8e-05
7.8e-05
7.8e-05
7.8e-05
7.8e-05
7.8e-05
7.8e-05
7.8e-05
7.8e-05
7.8e-05
7.8e-05
7.8e-05
7.8e-05
7.8e-05
7.8e-05
7.8e-05
7.8e-05
7.8e-05
7.8e-05
7.8e-05
7.8e-05
7.8e-05
7.8e-05
7.8e-05
7.8e-05
7.8e-05
7.8e-05
7.8e-05
7.8e-05
7.8e-05
7.8e-05
7.8e-05
7.8e-05
7.8e-05
7.8e-05
7.8e-05
7.8e-05
7.8e-05
7.8e-05
7.8e-05
7.8e-05
7.8e-05
7.8e-05
7.8e-05
7.8e-05
7.8e-05
7.8e-05
7.8e-05
7.8e-05
7.8e-05
7.8e-05
7.8e-05
7.8e-05
7.8e-05
7.8e-05
7.8e-05
7.8e-05
7.8e-05
7.8e-05
7.8e-05
7.8e-05
7.8e-05
7.8e-05
7.8e-05
7.8e-05
7.8e-05
7.8e-05
7.8e-05
7.8e-05
7.8e-05
7.8e-05
7.8e-05
7.8e-05
7.8e-05
7.8e-05
7.8e-05
7.8e-05
7.8e-05
7.8e-05
7.8e-05
7.8e-05
7.8e-05
7.8e-05
7.8e-05
7.8e-05
7.8e-05
7.8e-05
7.8e-05
7.8e-05