/*--------------------------------*- C++ -*----------------------------------*\
| =========                 |                                                 |
| \\      /  F ield         | OpenFOAM: The Open Source CFD Toolbox           |
|  \\    /   O peration     | Version:  2406                                  |
|   \\  /    A nd           | Website:  www.openfoam.com                      |
|    \\/     M anipulation  |                                                 |
\*---------------------------------------------------------------------------*/
FoamFile
{
    version     2.0;
    format      ascii;
    arch        "LSB;label=32;scalar=64";
    class       volScalarField;
    location    "2.15";
    object      C_0;
}
// * * * * * * * * * * * * * * * * * * * * * * * * * * * * * * * * * * * * * //

dimensions      [1 -3 0 0 0 0 0];

internalField   nonuniform List<scalar> 
14400
(
1.39903
1.39238
1.37782
1.3467
1.30595
1.27379
1.25499
1.25141
1.26367
1.29129
1.33249
1.38236
1.4207
1.44178
1.45577
1.46423
1.46749
1.46546
1.45753
1.44163
1.40911
1.36937
1.34065
1.32735
1.33117
1.35278
1.39185
1.44691
1.51325
1.56688
1.60105
1.62853
1.65229
1.67302
1.69119
1.70716
1.7212
1.7335
1.74422
1.75349
1.7614
1.76804
1.77346
1.77773
1.78087
1.78292
1.7839
1.78382
1.78269
1.78052
1.77729
1.77299
1.76762
1.76113
1.75349
1.74467
1.73461
1.72324
1.71047
1.69623
1.68037
1.66276
1.64321
1.62149
1.5973
1.57026
1.53986
1.50546
1.46027
1.39237
1.31358
1.24524
1.1906
1.15078
1.12622
1.11703
1.12305
1.14385
1.17871
1.22629
1.28348
1.33205
1.36116
1.3805
1.3945
1.40394
1.4093
1.41086
1.40871
1.4028
1.39287
1.37843
1.35846
1.32286
1.27457
1.23283
1.20322
1.18781
1.18703
1.20005
1.22447
1.25478
1.27524
1.28002
1.27499
1.25426
1.22352
1.19857
1.18501
1.18526
1.2002
1.22937
1.27075
1.31871
1.35412
1.37416
1.38889
1.39934
1.40606
1.40935
1.40568
1.39984
1.38774
1.36518
1.32873
1.29514
1.27532
1.27133
1.28402
1.31266
1.35526
1.40006
1.42956
1.44818
1.46129
1.46942
1.4728
1.47135
1.46471
1.45218
1.42839
1.39178
1.36182
1.34769
1.35118
1.37322
1.41318
1.46939
1.53097
1.575
1.60575
1.63224
1.65533
1.67557
1.69339
1.7091
1.72293
1.73507
1.74567
1.75484
1.76268
1.76925
1.77463
1.77885
1.78196
1.78399
1.78495
1.78487
1.78374
1.78157
1.77835
1.77408
1.76873
1.76227
1.75468
1.74591
1.73591
1.72462
1.71196
1.69783
1.68213
1.6647
1.64538
1.62396
1.60015
1.57361
1.54387
1.51028
1.47076
1.41261
1.33552
1.26642
1.21073
1.17012
1.14512
1.13588
1.14224
1.16374
1.19956
1.24783
1.30338
1.34352
1.36776
1.38585
1.39906
1.40801
1.4131
1.41456
1.41248
1.40681
1.39737
1.38379
1.36543
1.33846
1.29712
1.25387
1.22305
1.20723
1.20699
1.22139
1.24755
1.27324
1.28609
1.28975
1.28578
1.27262
1.24657
1.21986
1.20489
1.20458
1.21989
1.25025
1.2931
1.33407
1.36088
1.37931
1.39315
1.40308
1.40949
1.41264
1.41818
1.41355
1.40425
1.39041
1.36688
1.33552
1.31481
1.31002
1.32353
1.35298
1.39311
1.42392
1.44416
1.46009
1.47178
1.47936
1.48293
1.48244
1.47779
1.46883
1.45555
1.43213
1.40242
1.38744
1.39017
1.41313
1.45403
1.50984
1.55474
1.58673
1.61469
1.63937
1.6612
1.68055
1.6977
1.71291
1.72636
1.73819
1.74855
1.75753
1.76521
1.77166
1.77694
1.78109
1.78414
1.78612
1.78706
1.78696
1.78583
1.78367
1.78047
1.77624
1.77094
1.76455
1.75705
1.74838
1.73851
1.72738
1.71491
1.70102
1.6856
1.66853
1.64966
1.6288
1.60573
1.58016
1.55173
1.51998
1.48436
1.44048
1.37845
1.30832
1.25061
1.20853
1.18266
1.17332
1.18037
1.20313
1.24086
1.29023
1.33256
1.35979
1.38018
1.39607
1.40788
1.41594
1.42053
1.4218
1.41983
1.4146
1.40602
1.39391
1.37803
1.35819
1.33004
1.29284
1.26117
1.24476
1.24542
1.26128
1.28305
1.29761
1.30478
1.30712
1.30438
1.29681
1.28187
1.25963
1.24316
1.24189
1.25774
1.28891
1.32556
1.35339
1.37313
1.38904
1.40134
1.41032
1.41618
1.41908
1.43532
1.43191
1.42528
1.41589
1.40481
1.38753
1.37052
1.36435
1.37928
1.4049
1.42958
1.44721
1.46306
1.47623
1.48637
1.49333
1.49711
1.4977
1.49517
1.48972
1.48186
1.47263
1.45713
1.44412
1.44523
1.47002
1.50904
1.5466
1.57528
1.60219
1.62692
1.64934
1.66955
1.68771
1.70397
1.71848
1.73139
1.7428
1.75281
1.76151
1.76897
1.77524
1.78038
1.78441
1.78738
1.7893
1.7902
1.79007
1.78894
1.7868
1.78364
1.77946
1.77424
1.76795
1.76057
1.75206
1.74238
1.73147
1.71928
1.70573
1.69072
1.67417
1.65593
1.63587
1.61381
1.58956
1.56289
1.53357
1.50138
1.46625
1.42333
1.36726
1.30875
1.26524
1.23811
1.22865
1.2367
1.26058
1.29917
1.33534
1.36088
1.38055
1.39711
1.41038
1.42043
1.42735
1.43127
1.43229
1.43044
1.42575
1.4182
1.40779
1.39458
1.37881
1.36124
1.33858
1.31381
1.297
1.29852
1.3088
1.31861
1.32429
1.32829
1.32956
1.3278
1.32331
1.31713
1.30684
1.29598
1.29382
1.30995
1.33409
1.35628
1.37359
1.38919
1.40236
1.41286
1.42068
1.42584
1.42841
1.45586
1.45352
1.44905
1.44302
1.4364
1.4307
1.42444
1.42279
1.43292
1.44655
1.45909
1.47223
1.48463
1.49542
1.50412
1.51049
1.51447
1.51607
1.51547
1.51301
1.50935
1.50562
1.5035
1.50124
1.50672
1.52694
1.55135
1.57384
1.59705
1.61984
1.64144
1.66153
1.67997
1.69677
1.71197
1.72566
1.73791
1.74879
1.75838
1.76674
1.77392
1.77997
1.78492
1.78881
1.79167
1.79351
1.79435
1.7942
1.79307
1.79094
1.78783
1.78372
1.7786
1.77244
1.76522
1.75691
1.74747
1.73685
1.72502
1.71189
1.6974
1.68148
1.66402
1.64492
1.62408
1.60138
1.57672
1.55003
1.52133
1.49086
1.4592
1.42325
1.38044
1.33797
1.30947
1.29986
1.3091
1.33145
1.35525
1.3739
1.38968
1.40443
1.41731
1.42793
1.4361
1.44176
1.44493
1.44563
1.44389
1.43974
1.43324
1.42449
1.41368
1.40121
1.38784
1.37476
1.36139
1.34994
1.34763
1.34871
1.35026
1.35266
1.35452
1.35503
1.35395
1.35151
1.34853
1.34636
1.34468
1.34629
1.35704
1.36982
1.38247
1.3955
1.4077
1.41835
1.42707
1.43368
1.4381
1.44032
1.47876
1.47723
1.4744
1.47074
1.46703
1.46432
1.46392
1.46658
1.47127
1.47864
1.48794
1.498
1.50782
1.5167
1.52419
1.53005
1.53419
1.53665
1.53763
1.5375
1.53689
1.53674
1.53838
1.54348
1.5529
1.56572
1.58167
1.59993
1.61925
1.63866
1.65749
1.67535
1.69202
1.70741
1.7215
1.73428
1.74579
1.75608
1.76519
1.77315
1.78
1.78578
1.79052
1.79424
1.79697
1.79872
1.79949
1.79931
1.79817
1.79608
1.79302
1.789
1.78399
1.77798
1.77096
1.76288
1.75373
1.74346
1.73204
1.71941
1.70552
1.69032
1.67374
1.65572
1.63621
1.61517
1.59258
1.56849
1.54307
1.51666
1.48987
1.46367
1.43781
1.4108
1.38892
1.37886
1.38115
1.39007
1.39882
1.40869
1.41952
1.43015
1.43979
1.44792
1.45426
1.45867
1.46106
1.46141
1.45974
1.45609
1.45054
1.44324
1.43443
1.42453
1.41415
1.40414
1.3955
1.38895
1.38391
1.38151
1.38108
1.38156
1.38209
1.38211
1.38144
1.38026
1.37911
1.37887
1.38055
1.38487
1.39076
1.39881
1.4083
1.41823
1.42776
1.43628
1.44339
1.44886
1.45257
1.45443
1.50317
1.50224
1.50057
1.49852
1.49664
1.49562
1.49615
1.49861
1.50281
1.50877
1.51605
1.52399
1.53194
1.53936
1.5459
1.55134
1.55559
1.55872
1.5609
1.56248
1.56397
1.56609
1.5697
1.57568
1.58449
1.59587
1.60955
1.62497
1.64136
1.65806
1.67451
1.69036
1.70536
1.71937
1.73232
1.74416
1.75491
1.76456
1.77313
1.78066
1.78715
1.79264
1.79714
1.80067
1.80325
1.80489
1.8056
1.80538
1.80424
1.80218
1.79918
1.79526
1.79038
1.78455
1.77774
1.76993
1.7611
1.75122
1.74026
1.72818
1.71495
1.70054
1.6849
1.66802
1.64988
1.6305
1.60992
1.58828
1.56579
1.54283
1.51996
1.49797
1.47787
1.46086
1.44725
1.43808
1.43357
1.4332
1.43666
1.44251
1.44956
1.45688
1.46376
1.4697
1.47437
1.47759
1.47922
1.47922
1.47757
1.47433
1.46959
1.46349
1.45628
1.44832
1.44008
1.43215
1.42513
1.41942
1.41508
1.41235
1.41097
1.41041
1.41016
1.40988
1.40944
1.40896
1.40879
1.40943
1.4114
1.415
1.42
1.42636
1.43368
1.44136
1.44882
1.4556
1.46134
1.46582
1.46887
1.47041
1.52851
1.528
1.52712
1.52613
1.5254
1.52538
1.52646
1.52886
1.5326
1.53757
1.5435
1.54998
1.55658
1.56291
1.56871
1.5738
1.57812
1.58173
1.58477
1.58754
1.59042
1.59394
1.59865
1.60505
1.61342
1.62371
1.6357
1.64902
1.66317
1.67769
1.69214
1.70622
1.71969
1.73239
1.74423
1.75515
1.76511
1.77411
1.78213
1.78919
1.79531
1.80048
1.80472
1.80805
1.81047
1.81199
1.81263
1.81237
1.81123
1.8092
1.80628
1.80246
1.79774
1.7921
1.78553
1.77801
1.76953
1.76007
1.7496
1.73811
1.72557
1.71197
1.6973
1.68157
1.66479
1.64702
1.62834
1.60892
1.58899
1.56892
1.54917
1.53037
1.51324
1.4985
1.48664
1.47808
1.47297
1.47113
1.47211
1.47512
1.47934
1.48405
1.48866
1.49274
1.49595
1.49809
1.49901
1.49866
1.49701
1.49409
1.48999
1.48485
1.47888
1.47238
1.46571
1.45926
1.45343
1.44851
1.44463
1.44185
1.44005
1.43895
1.43827
1.43781
1.43748
1.43736
1.43766
1.43866
1.44063
1.44372
1.44787
1.45295
1.45869
1.4647
1.47058
1.47596
1.48057
1.48419
1.48668
1.48794
1.55437
1.55414
1.55378
1.55347
1.55346
1.55403
1.55543
1.55779
1.56115
1.56542
1.57041
1.57585
1.58147
1.587
1.59223
1.59703
1.60137
1.60529
1.60892
1.61247
1.61625
1.6206
1.6259
1.63245
1.64044
1.64984
1.66053
1.67223
1.68463
1.69737
1.71015
1.72269
1.73478
1.74628
1.75708
1.76709
1.77628
1.78462
1.79209
1.79868
1.8044
1.80924
1.81322
1.81633
1.81859
1.81999
1.82054
1.82025
1.8191
1.81711
1.81427
1.81057
1.806
1.80057
1.79426
1.78705
1.77894
1.76991
1.75996
1.74907
1.73725
1.72448
1.71078
1.69617
1.6807
1.66443
1.6475
1.63006
1.61234
1.59467
1.57743
1.56111
1.54622
1.53326
1.52261
1.51453
1.50912
1.50623
1.50553
1.50653
1.50863
1.51132
1.51411
1.51663
1.5186
1.5198
1.52009
1.5194
1.5177
1.51502
1.51142
1.50703
1.50202
1.49662
1.4911
1.48575
1.48084
1.47657
1.47307
1.47037
1.46842
1.46707
1.46617
1.46559
1.46531
1.46534
1.46583
1.46691
1.46874
1.47139
1.47481
1.47889
1.48344
1.48818
1.49282
1.4971
1.50079
1.5037
1.50571
1.50673
1.58045
1.5804
1.58038
1.5805
1.58094
1.58186
1.58343
1.58573
1.58878
1.59253
1.59685
1.60156
1.60646
1.61138
1.61616
1.62073
1.62505
1.62915
1.63314
1.63718
1.64149
1.64632
1.65189
1.65843
1.66603
1.67469
1.68433
1.69475
1.70574
1.71703
1.72839
1.73959
1.75047
1.76087
1.77069
1.77986
1.78831
1.79601
1.80292
1.80905
1.81437
1.81888
1.82258
1.82548
1.82756
1.82884
1.82931
1.82897
1.82783
1.82588
1.82311
1.81954
1.81514
1.80992
1.80387
1.79699
1.78926
1.78069
1.77126
1.76098
1.74986
1.73791
1.72515
1.71163
1.69739
1.68253
1.66717
1.65147
1.63565
1.61997
1.60478
1.59042
1.57728
1.56571
1.556
1.54833
1.54273
1.53913
1.53727
1.53681
1.53735
1.53847
1.53982
1.54109
1.54201
1.54241
1.54215
1.54115
1.53939
1.53687
1.53365
1.52983
1.52555
1.52098
1.51633
1.5118
1.50759
1.50386
1.5007
1.49815
1.49619
1.49474
1.49373
1.4931
1.4928
1.49288
1.49339
1.49442
1.49604
1.49827
1.50108
1.50437
1.50799
1.51175
1.51543
1.51883
1.52177
1.5241
1.52572
1.52654
1.60657
1.60664
1.60683
1.60723
1.60793
1.60905
1.61069
1.61291
1.61573
1.61908
1.6229
1.62707
1.63143
1.63589
1.64032
1.64468
1.64893
1.65312
1.65731
1.66163
1.66623
1.67127
1.67693
1.68333
1.69055
1.69857
1.70734
1.71672
1.72654
1.73663
1.74678
1.75683
1.76663
1.77604
1.78497
1.79334
1.80109
1.80817
1.81455
1.82022
1.82514
1.82932
1.83275
1.83542
1.83734
1.83849
1.83887
1.8385
1.83736
1.83545
1.83277
1.82933
1.82511
1.82011
1.81433
1.80777
1.80043
1.79231
1.78341
1.77374
1.76331
1.75216
1.7403
1.72779
1.7147
1.70112
1.68717
1.673
1.6588
1.64481
1.63128
1.6185
1.60676
1.59631
1.58736
1.58003
1.57436
1.57028
1.56761
1.5661
1.56547
1.56541
1.56563
1.56588
1.56595
1.56568
1.56494
1.56367
1.56183
1.55941
1.55648
1.55309
1.54936
1.54542
1.54143
1.53753
1.53387
1.53058
1.52772
1.52534
1.52344
1.52198
1.52093
1.52025
1.51993
1.51999
1.52044
1.52134
1.52272
1.52457
1.52687
1.52952
1.53241
1.53539
1.53832
1.54102
1.54337
1.54523
1.54652
1.54718
1.63262
1.63277
1.63309
1.63364
1.63449
1.63572
1.63738
1.63951
1.64212
1.64517
1.64862
1.65236
1.65632
1.66041
1.66456
1.66872
1.67289
1.67708
1.68135
1.68579
1.69051
1.69562
1.70123
1.70743
1.71426
1.72171
1.72973
1.73823
1.74709
1.75615
1.76528
1.77432
1.78317
1.79169
1.79981
1.80744
1.81453
1.82103
1.8269
1.83212
1.83666
1.84052
1.84368
1.84613
1.84787
1.8489
1.84921
1.84879
1.84765
1.84579
1.8432
1.83989
1.83584
1.83107
1.82557
1.81934
1.81238
1.80471
1.79632
1.78725
1.77749
1.7671
1.7561
1.74454
1.73251
1.72009
1.70739
1.69456
1.68176
1.66918
1.65704
1.64555
1.63494
1.62541
1.61709
1.61008
1.60441
1.60002
1.59678
1.59452
1.59302
1.59206
1.5914
1.59085
1.59023
1.58941
1.58827
1.58676
1.58483
1.58249
1.57975
1.57669
1.57338
1.56992
1.56643
1.56302
1.5598
1.55686
1.55426
1.55205
1.55024
1.54881
1.54775
1.54705
1.54669
1.54668
1.54704
1.54779
1.54893
1.55044
1.55229
1.55442
1.55673
1.5591
1.56142
1.56357
1.56544
1.56692
1.56795
1.56848
1.65852
1.65871
1.65911
1.65975
1.66068
1.66195
1.66359
1.66563
1.66806
1.67087
1.67402
1.67745
1.68109
1.68488
1.68878
1.69276
1.69681
1.70095
1.70522
1.70968
1.7144
1.71946
1.72495
1.73089
1.73734
1.74427
1.75165
1.7594
1.76742
1.77561
1.78385
1.79202
1.80002
1.80775
1.81513
1.82209
1.82856
1.83451
1.8399
1.84469
1.84887
1.85242
1.85531
1.85755
1.85913
1.86003
1.86026
1.85981
1.85868
1.85686
1.85436
1.85118
1.84731
1.84276
1.83753
1.83162
1.82505
1.81781
1.80993
1.80143
1.79232
1.78264
1.77244
1.76177
1.75071
1.73933
1.72775
1.71608
1.70448
1.69311
1.68213
1.67172
1.66206
1.65328
1.6455
1.6388
1.63317
1.6286
1.62498
1.62218
1.62004
1.61839
1.61706
1.61588
1.61472
1.61345
1.61198
1.61026
1.60825
1.60594
1.60336
1.60054
1.59754
1.59445
1.59134
1.58831
1.58544
1.58279
1.58042
1.57837
1.57665
1.57527
1.57422
1.57349
1.57309
1.57301
1.57326
1.57384
1.57475
1.57597
1.57745
1.57914
1.58098
1.58286
1.5847
1.58641
1.58789
1.58907
1.58989
1.59031
1.68424
1.68445
1.68489
1.68557
1.68654
1.6878
1.6894
1.69135
1.69363
1.69624
1.69915
1.70231
1.70569
1.70924
1.71293
1.71673
1.72065
1.7247
1.7289
1.7333
1.73795
1.74289
1.74819
1.75386
1.75993
1.76639
1.77319
1.78028
1.78759
1.79502
1.80249
1.80989
1.81714
1.82416
1.83087
1.83721
1.84312
1.84856
1.85349
1.85788
1.86171
1.86496
1.8676
1.86964
1.87105
1.87184
1.87199
1.8715
1.87038
1.86861
1.8662
1.86315
1.85946
1.85513
1.85017
1.84458
1.83838
1.83157
1.82417
1.81621
1.80771
1.79871
1.78926
1.7794
1.76921
1.75878
1.74818
1.73755
1.72699
1.71664
1.70665
1.69716
1.68829
1.68016
1.67285
1.66643
1.66089
1.65622
1.65235
1.64917
1.64657
1.64441
1.64257
1.64091
1.63931
1.63768
1.63595
1.63405
1.63197
1.62968
1.6272
1.62456
1.62181
1.61899
1.61619
1.61345
1.61085
1.60844
1.60626
1.60435
1.60272
1.60139
1.60036
1.59962
1.59917
1.59901
1.59915
1.59957
1.60027
1.60122
1.60239
1.60373
1.60518
1.60667
1.60812
1.60947
1.61064
1.61157
1.61222
1.61256
1.70974
1.70996
1.71042
1.71112
1.71208
1.71333
1.71487
1.71672
1.71887
1.72131
1.72402
1.72696
1.73012
1.73346
1.73695
1.74059
1.74437
1.74829
1.75238
1.75667
1.76119
1.76597
1.77105
1.77644
1.78215
1.78816
1.79444
1.80095
1.80763
1.8144
1.82118
1.82791
1.8345
1.84088
1.84698
1.85276
1.85815
1.86312
1.86762
1.87164
1.87514
1.8781
1.8805
1.88234
1.8836
1.88427
1.88435
1.88384
1.88272
1.88101
1.87869
1.87577
1.87225
1.86813
1.86343
1.85815
1.85231
1.8459
1.83897
1.83153
1.8236
1.81523
1.80647
1.79736
1.78797
1.77838
1.76866
1.75893
1.74928
1.73982
1.73068
1.72196
1.71377
1.7062
1.69932
1.69316
1.68775
1.68305
1.67902
1.67558
1.67265
1.67013
1.6679
1.66586
1.66393
1.66202
1.66007
1.65804
1.65588
1.65361
1.6512
1.6487
1.64613
1.64353
1.64096
1.63845
1.63607
1.63385
1.63184
1.63005
1.62851
1.62722
1.6262
1.62545
1.62495
1.62472
1.62475
1.62502
1.62553
1.62626
1.62716
1.6282
1.62933
1.6305
1.63164
1.6327
1.63362
1.63436
1.63487
1.63514
1.73502
1.73524
1.7357
1.7364
1.73734
1.73856
1.74004
1.74179
1.74382
1.74611
1.74865
1.75141
1.75437
1.75752
1.76083
1.76431
1.76793
1.77171
1.77567
1.77981
1.78417
1.78876
1.7936
1.79869
1.80405
1.80965
1.81547
1.82146
1.82757
1.83376
1.83994
1.84606
1.85206
1.85787
1.86343
1.86869
1.8736
1.87814
1.88225
1.88591
1.8891
1.89179
1.89397
1.89562
1.89673
1.8973
1.89732
1.89677
1.89567
1.894
1.89177
1.88898
1.88563
1.88172
1.87728
1.87229
1.86679
1.86078
1.85428
1.84732
1.83993
1.83215
1.82402
1.8156
1.80693
1.79809
1.78916
1.78022
1.77137
1.76269
1.75428
1.74623
1.73864
1.73156
1.72506
1.71916
1.71388
1.70921
1.70509
1.70149
1.69833
1.69554
1.69303
1.69071
1.68853
1.6864
1.68428
1.68213
1.67993
1.67765
1.67531
1.67291
1.67048
1.66805
1.66565
1.66333
1.66113
1.65907
1.65718
1.6555
1.65403
1.65279
1.65178
1.65101
1.65048
1.65017
1.6501
1.65024
1.65059
1.65111
1.65179
1.65258
1.65346
1.65436
1.65525
1.65608
1.6568
1.65737
1.65777
1.65798
1.76007
1.76029
1.76074
1.76142
1.76234
1.76351
1.76493
1.76659
1.76851
1.77066
1.77305
1.77564
1.77844
1.78141
1.78456
1.78787
1.79133
1.79496
1.79876
1.80274
1.80691
1.81129
1.81588
1.82069
1.82571
1.83093
1.83632
1.84184
1.84745
1.85311
1.85876
1.86435
1.86981
1.8751
1.88017
1.88496
1.88944
1.89357
1.89732
1.90065
1.90355
1.90599
1.90796
1.90944
1.91042
1.91088
1.91084
1.91027
1.90918
1.90756
1.90541
1.90274
1.89956
1.89586
1.89165
1.88695
1.88177
1.87613
1.87005
1.86355
1.85666
1.84942
1.84188
1.83407
1.82606
1.8179
1.80967
1.80144
1.79328
1.78528
1.77751
1.77006
1.76298
1.75635
1.75019
1.74454
1.73942
1.7348
1.73066
1.72696
1.72365
1.72067
1.71795
1.71544
1.71306
1.71077
1.70853
1.70629
1.70404
1.70177
1.69947
1.69715
1.69483
1.69253
1.69027
1.6881
1.68603
1.6841
1.68233
1.68073
1.67932
1.67812
1.67712
1.67634
1.67576
1.6754
1.67523
1.67526
1.67546
1.67581
1.6763
1.67689
1.67755
1.67824
1.67892
1.67955
1.68011
1.68055
1.68087
1.68103
1.78489
1.78511
1.78555
1.78621
1.7871
1.78821
1.78956
1.79115
1.79296
1.79499
1.79724
1.79968
1.80232
1.80514
1.80812
1.81127
1.81458
1.81804
1.82167
1.82547
1.82945
1.83361
1.83795
1.84248
1.84718
1.85204
1.85703
1.86213
1.86729
1.87248
1.87765
1.88275
1.88774
1.89256
1.89718
1.90155
1.90563
1.90939
1.9128
1.91583
1.91846
1.92067
1.92244
1.92376
1.92461
1.92498
1.92488
1.92429
1.92321
1.92164
1.91958
1.91703
1.914
1.9105
1.90652
1.90209
1.89722
1.89193
1.88623
1.88016
1.87374
1.867
1.85999
1.85275
1.84533
1.83779
1.83018
1.82258
1.81504
1.80764
1.80044
1.7935
1.78689
1.78065
1.77481
1.76941
1.76444
1.7599
1.75578
1.75204
1.74864
1.74554
1.74268
1.74002
1.73751
1.7351
1.73276
1.73046
1.72818
1.72591
1.72364
1.72138
1.71915
1.71696
1.71482
1.71276
1.71081
1.70898
1.70729
1.70577
1.70441
1.70324
1.70225
1.70145
1.70085
1.70042
1.70017
1.70009
1.70017
1.70038
1.70071
1.70113
1.70161
1.70212
1.70263
1.70311
1.70353
1.70387
1.70411
1.70423
1.8095
1.80971
1.81013
1.81077
1.81162
1.81269
1.81397
1.81547
1.81718
1.8191
1.82122
1.82353
1.82602
1.82869
1.83152
1.83451
1.83766
1.84096
1.84442
1.84803
1.85181
1.85574
1.85984
1.86409
1.86848
1.87301
1.87764
1.88234
1.8871
1.89186
1.8966
1.90127
1.90582
1.91023
1.91444
1.91842
1.92214
1.92556
1.92866
1.93142
1.9338
1.93579
1.93737
1.93854
1.93927
1.93956
1.9394
1.9388
1.93773
1.93621
1.93423
1.9318
1.92892
1.9256
1.92185
1.91768
1.9131
1.90813
1.9028
1.89712
1.89113
1.88485
1.87833
1.87161
1.86473
1.85774
1.85069
1.84365
1.83666
1.82979
1.8231
1.81663
1.81043
1.80455
1.79901
1.79383
1.78903
1.7846
1.78052
1.77677
1.77333
1.77016
1.76721
1.76445
1.76185
1.75936
1.75695
1.7546
1.75231
1.75004
1.7478
1.7456
1.74344
1.74133
1.73928
1.73732
1.73546
1.73371
1.7321
1.73063
1.72932
1.72817
1.72719
1.72638
1.72574
1.72526
1.72495
1.72478
1.72475
1.72484
1.72503
1.7253
1.72563
1.726
1.72637
1.72672
1.72704
1.72729
1.72747
1.72756
1.8339
1.8341
1.83451
1.83511
1.83592
1.83694
1.83816
1.83958
1.8412
1.84301
1.84502
1.8472
1.84955
1.85208
1.85476
1.8576
1.86058
1.86372
1.867
1.87043
1.874
1.87772
1.88157
1.88556
1.88966
1.89387
1.89816
1.90251
1.9069
1.91128
1.91562
1.91989
1.92406
1.92808
1.93192
1.93555
1.93894
1.94206
1.94487
1.94737
1.94952
1.95131
1.95273
1.95375
1.95437
1.95459
1.95438
1.95376
1.95271
1.95123
1.94934
1.94702
1.94428
1.94114
1.93759
1.93366
1.92936
1.9247
1.9197
1.91439
1.9088
1.90295
1.89688
1.89063
1.88423
1.87774
1.8712
1.86466
1.85817
1.85177
1.84553
1.83947
1.83365
1.8281
1.82284
1.81788
1.81325
1.80893
1.80492
1.80121
1.79776
1.79455
1.79155
1.78874
1.78607
1.78353
1.78108
1.77871
1.7764
1.77414
1.77193
1.76978
1.76767
1.76563
1.76366
1.76177
1.75999
1.75831
1.75676
1.75534
1.75407
1.75294
1.75196
1.75114
1.75047
1.74995
1.74957
1.74932
1.7492
1.74919
1.74926
1.74942
1.74963
1.74987
1.75013
1.75038
1.7506
1.75079
1.75092
1.75098
1.85809
1.85829
1.85867
1.85925
1.86002
1.86099
1.86214
1.86349
1.86502
1.86674
1.86863
1.87069
1.87292
1.8753
1.87784
1.88053
1.88336
1.88633
1.88944
1.89268
1.89605
1.89955
1.90317
1.9069
1.91074
1.91465
1.91863
1.92265
1.92669
1.93072
1.93471
1.93863
1.94244
1.94612
1.94962
1.95293
1.95602
1.95885
1.96141
1.96366
1.9656
1.96721
1.96847
1.96936
1.96989
1.97003
1.96978
1.96914
1.96811
1.96668
1.96486
1.96265
1.96005
1.95707
1.95373
1.95002
1.94597
1.9416
1.93692
1.93195
1.92672
1.92126
1.91561
1.90978
1.90383
1.89779
1.89171
1.88562
1.87957
1.87361
1.86777
1.86209
1.85661
1.85136
1.84635
1.84162
1.83715
1.83296
1.82903
1.82537
1.82194
1.81873
1.81572
1.81287
1.81017
1.8076
1.80513
1.80275
1.80044
1.7982
1.79602
1.7939
1.79184
1.78986
1.78795
1.78613
1.78441
1.78279
1.78129
1.77991
1.77866
1.77755
1.77658
1.77575
1.77505
1.77449
1.77406
1.77374
1.77354
1.77344
1.77343
1.77348
1.77359
1.77373
1.77389
1.77406
1.77421
1.77433
1.77442
1.77447
1.8821
1.88228
1.88265
1.8832
1.88393
1.88484
1.88594
1.88721
1.88866
1.89028
1.89207
1.89402
1.89612
1.89838
1.90078
1.90332
1.906
1.9088
1.91174
1.9148
1.91798
1.92127
1.92466
1.92815
1.93172
1.93536
1.93906
1.94278
1.9465
1.95021
1.95388
1.95747
1.96096
1.96432
1.96752
1.97054
1.97334
1.97592
1.97823
1.98027
1.98202
1.98346
1.98457
1.98535
1.98578
1.98586
1.98557
1.98492
1.98391
1.98253
1.98078
1.97867
1.9762
1.97338
1.97022
1.96673
1.96292
1.95881
1.95442
1.94977
1.94488
1.93978
1.9345
1.92907
1.92352
1.91789
1.91222
1.90654
1.90089
1.89531
1.88984
1.88451
1.87934
1.87437
1.86961
1.86507
1.86078
1.85672
1.85289
1.84929
1.8459
1.84272
1.83971
1.83686
1.83415
1.83157
1.82909
1.82671
1.82441
1.82219
1.82003
1.81795
1.81594
1.81401
1.81215
1.81039
1.80872
1.80715
1.80569
1.80435
1.80312
1.80203
1.80106
1.80021
1.7995
1.7989
1.79842
1.79805
1.79779
1.79761
1.79752
1.79749
1.79751
1.79757
1.79765
1.79775
1.79784
1.79792
1.79797
1.798
1.90591
1.90609
1.90644
1.90696
1.90765
1.90852
1.90955
1.91076
1.91213
1.91366
1.91535
1.91719
1.91917
1.9213
1.92357
1.92597
1.9285
1.93115
1.93392
1.9368
1.93979
1.94287
1.94605
1.94931
1.95264
1.95603
1.95945
1.96289
1.96633
1.96975
1.97311
1.97641
1.9796
1.98267
1.9856
1.98835
1.9909
1.99324
1.99534
1.99718
1.99875
2.00003
2.00101
2.00168
2.00203
2.00204
2.00173
2.00107
2.00007
1.99873
1.99706
1.99504
1.9927
1.99002
1.98704
1.98374
1.98016
1.9763
1.97218
1.96782
1.96324
1.95847
1.95354
1.94847
1.94328
1.93803
1.93273
1.92742
1.92214
1.91691
1.91178
1.90675
1.90188
1.89716
1.89263
1.8883
1.88416
1.88024
1.87652
1.873
1.86967
1.86652
1.86354
1.8607
1.858
1.85543
1.85296
1.85059
1.84831
1.84611
1.84398
1.84194
1.83997
1.83808
1.83627
1.83455
1.83292
1.8314
1.82997
1.82866
1.82746
1.82637
1.82541
1.82455
1.82382
1.82319
1.82268
1.82226
1.82194
1.8217
1.82154
1.82144
1.82139
1.82138
1.8214
1.82144
1.82148
1.82152
1.82155
1.82157
1.92956
1.92972
1.93005
1.93054
1.9312
1.93202
1.933
1.93414
1.93543
1.93688
1.93847
1.94021
1.94208
1.94409
1.94623
1.9485
1.95088
1.95338
1.95598
1.95869
1.9615
1.96439
1.96736
1.97041
1.97351
1.97665
1.97982
1.98301
1.98618
1.98933
1.99242
1.99544
1.99837
2.00118
2.00385
2.00635
2.00868
2.0108
2.0127
2.01436
2.01576
2.0169
2.01776
2.01833
2.0186
2.01856
2.01822
2.01756
2.01658
2.01528
2.01367
2.01175
2.00952
2.00698
2.00416
2.00105
1.99768
1.99405
1.99018
1.98609
1.9818
1.97734
1.97272
1.96797
1.96313
1.95821
1.95325
1.94828
1.94333
1.93843
1.93359
1.92886
1.92425
1.91978
1.91546
1.91131
1.90734
1.90355
1.89995
1.89651
1.89326
1.89016
1.88721
1.88441
1.88173
1.87918
1.87673
1.87438
1.87212
1.86995
1.86786
1.86584
1.86391
1.86206
1.8603
1.85862
1.85703
1.85554
1.85415
1.85286
1.85168
1.8506
1.84964
1.84878
1.84803
1.84738
1.84683
1.84637
1.84601
1.84572
1.8455
1.84534
1.84523
1.84517
1.84513
1.84512
1.84512
1.84513
1.84514
1.84514
1.95303
1.95319
1.9535
1.95397
1.95459
1.95536
1.95629
1.95736
1.95858
1.95995
1.96145
1.96309
1.96486
1.96675
1.96877
1.9709
1.97314
1.97549
1.97794
1.98049
1.98312
1.98583
1.9886
1.99144
1.99433
1.99725
2.00019
2.00313
2.00606
2.00896
2.0118
2.01458
2.01726
2.01983
2.02226
2.02454
2.02666
2.02858
2.03029
2.03179
2.03304
2.03405
2.0348
2.03528
2.03548
2.0354
2.03502
2.03436
2.0334
2.03214
2.0306
2.02876
2.02664
2.02424
2.02156
2.01863
2.01545
2.01203
2.0084
2.00456
2.00054
1.99635
1.99202
1.98758
1.98304
1.97843
1.97379
1.96913
1.96448
1.95986
1.95531
1.95084
1.94648
1.94223
1.93812
1.93415
1.93034
1.92669
1.9232
1.91986
1.91668
1.91364
1.91075
1.90799
1.90535
1.90282
1.9004
1.89808
1.89585
1.8937
1.89165
1.88967
1.88778
1.88596
1.88424
1.8826
1.88104
1.87959
1.87822
1.87696
1.87579
1.87472
1.87376
1.8729
1.87213
1.87146
1.87089
1.8704
1.86999
1.86966
1.8694
1.86919
1.86903
1.86892
1.86884
1.86879
1.86876
1.86874
1.86873
1.86873
1.97635
1.9765
1.9768
1.97724
1.97782
1.97855
1.97943
1.98044
1.98159
1.98288
1.98429
1.98584
1.9875
1.98929
1.99119
1.99319
1.9953
1.99751
1.99981
2.0022
2.00466
2.00719
2.00978
2.01243
2.01511
2.01782
2.02054
2.02327
2.02597
2.02864
2.03125
2.0338
2.03626
2.0386
2.04083
2.04291
2.04482
2.04656
2.04811
2.04945
2.05057
2.05146
2.05211
2.05251
2.05264
2.05252
2.05212
2.05146
2.05051
2.0493
2.04781
2.04606
2.04404
2.04176
2.03923
2.03646
2.03346
2.03024
2.02682
2.02321
2.01943
2.0155
2.01144
2.00727
2.00302
1.9987
1.99434
1.98996
1.98559
1.98124
1.97695
1.97272
1.96858
1.96455
1.96063
1.95684
1.95318
1.94966
1.94629
1.94305
1.93995
1.93699
1.93415
1.93144
1.92884
1.92636
1.92397
1.92168
1.91949
1.91738
1.91535
1.91341
1.91156
1.90978
1.90809
1.90648
1.90496
1.90353
1.9022
1.90095
1.8998
1.89874
1.89778
1.89692
1.89614
1.89546
1.89486
1.89434
1.8939
1.89354
1.89323
1.89299
1.89279
1.89264
1.89253
1.89244
1.89238
1.89234
1.89232
1.89231
1.99953
1.99966
1.99994
2.00036
2.00091
2.0016
2.00243
2.00338
2.00447
2.00568
2.00701
2.00846
2.01003
2.01171
2.0135
2.01538
2.01736
2.01944
2.02159
2.02383
2.02613
2.02849
2.03091
2.03337
2.03587
2.03838
2.0409
2.04342
2.04591
2.04837
2.05078
2.05311
2.05536
2.05751
2.05953
2.06143
2.06317
2.06474
2.06614
2.06734
2.06833
2.06911
2.06967
2.06999
2.07007
2.06991
2.06949
2.06882
2.0679
2.06673
2.0653
2.06362
2.06169
2.05953
2.05713
2.05452
2.05168
2.04865
2.04543
2.04203
2.03848
2.03479
2.03097
2.02706
2.02306
2.019
2.0149
2.01078
2.00666
2.00257
1.99851
1.99451
1.99059
1.98675
1.98302
1.97939
1.97588
1.9725
1.96924
1.9661
1.96309
1.9602
1.95743
1.95478
1.95223
1.94979
1.94745
1.9452
1.94304
1.94097
1.93898
1.93707
1.93525
1.93351
1.93185
1.93028
1.92879
1.92739
1.92607
1.92485
1.92371
1.92267
1.92171
1.92084
1.92006
1.91936
1.91875
1.91821
1.91774
1.91735
1.91701
1.91673
1.91651
1.91632
1.91618
1.91607
1.91598
1.91593
1.91589
1.91587
2.02256
2.02269
2.02295
2.02334
2.02387
2.02452
2.02529
2.02619
2.02721
2.02835
2.02961
2.03097
2.03245
2.03403
2.0357
2.03747
2.03933
2.04128
2.0433
2.04539
2.04754
2.04974
2.052
2.05429
2.0566
2.05894
2.06127
2.06359
2.06589
2.06816
2.07037
2.07251
2.07457
2.07653
2.07838
2.0801
2.08168
2.0831
2.08435
2.08543
2.08631
2.08699
2.08746
2.08771
2.08774
2.08755
2.08711
2.08645
2.08554
2.08441
2.08303
2.08142
2.07959
2.07753
2.07526
2.07278
2.07011
2.06725
2.06421
2.06101
2.05767
2.05419
2.05061
2.04692
2.04316
2.03934
2.03549
2.0316
2.02772
2.02385
2.02002
2.01623
2.01251
2.00886
2.00529
2.00183
1.99846
1.9952
1.99206
1.98903
1.98611
1.9833
1.9806
1.97801
1.97552
1.97312
1.97083
1.96862
1.9665
1.96447
1.96252
1.96065
1.95886
1.95716
1.95554
1.95399
1.95253
1.95116
1.94986
1.94866
1.94754
1.9465
1.94555
1.94468
1.94389
1.94319
1.94256
1.942
1.94152
1.94109
1.94073
1.94043
1.94017
1.93996
1.9398
1.93966
1.93956
1.93949
1.93944
1.93942
2.04546
2.04558
2.04583
2.0462
2.04669
2.0473
2.04803
2.04888
2.04984
2.05091
2.05209
2.05338
2.05476
2.05624
2.05782
2.05948
2.06122
2.06304
2.06493
2.06688
2.06889
2.07095
2.07305
2.07517
2.07732
2.07948
2.08164
2.08379
2.08591
2.08799
2.09002
2.09199
2.09387
2.09566
2.09735
2.09891
2.10034
2.10162
2.10275
2.10371
2.10448
2.10507
2.10547
2.10566
2.10565
2.10542
2.10497
2.10431
2.10342
2.10232
2.101
2.09946
2.09771
2.09575
2.0936
2.09125
2.08872
2.08602
2.08315
2.08013
2.07698
2.07371
2.07033
2.06687
2.06333
2.05973
2.05609
2.05243
2.04876
2.04511
2.04148
2.03788
2.03435
2.03087
2.02747
2.02416
2.02093
2.0178
2.01477
2.01184
2.00901
2.00628
2.00366
2.00113
1.9987
1.99636
1.99411
1.99195
1.98988
1.98789
1.98598
1.98415
1.9824
1.98073
1.97913
1.97762
1.97619
1.97484
1.97357
1.97238
1.97127
1.97025
1.9693
1.96843
1.96765
1.96693
1.96629
1.96572
1.96522
1.96478
1.9644
1.96407
1.9638
1.96357
1.96338
1.96323
1.96311
1.96303
1.96297
1.96294
2.06823
2.06835
2.06858
2.06893
2.06939
2.06997
2.07065
2.07145
2.07235
2.07336
2.07447
2.07568
2.07698
2.07837
2.07984
2.0814
2.08303
2.08473
2.0865
2.08832
2.09019
2.09211
2.09406
2.09604
2.09803
2.10003
2.10203
2.10401
2.10597
2.10788
2.10975
2.11155
2.11327
2.11491
2.11644
2.11786
2.11915
2.12031
2.12131
2.12216
2.12285
2.12335
2.12368
2.12382
2.12376
2.1235
2.12305
2.12238
2.12152
2.12045
2.11918
2.1177
2.11603
2.11417
2.11212
2.1099
2.1075
2.10495
2.10224
2.09939
2.09642
2.09334
2.09015
2.08688
2.08354
2.08015
2.07672
2.07326
2.06979
2.06633
2.06289
2.05948
2.05612
2.05281
2.04957
2.0464
2.0433
2.0403
2.03738
2.03455
2.03181
2.02917
2.02662
2.02416
2.02179
2.01951
2.01731
2.0152
2.01317
2.01122
2.00935
2.00756
2.00585
2.00421
2.00265
2.00117
1.99977
1.99844
1.99719
1.99602
1.99493
1.99391
1.99297
1.99211
1.99132
1.99061
1.98996
1.98938
1.98886
1.98841
1.98801
1.98767
1.98737
1.98712
1.98692
1.98676
1.98663
1.98653
1.98647
1.98644
2.09089
2.091
2.09122
2.09155
2.09198
2.09252
2.09317
2.09392
2.09476
2.09571
2.09675
2.09788
2.0991
2.1004
2.10178
2.10324
2.10477
2.10636
2.10801
2.10971
2.11145
2.11324
2.11505
2.11689
2.11874
2.12059
2.12243
2.12426
2.12606
2.12782
2.12953
2.13118
2.13276
2.13425
2.13564
2.13693
2.1381
2.13913
2.14003
2.14079
2.14138
2.14182
2.14208
2.14216
2.14207
2.14179
2.14132
2.14067
2.13982
2.13878
2.13756
2.13614
2.13455
2.13277
2.13083
2.12872
2.12645
2.12403
2.12147
2.11878
2.11597
2.11306
2.11005
2.10697
2.10381
2.10061
2.09737
2.0941
2.09082
2.08754
2.08428
2.08104
2.07784
2.07469
2.07159
2.06856
2.06559
2.0627
2.05989
2.05716
2.05452
2.05196
2.04949
2.0471