/*--------------------------------*- C++ -*----------------------------------*\
| =========                 |                                                 |
| \\      /  F ield         | OpenFOAM: The Open Source CFD Toolbox           |
|  \\    /   O peration     | Version:  2406                                  |
|   \\  /    A nd           | Website:  www.openfoam.com                      |
|    \\/     M anipulation  |                                                 |
\*---------------------------------------------------------------------------*/
FoamFile
{
    version     2.0;
    format      ascii;
    arch        "LSB;label=32;scalar=64";
    class       volScalarField;
    location    "3.45";
    object      C;
}
// * * * * * * * * * * * * * * * * * * * * * * * * * * * * * * * * * * * * * //

dimensions      [1 -3 0 0 0 0 0];

internalField   nonuniform List<scalar> 
14400
(
0.57695
0.563695
0.54505
0.527477
0.513101
0.503009
0.497839
0.497967
0.503584
0.514709
0.531185
0.552631
0.578271
0.606311
0.629736
0.640467
0.640125
0.627046
0.604739
0.582828
0.564893
0.552427
0.546285
0.547065
0.555242
0.571218
0.595355
0.627969
0.669305
0.719428
0.777907
0.842383
0.894512
0.928962
0.956292
0.980358
1.00158
1.02028
1.03672
1.0511
1.06357
1.07425
1.08325
1.09065
1.0965
1.10086
1.10377
1.10524
1.10529
1.10394
1.10116
1.09696
1.0913
1.08416
1.07548
1.06521
1.05327
1.03958
1.02402
1.00644
0.986688
0.964535
0.939713
0.91188
0.880581
0.835283
0.770734
0.704378
0.644686
0.593133
0.549845
0.514587
0.487027
0.466827
0.453688
0.447361
0.447649
0.4544
0.467495
0.486826
0.51225
0.543504
0.579978
0.619699
0.650198
0.666827
0.676362
0.680561
0.679597
0.673318
0.660186
0.634434
0.600951
0.570173
0.543986
0.523021
0.507472
0.497258
0.492051
0.491247
0.493904
0.498632
0.503486
0.505985
0.503995
0.49968
0.49555
0.493581
0.495192
0.501362
0.512736
0.529687
0.552351
0.580594
0.61384
0.650211
0.678525
0.694084
0.703198
0.707627
0.590898
0.579013
0.559265
0.54053
0.525251
0.514529
0.508978
0.508971
0.514693
0.526156
0.543189
0.565393
0.591909
0.620587
0.641634
0.649817
0.649835
0.640513
0.619337
0.596255
0.57735
0.564161
0.557512
0.557991
0.566066
0.582136
0.606549
0.639612
0.681555
0.73239
0.79137
0.854611
0.901313
0.932745
0.959556
0.983202
1.0041
1.02255
1.03879
1.05301
1.06535
1.07593
1.08485
1.09219
1.09799
1.10232
1.1052
1.10666
1.10671
1.10535
1.10259
1.09841
1.09279
1.08569
1.07707
1.06687
1.05503
1.04145
1.02602
1.00863
0.989086
0.967204
0.942724
0.915322
0.88458
0.844024
0.784388
0.716988
0.656333
0.603999
0.560077
0.524314
0.496367
0.475902
0.46262
0.456275
0.456669
0.463653
0.477108
0.49692
0.522936
0.554849
0.591838
0.630948
0.658041
0.6727
0.681699
0.685722
0.684913
0.679196
0.668163
0.646494
0.613872
0.582617
0.555851
0.534463
0.518722
0.508596
0.50381
0.503811
0.50773
0.514247
0.521344
0.525651
0.521845
0.515275
0.509346
0.506104
0.5069
0.512639
0.523911
0.541037
0.564103
0.592893
0.626556
0.661896
0.685979
0.699365
0.707885
0.712055
0.613049
0.605972
0.586921
0.566338
0.549417
0.537519
0.531237
0.530969
0.536904
0.549033
0.567136
0.590759
0.618639
0.646043
0.660767
0.666759
0.667293
0.662075
0.646242
0.622435
0.602069
0.58759
0.579978
0.579873
0.587755
0.604016
0.628976
0.662907
0.706005
0.758246
0.818421
0.873858
0.911431
0.940321
0.965986
0.988796
1.00906
1.02702
1.04288
1.05679
1.06889
1.07928
1.08805
1.09526
1.10097
1.10522
1.10805
1.10948
1.10952
1.10818
1.10544
1.10131
1.09575
1.08874
1.08024
1.07018
1.05852
1.04516
1.03001
1.01295
0.993827
0.972471
0.948656
0.922103
0.892437
0.85782
0.807707
0.741214
0.679412
0.625729
0.580616
0.543871
0.515164
0.494171
0.480603
0.474218
0.474824
0.482271
0.496435
0.517195
0.544365
0.577583
0.615713
0.650751
0.671335
0.683941
0.692014
0.695715
0.695135
0.69028
0.681089
0.666082
0.639404
0.607301
0.579459
0.557263
0.541133
0.531148
0.527147
0.528654
0.534933
0.5448
0.556219
0.562643
0.556705
0.545789
0.536487
0.530865
0.530136
0.535067
0.546169
0.56365
0.587483
0.617299
0.65173
0.680674
0.697877
0.709377
0.716921
0.720653
0.640005
0.636939
0.625586
0.604143
0.585286
0.571867
0.564542
0.563903
0.570159
0.583262
0.602819
0.628281
0.656936
0.675458
0.684154
0.689157
0.690297
0.687579
0.679583
0.660456
0.638766
0.622647
0.613687
0.612754
0.620361
0.636922
0.662687
0.697821
0.742338
0.795641
0.853182
0.894467
0.924296
0.951124
0.975269
0.996937
1.01632
1.0336
1.04891
1.06239
1.07414
1.08425
1.09279
1.09982
1.1054
1.10955
1.11231
1.11369
1.11372
1.11239
1.10969
1.10563
1.10017
1.09329
1.08495
1.07511
1.0637
1.05067
1.03591
1.01933
1.0008
0.980195
0.957327
0.931998
0.903974
0.873019
0.834073
0.776904
0.713865
0.658374
0.611615
0.573466
0.543642
0.521861
0.507862
0.501415
0.502332
0.510461
0.525666
0.547791
0.576525
0.611097
0.648692
0.674218
0.688986
0.699713
0.7067
0.709988
0.709634
0.705698
0.698276
0.687587
0.670398
0.642631
0.614325
0.591178
0.574486
0.564624
0.561678
0.565151
0.574381
0.587663
0.598969
0.602107
0.599361
0.588584
0.575839
0.567236
0.564514
0.568354
0.579291
0.597277
0.621993
0.652163
0.681898
0.701052
0.713727
0.723343
0.72977
0.732982
0.669993
0.668064
0.664113
0.652104
0.632084
0.617299
0.608647
0.607554
0.614222
0.628568
0.649495
0.676003
0.694521
0.704209
0.711014
0.715416
0.717159
0.71629
0.713195
0.704314
0.686193
0.669041
0.658525
0.656598
0.663858
0.680864
0.707677
0.74424
0.790158
0.843482
0.884076
0.913328
0.940036
0.964609
0.987029
1.00736
1.02569
1.04214
1.05678
1.06972
1.08103
1.09079
1.09904
1.10585
1.11125
1.11527
1.11794
1.11927
1.11928
1.11796
1.11532
1.11134
1.10601
1.09929
1.09117
1.0816
1.07052
1.05789
1.04362
1.02765
1.00987
0.990178
0.968459
0.944586
0.918442
0.889944
0.859064
0.817575
0.758458
0.701778
0.653256
0.613388
0.58211
0.559284
0.544711
0.538173
0.539489
0.548505
0.565036
0.588885
0.619437
0.654812
0.682646
0.698597
0.710358
0.719226
0.725084
0.727904
0.727715
0.724602
0.718728
0.710386
0.700074
0.683473
0.659203
0.635628
0.618293
0.608404
0.606722
0.612188
0.623759
0.634135
0.638237
0.638375
0.638561
0.63489
0.625083
0.614091
0.60935
0.611883
0.622786
0.641326
0.666362
0.692202
0.710444
0.722468
0.732633
0.7405
0.745834
0.748522
0.701911
0.700766
0.698724
0.695497
0.686236
0.672633
0.662653
0.661225
0.668239
0.683757
0.703861
0.719067
0.727779
0.734626
0.740276
0.744336
0.746631
0.747226
0.746429
0.744754
0.737947
0.725477
0.713872
0.711079
0.717874
0.735543
0.763518
0.801012
0.845854
0.881859
0.908744
0.933991
0.95791
0.980246
1.00088
1.01978
1.03696
1.05247
1.06635
1.07867
1.08948
1.09882
1.10674
1.11329
1.11848
1.12234
1.1249
1.12617
1.12615
1.12486
1.12228
1.1184
1.11322
1.10671
1.09884
1.08959
1.0789
1.06674
1.05305
1.03778
1.02084
1.00219
0.981743
0.959447
0.935264
0.909212
0.881393
0.851819
0.811187
0.755529
0.705675
0.663937
0.63089
0.606777
0.591499
0.584836
0.586612
0.596679
0.614673
0.64031
0.671522
0.698083
0.714048
0.725289
0.734622
0.74175
0.746508
0.748827
0.748719
0.746267
0.741647
0.735147
0.727205
0.718396
0.705254
0.688271
0.67105
0.660876
0.660634
0.666872
0.672525
0.674929
0.67459
0.674588
0.674905
0.675574
0.673616
0.66852
0.663
0.664025
0.675145
0.69342
0.71162
0.726053
0.736291
0.745736
0.753836
0.76019
0.764543
0.766751
0.734972
0.734367
0.733344
0.732263
0.731335
0.727137
0.722918
0.722352
0.728731
0.738855
0.748604
0.754761
0.76064
0.76624
0.771128
0.775019
0.777804
0.779555
0.780538
0.781195
0.78214
0.780307
0.776672
0.774558
0.780667
0.799298
0.82767
0.859387
0.887995
0.910963
0.933704
0.955981
0.977368
0.997584
1.01646
1.03391
1.0499
1.06442
1.07749
1.08914
1.09939
1.10828
1.11583
1.12207
1.12703
1.13072
1.13316
1.13435
1.13431
1.13304
1.13053
1.12678
1.12176
1.11548
1.1079
1.099
1.08876
1.07712
1.06407
1.04956
1.03354
1.01599
0.996878
0.976192
0.953957
0.930248
0.905216
0.879113
0.852033
0.815476
0.767993
0.725087
0.690082
0.664543
0.648505
0.641672
0.64388
0.655096
0.674175
0.700468
0.722108
0.735833
0.745335
0.75389
0.76109
0.766644
0.77037
0.772179
0.772065
0.770101
0.766445
0.761352
0.755187
0.748427
0.74167
0.733572
0.724089
0.716643
0.713976
0.713989
0.712882
0.711326
0.710605
0.71048
0.710896
0.711923
0.713816
0.715366
0.715892
0.719262
0.727565
0.73796
0.747053
0.754956
0.762918
0.770348
0.776785
0.78188
0.785397
0.787189
0.768638
0.768388
0.76802
0.767796
0.768088
0.769412
0.77082
0.772609
0.776462
0.780577
0.784346
0.788907
0.793777
0.798568
0.802976
0.80681
0.810009
0.812653
0.814971
0.817337
0.820282
0.824513
0.82917
0.83411
0.843849
0.860444
0.880545
0.900585
0.919468
0.93917
0.959128
0.978861
0.997996
1.01626
1.03347
1.04951
1.06431
1.07783
1.09006
1.101
1.11067
1.11907
1.12622
1.13214
1.13685
1.14035
1.14265
1.14377
1.14371
1.14246
1.14003
1.1364
1.13158
1.12555
1.11828
1.10977
1.09999
1.08893
1.07655
1.06284
1.04778
1.03136
1.01358
0.994486
0.974123
0.952606
0.930111
0.906895
0.883315
0.859712
0.829943
0.794711
0.758659
0.732193
0.71562
0.708548
0.710787
0.722838
0.740482
0.754641
0.763859
0.770747
0.777569
0.783846
0.789203
0.793365
0.796148
0.797453
0.797262
0.795627
0.79268
0.788629
0.783762
0.778443
0.773088
0.768126
0.76386
0.759545
0.755225
0.751262
0.748563
0.746888
0.746023
0.745832
0.746275
0.747406
0.749377
0.752418
0.7568
0.761672
0.766645
0.771696
0.777519
0.78379
0.790074
0.795955
0.801074
0.805149
0.807974
0.809419
0.802554
0.802524
0.802554
0.802811
0.803517
0.80489
0.806964
0.809617
0.812219
0.815232
0.818749
0.822741
0.826995
0.831277
0.835397
0.839235
0.842769
0.846078
0.849355
0.852903
0.85713
0.862542
0.869699
0.87924
0.890726
0.903552
0.917556
0.933085
0.94975
0.967121
0.984777
1.00234
1.01949
1.03599
1.05165
1.06635
1.07999
1.09252
1.10391
1.11414
1.12321
1.13111
1.13785
1.14343
1.14787
1.15117
1.15334
1.15437
1.15428
1.15306
1.15072
1.14723
1.14261
1.13684
1.12991
1.12181
1.11252
1.10204
1.09036
1.07747
1.06337
1.04808
1.03162
1.01404
0.995443
0.975942
0.955725
0.935043
0.914222
0.893671
0.87388
0.852573
0.829082
0.80674
0.790661
0.783248
0.783647
0.788324
0.794111
0.797585
0.801296
0.805728
0.810347
0.814722
0.818513
0.821465
0.823403
0.824225
0.823901
0.822465
0.820018
0.81672
0.812791
0.808494
0.804112
0.799899
0.795996
0.792282
0.788702
0.78558
0.783221
0.781639
0.780767
0.780549
0.780965
0.782047
0.783867
0.786504
0.789965
0.793963
0.798187
0.802677
0.807536
0.81261
0.817635
0.822323
0.826408
0.829667
0.831932
0.833093
0.8365
0.836601
0.83686
0.837378
0.838279
0.839667
0.84156
0.843881
0.846461
0.849381
0.852677
0.856315
0.860183
0.864149
0.868098
0.871966
0.875753
0.879535
0.883469
0.887788
0.892793
0.898826
0.906228
0.915247
0.925772
0.937541
0.950442
0.964443
0.979323
0.994787
1.01052
1.02623
1.04164
1.05656
1.0708
1.08424
1.09678
1.10836
1.11893
1.12845
1.13691
1.1443
1.15062
1.15587
1.16003
1.16313
1.16515
1.1661
1.16599
1.1648
1.16254
1.1592
1.15479
1.14929
1.1427
1.13502
1.12624
1.11636
1.10538
1.09331
1.08016
1.06596
1.05076
1.03463
1.01766
0.999993
0.981804
0.963329
0.94486
0.926747
0.909403
0.893305
0.878878
0.864492
0.852171
0.844015
0.839944
0.837429
0.835861
0.836281
0.83801
0.840522
0.843369
0.846181
0.848661
0.850579
0.851773
0.852143
0.851652
0.850315
0.848206
0.845443
0.842188
0.83863
0.834965
0.831364
0.827935
0.824704
0.821718
0.819134
0.817103
0.815678
0.814859
0.814631
0.81499
0.815951
0.817539
0.819766
0.822591
0.825871
0.829456
0.83329
0.837337
0.841478
0.845532
0.849294
0.852567
0.855179
0.856995
0.857927
0.870345
0.870521
0.870906
0.87156
0.872554
0.873939
0.875728
0.877887
0.880361
0.883153
0.886262
0.889658
0.893274
0.897037
0.900882
0.904778
0.908741
0.912839
0.917196
0.921988
0.927427
0.933743
0.94114
0.949746
0.959535
0.970396
0.982226
0.994922
1.00831
1.02218
1.03629
1.0504
1.0643
1.0778
1.09076
1.10303
1.11454
1.12521
1.13498
1.14381
1.15168
1.15858
1.16448
1.16937
1.17327
1.17616
1.17803
1.1789
1.17876
1.1776
1.17544
1.17225
1.16805
1.16283
1.15659
1.14934
1.14106
1.13178
1.12149
1.11022
1.09799
1.08485
1.07084
1.05605
1.04058
1.02456
1.00817
0.99161
0.975141
0.959054
0.943677
0.929356
0.916407
0.905046
0.895416
0.887394
0.881152
0.876966
0.874547
0.873669
0.873943
0.874979
0.876425
0.877973
0.879371
0.880417
0.880966
0.880924
0.880247
0.878938
0.877047
0.874658
0.871888
0.868873
0.865755
0.862657
0.859677
0.85688
0.854333
0.852135
0.850377
0.849112
0.848359
0.848125
0.848413
0.849228
0.850571
0.852431
0.854761
0.857474
0.860476
0.86369
0.867045
0.870434
0.873721
0.876755
0.879387
0.881485
0.882944
0.883692
0.904015
0.90423
0.904682
0.905405
0.906436
0.907807
0.909526
0.911578
0.913942
0.916608
0.919562
0.922779
0.92622
0.929842
0.933613
0.937523
0.941594
0.945884
0.95049
0.955541
0.961185
0.967577
0.974843
0.983061
0.992227
1.00228
1.01314
1.02471
1.03683
1.04934
1.06205
1.07478
1.08735
1.09959
1.11138
1.1226
1.13314
1.14295
1.15197
1.16014
1.16744
1.17384
1.17933
1.18389
1.18751
1.19019
1.19193
1.19271
1.19254
1.19142
1.18935
1.18632
1.18233
1.17739
1.1715
1.16467
1.15689
1.14819
1.13858
1.12809
1.11675
1.1046
1.09171
1.07816
1.06405
1.04951
1.0347
1.0198
1.00504
0.99065
0.976896
0.964035
0.952301
0.941869
0.932852
0.925278
0.91922
0.914733
0.911691
0.909905
0.909112
0.909028
0.909378
0.909917
0.910432
0.910752
0.91075
0.910338
0.909472
0.908145
0.906386
0.904254
0.901832
0.899221
0.896522
0.893833
0.891237
0.888804
0.8866
0.884697
0.883159
0.882032
0.881341
0.881098
0.881309
0.881975
0.883087
0.884625
0.886547
0.88879
0.891282
0.89395
0.896717
0.899491
0.902163
0.904618
0.90674
0.90843
0.909604
0.910205
0.937468
0.937704
0.938187
0.938939
0.93998
0.941328
0.942989
0.944957
0.947223
0.949774
0.952598
0.955676
0.958984
0.962499
0.966206
0.970107
0.974226
0.978612
0.983338
0.988498
0.994197
1.00053
1.0076
1.01543
1.02403
1.03336
1.04336
1.05393
1.06495
1.07629
1.0878
1.09933
1.11072
1.12184
1.13258
1.14282
1.15248
1.1615
1.1698
1.17734
1.18409
1.19002
1.19511
1.19934
1.2027
1.20518
1.20677
1.20747
1.20728
1.2062
1.20422
1.20134
1.19757
1.19291
1.18736
1.18094
1.17365
1.16552
1.15656
1.14681
1.1363
1.12509
1.11323
1.10082
1.08794
1.07473
1.06131
1.04786
1.03456
1.02161
1.00922
0.997586
0.986891
0.977279
0.968845
0.961645
0.955716
0.951055
0.94758
0.945149
0.943573
0.942641
0.942144
0.941883
0.941686
0.94141
0.940943
0.940208
0.939159
0.937784
0.936097
0.934138
0.931967
0.929655
0.927279
0.924916
0.922634
0.920498
0.918565
0.916893
0.915531
0.914516
0.913873
0.913617
0.913751
0.914275
0.915177
0.916435
0.918011
0.919856
0.921911
0.92411
0.926383
0.92865
0.930823
0.932812
0.934527
0.93589
0.936835
0.93732
0.970685
0.970929
0.971425
0.972183
0.973216
0.974535
0.976144
0.97804
0.980217
0.982667
0.98538
0.988342
0.99154
0.994963
0.998605
1.00247
1.00659
1.011
1.01575
1.02092
1.02657
1.03277
1.03958
1.04702
1.0551
1.06378
1.073
1.0827
1.09276
1.10308
1.11354
1.12401
1.13436
1.14448
1.15427
1.16363
1.17248
1.18075
1.18838
1.19533
1.20156
1.20704
1.21175
1.21566
1.21876
1.22105
1.2225
1.22313
1.22292
1.22187
1.21998
1.21725
1.21369
1.2093
1.20409
1.19807
1.19126
1.18367
1.17534
1.16628
1.15656
1.14622
1.13532
1.12394
1.11218
1.10014
1.08796
1.07577
1.06374
1.05202
1.04078
1.0302
1.0204
1.01151
1.00361
0.996743
0.990943
0.986191
0.982424
0.979537
0.977388
0.975821
0.974672
0.973785
0.97302
0.972258
0.971405
0.97039
0.969172
0.967734
0.966079
0.964235
0.962242
0.960152
0.958024
0.955916
0.953886
0.951988
0.95027
0.948779
0.947554
0.946627
0.94602
0.945744
0.945804
0.946198
0.946912
0.947926
0.949207
0.950713
0.952395
0.954196
0.956054
0.957902
0.959668
0.961279
0.962666
0.963766
0.964529
0.964919
1.00366
1.0039
1.0044
1.00515
1.00617
1.00745
1.00901
1.01084
1.01294
1.0153
1.01791
1.02077
1.02387
1.02721
1.03078
1.03459
1.03867
1.04304
1.04776
1.05285
1.05839
1.0644
1.07093
1.07799
1.08557
1.09365
1.10218
1.11109
1.12031
1.12973
1.13926
1.1488
1.15823
1.16746
1.17639
1.18495
1.19305
1.20063
1.20765
1.21404
1.21978
1.22484
1.22918
1.23279
1.23564
1.23774
1.23907
1.23962
1.23939
1.23838
1.23658
1.234
1.23064
1.22652
1.22163
1.216
1.20964
1.20257
1.19482
1.18643
1.17744
1.1679
1.15788
1.14745
1.13669
1.12571
1.11461
1.10353
1.09259
1.08194
1.0717
1.06202
1.053
1.04475
1.03732
1.03078
1.02512
1.02034
1.01639
1.01319
1.01062
1.00858
1.00694
1.00556
1.00435
1.0032
1.00203
1.00078
0.999407
0.997899
0.996252
0.994481
0.992613
0.990688
0.988748
0.986839
0.985007
0.983296
0.981748
0.980398
0.97928
0.97842
0.977834
0.977534
0.977524
0.977799
0.978347
0.979149
0.980177
0.981395
0.98276
0.984225
0.985736
0.987236
0.988668
0.989971
0.991091
0.991979
0.992594
0.992909
1.03639
1.03663
1.03712
1.03786
1.03885
1.0401
1.04161
1.04337
1.0454
1.04767
1.0502
1.05296
1.05597
1.05922
1.0627
1.06644
1.07045
1.07475
1.07937
1.08435
1.08972
1.09551
1.10174
1.10842
1.11554
1.12307
1.13097
1.13919
1.14765
1.15628
1.16499
1.17369
1.1823
1.19073
1.19889
1.20672
1.21414
1.22109
1.22753
1.23341
1.23869
1.24334
1.24734
1.25066
1.25329
1.25521
1.25641
1.25689
1.25665
1.25567
1.25396
1.25152
1.24836
1.24449
1.23992
1.23465
1.22872
1.22215
1.21495
1.20718
1.19887
1.19008
1.18085
1.17128
1.16142
1.15138
1.14125
1.13114
1.12117
1.11144
1.10207
1.09318
1.08484
1.07716
1.07017
1.06392
1.05842
1.05366
1.04961
1.04619
1.04334
1.04095
1.03893
1.03719
1.03562
1.03416
1.03273
1.03128
1.02978
1.0282
1.02655
1.02482
1.02304
1.02124
1.01944
1.01768
1.01601
1.01444
1.01303
1.01179
1.01075
1.00994
1.00936
1.00904
1.00896
1.00913
1.00953
1.01015
1.01096
1.01193
1.01303
1.01421
1.01543
1.01664
1.01779
1.01885
1.01975
1.02046
1.02096
1.02121
1.06887
1.06911
1.06959
1.07031
1.07127
1.07248
1.07394
1.07565
1.0776
1.0798
1.08224
1.08492
1.08783
1.09098
1.09438
1.09803
1.10194
1.10613
1.11063
1.11546
1.12064
1.12619
1.13211
1.13842
1.1451
1.15212
1.15945
1.16703
1.17482
1.18274
1.19072
1.19868
1.20655
1.21426
1.22173
1.22889
1.23569
1.24207
1.24798
1.25338
1.25823
1.26251
1.26618
1.26923
1.27164
1.27339
1.27448
1.27489
1.27463
1.27369
1.27207
1.26977
1.2668
1.26317
1.25889
1.25398
1.24845
1.24234
1.23567
1.22847
1.22079
1.21267
1.20418
1.19538
1.18634
1.17714
1.16787
1.15862
1.14949
1.14057
1.13197
1.12377
1.11604
1.10886
1.10227
1.09631
1.09098
1.08629
1.08218
1.07864
1.07558
1.07294
1.07065
1.06862
1.06679
1.06508
1.06345
1.06184
1.06023
1.05859
1.05692
1.05522
1.0535
1.05178
1.05009
1.04845
1.04689
1.04544
1.04413
1.04297
1.04199
1.04121
1.04064
1.04029
1.04015
1.04022
1.04049
1.04095
1.04158
1.04234
1.04321
1.04415
1.04513
1.0461
1.04703
1.04787
1.0486
1.04917
1.04957
1.04977
1.10111
1.10135
1.10181
1.10251
1.10345
1.10462
1.10603
1.10768
1.10957
1.11169
1.11404
1.11663
1.11945
1.12251
1.1258
1.12934
1.13314
1.13721
1.14156
1.14622
1.15119
1.15648
1.1621
1.16805
1.17431
1.18086
1.18766
1.19468
1.20186
1.20914
1.21646
1.22376
1.23097
1.23803
1.24487
1.25143
1.25766
1.26351
1.26893
1.27389
1.27835
1.28227
1.28564
1.28844
1.29064
1.29224
1.29322
1.29357
1.2933
1.29239
1.29085
1.28868
1.2859
1.2825
1.2785
1.27392
1.26877
1.26309
1.2569
1.25024
1.24314
1.23565
1.22783
1.21973
1.21142
1.20297
1.19447
1.18598
1.1776
1.1694
1.16147
1.15388
1.1467
1.13997
1.13375
1.12807
1.12292
1.11831
1.11421
1.11059
1.10741
1.1046
1.1021
1.09987
1.09783
1.09594
1.09414
1.0924
1.0907
1.089
1.08731
1.08563
1.08395
1.0823
1.08069
1.07914
1.07767
1.07631
1.07507
1.07397
1.07304
1.07228
1.07171
1.07132
1.07112
1.07111
1.07127
1.07159
1.07206
1.07264
1.07332
1.07406
1.07483
1.0756
1.07634
1.07701
1.07759
1.07805
1.07837
1.07853
1.13313
1.13335
1.1338
1.13448
1.13539
1.13652
1.13788
1.13947
1.14129
1.14334
1.14561
1.14811
1.15084
1.15379
1.15698
1.1604
1.16408
1.168
1.17219
1.17666
1.18141
1.18644
1.19177
1.19737
1.20324
1.20935
1.21567
1.22216
1.22879
1.2355
1.24223
1.24893
1.25555
1.26202
1.26828
1.2743
1.28001
1.28538
1.29035
1.2949
1.29899
1.30259
1.30568
1.30825
1.31026
1.31171
1.31258
1.31288
1.31259
1.31172
1.31026
1.30822
1.3056
1.30242
1.29869
1.29442
1.28963
1.28435
1.27861
1.27244
1.26587
1.25896
1.25174
1.24428
1.23664
1.22887
1.22104
1.21324
1.20552
1.19796
1.19063
1.18358
1.17689
1.17058
1.16471
1.15928
1.15432
1.14981
1.14575
1.14211
1.13885
1.13593
1.1333
1.13092
1.12873
1.12669
1.12477
1.12293
1.12115
1.11941
1.11771
1.11603
1.11438
1.11278
1.11122
1.10974
1.10834
1.10704
1.10586
1.10482
1.10392
1.10317
1.10259
1.10217
1.10192
1.10183
1.10189
1.10209
1.10242
1.10285
1.10336
1.10393
1.10453
1.10514
1.10572
1.10625
1.10671
1.10707
1.10732
1.10745
1.16491
1.16513
1.16557
1.16622
1.1671
1.16819
1.16951
1.17104
1.17279
1.17476
1.17695
1.17936
1.18199
1.18484
1.18792
1.19122
1.19475
1.19853
1.20255
1.20682
1.21134
1.21612
1.22115
1.22642
1.23192
1.23762
1.2435
1.24952
1.25564
1.26183
1.26803
1.27419
1.28026
1.2862
1.29195
1.29747
1.30271
1.30763
1.3122
1.31637
1.32012
1.32342
1.32626
1.3286
1.33043
1.33174
1.33253
1.33277
1.33248
1.33164
1.33025
1.32833
1.32588
1.3229
1.31942
1.31544
1.31098
1.30608
1.30075
1.29503
1.28896
1.28257
1.2759
1.26902
1.26197
1.25481
1.24761
1.24041
1.23328
1.22629
1.21949
1.21294
1.20669
1.20076
1.1952
1.19003
1.18526
1.18088
1.17688
1.17325
1.16996
1.16697
1.16426
1.16177
1.15947
1.15734
1.15532
1.15341
1.15157
1.14979
1.14807
1.1464
1.14477
1.1432
1.14169
1.14026
1.13891
1.13766
1.13653
1.13551
1.13463
1.13389
1.1333
1.13285
1.13255
1.13239
1.13236
1.13246
1.13267
1.13297
1.13335
1.13378
1.13423
1.1347
1.13515
1.13556
1.13592
1.1362
1.1364
1.1365
1.19648
1.19669
1.19711
1.19775
1.19859
1.19964
1.20091
1.20239
1.20407
1.20597
1.20808
1.2104
1.21293
1.21567
1.21863
1.2218
1.22519
1.22881
1.23265
1.23672
1.24102
1.24555
1.25029
1.25525
1.2604
1.26572
1.27119
1.27677
1.28244
1.28815
1.29386
1.29953
1.30512
1.31058
1.31586
1.32092
1.32573
1.33025
1.33443
1.33826
1.3417
1.34473
1.34732
1.34946
1.35113
1.35231
1.35301
1.35321
1.3529
1.3521
1.35079
1.34898
1.34667
1.34389
1.34064
1.33693
1.33278
1.32823
1.32328
1.31798
1.31236
1.30644
1.30029
1.29393
1.28742
1.28081
1.27415
1.2675
1.26091
1.25443
1.24811
1.24201
1.23615
1.23058
1.22532
1.22039
1.2158
1.21155
1.20764
1.20405
1.20076
1.19775
1.19498
1.19243
1.19006
1.18785
1.18577
1.1838
1.18192
1.18012
1.17839
1.17671
1.17511
1.17356
1.17209
1.17069
1.16938
1.16817
1.16707
1.16608
1.16521
1.16447
1.16386
1.16338
1.16304
1.16282
1.16272
1.16273
1.16283
1.16302
1.16328
1.16359
1.16393
1.16427
1.16462
1.16493
1.16521
1.16542
1.16558
1.16565
1.22784
1.22804
1.22845
1.22906
1.22987
1.23088
1.2321
1.23352
1.23514
1.23697
1.23899
1.24122
1.24365
1.24628
1.24912
1.25216
1.25541
1.25887
1.26253
1.2664
1.27048
1.27476
1.27923
1.28388
1.2887
1.29367
1.29876
1.30394
1.30919
1.31447
1.31974
1.32497
1.33011
1.33512
1.33998
1.34463
1.34904
1.35319
1.35703
1.36054
1.36369
1.36646
1.36883
1.37078
1.3723
1.37337
1.37399
1.37414
1.37383
1.37306
1.37182
1.37011
1.36795
1.36535
1.36231
1.35885
1.355
1.35076
1.34617
1.34125
1.33604
1.33057
1.32487
1.31899
1.31297
1.30686
1.3007
1.29454
1.28843
1.28241
1.27652
1.27082
1.26533
1.26008
1.2551
1.2504
1.246
1.2419
1.23808
1.23455
1.23129
1.22828
1.22549
1.2229
1.22049
1.21824
1.21612
1.21411
1.2122
1.21038
1.20864
1.20697
1.20537
1.20385
1.2024
1.20104
1.19976
1.19858
1.19749
1.19652
1.19566
1.19492
1.19429
1.19379
1.1934
1.19313
1.19296
1.19289
1.19291
1.19301
1.19317
1.19337
1.19361
1.19386
1.19411
1.19434
1.19455
1.19471
1.19483
1.19488
1.25899
1.25919
1.25958
1.26016
1.26094
1.26192
1.26309
1.26445
1.26601
1.26776
1.26971
1.27184
1.27417
1.27669
1.27941
1.28232
1.28542
1.28871
1.2922
1.29587
1.29973
1.30377
1.30798
1.31235
1.31686
1.32149
1.32623
1.33104
1.33591
1.34079
1.34566
1.35048
1.35522
1.35983
1.3643
1.36857
1.37263
1.37643
1.37996
1.38318
1.38607
1.3886
1.39077
1.39255
1.39392
1.39489
1.39543
1.39555
1.39523
1.39448
1.39331
1.3917
1.38968
1.38724
1.3844
1.38118
1.37759
1.37365
1.36939
1.36482
1.35999
1.35491
1.34964
1.34419
1.33861
1.33295
1.32724
1.32153
1.31585
1.31025
1.30476
1.29942
1.29427
1.28932
1.2846
1.28012
1.27591
1.27194
1.26824
1.26479
1.26157
1.25858
1.25579
1.2532
1.25077
1.24849
1.24634
1.24432
1.24239
1.24056
1.23882
1.23715
1.23557
1.23406
1.23264
1.23129
1.23004
1.22888
1.22781
1.22685
1.22599
1.22524
1.2246
1.22407
1.22365
1.22333
1.2231
1.22297
1.22292
1.22293
1.22301
1.22312
1.22327
1.22344
1.22361
1.22378
1.22393
1.22405
1.22413
1.22417
1.28995
1.29014
1.29052
1.29108
1.29183
1.29276
1.29388
1.29519
1.29668
1.29836
1.30022
1.30227
1.3045
1.30691
1.3095
1.31228
1.31523
1.31837
1.32168
1.32516
1.32881
1.33261
1.33657
1.34067
1.34489
1.34921
1.35363
1.3581
1.36261
1.36713
1.37163
1.37608
1.38045
1.3847
1.38881
1.39274
1.39646
1.39996
1.40319
1.40614
1.40879
1.41111
1.41309
1.41471
1.41596
1.41682
1.4173
1.41738
1.41706
1.41634
1.41523
1.41371
1.41181
1.40953
1.40688
1.40388
1.40053
1.39687
1.3929
1.38866
1.38417
1.37946
1.37457
1.36952
1.36435
1.35909
1.35379
1.34848
1.34319
1.33797
1.33284
1.32784
1.32299
1.31832
1.31385
1.30959
1.30555
1.30174
1.29815
1.29478
1.29162
1.28867
1.28591
1.28332
1.28089
1.27861
1.27646
1.27442
1.27249
1.27066
1.26892
1.26726
1.26569
1.26419
1.26279
1.26146
1.26023
1.25908
1.25803
1.25707
1.25622
1.25546
1.25481
1.25425
1.2538
1.25343
1.25316
1.25297
1.25285
1.2528
1.2528
1.25284
1.25292
1.25302
1.25313
1.25324
1.25333
1.25342
1.25347
1.2535
1.32073
1.32091
1.32126
1.3218
1.32252
1.32342
1.32449
1.32574
1.32717
1.32878
1.33056
1.33251
1.33464
1.33695
1.33942
1.34206
1.34487
1.34785
1.35098
1.35428
1.35772
1.36131
1.36503
1.36887
1.37281
1.37685
1.38096
1.38512
1.3893
1.39349
1.39765
1.40176
1.40579
1.40971
1.41349
1.41711
1.42053
1.42374
1.42671
1.42942
1.43184
1.43396
1.43577
1.43724
1.43837
1.43915
1.43956
1.43961
1.43929
1.4386
1.43754
1.43611
1.43433
1.43219
1.42972
1.42691
1.42379
1.42038
1.41669
1.41275
1.40858
1.4042
1.39966
1.39497
1.39016
1.38528
1.38035
1.3754
1.37047
1.3656
1.3608
1.3561
1.35154
1.34713
1.34289
1.33884
1.33497
1.3313
1.32783
1.32456
1.32148
1.31858
1.31585
1.31329
1.31087
1.3086
1.30645
1.30442
1.30249
1.30066
1.29893
1.29728
1.29572
1.29424
1.29285
1.29154
1.29032
1.28919
1.28815
1.2872
1.28634
1.28558
1.28491
1.28433
1.28385
1.28345
1.28313
1.28289
1.28272
1.28261
1.28255
1.28253
1.28255
1.28259
1.28264
1.2827
1.28276
1.28281
1.28285
1.28287
1.35132
1.35149
1.35183
1.35235
1.35304
1.35389
1.35492
1.35612
1.35748
1.35902
1.36072
1.36259
1.36462
1.36681
1.36916
1.37168
1.37434
1.37716
1.38013
1.38324
1.38649
1.38987
1.39336
1.39696
1.40065
1.40442
1.40824
1.41211
1.41599
1.41987
1.42372
1.42752
1.43124
1.43485
1.43834
1.44167
1.44482
1.44777
1.45049
1.45297
1.45519
1.45713
1.45878
1.46012
1.46114
1.46183
1.46219
1.46221
1.46189
1.46122
1.46022
1.45887
1.4572
1.45519
1.45288
1.45026
1.44735
1.44417
1.44073
1.43706
1.43318
1.42912
1.42489
1.42053
1.41606
1.41151
1.40692
1.40231
1.39771
1.39314
1.38865
1.38424
1.37994
1.37577
1.37175
1.36789
1.36419
1.36067
1.35732
1.35415
1.35115
1.34831
1.34563
1.3431
1.34072
1.33846
1.33633
1.3343
1.33239
1.33057
1.32885
1.32722
1.32567
1.32421
1.32283
1.32154
1.32033
1.31921
1.31817
1.31723
1.31637
1.3156
1.31492
1.31432
1.31381
1.31338
1.31303
1.31274
1.31253
1.31236
1.31225
1.31218
1.31215
1.31214
1.31215
1.31217
1.31219
1.31222
1.31224
1.31225
1.38174
1.3819
1.38223
1.38272
1.38338
1.3842
1.38518
1.38632
1.38763
1.38909
1.39071
1.39249
1.39442
1.39651
1.39875
1.40113
1.40366
1.40633
1.40914
1.41208
1.41514
1.41831
1.42159
1.42496
1.42841
1.43192
1.43549
1.43908
1.44269
1.44629
1.44985
1.45336
1.45679
1.46013
1.46334
1.4664
1.4693
1.47201
1.47451
1.47679
1.47882
1.48059
1.4821
1.48331
1.48423
1.48485
1.48516
1.48515
1.48483
1.48419
1.48323
1.48196
1.48039
1.47851
1.47634
1.47389
1.47118
1.46821
1.46501
1.46159
1.45798
1.45419
1.45025
1.44619
1.44203
1.43779
1.43351
1.4292
1.4249
1.42063
1.41641
1.41226
1.40821
1.40427
1.40045
1.39677
1.39324
1.38986
1.38664
1.38357
1.38065
1.37788
1.37526
1.37278
1.37043
1.3682
1.36609
1.36409
1.36219
1.36039
1.35868
1.35707
1.35554
1.35409
1.35273
1.35145
1.35025
1.34914
1.34811
1.34717
1.34631
1.34553
1.34484
1.34423
1.3437
1.34324
1.34285
1.34253
1.34228
1.34207
1.34192
1.3418
1.34173
1.34168
1.34165
1.34163
1.34163
1.34163
1.34163
1.34164
1.41199
1.41215
1.41247
1.41294
1.41356
1.41434
1.41528
1.41637
1.41761
1.41901
1.42055
1.42224
1.42408
1.42606
1.42819
1.43045
1.43284
1.43537
1.43802
1.44079
1.44366
1.44665
1.44972
1.45288
1.4561
1.45938
1.4627
1.46605
1.46939
1.47273
1.47603
1.47928
1.48245
1.48553
1.48849
1.49131
1.49398
1.49647
1.49876
1.50085
1.50271
1.50433
1.5057
1.5068
1.50763
1.50818
1.50844
1.50841
1.50809
1.50747
1.50656
1.50536
1.50388
1.50212
1.50009
1.49779
1.49526
1.49249
1.4895
1.48631
1.48294
1.47941
1.47574
1.47196
1.46807
1.46412
1.46012
1.45609
1.45206
1.44806
1.44409
1.44019
1.43637
1.43264
1.42902
1.42551
1.42214
1.4189
1.41579
1.41283
1.41
1.40731
1.40475
1.40232
1.40001
1.39782
1.39574
1.39377
1.39189
1.39011
1.38843
1.38683
1.38532
1.38389
1.38254
1.38127
1.38009
1.37899
1.37797
1.37703
1.37617
1.37539
1.37468
1.37406
1.37351
1.37302
1.37261
1.37226
1.37197
1.37173
1.37154
1.37139
1.37127
1.37119
1.37113
1.37109
1.37106
1.37104
1.37103
1.37103
1.44209
1.44224
1.44254
1.44299
1.44359
1.44433
1.44522
1.44626
1.44745
1.44877
1.45024
1.45185
1.45359
1.45547
1.45749
1.45963
1.46189
1.46428
1.46678
1.46938
1.47209
1.47489
1.47777
1.48073
1.48374
1.4868
1.48989
1.493
1.49611
1.49921
1.50226
1.50527
1.5082
1.51104
1.51377
1.51637
1.51883
1.52111
1.52322
1.52514
1.52684
1.52832
1.52956
1.53056
1.53131
1.5318
1.53201
1.53196
1.53164
1.53105
1.53018
1.52905
1.52765
1.52599
1.52409
1.52194
1.51957
1.51698
1.51419
1.51122
1.50807
1.50478
1.50135
1.49782
1.49419
1.4905
1.48675
1.48298
1.47921
1.47545
1.47172
1.46804
1.46443
1.4609
1.45746
1.45413
1.4509
1.4478
1.44481
1.44195
1.43922
1.43661
1.43412
1.43174
1.42948
1.42733
1.42529
1.42335
1.4215
1.41975
1.41808
1.41651
1.41501
1.4136
1.41227
1.41102
1.40985
1.40875
1.40774
1.4068
1.40594
1.40516
1.40445
1.40381
1.40324
1.40274
1.40231
1.40193
1.40161
1.40134
1.40112
1.40094
1.40079
1.40068
1.40059
1.40052
1.40048
1.40044
1.40042
1.40041
1.47204
1.47219
1.47247
1.4729
1.47347
1.47417
1.47502
1.47601
1.47713
1.47839
1.47979
1.48131
1.48297
1.48475
1.48666
1.48868
1.49082
1.49307
1.49543
1.49788
1.50042
1.50305
1.50575
1.50852
1.51133
1.51419
1.51707
1.51996
1.52285
1.52572
1.52855
1.53133
1.53404
1.53667
1.53918
1.54158
1.54384
1.54594
1.54788
1.54963
1.55119
1.55254
1.55367
1.55458
1.55525