/*--------------------------------*- C++ -*----------------------------------*\
| =========                 |                                                 |
| \\      /  F ield         | OpenFOAM: The Open Source CFD Toolbox           |
|  \\    /   O peration     | Version:  2406                                  |
|   \\  /    A nd           | Website:  www.openfoam.com                      |
|    \\/     M anipulation  |                                                 |
\*---------------------------------------------------------------------------*/
FoamFile
{
    version     2.0;
    format      ascii;
    arch        "LSB;label=32;scalar=64";
    class       volScalarField;
    location    "4.7";
    object      C_0;
}
// * * * * * * * * * * * * * * * * * * * * * * * * * * * * * * * * * * * * * //

dimensions      [1 -3 0 0 0 0 0];

internalField   nonuniform List<scalar> 
14400
(
0.350049
0.346368
0.340609
0.334328
0.328701
0.324548
0.32241
0.322616
0.325328
0.330559
0.338174
0.347856
0.359043
0.370781
0.381407
0.387846
0.383985
0.375272
0.365065
0.355455
0.34774
0.342774
0.341161
0.343368
0.349791
0.360796
0.376742
0.397995
0.424933
0.45794
0.49737
0.543475
0.596172
0.653831
0.702685
0.735737
0.760928
0.783029
0.802393
0.819296
0.83395
0.846525
0.857153
0.865938
0.872964
0.878293
0.881972
0.884034
0.8845
0.883379
0.880666
0.876346
0.870393
0.862767
0.853412
0.842258
0.829216
0.814171
0.796983
0.777476
0.755427
0.730555
0.702364
0.660426
0.601874
0.544407
0.492596
0.447268
0.408348
0.375504
0.348343
0.326473
0.309541
0.297244
0.289327
0.285588
0.285875
0.290075
0.298111
0.309928
0.325476
0.344678
0.367373
0.393169
0.420895
0.445323
0.459698
0.465224
0.46467
0.456708
0.439034
0.416733
0.395502
0.376591
0.360453
0.347257
0.336997
0.329534
0.324605
0.321829
0.320713
0.32068
0.321134
0.321595
0.321875
0.322208
0.323117
0.325235
0.329182
0.335496
0.344611
0.356851
0.37243
0.391439
0.413813
0.439213
0.466447
0.489367
0.502153
0.507398
0.364293
0.359084
0.351804
0.344335
0.337856
0.333131
0.330653
0.330723
0.333486
0.338953
0.346995
0.357325
0.369438
0.382478
0.394879
0.402739
0.398322
0.387569
0.375747
0.364988
0.35646
0.350921
0.348918
0.350887
0.357205
0.368229
0.384309
0.405805
0.433093
0.466545
0.506499
0.55315
0.606241
0.6637
0.709007
0.739271
0.764017
0.785765
0.804855
0.821543
0.83603
0.848472
0.858995
0.867698
0.874661
0.879942
0.883588
0.88563
0.886088
0.88497
0.882272
0.87798
0.872067
0.864495
0.855211
0.844147
0.831217
0.816314
0.799303
0.780017
0.75825
0.733738
0.706147
0.667739
0.612299
0.553939
0.501304
0.455311
0.415833
0.38252
0.35497
0.332791
0.315628
0.303176
0.295181
0.291441
0.291803
0.296157
0.304427
0.316558
0.332502
0.352181
0.375428
0.401836
0.430149
0.45352
0.466013
0.471304
0.471095
0.464916
0.449057
0.426657
0.404966
0.385585
0.36907
0.355629
0.345274
0.337878
0.333184
0.330799
0.330198
0.330726
0.331651
0.332306
0.332379
0.332233
0.332575
0.334177
0.337731
0.343807
0.352849
0.365175
0.380985
0.40035
0.423161
0.448981
0.476337
0.497235
0.507844
0.512643
0.393312
0.38433
0.373934
0.364184
0.356094
0.350283
0.34716
0.346973
0.349842
0.355766
0.364627
0.376168
0.389949
0.405151
0.419819
0.426436
0.423714
0.4111
0.396665
0.383881
0.373861
0.367244
0.364496
0.366006
0.372125
0.383191
0.399541
0.421525
0.449505
0.483841
0.524842
0.572594
0.626291
0.68097
0.71929
0.746286
0.770104
0.79116
0.809719
0.825993
0.840153
0.852337
0.862657
0.8712
0.878038
0.883227
0.886808
0.888811
0.889252
0.888141
0.885472
0.881234
0.8754
0.867935
0.85879
0.847902
0.835193
0.820565
0.803896
0.785041
0.763816
0.739994
0.713288
0.680267
0.631298
0.572359
0.518588
0.471432
0.43089
0.396655
0.368334
0.345539
0.327913
0.315151
0.307
0.303258
0.303772
0.308434
0.317169
0.329924
0.346652
0.367268
0.391567
0.418984
0.447618
0.467925
0.477978
0.482882
0.483155
0.478877
0.467577
0.446365
0.423896
0.403609
0.38635
0.37242
0.361875
0.354618
0.350405
0.348836
0.349333
0.351113
0.353147
0.354304
0.353843
0.352573
0.351656
0.352156
0.35489
0.360479
0.369372
0.381871
0.398145
0.418215
0.441865
0.468328
0.494462
0.510371
0.518591
0.522686
0.429032
0.419973
0.406093
0.393471
0.383264
0.37598
0.37197
0.371437
0.374472
0.381057
0.391065
0.404232
0.420133
0.437658
0.451396
0.454538
0.453602
0.443743
0.427046
0.411867
0.399908
0.391822
0.388029
0.388888
0.394727
0.405867
0.422629
0.445341
0.474343
0.509958
0.552464
0.60184
0.65638
0.700939
0.731178
0.756395
0.778954
0.799052
0.816867
0.832556
0.846253
0.858068
0.868094
0.876406
0.883065
0.88812
0.891607
0.893552
0.89397
0.892868
0.890243
0.886082
0.880364
0.873054
0.864111
0.853479
0.841088
0.826855
0.810677
0.792434
0.771978
0.749136
0.723701
0.695273
0.655539
0.599181
0.544486
0.495777
0.453708
0.41812
0.388656
0.364939
0.346618
0.333391
0.325004
0.321257
0.322
0.327122
0.336552
0.350236
0.368121
0.390109
0.415926
0.444656
0.471531
0.486472
0.494659
0.499089
0.499761
0.496787
0.490154
0.47493
0.4521
0.430664
0.412349
0.397704
0.386874
0.379825
0.376353
0.37607
0.378353
0.382308
0.386452
0.388775
0.387087
0.383687
0.380591
0.379302
0.380746
0.385586
0.394254
0.407014
0.423971
0.445053
0.46982
0.496695
0.516331
0.52674
0.533442
0.536825
0.463487
0.459628
0.446493
0.431574
0.419173
0.41019
0.405135
0.404201
0.407473
0.414898
0.426303
0.441264
0.459116
0.476784
0.484053
0.485476
0.485115
0.480889
0.465948
0.44868
0.434606
0.424799
0.419724
0.419769
0.425265
0.436523
0.45384
0.477514
0.507833
0.544995
0.589093
0.639362
0.687267
0.720214
0.745828
0.769163
0.790266
0.809225
0.82614
0.841113
0.854235
0.865588
0.875245
0.883264
0.889696
0.894581
0.897948
0.899819
0.900207
0.899119
0.896549
0.892489
0.886918
0.879807
0.871122
0.860813
0.848825
0.835089
0.819524
0.802039
0.782526
0.76087
0.736952
0.71067
0.679924
0.634917
0.579271
0.528569
0.484552
0.447217
0.416256
0.391319
0.372072
0.35822
0.349517
0.345763
0.346808
0.352545
0.362894
0.377792
0.397166
0.420865
0.448411
0.47781
0.497859
0.508118
0.515092
0.519057
0.520013
0.518086
0.513537
0.505318
0.488494
0.466545
0.447042
0.431524
0.420314
0.413532
0.411046
0.412525
0.417288
0.424523
0.432001
0.436838
0.432528
0.425785
0.419411
0.415637
0.415319
0.419162
0.42754
0.440645
0.458435
0.48062
0.505777
0.526576
0.538439
0.546239
0.551613
0.554347
0.497596
0.497006
0.491353
0.477484
0.463551
0.452812
0.446665
0.445308
0.4489
0.457297
0.470255
0.486683
0.505018
0.514335
0.516826
0.518197
0.51839
0.51744
0.510719
0.493761
0.477934
0.466364
0.459829
0.458931
0.464033
0.475464
0.493485
0.518334
0.550225
0.588974
0.633979
0.681185
0.714706
0.73956
0.762756
0.784162
0.803722
0.821441
0.837357
0.851519
0.863984
0.874805
0.884033
0.89171
0.897875
0.902558
0.905784
0.907568
0.907922
0.906849
0.904347
0.900406
0.89501
0.888136
0.879754
0.869827
0.85831
0.845152
0.830293
0.81367
0.795216
0.774866
0.752568
0.728297
0.702083
0.669229
0.621425
0.569656
0.523649
0.484311
0.451541
0.425099
0.404695
0.390062
0.38096
0.377193
0.378615
0.385114
0.396595
0.412961
0.434062
0.459603
0.488389
0.512153
0.524502
0.53266
0.538536
0.542031
0.543149
0.542006
0.53884
0.534022
0.525512
0.509905
0.490026
0.47375
0.462094
0.455619
0.454278
0.457888
0.465365
0.476202
0.483448
0.485804
0.483987
0.477344
0.467364
0.460853
0.458408
0.461096
0.469134
0.482628
0.501168
0.52363
0.542618
0.554373
0.562033
0.568164
0.572423
0.574602
0.532293
0.532009
0.531491
0.526173
0.515283
0.503303
0.496329
0.494534
0.498547
0.507834
0.522017
0.536983
0.545783
0.54857
0.550656
0.552094
0.552805
0.552817
0.552195
0.54508
0.52945
0.516616
0.508524
0.506619
0.511285
0.522963
0.541825
0.567963
0.6016
0.641238
0.683616
0.715136
0.738344
0.760524
0.781474
0.801008
0.819019
0.835462
0.850326
0.863623
0.875377
0.885616
0.89437
0.901668
0.907536
0.911994
0.915061
0.916748
0.917063
0.91601
0.913584
0.909779
0.904581
0.897973
0.889932
0.880431
0.869437
0.856914
0.842826
0.827133
0.809803
0.790811
0.770155
0.747865
0.72403
0.698808
0.665539
0.618202
0.571111
0.529787
0.494969
0.466767
0.444983
0.429414
0.419832
0.416045
0.417907
0.425308
0.438112
0.45613
0.478946
0.505597
0.530787
0.544645
0.552847
0.559485
0.564362
0.567382
0.568545
0.56795
0.565794
0.562382
0.558111
0.551084
0.53917
0.523477
0.511618
0.505556
0.505221
0.51085
0.519212
0.524418
0.526405
0.526332
0.527038
0.525648
0.52115
0.51365
0.509211
0.510877
0.518466
0.532055
0.550129
0.564713
0.57446
0.581197
0.587158
0.591959
0.595314
0.597037
0.567275
0.567215
0.567178
0.567335
0.564459
0.558911
0.552667
0.550409
0.554938
0.563973
0.572751
0.5789
0.581089
0.58321
0.585134
0.58672
0.587919
0.588771
0.589405
0.589865
0.584882
0.5747
0.565478
0.562801
0.566977
0.579021
0.59882
0.625858
0.660604
0.694433
0.721542
0.742406
0.762894
0.782718
0.80161
0.819375
0.835885
0.851061
0.864862
0.877271
0.888285
0.897911
0.906164
0.913057
0.918605
0.922822
0.925717
0.9273
0.927574
0.926541
0.9242
0.920543
0.915562
0.909243
0.901571
0.892527
0.882092
0.870243
0.856962
0.842233
0.82605
0.808421
0.789375
0.76898
0.747348
0.724656
0.701114
0.669563
0.626261
0.583856
0.546921
0.516805
0.493441
0.476806
0.466675
0.462846
0.465187
0.473605
0.487856
0.507555
0.531318
0.555033
0.568812
0.576262
0.582754
0.58807
0.592044
0.59459
0.595701
0.595453
0.594006
0.5916
0.588551
0.58525
0.58095
0.573791
0.566223
0.561202
0.560711
0.562422
0.564089
0.563443
0.562689
0.562659
0.563372
0.564837
0.56618
0.565327
0.56465
0.566406
0.57298
0.582488
0.591713
0.598181
0.603579
0.608797
0.613442
0.617201
0.619837
0.621194
0.602316
0.602399
0.602631
0.603152
0.604187
0.604665
0.603762
0.603968
0.606616
0.610395
0.612946
0.614344
0.616127
0.61805
0.619949
0.621732
0.623379
0.624945
0.626565
0.628464
0.630931
0.630218
0.627923
0.626101
0.629761
0.642356
0.66294
0.68826
0.712612
0.73346
0.751567
0.76991
0.788107
0.805845
0.822871
0.838997
0.854083
0.868036
0.880791
0.892313
0.902579
0.911581
0.919317
0.925791
0.931007
0.93497
0.937686
0.939159
0.939391
0.938382
0.936131
0.932632
0.92788
0.921866
0.914581
0.906016
0.896159
0.885004
0.872546
0.858788
0.843744
0.827446
0.809946
0.791331
0.771727
0.751312
0.730313
0.708984
0.681265
0.645305
0.60722
0.575488
0.550423
0.532695
0.52198
0.518066
0.520834
0.530283
0.545823
0.566401
0.585352
0.597069
0.603161
0.608825
0.613838
0.617996
0.621154
0.623232
0.624215
0.624156
0.623177
0.621459
0.619243
0.61681
0.614472
0.612526
0.609674
0.606713
0.604778
0.602698
0.600337
0.598915
0.598235
0.598244
0.59894
0.600352
0.602562
0.605805
0.608837
0.611966
0.61638
0.620909
0.624543
0.628627
0.632877
0.636969
0.640613
0.643565
0.64564
0.646709
0.637274
0.637434
0.637796
0.638442
0.639476
0.640964
0.642958
0.644781
0.645923
0.646722
0.647853
0.649304
0.651025
0.652913
0.65488
0.656881
0.65892
0.661064
0.663444
0.666269
0.669839
0.674583
0.67924
0.683661
0.691052
0.7031
0.718556
0.734935
0.749944
0.765289
0.781286
0.797558
0.813781
0.829682
0.845034
0.859658
0.873416
0.886206
0.897955
0.908609
0.918137
0.926516
0.933733
0.939782
0.94466
0.948365
0.950898
0.95226
0.952449
0.951466
0.949309
0.945974
0.941459
0.93576
0.928873
0.920795
0.911526
0.901067
0.889429
0.876628
0.862694
0.847672
0.831631
0.81467
0.796918
0.778551
0.759783
0.740881
0.722154
0.700046
0.672893
0.641959
0.615588
0.597147
0.585914
0.581821
0.584648
0.594604
0.609807
0.621728
0.629456
0.633611
0.637905
0.64204
0.645775
0.648922
0.651346
0.652969
0.653769
0.653779
0.653085
0.651819
0.650151
0.648275
0.646377
0.644588
0.642852
0.640997
0.638701
0.636548
0.6348
0.633645
0.633093
0.63314
0.633792
0.635068
0.636998
0.6396
0.642719
0.64612
0.649215
0.652293
0.655515
0.658908
0.662332
0.665589
0.668474
0.670808
0.672447
0.673292
0.672073
0.672266
0.672676
0.673344
0.674309
0.675581
0.677096
0.678596
0.679892
0.681095
0.682439
0.683993
0.685757
0.687697
0.689779
0.69199
0.694357
0.696947
0.699879
0.703327
0.707521
0.712738
0.719255
0.727439
0.736832
0.747024
0.757941
0.769792
0.782726
0.79646
0.810729
0.825255
0.839778
0.854067
0.867924
0.881185
0.893718
0.905419
0.916211
0.926033
0.934844
0.942613
0.949318
0.954945
0.959486
0.962933
0.965283
0.966532
0.96668
0.965724
0.963663
0.960496
0.956223
0.950842
0.944355
0.936766
0.928081
0.918311
0.907476
0.895602
0.88273
0.868916
0.854238
0.838798
0.822726
0.806189
0.789389
0.772569
0.756015
0.740068
0.72388
0.705035
0.685454
0.668246
0.656764
0.652339
0.653879
0.658252
0.663009
0.665615
0.667463
0.669981
0.672807
0.675655
0.6783
0.68057
0.682339
0.68353
0.684114
0.684107
0.683565
0.682579
0.681269
0.679762
0.678175
0.676586
0.674992
0.673343
0.671607
0.66999
0.66867
0.667773
0.667352
0.66743
0.668021
0.669132
0.67076
0.672874
0.675365
0.678071
0.680783
0.683518
0.686315
0.689158
0.691956
0.69458
0.696887
0.698746
0.700049
0.70072
0.706679
0.706882
0.707299
0.707947
0.708837
0.709956
0.711249
0.712606
0.713953
0.715327
0.716815
0.718471
0.720313
0.722339
0.724546
0.726945
0.72957
0.732488
0.735799
0.73964
0.744178
0.749594
0.756056
0.763672
0.772299
0.781749
0.791956
0.802946
0.814709
0.827096
0.839915
0.852955
0.866009
0.878884
0.89141
0.903439
0.91485
0.925542
0.935436
0.944469
0.952593
0.959772
0.96598
0.971195
0.975405
0.978597
0.980766
0.981906
0.982014
0.981087
0.979124
0.976126
0.972093
0.967029
0.960939
0.953832
0.94572
0.936621
0.92656
0.915573
0.903708
0.891026
0.877608
0.863556
0.848999
0.83409
0.819015
0.80399
0.789264
0.77512
0.76187
0.749893
0.738085
0.726479
0.717103
0.711248
0.708451
0.706632
0.7047
0.704226
0.704791
0.706044
0.707686
0.709472
0.711201
0.712718
0.713909
0.714698
0.715051
0.71497
0.714487
0.713665
0.712583
0.711327
0.709977
0.708588
0.707186
0.705777
0.704393
0.703136
0.702116
0.701423
0.701111
0.701208
0.70173
0.702678
0.704037
0.705769
0.707797
0.710017
0.712325
0.714683
0.717071
0.719451
0.721755
0.723888
0.725748
0.72724
0.728282
0.728819
0.741082
0.741283
0.74169
0.742308
0.743135
0.744157
0.745337
0.746625
0.74799
0.749443
0.751023
0.752764
0.754685
0.756801
0.759123
0.761673
0.76449
0.767635
0.771189
0.775256
0.779955
0.785405
0.791703
0.798893
0.806924
0.815709
0.825188
0.835326
0.846067
0.857301
0.86888
0.880642
0.892418
0.90405
0.915392
0.926313
0.936701
0.946464
0.955522
0.963813
0.971287
0.977904
0.983633
0.988451
0.99234
0.995286
0.997279
0.998313
0.998383
0.997485
0.99562
0.992789
0.988994
0.984242
0.978541
0.971903
0.964345
0.955891
0.946571
0.936424
0.925502
0.913871
0.901611
0.888821
0.875623
0.862157
0.848591
0.835112
0.821931
0.809276
0.797381
0.786466
0.776633
0.768101
0.760703
0.754362
0.749205
0.745499
0.743073
0.741798
0.74143
0.741716
0.742422
0.743345
0.744315
0.745194
0.745879
0.746302
0.746423
0.746233
0.745749
0.745011
0.744071
0.742987
0.741816
0.740605
0.739386
0.738188
0.737051
0.736043
0.735237
0.734694
0.73446
0.734562
0.735013
0.735812
0.736942
0.738369
0.740037
0.741876
0.743818
0.745817
0.747833
0.749822
0.751724
0.753467
0.754978
0.756183
0.757022
0.757454
0.775283
0.775479
0.775871
0.776459
0.77724
0.778199
0.779317
0.780568
0.781938
0.783432
0.78507
0.786874
0.788864
0.791056
0.79347
0.796133
0.799083
0.802372
0.806065
0.810241
0.814982
0.820368
0.826457
0.833273
0.840795
0.848974
0.85776
0.867102
0.876933
0.88716
0.897663
0.908313
0.918972
0.929507
0.939794
0.949718
0.959179
0.968089
0.976375
0.983975
0.990838
0.996923
1.0022
1.00664
1.01022
1.01293
1.01475
1.01568
1.01572
1.01485
1.01308
1.01042
1.00685
1.0024
0.99708
0.990894
0.983868
0.976028
0.967408
0.958049
0.948006
0.937344
0.926142
0.914495
0.902513
0.890326
0.87808
0.865937
0.854073
0.84267
0.831911
0.821954
0.812916
0.804894
0.79788
0.791867
0.786909
0.783074
0.780295
0.778464
0.777416
0.776968
0.776942
0.777172
0.777518
0.777862
0.778114
0.778208
0.778105
0.777789
0.777267
0.776559
0.775701
0.774733
0.773697
0.772629
0.771565
0.770536
0.769581
0.76875
0.768093
0.767656
0.767473
0.767567
0.767948
0.768614
0.76955
0.770728
0.772104
0.77363
0.775255
0.776933
0.778623
0.780279
0.78185
0.783281
0.784513
0.785491
0.786171
0.786519
0.809289
0.809478
0.809855
0.810419
0.811165
0.812084
0.813163
0.814391
0.815761
0.817277
0.818952
0.8208
0.822839
0.825089
0.827569
0.830307
0.833338
0.836705
0.840459
0.84466
0.849365
0.854627
0.860483
0.866948
0.874009
0.881632
0.889776
0.898389
0.907404
0.916741
0.9263
0.935974
0.945649
0.955213
0.964559
0.973587
0.982206
0.990338
0.997913
1.00487
1.01117
1.01675
1.0216
1.02568
1.02897
1.03145
1.03312
1.03395
1.03395
1.03312
1.03144
1.02894
1.0256
1.02144
1.01648
1.01073
1.0042
0.996945
0.988982
0.980359
0.97113
0.961358
0.95112
0.940502
0.929609
0.918553
0.907465
0.896482
0.885752
0.875423
0.865638
0.856525
0.848182
0.840681
0.834054
0.828316
0.823492
0.819591
0.81657
0.814346
0.812801
0.811799
0.811204
0.810884
0.810724
0.810624
0.810505
0.81031
0.809999
0.809553
0.808968
0.808258
0.807442
0.806548
0.805608
0.804651
0.803708
0.802809
0.801988
0.801283
0.80073
0.800363
0.800209
0.800285
0.800598
0.801147
0.801917
0.802887
0.804023
0.805287
0.806638
0.808038
0.809446
0.81082
0.812118
0.813294
0.814301
0.815098
0.815651
0.815933
0.843106
0.843289
0.843653
0.844197
0.844917
0.845807
0.846861
0.848072
0.849439
0.850965
0.852659
0.854534
0.856605
0.85889
0.86141
0.864188
0.867256
0.870649
0.874408
0.878574
0.88319
0.888291
0.893901
0.900027
0.906659
0.91377
0.921324
0.929272
0.937555
0.946099
0.954822
0.963633
0.972437
0.981137
0.989642
0.997864
1.00572
1.01314
1.02007
1.02644
1.0322
1.03732
1.04177
1.04551
1.04853
1.0508
1.05231
1.05306
1.05303
1.05222
1.05064
1.04829
1.04517
1.04129
1.03667
1.03132
1.02528
1.01856
1.01122
1.00328
0.994796
0.985839
0.976475
0.966787
0.956865
0.946814
0.936744
0.926776
0.91703
0.907631
0.898695
0.890325
0.882604
0.875596
0.869338
0.863852
0.859151
0.855228
0.852049
0.849549
0.847641
0.846224
0.84519
0.844436
0.843868
0.843404
0.842974
0.842528
0.842028
0.841454
0.840797
0.840061
0.839259
0.83841
0.837535
0.836659
0.835807
0.835004
0.83428
0.833662
0.83318
0.832857
0.832715
0.832765
0.833014
0.833457
0.834086
0.834879
0.835813
0.836855
0.837974
0.839135
0.840301
0.841438
0.842509
0.843474
0.844299
0.84495
0.8454
0.84563
0.876741
0.876918
0.877271
0.877799
0.878498
0.879367
0.880401
0.881598
0.882957
0.884484
0.886185
0.888072
0.890157
0.892458
0.894991
0.89778
0.90085
0.904229
0.907948
0.912039
0.916531
0.921447
0.926803
0.9326
0.938829
0.945466
0.952478
0.959822
0.967443
0.975278
0.983257
0.9913
0.999328
1.00726
1.01501
1.0225
1.02967
1.03645
1.04278
1.0486
1.05388
1.05857
1.06264
1.06607
1.06883
1.0709
1.07227
1.07293
1.07288
1.0721
1.07061
1.0684
1.06549
1.06188
1.05758
1.05262
1.04703
1.04082
1.03404
1.02673
1.01894
1.01073
1.00216
0.993304
0.984252
0.975093
0.965923
0.956845
0.947962
0.939377
0.931185
0.923474
0.916314
0.90976
0.90385
0.898604
0.894031
0.890122
0.886849
0.884161
0.881992
0.880264
0.878895
0.877803
0.87691
0.876148
0.87546
0.874799
0.874132
0.873437
0.872704
0.871931
0.871125
0.870297
0.869463
0.868643
0.867855
0.867122
0.866465
0.865907
0.86547
0.865172
0.865027
0.865047
0.865233
0.865584
0.866088
0.866732
0.867493
0.868348
0.869268
0.870225
0.871187
0.872123
0.873004
0.873796
0.874471
0.875003
0.87537
0.875557
0.910198
0.91037
0.910714
0.911228
0.911911
0.912762
0.913778
0.91496
0.916308
0.917828
0.919526
0.921411
0.923495
0.925791
0.928318
0.931092
0.934134
0.937467
0.941116
0.945102
0.949446
0.954164
0.959263
0.964742
0.97059
0.976787
0.983301
0.990093
0.997116
1.00431
1.01163
1.01898
1.02632
1.03356
1.04063
1.04747
1.05402
1.06021
1.06599
1.07131
1.07614
1.08044
1.08416
1.08729
1.08981
1.0917
1.09294
1.09352
1.09345
1.0927
1.0913
1.08923
1.08651
1.08314
1.07916
1.07456
1.06938
1.06365
1.0574
1.05067
1.04351
1.03597
1.02812
1.02002
1.01175
1.00338
0.99501
0.986718
0.978596
0.970728
0.963196
0.956073
0.949419
0.943282
0.937696
0.932682
0.928246
0.924381
0.921062
0.918253
0.915901
0.913946
0.912325
0.91097
0.90982
0.908819
0.907917
0.907076
0.906263
0.905459
0.904651
0.903835
0.903012
0.90219
0.901379
0.900594
0.899849
0.899163
0.898551
0.898031
0.89762
0.897332
0.897177
0.897162
0.897289
0.897555
0.897952
0.898466
0.899081
0.899775
0.900526
0.901309
0.902097
0.902865
0.903586
0.904234
0.904786
0.90522
0.905519
0.905672
0.943484
0.943651
0.943987
0.944489
0.945157
0.945991
0.94699
0.948155
0.949489
0.950995
0.952679
0.954551
0.956619
0.958896
0.961396
0.964134
0.967127
0.970391
0.973946
0.977807
0.981989
0.986499
0.991342
0.996515
1.002
1.00779
1.01385
1.02013
1.02661
1.03324
1.03995
1.04669
1.0534
1.06002
1.06648
1.07273
1.07871
1.08437
1.08966
1.09453
1.09894
1.10287
1.10627
1.10914
1.11143
1.11315
1.11427
1.11478
1.11468
1.11397
1.11264
1.11071
1.10817
1.10504
1.10134
1.09708
1.09229
1.08699
1.08123
1.07503
1.06845
1.06153
1.05433
1.04691
1.03933
1.03168
1.02402
1.01642
1.00897
1.00174
0.994798
0.988201
0.982006
0.976252
0.970971
0.966182
0.961891
0.958092
0.954767
0.951887
0.949412
0.947296
0.945486
0.943932
0.942582
0.94139
0.940316
0.939323
0.938386
0.937485
0.936606
0.935744
0.934898
0.93407
0.933269
0.932504
0.931786
0.931129
0.930544
0.930047
0.929648
0.929359
0.929186
0.929135
0.929206
0.929396
0.929698
0.9301
0.930588
0.931146
0.931752
0.932387
0.933029
0.933654
0.934241
0.934769
0.935218
0.935571
0.935815
0.935939
0.976601
0.976765
0.977092
0.977583
0.978237
0.979054
0.980036
0.981182
0.982497
0.983983
0.985646
0.987493
0.989534
0.991778
0.994236
0.996922
0.999847
1.00303
1.00647
1.01019
1.0142
1.0185
1.02309
1.02797
1.03312
1.03852
1.04416
1.04998
1.05597
1.06207
1.06824
1.07443
1.08058
1.08664
1.09255
1.09827
1.10373
1.10891
1.11374
1.11819
1.12223
1.12582
1.12893
1.13154
1.13363
1.13519
1.1362
1.13664
1.13653
1.13584
1.13459
1.13278
1.13042
1.12751
1.12408
1.12013
1.1157
1.11081
1.10549
1.09979
1.09373
1.08737
1.08076
1.07395
1.067
1.05998
1.05296
1.04598
1.03913
1.03247
1.02605
1.01993
1.01415
1.00875
1.00376
0.999184
0.995043
0.991329
0.988028
0.985117
0.982566
0.980338
0.978393
0.976689
0.975186
0.973845
0.972631
0.971515
0.970473
0.969488
0.968545
0.967638
0.966765
0.965925
0.965123
0.964366
0.963662
0.963021
0.962451
0.961964
0.961567
0.961268
0.961074
0.960986
0.961004
0.961125
0.961343
0.961648
0.962027
0.962467
0.96295
0.963459
0.963976
0.964481
0.964956
0.965383
0.965747
0.966033
0.96623
0.96633
1.00955
1.00971
1.01003
1.01051
1.01115
1.01195
1.01292
1.01404
1.01533
1.01679
1.01843
1.02024
1.02225
1.02445
1.02685
1.02947
1.03231
1.03539
1.03872
1.04229
1.04612
1.05021
1.05456
1.05915
1.06398
1.06903
1.07427
1.07967
1.08521
1.09084
1.09652
1.1022
1.10784
1.1134
1.11881
1.12405
1.12905
1.13378
1.1382
1.14227
1.14597
1.14924
1.15209
1.15447
1.15637
1.15778
1.15869
1.15907
1.15894
1.15829
1.15711
1.15542
1.15321
1.15051
1.14732
1.14367
1.13957
1.13505
1.13015
1.12489
1.11931
1.11346
1.10738
1.10113
1.09475
1.0883
1.08184
1.07542
1.06911
1.06295
1.05701
1.05132
1.04592
1.04084
1.03612
1.03176
1.02777
1.02415
1.0209
1.01799
1.0154
1.0131
1.01106
1.00925
1.00763
1.00617
1.00485
1.00363
1.0025
1.00145
1.00045
0.999499
0.998597
0.997741
0.996933
0.996176
0.995476
0.994841
0.994276
0.993789
0.993387
0.993075
0.992855
0.99273
0.992698
0.992758
0.992901
0.993121
0.993406
0.993744
0.994122
0.994524
0.994934
0.995338
0.995718
0.996061
0.996353
0.996583
0.996741
0.996822
1.04235
1.0425
1.04282
1.04328
1.04391
1.04469
1.04563
1.04673
1.048
1.04943
1.05103
1.05281
1.05476
1.05691
1.05925
1.06179
1.06455
1.06752
1.07071
1.07413
1.07779
1.08167
1.08578
1.0901
1.09463
1.09934
1.10422
1.10924
1.11436
1.11956
1.12479
1.13002
1.1352
1.1403
1.14526
1.15006
1.15464
1.15897
1.16301
1.16674
1.17011
1.17311
1.1757
1.17787
1.17961
1.18088
1.18169
1.18202
1.18188
1.18125
1.18014
1.17856
1.17651
1.17399
1.17104
1.16765
1.16386
1.15969
1.15516
1.15031
1.14517
1.13978
1.13419
1.12843
1.12256
1.11662
1.11067
1.10476
1.09893
1.09323
1.08771
1.08241
1.07736
1.07258
1.06811
1.06396
1.06012
1.05661
1.05342
1.05054
1.04793
1.0456
1.0435
1.04161
1.03991
1.03837
1.03696
1.03566
1.03447
1.03335
1.0323
1.03131
1.03038
1.02951
1.02869
1.02793
1.02723
1.02659
1.02602
1.02553
1.02512
1.02479
1.02454
1.02438
1.0243
1.02431
1.02438
1.02453
1.02473
1.02498
1.02527
1.02558
1.0259
1.02622
1.02652
1.02679
1.02702
1.0272
1.02733
1.0274
1.07499
1.07514
1.07544
1.0759
1.07651
1.07727
1.07819
1.07927
1.0805
1.08189
1.08346
1.08519
1.08709
1.08917
1.09144
1.0939
1.09656
1.09942
1.10248
1.10575
1.10922
1.1129
1.11678
1.12084
1.12508
1.12949
1.13403
1.13869
1.14343
1.14824
1.15306
1.15788
1.16264
1.16733
1.17188
1.17628
1.18048
1.18444
1.18814
1.19155
1.19464
1.19737
1.19974
1.20172
1.20329
1.20445
1.20517
1.20545
1.2053
1.2047
1.20365
1.20217
1.20026
1.19792
1.19518
1.19204
1.18853
1.18467
1.18049
1.17601
1.17127
1.16631
1.16115
1.15585
1.15043
1.14496
1.13947
1.13401
1.12861
1.12333
1.1182
1.11325
1.10852
1.10402
1.09979
1.09583
1.09215
1.08876
1.08564
1.0828
1.08021
1.07786
1.07572
1.07379
1.07203
1.07042
1.06895
1.0676
1.06634
1.06518
1.06409
1.06307
1.06212
1.06122
1.06039
1.05962
1.05891
1.05827
1.0577
1.05719
1.05677
1.05642
1.05614
1.05595
1.05583
1.05578
1.0558
1.05588
1.05601
1.05619
1.05639
1.05663
1.05687
1.05711
1.05735
1.05756
1.05774
1.05788
1.05798
1.05803
1.10747
1.10762
1.10792
1.10836
1.10895
1.1097
1.11059
1.11164
1.11284
1.11419
1.11571
1.11739
1.11924
1.12126
1.12345
1.12582
1.12837
1.13111
1.13404
1.13715
1.14045
1.14393
1.14759
1.15141
1.15538
1.15949
1.16373
1.16805
1.17245
1.17689
1.18135
1.18579
1.19017
1.19448
1.19866
1.2027
1.20655
1.21018
1.21357
1.21669
1.21951
1.22201
1.22417
1.22597
1.2274
1.22844
1.22909
1.22933
1.22916
1.22859
1.2276
1.22622
1.22443
1.22226
1.21971
1.2168
1.21355
1.20998
1.20612
1.20198
1.1976
1.19302
1.18826
1.18337
1.17837
1.17332
1.16824
1.16319
1.15819
1.15328
1.1485
1.14387
1.13943
1.1352
1.1312
1.12743
1.1239
1.12063
1.1176
1.1148
1.11224
1.1099
1.10775
1.10579
1.10399
1.10235
1.10083
1.09943
1.09814
1.09693
1.09581
1.09476
1.09379
1.09288
1.09203
1.09125
1.09053
1.08988
1.0893
1.08878
1.08834
1.08797
1.08767
1.08744
1.08728
1.08718
1.08715
1.08717
1.08724
1.08735
1.0875
1.08766
1.08784
1.08802
1.08819
1.08836
1.08849
1.0886
1.08868
1.08872
1.13981
1.13995
1.14024
1.14067
1.14125
1.14197
1.14284
1.14385
1.14502
1.14634
1.14781
1.14943
1.15122
1.15316
1.15527
1.15755
1.16
1.16262
1.16541
1.16837
1.1715
1.17479
1.17823
1.18182
1.18554
1.18938
1.19333
1.19735
1.20143
1.20554
1.20965
1.21375
1.21779
1.22175
1.22559
1.2293
1.23283
1.23616
1.23927
1.24212
1.2447
1.24699
1.24896
1.2506
1.25189
1.25283
1.25341
1.25361
1.25343
1.25288
1.25196
1.25066
1.24899
1.24697
1.2446
1.24191
1.2389
1.23559
1.23201
1.22819
1.22414
1.21991
1.21551
1.21099
1.20637
1.2017
1.197
1.19231
1.18767
1.1831
1.17864
1.17431
1.17015
1.16616
1.16236
1.15878
1.1554
1.15225
1.14931
1.14658
1.14406
1.14174
1.1396
1.13763
1.13581
1.13414
1.13259
1.13116
1.12984
1.1286
1.12746
1.12639
1.12539
1.12446
1.1236
1.12281
1.12208
1.12142
1.12083
1.1203
1.11984
1.11945
1.11912
1.11886
1.11866
1.11853
1.11845
1.11842
1.11844
1.11849
1.11858
1.11868
1.1188
1.11893
1.11906
1.11918
1.11928
1.11936
1.11942
1.11945
1.172
1.17214
1.17242
1.17284
1.1734
1.1741
1.17494
1.17592
1.17705
1.17832
1.17974
1.18131
1.18303
1.18491
1.18693
1.18912
1.19146
1.19396
1.19661
1.19942
1.20238
1.20549
1.20873
1.2121
1.21558
1.21917
1.22284
1.22658
1.23037
1.23418
1.23798
1.24176
1.24549
1.24913
1.25267
1.25607
1.25931
1.26237
1.26522
1.26783
1.27019
1.27228
1.27408
1.27557
1.27674
1.27759
1.2781
1.27826
1.27808
1.27755
1.27668
1.27546
1.27391
1.27203
1.26983
1.26732
1.26453
1.26147
1.25816
1.25462
1.25088
1.24696
1.24289
1.2387
1.23443
1.2301
1.22574
1.22139
1.21707
1.21282
1.20865
1.2046
1.20068
1.19692
1.19332
1.18991
1.18668
1.18365
1.18081
1.17815
1.17569
1.1734
1.17127
1.16931
1.16749
1.1658
1.16424
1.16279
1.16144
1.16019
1.15902
1.15794
1.15692
1.15598
1.15511
1.15431
1.15357
1.1529
1.15229
1.15175
1.15127
1.15086
1.15051
1.15022
1.14999
1.14982
1.1497
1.14962
1.14959
1.1496
1.14963
1.14969
1.14976
1.14985
1.14993
1.15001
1.15008
1.15014
1.15018
1.1502
1.20406
1.20419
1.20446
1.20487
1.20541
1.20608
1.2069
1.20785
1.20893
1.21016
1.21153
1.21304
1.21469
1.21649
1.21844
1.22053
1.22276
1.22514
1.22766
1.23032
1.23312
1.23605
1.2391
1.24226
1.24552
1.24888
1.2523
1.25577
1.25929
1.26281
1.26634
1.26983
1.27326
1.27662
1.27988
1.28301
1.28598
1.28879
1.2914
1.29379
1.29595
1.29786
1.2995
1.30086
1.30192
1.30268
1.30313
1.30326
1.30308
1.30257
1.30175
1.30061
1.29915
1.2974
1.29536
1.29303
1.29044
1.2876
1.28453
1.28125
1.27778
1.27415
1.27039
1.26651
1.26255
1.25853
1.25448
1.25043
1.24641
1.24244
1.23854
1.23475
1.23106
1.22751
1.22411
1.22086
1.21777
1.21486
1.21212
1.20954
1.20713
1.20489
1.20279
1.20084
1.19903
1.19734
1.19578
1.19432
1.19296
1.19169
1.19051
1.18941
1.18839
1.18744
1.18655
1.18574
1.18499
1.18431
1.18369
1.18313
1.18264
1.1822
1.18183
1.18152
1.18126
1.18105
1.1809
1.18078
1.18071
1.18068
1.18067
1.18068
1.18071
1.18076
1.18081
1.18086
1.1809
1.18094
1.18097
1.18098
1.23598
1.23611
1.23637
1.23676
1.23728
1.23793
1.23871
1.23963
1.24068
1.24186
1.24318
1.24463
1.24621
1.24793
1.24979
1.25179
1.25392
1.25618
1.25857
1.26109
1.26373
1.26649
1.26936
1.27232
1.27538
1.27851
1.2817
1.28493
1.28819
1.29146
1.29472
1.29795
1.30112
1.30421
1.30721
1.31009
1.31283
1.3154
1.3178
1.31999
1.32196
1.32371
1.3252
1.32644
1.3274
1.32808
1.32848
1.32858
1.3284
1.32791
1.32713
1.32606
1.3247
1.32307
1.32116
1.319
1.31659
1.31396
1.31111
1.30807
1.30485
1.30149
1.29799
1.2944
1.29072
1.28698
1.28322
1.27945
1.2757
1.27199
1.26834
1.26478
1.26131
1.25796
1.25473
1.25164
1.2487
1.2459
1.24326
1.24076
1.23842
1.23622
1.23416
1.23224
1.23044
1.22877
1.2272
1.22574
1.22438
1.2231
1.22192
1.22081
1.21978
1.21882
1.21793
1.21711
1.21635
1.21565
1.21502
1.21445
1.21394
1.21349
1.2131
1.21276
1.21248
1.21224
1.21205
1.21191
1.2118
1.21172
1.21168
1.21166
1.21165
1.21166
1.21168
1.2117
1.21173
1.21175
1.21176
1.21177
1.26777
1.26789
1.26814
1.26852
1.26902
1.26965
1.2704
1.27128
1.27229
1.27342
1.27469
1.27608
1.2776
1.27924
1.28101
1.28291
1.28494
1.28709
1.28935
1.29173
1.29423
1.29682
1.29952
1.3023
1.30515
1.30808
1.31105
1.31406
1.31709
1.32012
1.32314
1.32612
1.32905
1.3319
1.33467
1.33732
1.33983
1.3422
1.34439
1.3464
1.34821
1.3498
1.35117
1.35229
1.35316
1.35377
1.35412
1.3542
1.35401
1.35354
1.3528
1.3518