/*--------------------------------*- C++ -*----------------------------------*\
| =========                 |                                                 |
| \\      /  F ield         | OpenFOAM: The Open Source CFD Toolbox           |
|  \\    /   O peration     | Version:  2406                                  |
|   \\  /    A nd           | Website:  www.openfoam.com                      |
|    \\/     M anipulation  |                                                 |
\*---------------------------------------------------------------------------*/
FoamFile
{
    version     2.0;
    format      ascii;
    arch        "LSB;label=32;scalar=64";
    class       volScalarField;
    location    "3.7";
    object      C_0;
}
// * * * * * * * * * * * * * * * * * * * * * * * * * * * * * * * * * * * * * //

dimensions      [1 -3 0 0 0 0 0];

internalField   nonuniform List<scalar> 
14400
(
0.510951
0.499778
0.484948
0.470737
0.458965
0.450649
0.446411
0.44662
0.451456
0.460936
0.474908
0.493001
0.514508
0.538013
0.559945
0.571649
0.570298
0.556082
0.535679
0.516898
0.501885
0.49173
0.487143
0.488657
0.496713
0.511699
0.533974
0.563865
0.601649
0.647486
0.7012
0.761435
0.821084
0.863156
0.891662
0.916717
0.938801
0.95826
0.975363
0.99032
1.0033
1.01443
1.02382
1.03155
1.03769
1.0423
1.0454
1.04702
1.04719
1.04591
1.04317
1.03895
1.03325
1.02601
1.01719
1.00674
0.994566
0.980585
0.964675
0.946688
0.926444
0.903713
0.87821
0.849574
0.81469
0.762084
0.694859
0.632923
0.578529
0.531938
0.49296
0.461271
0.436517
0.418367
0.406528
0.400762
0.400885
0.406764
0.418305
0.435439
0.458083
0.48607
0.518966
0.555334
0.587527
0.607172
0.617313
0.621886
0.621078
0.614704
0.599832
0.573494
0.542808
0.514913
0.491253
0.472269
0.458036
0.448406
0.443032
0.441341
0.442498
0.44536
0.448444
0.450067
0.449044
0.446598
0.444446
0.444099
0.446737
0.453232
0.464201
0.480047
0.500976
0.526983
0.557695
0.591686
0.621346
0.639218
0.648721
0.653328
0.526796
0.514895
0.498446
0.482999
0.470322
0.46138
0.456772
0.456849
0.46178
0.471581
0.486099
0.504969
0.52751
0.552271
0.573279
0.581966
0.581365
0.569645
0.548825
0.529106
0.513258
0.502452
0.497407
0.498648
0.506612
0.521685
0.544218
0.574529
0.612887
0.659446
0.714063
0.775309
0.830028
0.867172
0.895077
0.919687
0.941426
0.960616
0.977509
0.992299
1.00514
1.01617
1.02547
1.03314
1.03923
1.0438
1.04687
1.04848
1.04865
1.04736
1.04464
1.04045
1.03478
1.02758
1.01883
1.00845
0.996377
0.982515
0.966751
0.948946
0.92893
0.906486
0.881343
0.853142
0.820597
0.772382
0.706487
0.644171
0.589086
0.541824
0.502268
0.47011
0.445
0.426605
0.414634
0.408847
0.409057
0.415129
0.426971
0.444513
0.467667
0.496248
0.529768
0.56659
0.596511
0.613339
0.622881
0.627266
0.626642
0.620914
0.608934
0.585573
0.554741
0.526316
0.502169
0.482857
0.468497
0.458983
0.454005
0.453028
0.455245
0.459522
0.46422
0.466971
0.464805
0.460737
0.457162
0.455749
0.457664
0.463752
0.474594
0.490551
0.511788
0.538254
0.569459
0.60355
0.629965
0.644775
0.653616
0.657934
0.551083
0.542642
0.52469
0.507262
0.492935
0.4828
0.477484
0.47731
0.482432
0.492853
0.508416
0.528684
0.552791
0.578347
0.594458
0.600173
0.600216
0.593553
0.574687
0.553359
0.53596
0.523913
0.51798
0.518685
0.52647
0.541717
0.564763
0.595897
0.635336
0.683122
0.738694
0.798709
0.843768
0.875016
0.901785
0.925527
0.946599
0.965271
0.981756
0.996223
1.00881
1.01963
1.02877
1.03631
1.0423
1.04679
1.04981
1.05139
1.05154
1.05027
1.04757
1.04343
1.03782
1.03073
1.02209
1.01186
0.999976
0.986345
0.970867
0.953417
0.933842
0.911958
0.887534
0.860291
0.829902
0.789548
0.730244
0.666787
0.610257
0.561676
0.520983
0.487897
0.462079
0.4432
0.430966
0.425136
0.42552
0.43198
0.444418
0.462761
0.486913
0.516631
0.551133
0.587429
0.611649
0.62507
0.633606
0.637654
0.637312
0.632602
0.623521
0.606682
0.578165
0.549006
0.523956
0.504013
0.489385
0.480073
0.475853
0.476259
0.480541
0.487688
0.495998
0.50202
0.496549
0.488852
0.482396
0.478905
0.47942
0.48473
0.495346
0.51154
0.533366
0.560676
0.592515
0.624003
0.6436
0.655315
0.663034
0.666858
0.579255
0.575774
0.56238
0.543048
0.526588
0.5148
0.508507
0.507992
0.513391
0.524694
0.541732
0.563816
0.589363
0.609947
0.619405
0.623863
0.624583
0.621628
0.6105
0.588997
0.569857
0.55612
0.548936
0.54886
0.556384
0.571895
0.595704
0.628035
0.668995
0.718396
0.77477
0.824238
0.858507
0.886415
0.911521
0.934037
0.954172
0.972114
0.988021
1.00203
1.01424
1.02477
1.03367
1.04102
1.04686
1.05124
1.05419
1.05573
1.05586
1.0546
1.05194
1.04787
1.04237
1.0354
1.02694
1.01694
1.00532
0.992022
0.976954
0.960011
0.941065
0.919969
0.896544
0.870584
0.841844
0.809049
0.762317
0.699903
0.64195
0.591607
0.549286
0.514838
0.487976
0.468379
0.455756
0.449864
0.450511
0.457547
0.470863
0.490366
0.515948
0.547289
0.583083
0.613508
0.630335
0.641457
0.648817
0.652431
0.652352
0.648657
0.641491
0.630957
0.611592
0.582583
0.556442
0.535662
0.520595
0.511517
0.508336
0.510678
0.517737
0.528778
0.541791
0.54621
0.54228
0.529858
0.519501
0.513211
0.511763
0.516005
0.526351
0.542937
0.565539
0.593858
0.625404
0.647251
0.660158
0.669843
0.676348
0.679607
0.610256
0.608543
0.602888
0.588594
0.570723
0.557069
0.549703
0.548802
0.554548
0.566867
0.585621
0.608853
0.629889
0.641387
0.64745
0.65129
0.652603
0.651426
0.647727
0.635047
0.614722
0.598999
0.590335
0.589251
0.596441
0.6123
0.637105
0.670921
0.713503
0.763438
0.812349
0.847597
0.875176
0.900614
0.923849
0.944926
0.963938
0.980991
0.996186
1.00962
1.02137
1.03152
1.04012
1.04723
1.05289
1.05713
1.05998
1.06146
1.06158
1.06033
1.05772
1.05374
1.04837
1.04158
1.03334
1.02361
1.01234
0.999468
0.984917
0.968607
0.95044
0.930307
0.908088
0.883656
0.856886
0.827685
0.792896
0.742905
0.684139
0.63177
0.587416
0.551216
0.522998
0.502464
0.48933
0.483364
0.484365
0.492161
0.506608
0.527543
0.554754
0.587368
0.620733
0.640509
0.652454
0.661606
0.667775
0.670901
0.671006
0.668184
0.662624
0.65465
0.644038
0.625367
0.598965
0.577557
0.561836
0.552955
0.550957
0.555604
0.565227
0.578915
0.585592
0.586329
0.586023
0.579865
0.566871
0.557987
0.554194
0.557213
0.567315
0.584494
0.607639
0.636088
0.656855
0.669558
0.67968
0.687551
0.692908
0.695614
0.642969
0.641972
0.640203
0.634843
0.623511
0.608657
0.600641
0.599354
0.605487
0.618516
0.63845
0.655774
0.666644
0.672725
0.67772
0.681245
0.683111
0.683366
0.682291
0.67906
0.668524
0.651863
0.642075
0.639769
0.646589
0.662861
0.688828
0.724188
0.767441
0.810525
0.843531
0.869385
0.893983
0.917017
0.938334
0.95788
0.975663
0.991724
1.00611
1.01889
1.03011
1.03982
1.04807
1.0549
1.06034
1.06442
1.06715
1.06856
1.06865
1.06742
1.06488
1.061
1.05579
1.04921
1.04124
1.03184
1.02097
1.00859
0.99464
0.979059
0.961779
0.942731
0.921847
0.899066
0.874358
0.847743
0.819349
0.784167
0.735017
0.681965
0.635544
0.59731
0.567496
0.545836
0.532073
0.526025
0.527479
0.536204
0.552005
0.574482
0.603254
0.635756
0.656353
0.66784
0.677357
0.684736
0.689777
0.692393
0.692586
0.690449
0.686171
0.68006
0.672569
0.663423
0.648245
0.628567
0.612184
0.603539
0.602527
0.609432
0.617953
0.622957
0.623019
0.62302
0.623438
0.623833
0.619388
0.611624
0.605517
0.607502
0.617312
0.635073
0.656353
0.673234
0.68412
0.693429
0.701454
0.707774
0.712118
0.714326
0.676679
0.676174
0.675332
0.674487
0.671785
0.665816
0.659505
0.657833
0.664373
0.676051
0.687261
0.695029
0.700201
0.705148
0.709459
0.712858
0.71523
0.716637
0.717326
0.717717
0.717002
0.711455
0.703171
0.699636
0.706312
0.722913
0.749728
0.785347
0.818808
0.846519
0.869666
0.892424
0.914352
0.935138
0.954588
0.972595
0.989111
1.00413
1.01766
1.02972
1.04035
1.04958
1.05744
1.06395
1.06915
1.07304
1.07564
1.07698
1.07704
1.07583
1.07336
1.06961
1.06457
1.05823
1.05055
1.04153
1.03111
1.01928
1.00599
0.991209
0.974887
0.956992
0.9375
0.916405
0.893736
0.86958
0.84411
0.81761
0.784651
0.740687
0.693484
0.653212
0.621765
0.59886
0.584341
0.578208
0.580222
0.589975
0.607261
0.630749
0.659383
0.678023
0.688227
0.696979
0.704399
0.710204
0.714205
0.716306
0.716497
0.714856
0.711551
0.706848
0.701126
0.694876
0.688342
0.678524
0.668077
0.660661
0.659045
0.660424
0.66156
0.660096
0.659382
0.659295
0.659797
0.660945
0.662889
0.662346
0.661705
0.664258
0.672765
0.684457
0.695585
0.703544
0.711296
0.718584
0.724931
0.729974
0.733464
0.735246
0.710895
0.71071
0.710465
0.710401
0.710881
0.71178
0.7112
0.712146
0.71635
0.721866
0.725803
0.729716
0.73398
0.738208
0.742109
0.745498
0.748313
0.750627
0.752658
0.754768
0.757467
0.760873
0.762078
0.765028
0.773111
0.789295
0.811803
0.835242
0.856046
0.87593
0.896183
0.916293
0.935862
0.954595
0.972287
0.988802
1.00406
1.01802
1.03066
1.04198
1.052
1.06072
1.06816
1.07433
1.07926
1.08295
1.08541
1.08666
1.08669
1.08552
1.08312
1.07951
1.07466
1.06857
1.06122
1.0526
1.04268
1.03143
1.01885
1.0049
0.989567
0.972851
0.954757
0.935317
0.914601
0.89273
0.869899
0.846386
0.822562
0.794405
0.75893
0.718067
0.685751
0.661664
0.646193
0.63998
0.642683
0.653187
0.671508
0.69187
0.706124
0.713836
0.720927
0.72745
0.733054
0.737476
0.740533
0.742127
0.74224
0.740928
0.738327
0.734656
0.73021
0.72536
0.720531
0.716207
0.711657
0.706966
0.703712
0.700419
0.69763
0.695953
0.695117
0.694982
0.695511
0.69676
0.698887
0.702189
0.706127
0.710165
0.715769
0.721339
0.726806
0.732833
0.738934
0.744682
0.74971
0.753727
0.756518
0.757948
0.745296
0.745308
0.745414
0.745772
0.746586
0.748049
0.750317
0.752923
0.755193
0.757587
0.760587
0.764052
0.767794
0.771594
0.775271
0.778713
0.781896
0.7849
0.787912
0.791231
0.795266
0.800546
0.8078
0.816355
0.826613
0.84027
0.855578
0.870873
0.887485
0.904967
0.922842
0.940702
0.958208
0.975094
0.991161
1.00626
1.02031
1.03323
1.04498
1.05556
1.06494
1.07313
1.08013
1.08595
1.0906
1.09408
1.0964
1.09756
1.09756
1.09641
1.0941
1.09063
1.08599
1.08018
1.07317
1.06497
1.05556
1.04492
1.03306
1.01996
1.00563
0.990088
0.973359
0.955505
0.936619
0.916842
0.89637
0.875472
0.854491
0.83386
0.812129
0.785907
0.757539
0.733015
0.716399
0.71008
0.713465
0.722638
0.732366
0.740262
0.744512
0.749284
0.754196
0.75884
0.762893
0.766111
0.768323
0.769432
0.769407
0.768287
0.766175
0.763238
0.759699
0.755822
0.751889
0.748146
0.744649
0.741332
0.737847
0.734832
0.732511
0.73097
0.730152
0.730003
0.730507
0.731695
0.733641
0.736422
0.739974
0.744094
0.748163
0.752502
0.757156
0.762048
0.766926
0.7715
0.775502
0.778704
0.780935
0.782079
0.779685
0.77981
0.780113
0.780686
0.781642
0.78307
0.784984
0.787202
0.789517
0.792035
0.794907
0.798111
0.80155
0.805104
0.808669
0.812186
0.815658
0.819164
0.822858
0.826976
0.831821
0.837751
0.84513
0.854116
0.864749
0.876438
0.889266
0.90318
0.918054
0.93361
0.949518
0.965465
0.981174
0.996413
1.011
1.02479
1.03768
1.0496
1.06049
1.07032
1.07907
1.08673
1.09329
1.09875
1.10311
1.10638
1.10854
1.10961
1.10959
1.10847
1.10625
1.10293
1.0985
1.09297
1.08632
1.07855
1.06966
1.05964
1.04851
1.03626
1.02291
1.00851
0.993086
0.976725
0.95953
0.941646
0.923266
0.904639
0.886069
0.86793
0.850658
0.834591
0.817126
0.800369
0.787071
0.779432
0.777284
0.778177
0.778858
0.779663
0.781758
0.784593
0.787733
0.79082
0.793567
0.795752
0.797218
0.797869
0.797669
0.796637
0.794848
0.792423
0.789524
0.78634
0.783059
0.779838
0.776752
0.773813
0.771005
0.768552
0.766612
0.765263
0.764519
0.764371
0.764817
0.765873
0.767561
0.769884
0.772777
0.776094
0.779616
0.783349
0.787266
0.791279
0.79522
0.79889
0.802092
0.804653
0.806438
0.807354
0.813948
0.814135
0.814541
0.815218
0.816226
0.817604
0.819347
0.821382
0.823636
0.826128
0.828897
0.831934
0.835191
0.838602
0.842115
0.845703
0.849388
0.853238
0.857381
0.861993
0.867291
0.873508
0.880852
0.889428
0.899225
0.910055
0.921851
0.934525
0.947942
0.961899
0.976155
0.990466
1.00461
1.01838
1.03163
1.04421
1.05602
1.06699
1.07705
1.08616
1.09429
1.10143
1.10755
1.11265
1.11673
1.11977
1.12178
1.12276
1.12271
1.12162
1.11949
1.11632
1.11212
1.10687
1.10058
1.09325
1.08489
1.07549
1.06507
1.05365
1.04126
1.02794
1.01375
0.99878
0.98313
0.966947
0.950412
0.933747
0.917218
0.901131
0.885825
0.871642
0.858929
0.847938
0.83846
0.830643
0.82454
0.820336
0.818235
0.817676
0.818263
0.819597
0.821323
0.823141
0.824802
0.826112
0.826927
0.827158
0.826762
0.825745
0.824156
0.822081
0.819636
0.816954
0.814169
0.811394
0.808708
0.806162
0.803808
0.80176
0.800119
0.798952
0.79829
0.798143
0.798518
0.799419
0.800845
0.802777
0.805157
0.807888
0.810859
0.81401
0.817281
0.820581
0.823786
0.826748
0.829323
0.831378
0.83281
0.833545
0.848023
0.848242
0.848698
0.84942
0.850439
0.851773
0.853418
0.855344
0.857519
0.859942
0.862618
0.865538
0.868676
0.871999
0.875484
0.879125
0.88295
0.887021
0.891435
0.896325
0.901841
0.908137
0.915342
0.923521
0.932669
0.942706
0.953556
0.965126
0.977292
0.98989
1.00274
1.01564
1.02841
1.04089
1.05293
1.0644
1.07522
1.08529
1.09456
1.10298
1.11052
1.11714
1.12283
1.12758
1.13137
1.13419
1.13606
1.13695
1.13686
1.1358
1.13377
1.13076
1.12678
1.12182
1.11589
1.109
1.10115
1.09235
1.08263
1.07201
1.06053
1.04824
1.03521
1.02151
1.00726
0.992599
0.977686
0.962719
0.947924
0.933552
0.919867
0.907132
0.895584
0.885383
0.876559
0.869154
0.863239
0.858882
0.856068
0.854544
0.854022
0.854207
0.854821
0.855618
0.856389
0.856965
0.857222
0.857073
0.856476
0.855425
0.85395
0.852109
0.849984
0.847671
0.845267
0.842861
0.840525
0.83832
0.836306
0.83456
0.833153
0.832137
0.831545
0.831395
0.831693
0.832439
0.833623
0.835221
0.837184
0.839443
0.841921
0.844552
0.847266
0.84998
0.852593
0.854994
0.857072
0.858728
0.859879
0.86047
0.881879
0.882112
0.882589
0.883324
0.884335
0.885631
0.887208
0.889055
0.891155
0.893503
0.896095
0.898924
0.901976
0.905236
0.908696
0.912364
0.916267
0.920459
0.925015
0.93003
0.93561
0.941859
0.948856
0.956645
0.965222
0.974543
0.984542
0.995133
1.00621
1.01763
1.02926
1.04093
1.05251
1.06383
1.07478
1.08525
1.09515
1.10439
1.11292
1.12069
1.12765
1.13378
1.13906
1.14346
1.14697
1.14959
1.1513
1.1521
1.15199
1.15097
1.14903
1.14618
1.14241
1.13774
1.13216
1.12569
1.11835
1.11014
1.10109
1.09124
1.08062
1.06929
1.05732
1.04479
1.03181
1.0185
1.00501
0.99152
0.978208
0.965284
0.952959
0.941436
0.93089
0.921451
0.913188
0.906152
0.90038
0.895884
0.892612
0.890409
0.889074
0.888389
0.888137
0.888121
0.888169
0.888139
0.88792
0.887437
0.886644
0.88553
0.884109
0.88242
0.880521
0.878479
0.876368
0.874258
0.872211
0.870285
0.868536
0.867021
0.865794
0.864898
0.86436
0.864198
0.864418
0.86502
0.865989
0.867301
0.868915
0.870779
0.872831
0.875011
0.877251
0.879479
0.881611
0.883562
0.885244
0.886581
0.887509
0.887985
0.915501
0.915739
0.91622
0.916954
0.917947
0.919207
0.92073
0.922511
0.924543
0.926819
0.929336
0.932087
0.935067
0.938271
0.9417
0.945366
0.949296
0.953533
0.958134
0.96317
0.968712
0.974831
0.981578
0.98898
0.997032
1.0057
1.01494
1.02466
1.03477
1.04517
1.05574
1.06634
1.07685
1.08715
1.09712
1.10668
1.11573
1.12421
1.13205
1.1392
1.14562
1.15128
1.15616
1.16022
1.16347
1.16588
1.16745
1.16817
1.16804
1.16705
1.1652
1.1625
1.15895
1.15456
1.14933
1.14327
1.13641
1.12876
1.12036
1.11122
1.10141
1.09098
1.07999
1.06852
1.05668
1.04458
1.03235
1.02014
1.0081
0.996418
0.98525
0.974761
0.965089
0.956342
0.948591
0.941885
0.936244
0.931663
0.928086
0.925406
0.923477
0.922136
0.921216
0.92056
0.920028
0.919501
0.918884
0.918109
0.917134
0.915941
0.914536
0.912942
0.911199
0.909356
0.907469
0.905591
0.903776
0.902073
0.90053
0.899194
0.898106
0.897299
0.896798
0.896618
0.896764
0.897232
0.898011
0.899077
0.900396
0.901925
0.903614
0.905408
0.907249
0.909073
0.910812
0.912398
0.913761
0.914842
0.915592
0.915976
0.948885
0.949122
0.9496
0.950322
0.951294
0.952518
0.953993
0.955717
0.957686
0.959895
0.962341
0.965022
0.967935
0.971081
0.974467
0.978104
0.982018
0.986242
0.99082
0.995802
1.00124
1.00717
1.01364
1.02066
1.02822
1.0363
1.04484
1.05378
1.06305
1.07255
1.08218
1.09183
1.1014
1.11078
1.11988
1.12861
1.1369
1.14466
1.15186
1.15844
1.16435
1.16957
1.17406
1.17781
1.1808
1.18302
1.18445
1.18509
1.18493
1.18398
1.18223
1.17968
1.17634
1.17221
1.16732
1.16166
1.15526
1.14815
1.14034
1.13189
1.12283
1.11323
1.10313
1.09263
1.08182
1.07079
1.05967
1.04858
1.03765
1.02703
1.01686
1.00727
0.998362
0.990235
0.982951
0.976551
0.97105
0.966437
0.962664
0.959652
0.957293
0.955462
0.954031
0.952876
0.951882
0.950952
0.950005
0.948982
0.947842
0.946565
0.945151
0.943612
0.941976
0.940278
0.938559
0.936862
0.935228
0.933701
0.932319
0.931119
0.930136
0.929395
0.928916
0.928712
0.928786
0.929135
0.929747
0.9306
0.931668
0.932912
0.934291
0.935759
0.937263
0.938752
0.940168
0.941455
0.94256
0.943435
0.944041
0.944351
0.982032
0.982265
0.982734
0.983441
0.984389
0.985578
0.987008
0.988679
0.990588
0.992733
0.995111
0.997724
1.00057
1.00365
1.00698
1.01057
1.01443
1.0186
1.0231
1.02798
1.03326
1.03898
1.04516
1.05181
1.0589
1.06643
1.07434
1.08259
1.0911
1.0998
1.1086
1.11741
1.12614
1.1347
1.14301
1.15099
1.15857
1.16569
1.17229
1.17833
1.18377
1.18857
1.19271
1.19616
1.19891
1.20094
1.20224
1.20281
1.20263
1.20171
1.20005
1.19764
1.19451
1.19064
1.18606
1.18078
1.17483
1.16822
1.16098
1.15316
1.1448
1.13596
1.12668
1.11706
1.10717
1.0971
1.08695
1.07685
1.06689
1.0572
1.0479
1.03909
1.03086
1.02329
1.01643
1.01032
1.00497
1.00037
0.996482
0.993246
0.990579
0.988387
0.98657
0.985029
0.983673
0.98242
0.981203
0.97997
0.978685
0.977327
0.97589
0.97438
0.972816
0.971222
0.969628
0.968068
0.966575
0.965183
0.963924
0.962829
0.961923
0.961228
0.960759
0.960527
0.960533
0.960774
0.961239
0.96191
0.962762
0.963764
0.96488
0.966071
0.967294
0.968503
0.969652
0.970695
0.971589
0.972296
0.972785
0.973036
1.01494
1.01517
1.01563
1.01632
1.01724
1.0184
1.01978
1.0214
1.02325
1.02534
1.02765
1.03019
1.03297
1.03598
1.03924
1.04275
1.04654
1.05062
1.05501
1.05975
1.06485
1.07034
1.07622
1.08249
1.08915
1.09617
1.10351
1.11113
1.11896
1.12694
1.135
1.14306
1.15104
1.15887
1.16647
1.17377
1.18071
1.18723
1.19329
1.19884
1.20383
1.20824
1.21205
1.21522
1.21774
1.21959
1.22077
1.22127
1.22107
1.22019
1.21861
1.21635
1.2134
1.20978
1.20551
1.20059
1.19505
1.18891
1.18221
1.17498
1.16726
1.15911
1.15059
1.14175
1.13269
1.12348
1.1142
1.10496
1.09586
1.08699
1.07845
1.07032
1.06269
1.05562
1.04915
1.04332
1.03814
1.03359
1.02965
1.02627
1.02339
1.02094
1.01883
1.017
1.01536
1.01385
1.01242
1.01101
1.0096
1.00817
1.0067
1.0052
1.00369
1.00216
1.00066
0.999206
0.99782
0.996531
0.995366
0.994348
0.993499
0.992834
0.992366
0.992103
0.992046
0.99219
0.992526
0.993039
0.993705
0.994501
0.995394
0.996352
0.997338
0.998314
0.999242
1.00008
1.0008
1.00137
1.00177
1.00197
1.04763
1.04785
1.0483
1.04897
1.04986
1.05098
1.05232
1.05389
1.05569
1.05771
1.05995
1.06243
1.06513
1.06806
1.07124
1.07466
1.07835
1.08232
1.08658
1.09115
1.09605
1.10129
1.10688
1.1128
1.11904
1.12559
1.13241
1.13945
1.14667
1.15401
1.16141
1.16879
1.1761
1.18327
1.19022
1.19691
1.20326
1.20924
1.2148
1.21989
1.22447
1.22852
1.23201
1.23492
1.23723
1.23892
1.23998
1.24041
1.2402
1.23935
1.23786
1.23573
1.23297
1.22959
1.2256
1.22102
1.21587
1.21017
1.20396
1.19727
1.19015
1.18264
1.1748
1.16668
1.15836
1.14991
1.14141
1.13295
1.1246
1.11645
1.10858
1.10106
1.09397
1.08735
1.08125
1.07568
1.07067
1.0662
1.06225
1.05879
1.05577
1.05314
1.05082
1.04877
1.04692
1.04521
1.0436
1.04206
1.04054
1.03904
1.03754
1.03605
1.03456
1.03309
1.03165
1.03027
1.02897
1.02776
1.02666
1.0257
1.02489
1.02424
1.02377
1.02347
1.02336
1.02341
1.02364
1.02401
1.02452
1.02514
1.02584
1.02661
1.02739
1.02817
1.02892
1.02959
1.03017
1.03063
1.03095
1.03111
1.08009
1.08031
1.08074
1.08139
1.08225
1.08334
1.08464
1.08616
1.0879
1.08986
1.09203
1.09443
1.09705
1.0999
1.10299
1.10631
1.10989
1.11372
1.11784
1.12223
1.12692
1.13191
1.13719
1.14277
1.14863
1.15474
1.16108
1.1676
1.17427
1.18103
1.18782
1.1946
1.2013
1.20787
1.21424
1.22037
1.2262
1.23168
1.23677
1.24144
1.24565
1.24936
1.25256
1.25523
1.25733
1.25887
1.25983
1.2602
1.25998
1.25916
1.25775
1.25574
1.25316
1.25
1.24628
1.24201
1.23723
1.23194
1.22619
1.22001
1.21343
1.2065
1.19928
1.19181
1.18416
1.1764
1.1686
1.16081
1.15313
1.14562
1.13835
1.13138
1.12477
1.11857
1.1128
1.10749
1.10266
1.09829
1.09437
1.09088
1.08778
1.08502
1.08256
1.08034
1.07833
1.07647
1.07473
1.07307
1.07147
1.06991
1.06838
1.06688
1.06541
1.06398
1.06259
1.06127
1.06002
1.05887
1.05782
1.0569
1.05612
1.05548
1.05499
1.05466
1.05449
1.05447
1.0546
1.05485
1.05522
1.05569
1.05624
1.05683
1.05745
1.05807
1.05866
1.0592
1.05966
1.06002
1.06028
1.06041
1.11233
1.11254
1.11296
1.11359
1.11443
1.11548
1.11674
1.11821
1.11989
1.12179
1.12389
1.12621
1.12875
1.13151
1.13449
1.13771
1.14116
1.14486
1.14881
1.15302
1.15749
1.16222
1.16722
1.17247
1.17796
1.18366
1.18956
1.1956
1.20177
1.208
1.21426
1.22049
1.22664
1.23267
1.23851
1.24413
1.24948
1.2545
1.25918
1.26346
1.26731
1.27072
1.27365
1.27609
1.27801
1.27941
1.28027
1.28058
1.28035
1.27956
1.27822
1.27634
1.27392
1.27097
1.2675
1.26353
1.25908
1.25418
1.24886
1.24313
1.23706
1.23066
1.224
1.21712
1.21008
1.20294
1.19575
1.18858
1.1815
1.17456
1.16782
1.16135
1.15517
1.14934
1.14389
1.13883
1.13417
1.12992
1.12606
1.12258
1.11943
1.1166
1.11404
1.11171
1.10958
1.10761
1.10577
1.10402
1.10235
1.10075
1.09919
1.09769
1.09623
1.09482
1.09346
1.09218
1.09098
1.08987
1.08886
1.08797
1.0872
1.08656
1.08606
1.0857
1.08548
1.08539
1.08542
1.08558
1.08583
1.08617
1.08658
1.08703
1.08751
1.08799
1.08846
1.08888
1.08924
1.08953
1.08973
1.08983
1.14437
1.14457
1.14498
1.14558
1.1464
1.14741
1.14863
1.15005
1.15167
1.1535
1.15554
1.15778
1.16023
1.16289
1.16577
1.16887
1.17219
1.17574
1.17952
1.18354
1.18779
1.19228
1.197
1.20193
1.20708
1.2124
1.21788
1.22349
1.2292
1.23495
1.24072
1.24645
1.25211
1.25765
1.26301
1.26817
1.27307
1.27768
1.28197
1.28589
1.28943
1.29255
1.29523
1.29746
1.29921
1.30048
1.30125
1.30151
1.30127
1.30051
1.29925
1.29748
1.29521
1.29245
1.28922
1.28553
1.2814
1.27685
1.27191
1.26662
1.261
1.25509
1.24894
1.2426
1.2361
1.22951
1.22288
1.21627
1.20972
1.20329
1.19704
1.191
1.18523
1.17975
1.17459
1.16976
1.16529
1.16117
1.15738
1.15393
1.15078
1.14791
1.14529
1.14289
1.14068
1.13863
1.13671
1.1349
1.13318
1.13154
1.12996
1.12845
1.12699
1.1256
1.12427
1.12302
1.12185
1.12076
1.11978
1.11891
1.11815
1.11751
1.11699
1.11659
1.11632
1.11617
1.11613
1.1162
1.11635
1.11658
1.11687
1.11721
1.11757
1.11794
1.11829
1.11862
1.1189
1.11913
1.11928
1.11936
1.1762
1.1764
1.17679
1.17738
1.17816
1.17914
1.18031
1.18168
1.18325
1.18501
1.18697
1.18913
1.1915
1.19406
1.19683
1.1998
1.20299
1.20638
1.20999
1.21382
1.21786
1.22211
1.22655
1.23119
1.23601
1.24098
1.24608
1.25129
1.25657
1.26189
1.26721
1.2725
1.2777
1.28279
1.28772
1.29246
1.29696
1.30119
1.30512
1.30872
1.31196
1.31482
1.31727
1.31931
1.3209
1.32204
1.32273
1.32295
1.3227
1.32197
1.32077
1.31911
1.31699
1.31441
1.3114
1.30797
1.30413
1.29991
1.29533
1.29042
1.28522
1.27976
1.27408
1.26822
1.26222
1.25613
1.25
1.24388
1.23782
1.23185
1.22603
1.2204
1.21499
1.20983
1.20494
1.20035
1.19606
1.19207
1.18838
1.18497
1.18184
1.17897
1.17632
1.17388
1.17162
1.16951
1.16754
1.16568
1.16393
1.16226
1.16066
1.15914
1.15769
1.15631
1.155
1.15377
1.15262
1.15156
1.1506
1.14973
1.14897
1.14833
1.14779
1.14737
1.14706
1.14685
1.14674
1.14673
1.1468
1.14693
1.14713
1.14736
1.14762
1.14789
1.14816
1.1484
1.14862
1.14879
1.14891
1.14897
1.20784
1.20803
1.2084
1.20897
1.20972
1.21067
1.2118
1.21312
1.21463
1.21632
1.21821
1.22029
1.22256
1.22502
1.22768
1.23053
1.23357
1.23682
1.24026
1.24389
1.24772
1.25173
1.25592
1.26028
1.26478
1.26942
1.27417
1.27901
1.28391
1.28883
1.29374
1.29862
1.30341
1.30809
1.31263
1.31698
1.32111
1.325
1.3286
1.3319
1.33487
1.33749
1.33974
1.34159
1.34304
1.34407
1.34468
1.34486
1.3446
1.3439
1.34277
1.34121
1.33922
1.33681
1.33401
1.33081
1.32724
1.32332
1.31907
1.31453
1.30971
1.30465
1.29939
1.29397
1.28842
1.28279
1.27712
1.27144
1.26581
1.26027
1.25484
1.24958
1.2445
1.23964
1.23501
1.23063
1.22652
1.22267
1.21908
1.21575
1.21266
1.2098
1.20714
1.20468
1.20239
1.20026
1.19825
1.19637
1.19459
1.1929
1.1913
1.18977
1.18833
1.18695
1.18566
1.18444
1.18331
1.18226
1.18131
1.18045
1.17969
1.17904
1.17848
1.17803
1.17768
1.17742
1.17726
1.17718
1.17717
1.17723
1.17734
1.17749
1.17766
1.17785
1.17804
1.17822
1.17838
1.17851
1.1786
1.17864
1.23929
1.23947
1.23983
1.24038
1.2411
1.24201
1.2431
1.24436
1.24581
1.24745
1.24926
1.25125
1.25343
1.25579
1.25833
1.26106
1.26396
1.26705
1.27032
1.27377
1.27739
1.28118
1.28512
1.28921
1.29342
1.29776
1.30218
1.30668
1.31122
1.31577
1.32031
1.32481
1.32923
1.33355
1.33772
1.34172
1.34552
1.34908
1.35239
1.35542
1.35814
1.36054
1.36259
1.36428
1.36559
1.36652
1.36706
1.3672
1.36694
1.36627
1.3652
1.36373
1.36186
1.35962
1.357
1.35402
1.3507
1.34706
1.34312
1.3389
1.33443
1.32975
1.32488
1.31985
1.31471
1.30949
1.30423
1.29896
1.29373
1.28856
1.2835
1.27856
1.27379
1.26921
1.26482
1.26066
1.25672
1.25301
1.24953
1.24628
1.24324
1.24041
1.23778
1.23532
1.23302
1.23087
1.22885
1.22695
1.22516
1.22346
1.22185
1.22033
1.21888
1.21752
1.21623
1.21503
1.21391
1.21287
1.21193
1.21107
1.21031
1.20964
1.20907
1.20859
1.20821
1.20791
1.20769
1.20755
1.20748
1.20747
1.20751
1.20758
1.20769
1.20781
1.20794
1.20806
1.20817
1.20826
1.20832
1.20836
1.27056
1.27073
1.27108
1.2716
1.2723
1.27317
1.27421
1.27543
1.27682
1.27839
1.28012
1.28204
1.28412
1.28638
1.2888
1.2914
1.29417
1.29711
1.30021
1.30348
1.3069
1.31046
1.31417
1.31801
1.32195
1.326
1.33012
1.3343
1.33851
1.34273
1.34693
1.35108
1.35516
1.35914
1.36298
1.36666
1.37015
1.37343
1.37646
1.37924
1.38173
1.38393
1.3858
1.38734
1.38853
1.38937
1.38984
1.38995
1.38968
1.38904
1.38802
1.38664
1.38489
1.38279
1.38035
1.37757
1.37449
1.3711
1.36744
1.36352
1.35937
1.35503
1.35051
1.34585
1.34108
1.33623
1.33134
1.32645
1.32157
1.31675
1.31201
1.30739
1.3029
1.29857
1.29442
1.29045
1.28668
1.28312
1.27975
1.27659
1.27362
1.27084
1.26823
1.26579
1.2635
1.26135
1.25933
1.25743
1.25563
1.25393
1.25232
1.2508
1.24936
1.248
1.24673
1.24553
1.24442
1.2434
1.24245
1.2416
1.24083
1.24015
1.23957
1.23906
1.23865
1.23831
1.23805
1.23786
1.23773
1.23766
1.23764
1.23765
1.2377
1.23776
1.23784
1.23791
1.23798
1.23804
1.23808
1.2381
1.30165
1.30182
1.30215
1.30265
1.30332
1.30415
1.30516
1.30632
1.30766
1.30915
1.31082
1.31264
1.31464
1.31679
1.3191
1.32158
1.32421
1.327
1.32994
1.33303
1.33625
1.33961
1.3431
1.34669
1.35038
1.35416
1.358
1.36189
1.3658
1.36971
1.37359
1.37743
1.3812
1.38486
1.3884
1.39179
1.395
1.39801
1.4008
1.40334
1.40563
1.40763
1.40934
1.41075
1.41183
1.41258
1.41299
1.41307
1.4128
1.41218
1.41122
1.40992
1.40828
1.40631
1.40403
1.40144
1.39857
1.39542
1.39201
1.38837
1.38452
1.38048
1.37628
1.37196
1.36752
1.36302
1.35847
1.35391
1.34936
1.34485
1.34042
1.33608
1.33186
1.32777
1.32383
1.32005
1.31645
1.31302
1.30978
1.30671
1.30381
1.30109
1.29852
1.29611
1.29384
1.29171
1.28969
1.28779
1.286
1.2843
1.2827
1.28119
1.27976
1.27841
1.27714
1.27596
1.27485
1.27383
1.27289
1.27204
1.27127
1.27058
1.26997
1.26945
1.269
1.26863
1.26833
1.2681
1.26793
1.26781
1.26773
1.2677
1.26769
1.2677
1.26773
1.26777
1.26781
1.26784
1.26786
1.26787
1.33257
1.33273
1.33305
1.33353
1.33417
1.33497
1.33593
1.33705
1.33832
1.33976
1.34135
1.34309
1.34499
1.34704
1.34924
1.3516
1.3541
1.35674
1.35952
1.36244
1.36548
1.36864
1.37191
1.37528
1.37873
1.38226
1.38583
1.38945
1.39308
1.3967
1.4003
1.40385
1.40733
1.41071
1.41397
1.41709
1.42005
1.42281
1.42537
1.42771
1.4298
1.43164
1.4332
1.43447
1.43545
1.43612
1.43649
1.43653
1.43626
1.43566
1.43475
1.43353
1.43199
1.43015
1.42802
1.4256
1.42292
1.41999
1.41682
1.41343
1.40985
1.40609
1.40219
1.39817
1.39404
1.38985
1.38561
1.38135
1.3771
1.37289
1.36873
1.36465
1.36067
1.35681
1.35307
1.34948
1.34604
1.34275
1.33962
1.33665
1.33384
1.33118
1.32866
1.32629
1.32405
1.32194
1.31994
1.31806
1.31627
1.31459
1.31299
1.31149
1.31007
1.30873
1.30747
1.3063
1.3052
1.30418
1.30325
1.30239
1.30161
1.30092
1.3003
1.29975
1.29929
1.29889
1.29855
1.29828
1.29807
1.29791
1.29779
1.29771
1.29766
1.29763
1.29762
1.29762
1.29763
1.29764
1.29765
1.29766
1.36334
1.36349
1.3638
1.36426
1.36487
1.36563
1.36655
1.36762
1.36883
1.3702
1.37172
1.37338
1.37519
1.37714
1.37924
1.38147
1.38384
1.38634
1.38897
1.39172
1.39459
1.39756
1.40063
1.40378
1.40701
1.4103
1.41363
1.417
1.42037
1.42373
1.42706
1.43035
1.43356
1.43668
1.43969
1.44256
1.44528
1.44782
1.45018
1.45232
1.45424
1.45591
1.45734
1.45849
1.45938
1.45998
1.46029
1.46031
1.46004
1.45947
1.4586
1.45745
1.456
1.45428
1.45228
1.45003
1.44753
1.44479
1.44184
1.43868
1.43535
1.43186
1.42822
1.42447
1.42063
1.41672
1.41277
1.40879
1.40482
1.40087
1.39697
1.39313
1.38937
1.38572
1.38218
1.37876
1.37547
1.37232
1.3693
1.36643
1.36371
1.36112
1.35866
1.35634
1.35414
1.35205
1.35008
1.34822
1.34645
1.34478
1.3432
1.34171
1.3403
1.33897
1.33772
1.33656
1.33547
1.33446
1.33352
1.33267
1.33188
1.33118
1.33055
1.32999
1.3295
1.32907
1.32871
1.32841
1.32816
1.32796
1.32781
1.32769
1.3276
1.32754
1.3275
1.32747
1.32746
1.32745
1.32745
1.32745
1.39395
1.3941
1.39439
1.39483
1.39541
1.39614
1.39702
1.39804
1.3992
1.4005
1.40194
1.40353
1.40525
1.4071
1.40909
1.41121
1.41345
1.41581
1.4183
1.42089
1.42358
1.42638
1.42926
1.43221
1.43523
1.4383
1.44141
1.44453
1.44767
1.45079
1.45387
1.45691
1.45988
1.46276
1.46554
1.46818
1.47069
1.47303
1.47519
1.47715
1.47891
1.48044
1.48174
1.48279
1.48359
1.48413
1.4844
1.48439
1.48412
1.48357
1.48275
1.48165
1.4803
1.47868
1.47681
1.4747
1.47237
1.46981
1.46706
1.46412
1.46101
1.45776
1.45437
1.45087
1.44729
1.44364
1.43994
1.43623
1.4325
1.4288
1.42513
1.42152
1.41798
1.41452
1.41116
1.4079
1.40476
1.40174
1.39885
1.39608
1.39344
1.39092
1.38853
1.38626
1.3841
1.38205
1.38011
1.37827
1.37653
1.37488
1.37332
1.37184
1.37045
1.36913
1.3679
1.36674
1.36566
1.36465
1.36372
1.36286
1.36208
1.36137
1.36072
1.36015
1.35964
1.3592
1.35881
1.35848
1.35821
1.35798
1.35779
1.35764
1.35752
1.35743
1.35736
1.35731
1.35728
1.35725
1.35724
1.35723
1.42442
1.42456
1.42484
1.42525
1.42581
1.42651
1.42734
1.42831
1.42942
1.43066
1.43203
1.43353
1.43517
1.43693
1.43881
1.44081
1.44294
1.44517
1.44751
1.44995
1.45249
1.45511
1.45781
1.46057
1.4634