/*--------------------------------*- C++ -*----------------------------------*\
| =========                 |                                                 |
| \\      /  F ield         | OpenFOAM: The Open Source CFD Toolbox           |
|  \\    /   O peration     | Version:  2406                                  |
|   \\  /    A nd           | Website:  www.openfoam.com                      |
|    \\/     M anipulation  |                                                 |
\*---------------------------------------------------------------------------*/
FoamFile
{
    version     2.0;
    format      ascii;
    arch        "LSB;label=32;scalar=64";
    class       volScalarField;
    location    "7";
    object      C;
}
// * * * * * * * * * * * * * * * * * * * * * * * * * * * * * * * * * * * * * //

dimensions      [1 -3 0 0 0 0 0];

internalField   nonuniform List<scalar> 
14400
(
0.240493
0.239297
0.237221
0.234729
0.232288
0.230294
0.229038
0.228702
0.229362
0.230979
0.233402
0.236356
0.239427
0.242071
0.243643
0.243529
0.241442
0.237806
0.233349
0.228819
0.224863
0.222007
0.220679
0.221236
0.223987
0.229217
0.237205
0.248232
0.262596
0.280613
0.302623
0.328981
0.360041
0.396114
0.437353
0.483464
0.532399
0.569113
0.59321
0.613447
0.630925
0.645894
0.658548
0.669037
0.677478
0.68396
0.688549
0.691294
0.692223
0.691352
0.688678
0.684187
0.677846
0.669606
0.6594
0.647137
0.632702
0.615944
0.596674
0.574646
0.546878
0.506062
0.456129
0.410009
0.369162
0.333591
0.303002
0.277019
0.255255
0.237341
0.222939
0.211744
0.203486
0.19793
0.194879
0.194174
0.195693
0.199354
0.205108
0.212926
0.222784
0.234639
0.248397
0.263857
0.280603
0.297643
0.311623
0.31834
0.317407
0.309213
0.29744
0.285286
0.273774
0.263392
0.254396
0.246896
0.240903
0.236343
0.233082
0.23093
0.229665
0.229049
0.228871
0.228983
0.229349
0.230051
0.231283
0.233298
0.236376
0.240787
0.24677
0.25452
0.264176
0.275813
0.289417
0.30485
0.321748
0.339188
0.354028
0.361585
0.248295
0.246769
0.244205
0.241212
0.238341
0.236023
0.234565
0.234154
0.234864
0.236662
0.239401
0.242805
0.246456
0.249763
0.251953
0.252127
0.249623
0.245258
0.240047
0.23486
0.230377
0.227122
0.225511
0.225884
0.22854
0.233756
0.241803
0.252959
0.267518
0.285796
0.308131
0.334882
0.366406
0.403016
0.444843
0.491344
0.539005
0.573215
0.596291
0.616206
0.633434
0.648209
0.660713
0.671085
0.679437
0.685852
0.690394
0.693109
0.694024
0.693153
0.690496
0.686037
0.679745
0.671573
0.661456
0.64931
0.635024
0.618457
0.599431
0.577718
0.551531
0.51269
0.462933
0.416496
0.375178
0.339125
0.30809
0.281709
0.259598
0.241387
0.226736
0.215339
0.206927
0.201266
0.198161
0.197456
0.199033
0.202813
0.208747
0.216812
0.226985
0.239229
0.253453
0.269462
0.286846
0.30459
0.318695
0.324893
0.324688
0.317027
0.304917
0.29227
0.280298
0.269539
0.260259
0.252569
0.246476
0.241905
0.238711
0.236692
0.235597
0.235156
0.235109
0.23527
0.235583
0.236153
0.237213
0.239062
0.242016
0.246367
0.252369
0.260225
0.270077
0.282
0.295978
0.31187
0.329306
0.347295
0.361658
0.36784
0.26443
0.262095
0.258428
0.254362
0.250596
0.247619
0.245753
0.245186
0.245995
0.248151
0.251513
0.255821
0.260656
0.265383
0.26903
0.270088
0.266424
0.260372
0.253557
0.247029
0.241493
0.237447
0.235272
0.235281
0.23775
0.242937
0.251102
0.262514
0.277463
0.296259
0.319241
0.346765
0.379189
0.416829
0.459811
0.507326
0.550809
0.580348
0.602379
0.621653
0.638396
0.652796
0.665008
0.675154
0.683332
0.689617
0.694067
0.696723
0.69761
0.696742
0.694116
0.689719
0.683523
0.675484
0.665543
0.653623
0.639626
0.623428
0.604877
0.583779
0.5597
0.525028
0.476696
0.429618
0.387316
0.350286
0.318358
0.291185
0.268384
0.249583
0.234437
0.222641
0.213925
0.208058
0.204851
0.204151
0.205847
0.209864
0.21616
0.224713
0.235511
0.248521
0.26366
0.280728
0.299263
0.31801
0.331657
0.337122
0.337738
0.332271
0.319875
0.306292
0.293429
0.281936
0.272102
0.264041
0.257761
0.253181
0.250143
0.248416
0.247703
0.247655
0.247913
0.248186
0.248374
0.248634
0.249304
0.250782
0.253457
0.257668
0.263695
0.271754
0.281989
0.294472
0.309177
0.325932
0.344266
0.362729
0.37501
0.379537
0.289958
0.285924
0.280284
0.27446
0.269294
0.26531
0.262825
0.262022
0.262974
0.265652
0.269933
0.275577
0.2822
0.289185
0.295461
0.298821
0.292403
0.283347
0.273991
0.265449
0.25836
0.253152
0.25015
0.249622
0.251812
0.256958
0.265301
0.277099
0.292631
0.312202
0.336144
0.3648
0.398502
0.437497
0.481651
0.52896
0.565469
0.590293
0.611222
0.629632
0.6457
0.659572
0.671369
0.681192
0.68912
0.695217
0.699534
0.702105
0.702952
0.702087
0.699508
0.695202
0.689144
0.681296
0.671608
0.660012
0.646428
0.630754
0.61287
0.592641
0.569929
0.540923
0.497865
0.449543
0.405714
0.367236
0.333987
0.305638
0.281811
0.26213
0.24625
0.233864
0.224702
0.218538
0.215187
0.214504
0.216383
0.220758
0.227592
0.236872
0.248591
0.262727
0.279202
0.2978
0.317924
0.337494
0.34901
0.353887
0.35512
0.352547
0.341947
0.327343
0.313289
0.300765
0.290136
0.281545
0.275007
0.270443
0.267684
0.266466
0.266422
0.267088
0.267922
0.268414
0.268351
0.268023
0.267982
0.268805
0.270991
0.274945
0.28098
0.289322
0.300113
0.313413
0.329162
0.347113
0.366526
0.383848
0.392215
0.39559
0.325977
0.318731
0.310042
0.301737
0.294676
0.289352
0.286052
0.284937
0.286067
0.289418
0.294871
0.302208
0.311081
0.320914
0.330319
0.333
0.326633
0.313855
0.301284
0.290211
0.281162
0.274473
0.270405
0.269181
0.271011
0.276108
0.284692
0.297006
0.313317
0.33392
0.359129
0.38926
0.424579
0.465178
0.510359
0.552707
0.581155
0.60301
0.622586
0.639951
0.655199
0.668422
0.679706
0.689123
0.696738
0.702599
0.706747
0.70921
0.710007
0.709146
0.706626
0.702436
0.696554
0.68895
0.67958
0.668391
0.655319
0.640288
0.623209
0.603987
0.582515
0.558123
0.523227
0.475648
0.43041
0.390177
0.355234
0.325348
0.300168
0.279326
0.262478
0.249315
0.239571
0.233024
0.229495
0.228846
0.230979
0.235834
0.243382
0.253616
0.266538
0.282131
0.300309
0.32081
0.342742
0.361036
0.369615
0.374264
0.376039
0.375116
0.369288
0.355179
0.340002
0.326257
0.314638
0.305381
0.298533
0.294035
0.291722
0.291299
0.292327
0.294193
0.296068
0.296983
0.296426
0.295036
0.293799
0.293571
0.294987
0.298523
0.304523
0.31321
0.324709
0.339052
0.356084
0.37531
0.39505
0.407165
0.412383
0.415017
0.365835
0.359165
0.347357
0.336195
0.326896
0.31998
0.315703
0.314213
0.315556
0.3197
0.326519
0.335754
0.346959
0.359082
0.366573
0.366527
0.363174
0.350499
0.335113
0.321373
0.310116
0.301699
0.296365
0.294306
0.295706
0.300752
0.309646
0.322613
0.339901
0.361788
0.388565
0.42049
0.457665
0.49969
0.543932
0.575623
0.597908
0.618002
0.636161
0.652389
0.666723
0.679212
0.689908
0.698859
0.706108
0.711694
0.715644
0.717981
0.718719
0.717864
0.715415
0.711362
0.705688
0.698368
0.68937
0.678654
0.666171
0.651869
0.635691
0.617581
0.59749
0.575392
0.548514
0.508244
0.461672
0.419405
0.382439
0.350682
0.323836
0.301557
0.283507
0.269383
0.258922
0.25191
0.248172
0.247579
0.25004
0.255499
0.263934
0.275342
0.289729
0.307066
0.327217
0.349683
0.372458
0.386267
0.39309
0.397516
0.399654
0.399643
0.397661
0.389271
0.373655
0.358633
0.345888
0.335864
0.328667
0.3243
0.322639
0.323364
0.325982
0.329752
0.333482
0.33526
0.333688
0.330439
0.327302
0.325518
0.325817
0.328732
0.334637
0.343717
0.356039
0.371599
0.389998
0.409941
0.424383
0.431021
0.43502
0.437078
0.402018
0.399636
0.390638
0.377485
0.365966
0.35736
0.352011
0.350109
0.351692
0.35672
0.365021
0.37612
0.388887
0.39881
0.401005
0.400109
0.398396
0.391494
0.375182
0.359063
0.345502
0.33518
0.328419
0.325407
0.326319
0.331325
0.340607
0.354367
0.372829
0.396239
0.424859
0.458848
0.497993
0.540602
0.573868
0.596588
0.616547
0.634931
0.651666
0.66672
0.680092
0.691796
0.701854
0.710295
0.717143
0.722423
0.726155
0.728352
0.729025
0.728177
0.725807
0.721908
0.716467
0.709465
0.700879
0.690682
0.678842
0.665326
0.650106
0.633157
0.614471
0.59407
0.572005
0.542387
0.498831
0.455093
0.415985
0.382079
0.353273
0.329287
0.309804
0.294532
0.283218
0.275654
0.271678
0.271166
0.274031
0.28022
0.289713
0.302506
0.318594
0.337911
0.360212
0.384459
0.403726
0.412795
0.418866
0.423057
0.425417
0.426069
0.425221
0.422496
0.413308
0.397814
0.384028
0.373242
0.36567
0.361488
0.360703
0.362936
0.367665
0.374132
0.380704
0.384104
0.380634
0.37462
0.368763
0.364935
0.36375
0.365821
0.371576
0.381092
0.394233
0.410993
0.429911
0.444572
0.452085
0.456497
0.459598
0.461197
0.436168
0.435955
0.433144
0.424359
0.41159
0.401504
0.395095
0.392798
0.394626
0.400543
0.4103
0.422535
0.432403
0.435747
0.435361
0.434503
0.433068
0.430751
0.420931
0.403422
0.38763
0.375294
0.366997
0.362939
0.363324
0.368313
0.378066
0.392764
0.412584
0.437696
0.468316
0.504322
0.544098
0.576792
0.599484
0.618709
0.636762
0.653507
0.668851
0.682735
0.69513
0.706024
0.715419
0.723323
0.729747
0.734702
0.738199
0.740247
0.74085
0.740012
0.737729
0.733997
0.728807
0.722146
0.714
0.704353
0.693187
0.680489
0.666249
0.65047
0.633169
0.61439
0.594214
0.572404
0.541142
0.497473
0.456306
0.420032
0.388999
0.363052
0.341908
0.325298
0.312985
0.304779
0.30053
0.300123
0.303472
0.31052
0.321237
0.33561
0.353592
0.374978
0.399038
0.422146
0.43428
0.441124
0.446521
0.450431
0.452887
0.453995
0.453931
0.452942
0.450264
0.442199
0.428584
0.417501
0.409558
0.405551
0.405868
0.409817
0.416621
0.425545
0.430416
0.431995
0.430723
0.42604
0.417496
0.411708
0.408774
0.409776
0.415378
0.42539
0.438927
0.456032
0.468675
0.475735
0.479894
0.483285
0.485678
0.486915
0.470532
0.470504
0.47052
0.46842
0.461992
0.451738
0.444677
0.442155
0.444142
0.450552
0.460981
0.468163
0.471005
0.470654
0.470189
0.469474
0.468426
0.467006
0.463998
0.453413
0.436543
0.422313
0.412516
0.407354
0.407202
0.412214
0.422523
0.438294
0.459621
0.486426
0.518846
0.555475
0.585421
0.606813
0.624778
0.642001
0.658285
0.673486
0.687495
0.700239
0.711667
0.721751
0.730475
0.737831
0.743818
0.748438
0.751693
0.753586
0.754118
0.75329
0.7511
0.747544
0.742617
0.736312
0.728622
0.719541
0.709065
0.697193
0.683933
0.669304
0.653343
0.636109
0.617685
0.598182
0.576681
0.545419
0.503566
0.464955
0.431534
0.403432
0.380414
0.362276
0.348811
0.339861
0.3353
0.335022
0.338938
0.346971
0.359066
0.375182
0.395203
0.418571
0.443169
0.457827
0.464972
0.470895
0.475665
0.479258
0.481704
0.483092
0.483566
0.48333
0.482647
0.481055
0.475555
0.467409
0.459399
0.455491
0.457045
0.46224
0.467285
0.470476
0.471309
0.471287
0.47207
0.471706
0.469031
0.46441
0.459947
0.459809
0.465282
0.475731
0.487525
0.49659
0.50182
0.5053
0.508469
0.511071
0.512915
0.513869
0.504924
0.505009
0.505239
0.505747
0.505444
0.502424
0.498681
0.496621
0.498407
0.502369
0.505792
0.506725
0.506099
0.50567
0.505266
0.504779
0.504157
0.503399
0.502566
0.499874
0.490915
0.476004
0.465247
0.45897
0.458354
0.463455
0.474366
0.491276
0.514178
0.541956
0.574411
0.59982
0.61853
0.634839
0.650816
0.66623
0.680893
0.694656
0.707406
0.719057
0.729549
0.73884
0.746899
0.753708
0.759257
0.763539
0.766549
0.768285
0.768746
0.767931
0.765837
0.762462
0.757805
0.751863
0.744636
0.736126
0.726338
0.715284
0.702984
0.689471
0.674792
0.659016
0.642234
0.624561
0.606141
0.585583
0.556069
0.516774
0.481233
0.450985
0.425934
0.406099
0.39132
0.381511
0.376589
0.376464
0.381035
0.390167
0.403745
0.42165
0.44364
0.467835
0.48343
0.490845
0.496756
0.50182
0.505985
0.509231
0.511581
0.513103
0.513911
0.514164
0.514064
0.513853
0.513723
0.511461
0.508416
0.506432
0.506435
0.507502
0.507937
0.506841
0.506338
0.506457
0.507239
0.50869
0.510685
0.510969
0.510959
0.512428
0.516409
0.5219
0.527012
0.529866
0.532513
0.535177
0.537611
0.539616
0.54104
0.541778
0.539232
0.539368
0.539679
0.540245
0.541175
0.542549
0.542696
0.542493
0.542996
0.543398
0.542333
0.541506
0.540989
0.540662
0.540425
0.540219
0.540024
0.539865
0.539827
0.540058
0.539133
0.533787
0.524592
0.517483
0.516811
0.522129
0.533504
0.551171
0.575165
0.599279
0.619268
0.634384
0.648767
0.663198
0.677418
0.691211
0.704399
0.716839
0.728414
0.739035
0.748634
0.757158
0.764571
0.770846
0.775964
0.779911
0.782678
0.78426
0.784651
0.78385
0.781854
0.778663
0.774277
0.768699
0.761933
0.753988
0.744877
0.734621
0.723249
0.710802
0.697338
0.68293
0.667674
0.651688
0.635117
0.618138
0.59955
0.573299
0.53774
0.50609
0.478973
0.457373
0.441115
0.430323
0.424987
0.425031
0.430348
0.440652
0.455661
0.474939
0.497499
0.512018
0.519131
0.524518
0.529388
0.533643
0.537223
0.5401
0.542286
0.543828
0.544811
0.545351
0.545593
0.545699
0.545824
0.546099
0.546346
0.545912
0.544745
0.543134
0.541837
0.541037
0.540741
0.540964
0.541732
0.543058
0.544967
0.547551
0.550573
0.55325
0.555617
0.557394
0.559077
0.561068
0.56319
0.565283
0.567182
0.568743
0.569851
0.570425
0.573405
0.573551
0.573864
0.574378
0.57512
0.576068
0.577051
0.57773
0.577602
0.577032
0.576438
0.575975
0.575691
0.575562
0.575554
0.575649
0.575853
0.576213
0.576817
0.577812
0.579412
0.581311
0.580615
0.579768
0.580802
0.586546
0.597699
0.612597
0.62807
0.642083
0.65388
0.666241
0.678958
0.691768
0.704445
0.716796
0.728655
0.739886
0.750377
0.760036
0.768792
0.776588
0.783383
0.789142
0.793841
0.797463
0.799993
0.801424
0.801749
0.800964
0.799066
0.796058
0.791942
0.786722
0.780409
0.773016
0.764562
0.755074
0.744588
0.733152
0.720827
0.707692
0.693843
0.679399
0.664502
0.649322
0.634059
0.618245
0.596347
0.567962
0.539453
0.516484
0.498607
0.486742
0.48095
0.481126
0.487267
0.498651
0.514402
0.532775
0.544425
0.550076
0.554471
0.558708
0.562634
0.566142
0.569163
0.571661
0.573635
0.575113
0.576153
0.576835
0.577259
0.577526
0.57772
0.577876
0.577901
0.57759
0.576872
0.575974
0.575203
0.574729
0.574624
0.574928
0.575665
0.576844
0.578464
0.580494
0.582778
0.585035
0.586995
0.588731
0.590406
0.592141
0.593896
0.595582
0.597091
0.598323
0.599195
0.599646
0.607431
0.607568
0.60785
0.608283
0.608859
0.609532
0.610185
0.610642
0.610749
0.610611
0.610411
0.610267
0.610237
0.610341
0.610581
0.610968
0.611528
0.612315
0.613417
0.614962
0.617125
0.620132
0.624328
0.628702
0.63316
0.639621
0.648236
0.657714
0.666629
0.676296
0.686749
0.697743
0.709054
0.72047
0.7318
0.742872
0.753539
0.763674
0.773171
0.78194
0.789909
0.797021
0.803229
0.808496
0.812796
0.816105
0.818409
0.819695
0.819957
0.819189
0.81739
0.814562
0.810709
0.805839
0.799965
0.793105
0.785281
0.776525
0.766878
0.75639
0.745127
0.733168
0.720608
0.707563
0.694169
0.680587
0.667002
0.653629
0.64063
0.624166
0.604374
0.582554
0.563298
0.550658
0.544468
0.544476
0.55115
0.562588
0.573042
0.580473
0.583681
0.586726
0.589968
0.593209
0.596299
0.599129
0.601626
0.603747
0.605479
0.606836
0.607851
0.608579
0.609082
0.609424
0.609653
0.609784
0.609779
0.609576
0.609173
0.608686
0.608271
0.608051
0.608099
0.608459
0.609155
0.61019
0.611549
0.613184
0.614986
0.616809
0.618526
0.620131
0.621674
0.623193
0.624672
0.626056
0.627277
0.628265
0.628959
0.629318
0.641319
0.641441
0.641684
0.642044
0.642501
0.643015
0.643512
0.643907
0.64414
0.644252
0.644328
0.644443
0.644651
0.644983
0.645462
0.646114
0.646975
0.648102
0.649573
0.651494
0.653993
0.65722
0.661314
0.666275
0.672134
0.678501
0.685278
0.692689
0.700838
0.709664
0.719078
0.728928
0.739045
0.749259
0.759411
0.769354
0.778955
0.788101
0.796692
0.804643
0.811884
0.818358
0.824015
0.82882
0.83274
0.835753
0.837841
0.838991
0.839194
0.838445
0.836743
0.83409
0.830493
0.82596
0.820508
0.814156
0.806932
0.798868
0.790008
0.780405
0.770124
0.759243
0.747857
0.736075
0.724025
0.711856
0.699734
0.687853
0.676427
0.665711
0.654808
0.642256
0.62983
0.619547
0.613434
0.611947
0.613671
0.61679
0.619038
0.619706
0.621185
0.623181
0.625466
0.62786
0.630223
0.632449
0.634464
0.636222
0.6377
0.638899
0.639838
0.640547
0.641066
0.641436
0.641685
0.641828
0.641856
0.64176
0.64156
0.641325
0.641145
0.641104
0.641261
0.641655
0.642305
0.643213
0.64436
0.645705
0.647176
0.648687
0.650168
0.651592
0.652964
0.654287
0.655543
0.656695
0.657696
0.658499
0.65906
0.659349
0.675085
0.675192
0.675402
0.675707
0.676088
0.676514
0.676943
0.677331
0.677654
0.67793
0.678205
0.678527
0.67894
0.679478
0.68017
0.68105
0.682158
0.683545
0.685281
0.687446
0.690134
0.693439
0.697435
0.702135
0.707514
0.713443
0.719866
0.726834
0.734371
0.742442
0.750971
0.759846
0.768938
0.778111
0.787232
0.796176
0.804827
0.813083
0.820852
0.828056
0.834627
0.84051
0.845655
0.850027
0.853592
0.856326
0.858211
0.859233
0.859383
0.858654
0.857047
0.854563
0.851211
0.847001
0.841951
0.836081
0.829421
0.822006
0.81388
0.805096
0.795719
0.785825
0.775503
0.764856
0.754002
0.743075
0.732226
0.721622
0.711446
0.701895
0.69317
0.685591
0.678792
0.672209
0.666963
0.663548
0.660978
0.658692
0.65761
0.657517
0.65817
0.659346
0.660856
0.662543
0.664283
0.665979
0.667559
0.668975
0.6702
0.671224
0.672053
0.672704
0.6732
0.673567
0.673824
0.673985
0.674057
0.674048
0.673983
0.673908
0.673881
0.67396
0.674187
0.674595
0.675197
0.675995
0.676973
0.678099
0.679325
0.680596
0.681866
0.683106
0.684304
0.685447
0.686517
0.687483
0.688314
0.688974
0.689433
0.689669
0.708745
0.708839
0.709025
0.709293
0.709629
0.710012
0.710416
0.71082
0.711214
0.711609
0.712034
0.712521
0.713105
0.713818
0.714691
0.715758
0.717059
0.718641
0.720558
0.722876
0.725658
0.728969
0.732851
0.737316
0.742346
0.747889
0.753911
0.760408
0.767371
0.774763
0.782517
0.790548
0.79875
0.807015
0.815231
0.823291
0.831095
0.838551
0.845578
0.852102
0.85806
0.863398
0.86807
0.872039
0.875274
0.877749
0.879445
0.880348
0.880449
0.879742
0.878226
0.875905
0.872787
0.868883
0.864212
0.858797
0.852666
0.845855
0.83841
0.830381
0.821832
0.812835
0.803473
0.793842
0.78405
0.774216
0.764473
0.754963
0.745838
0.737255
0.729364
0.722303
0.716066
0.710688
0.706046
0.702048
0.698883
0.696581
0.69518
0.694581
0.694633
0.695178
0.696067
0.697173
0.698388
0.699625
0.700819
0.701921
0.702901
0.703744
0.704447
0.705016
0.705465
0.705808
0.706059
0.706233
0.706338
0.706391
0.706415
0.706442
0.706512
0.706665
0.706934
0.707339
0.707894
0.708598
0.709439
0.710393
0.711428
0.712506
0.713593
0.714664
0.715699
0.716682
0.717593
0.718408
0.719103
0.719651
0.72003
0.720224
0.74231
0.742396
0.742565
0.742811
0.743123
0.743487
0.743889
0.744319
0.744773
0.74526
0.7458
0.746417
0.74714
0.747997
0.749017
0.750233
0.751681
0.7534
0.755437
0.757839
0.760655
0.763927
0.767683
0.771933
0.776666
0.781856
0.78748
0.793517
0.799943
0.806719
0.813788
0.821077
0.8285
0.835967
0.843385
0.850662
0.85771
0.86445
0.870806
0.876713
0.882111
0.886951
0.891189
0.894787
0.897716
0.89995
0.901472
0.902266
0.902323
0.901638
0.900211
0.898045
0.895148
0.891533
0.887219
0.882228
0.87659
0.87034
0.863522
0.856187
0.848393
0.84021
0.831713
0.822991
0.81414
0.805267
0.796487
0.787919
0.77969
0.771921
0.764726
0.758193
0.752355
0.747228
0.742778
0.73899
0.735913
0.733568
0.73195
0.730995
0.730604
0.730664
0.731062
0.731694
0.73247
0.733315
0.73417
0.734988
0.735739
0.736403
0.736973
0.737449
0.737834
0.738139
0.738373
0.738547
0.738673
0.738765
0.738843
0.738932
0.739061
0.739256
0.739542
0.739934
0.740442
0.741064
0.741792
0.742608
0.743488
0.744406
0.745337
0.746256
0.747146
0.747988
0.748764
0.749454
0.750038
0.750496
0.750812
0.750973
0.775789
0.77587
0.77603
0.776263
0.776564
0.776924
0.777335
0.777793
0.778298
0.778858
0.779488
0.780209
0.781042
0.782013
0.783148
0.784477
0.78603
0.787842
0.789949
0.792389
0.795196
0.7984
0.802021
0.806066
0.810528
0.815391
0.820635
0.826236
0.832165
0.838383
0.844839
0.851471
0.858206
0.864969
0.87168
0.878261
0.884635
0.890731
0.896484
0.901832
0.906722
0.911107
0.914946
0.918204
0.920851
0.922865
0.924226
0.92492
0.924939
0.924277
0.922934
0.920915
0.918226
0.914882
0.910901
0.906306
0.901125
0.895393
0.889153
0.882451
0.875345
0.867897
0.860178
0.852268
0.844253
0.836226
0.828287
0.820537
0.81308
0.806014
0.799427
0.793387
0.787935
0.783089
0.77885
0.775219
0.772211
0.769828
0.768055
0.766844
0.766125
0.765813
0.765823
0.766071
0.766484
0.766997
0.767556
0.768122
0.768662
0.769157
0.769595
0.769971
0.770285
0.770541
0.770747
0.77091
0.771041
0.771153
0.77126
0.771384
0.771543
0.771757
0.772044
0.772414
0.772875
0.773424
0.774056
0.774758
0.77551
0.776295
0.777091
0.777879
0.778641
0.779361
0.780022
0.780607
0.781099
0.781484
0.781748
0.781883
0.809186
0.809265
0.80942
0.809649
0.809947
0.81031
0.810735
0.81122
0.811767
0.812386
0.813087
0.813887
0.814806
0.815864
0.817086
0.818496
0.820121
0.821989
0.824129
0.826571
0.82934
0.832457
0.835936
0.839782
0.843989
0.848545
0.853432
0.858626
0.864098
0.869809
0.875715
0.881761
0.887885
0.894023
0.900105
0.906066
0.911837
0.917357
0.922566
0.927409
0.931838
0.935809
0.939285
0.942231
0.944621
0.946432
0.947646
0.94825
0.948235
0.947597
0.946335
0.944453
0.94196
0.938869
0.935198
0.930969
0.92621
0.920955
0.915244
0.90912
0.902638
0.895854
0.888834
0.881649
0.874376
0.867097
0.859897
0.852862
0.846079
0.839629
0.833581
0.827994
0.822907
0.818343
0.814314
0.810826
0.807882
0.80548
0.803599
0.802203
0.801237
0.80064
0.800344
0.800284
0.800397
0.800631
0.800938
0.801281
0.801632
0.801969
0.802279
0.802555
0.802793
0.802994
0.803163
0.803305
0.803429
0.803543
0.803662
0.803799
0.803969
0.804186
0.804461
0.804804
0.805218
0.805703
0.806252
0.806856
0.807501
0.808172
0.808853
0.809527
0.810179
0.810793
0.811355
0.811851
0.812268
0.812592
0.812814
0.812927
0.842506
0.842583
0.842736
0.842964
0.843264
0.843635
0.844074
0.844583
0.845166
0.84583
0.846586
0.847447
0.84843
0.849553
0.850835
0.8523
0.853968
0.855863
0.858008
0.860426
0.863136
0.866152
0.869484
0.873136
0.877101
0.881369
0.885923
0.890739
0.89579
0.901042
0.906451
0.911972
0.917551
0.923131
0.928653
0.93406
0.939292
0.944294
0.949013
0.9534
0.957412
0.961007
0.964152
0.966815
0.96897
0.970596
0.971677
0.972199
0.972155
0.97154
0.970355
0.968602
0.966292
0.963436
0.960052
0.956162
0.951792
0.946974
0.941746
0.936149
0.930232
0.924048
0.917656
0.911119
0.904507
0.897889
0.891341
0.884936
0.878747
0.87284
0.867275
0.862101
0.857356
0.853063
0.849237
0.845887
0.843013
0.84061
0.838658
0.837129
0.835981
0.835166
0.83463
0.834322
0.834191
0.834191
0.834283
0.834432
0.834614
0.834807
0.834997
0.835176
0.835337
0.83548
0.835606
0.835719
0.835824
0.835931
0.836046
0.836182
0.836349
0.836556
0.836812
0.837123
0.837491
0.837916
0.838392
0.838913
0.839466
0.84004
0.840622
0.841197
0.841753
0.842277
0.842755
0.843176
0.843528
0.843802
0.843989
0.844084
0.875748
0.875825
0.875978
0.876208
0.876512
0.87689
0.877343
0.877873
0.878485
0.879183
0.87998
0.880886
0.881914
0.883081
0.884404
0.8859
0.887588
0.889487
0.891615
0.893989
0.896624
0.89953
0.902714
0.906176
0.90991
0.913907
0.91815
0.922617
0.927283
0.932115
0.937077
0.942126
0.947215
0.952296
0.957318
0.962228
0.966976
0.971513
0.975791
0.979768
0.983402
0.986657
0.989501
0.991906
0.993847
0.995306
0.996266
0.996715
0.996646
0.996054
0.994941
0.99331
0.99117
0.988532
0.985413
0.981835
0.977822
0.973404
0.968616
0.963498
0.958093
0.952449
0.946621
0.940665
0.934641
0.928612
0.922642
0.916795
0.911131
0.905708
0.900577
0.895781
0.891352
0.887315
0.883685
0.880471
0.877674
0.875287
0.873296
0.871675
0.870393
0.869412
0.86869
0.868184
0.867853
0.86766
0.867569
0.867552
0.867585
0.867648
0.867728
0.867814
0.867899
0.867982
0.868062
0.86814
0.86822
0.868308
0.86841
0.868534
0.868687
0.868876
0.869108
0.869384
0.869708
0.870078
0.870489
0.870936
0.87141
0.8719
0.872396
0.872887
0.87336
0.873806
0.874212
0.874569
0.874867
0.875098
0.875257
0.875337
0.908913
0.90899
0.909145
0.909376
0.909685
0.910071
0.910536
0.911082
0.911715
0.912439
0.913265
0.914201
0.91526
0.916454
0.917798
0.919307
0.920997
0.922881
0.924976
0.927292
0.929841
0.932632
0.935666
0.938943
0.942457
0.946199
0.950152
0.954297
0.958609
0.96306
0.967615
0.972238
0.976888
0.981521
0.986093
0.990558
0.994872
0.998991
1.00287
1.00648
1.00977
1.01272
1.01529
1.01746
1.01921
1.02051
1.02137
1.02175
1.02166
1.02109
1.02004
1.01853
1.01654
1.01411
1.01123
1.00794
1.00426
1.0002
0.995818
0.991133
0.986192
0.981036
0.975715
0.970279
0.964781
0.959277
0.953821
0.948469
0.943274
0.938285
0.933545
0.929092
0.924956
0.921159
0.917717
0.914638
0.911924
0.909569
0.907562
0.905882
0.904504
0.903399
0.902532
0.90187
0.901378
0.901025
0.900782
0.900623
0.900526
0.900473
0.900452
0.900452
0.900465
0.900488
0.900519
0.900558
0.900608
0.900671
0.900753
0.900857
0.90099
0.901155
0.901357
0.901599
0.901879
0.902198
0.902551
0.902933
0.903337
0.903755
0.904177
0.904594
0.904996
0.905374
0.905718
0.906021
0.906273
0.906468
0.906602
0.90667
0.942001
0.942079
0.942234
0.942468
0.94278
0.943173
0.943646
0.944205
0.944852
0.945595
0.946439
0.947394
0.948469
0.949677
0.951028
0.952535
0.954211
0.956066
0.958113
0.960361
0.962818
0.965489
0.968374
0.971473
0.974778
0.978279
0.981962
0.985809
0.989797
0.993899
0.998086
1.00232
1.00658
1.01081
1.01497
1.01904
1.02296
1.02671
1.03023
1.0335
1.03648
1.03915
1.04148
1.04344
1.04501
1.04618
1.04693
1.04726
1.04715
1.0466
1.04562
1.04421
1.04237
1.04012
1.03747
1.03444
1.03106
1.02734
1.02332
1.01903
1.0145
1.00979
1.00492
0.999954
0.994927
0.989892
0.984896
0.979987
0.975212
0.970612
0.966226
0.962087
0.958221
0.954649
0.951387
0.948441
0.945815
0.943504
0.9415
0.939786
0.938343
0.937147
0.93617
0.935386
0.934765
0.934282
0.933911
0.93363
0.933421
0.933267
0.933155
0.933075
0.933021
0.932986
0.932968
0.932967
0.932982
0.933016
0.933072
0.933152
0.933259
0.933397
0.933568
0.933773
0.934012
0.934284
0.934584
0.934908
0.935251
0.935605
0.935962
0.936315
0.936656
0.936976
0.937267
0.937522
0.937735
0.9379
0.938013
0.93807
0.975011
0.975089
0.975245
0.975481
0.975796
0.976193
0.976672
0.977239
0.977895
0.978648
0.979502
0.980465
0.981547
0.982756
0.984102
0.985594
0.987244
0.98906
0.99105
0.993222
0.995582
0.998131
1.00087
1.0038
1.0069
1.01018
1.01361
1.01718
1.02087
1.02465
1.02851
1.03239
1.03629
1.04016
1.04396
1.04766
1.05124
1.05464
1.05784
1.06081
1.06351
1.06593
1.06803
1.0698
1.07122
1.07226
1.07292
1.0732
1.07307
1.07255
1.07163
1.07032
1.06861
1.06653
1.06409
1.0613
1.05819
1.05477
1.05109
1.04715
1.04301
1.03869
1.03424
1.02969
1.02508
1.02047
1.01588
1.01137
1.00697
1.00273
0.99866
0.994808
0.991191
0.98783
0.984739
0.981924
0.97939
0.977133
0.975147
0.97342
0.971936
0.970675
0.969617
0.968737
0.968014
0.967425
0.966949
0.966567
0.966262
0.966019
0.965826
0.965675
0.965556
0.965466
0.965401
0.965358
0.965338
0.96534
0.965366
0.965418
0.965498
0.965606
0.965745
0.965914
0.966113
0.96634
0.966592
0.966865
0.967153
0.967451
0.967752
0.96805
0.968336
0.968606
0.968851
0.969066
0.969246
0.969384
0.969479
0.969527
1.00794
1.00802
1.00818
1.00841
1.00873
1.00913
1.00961
1.01018
1.01084
1.0116
1.01246
1.01342
1.0145
1.0157
1.01703
1.0185
1.02011
1.02188
1.02381
1.0259
1.02816
1.03058
1.03318
1.03594
1.03886
1.04192
1.04512
1.04843
1.05185
1.05534
1.05889
1.06246
1.06603
1.06957
1.07304
1.07642
1.07968
1.08277
1.08568
1.08838
1.09083
1.09302
1.09492
1.09652
1.09779
1.09872
1.09931
1.09953
1.0994
1.0989
1.09803
1.09681
1.09523
1.09331
1.09106
1.08849
1.08562
1.08248
1.0791
1.07549
1.07169
1.06773
1.06365
1.05947
1.05525
1.05101
1.0468
1.04264
1.03859
1.03466
1.03088
1.02729
1.02391
1.02074
1.01781
1.01513
1.01269
1.01049
1.00854
1.00681
1.00531
1.004
1.00288
1.00193
1.00113
1.00046
0.999894
0.999427
0.99904
0.99872
0.998456
0.99824
0.998064
0.997922
0.997811
0.997727
0.997671
0.99764
0.997635
0.997658
0.997707
0.997785
0.997891
0.998025
0.998186
0.998372
0.99858
0.998806
0.999045
0.999294
0.999545
0.999794
1.00003
1.00026
1.00047
1.00065
1.0008
1.00091
1.00099
1.00103
1.0408
1.04087
1.04103
1.04127
1.04158
1.04198
1.04247
1.04303
1.04369
1.04445
1.0453
1.04626
1.04733
1.04851
1.04982
1.05125
1.05283
1.05454
1.0564
1.0584
1.06056
1.06287
1.06532
1.06792
1.07066
1.07353
1.07651
1.07959
1.08275
1.08598
1.08924
1.09253
1.0958
1.09904
1.10222
1.10531
1.10827
1.11109
1.11374
1.11619
1.11842
1.1204
1.12212
1.12356
1.1247
1.12553
1.12605
1.12623
1.12609
1.12561
1.1248
1.12366
1.12219
1.12041
1.11833
1.11597
1.11333
1.11044
1.10733
1.10402
1.10053
1.09689
1.09314
1.08931
1.08543
1.08153
1.07765
1.07382
1.07007
1.06643
1.06292
1.05957
1.0564
1.05342
1.05065
1.04808
1.04574
1.04361
1.04169
1.03998
1.03847
1.03714
1.03598
1.03498
1.03412
1.03337
1.03274
1.03221
1.03175
1.03136
1.03104
1.03077
1.03054
1.03035
1.03019
1.03007
1.02998
1.02991
1.02988
1.02987
1.02989
1.02994
1.03001
1.03011
1.03023
1.03038
1.03055
1.03073
1.03093
1.03113
1.03134
1.03155
1.03175
1.03193
1.03211
1.03226
1.03238
1.03248
1.03254
1.03258
1.07357
1.07365
1.0738
1.07404
1.07435
1.07475
1.07523
1.0758
1.07645
1.0772
1.07804
1.07899
1.08004
1.0812
1.08248
1.08387
1.0854
1.08705
1.08884
1.09076
1.09281
1.095
1.09733
1.09977
1.10234
1.10502
1.1078
1.11066
1.11359
1.11657
1.11958
1.1226
1.12561
1.12858
1.13149
1.13431
1.13702
1.13959
1.142
1.14422
1.14625
1.14804
1.1496
1.1509
1.15192
1.15267
1.15312
1.15327
1.15311
1.15265
1.15189
1.15083
1.14947
1.14782
1.1459
1.14372
1.14129
1.13863
1.13577
1.13272
1.12951
1.12617
1.12272
1.1192
1.11563
1.11204
1.10846
1.10492
1.10145
1.09807
1.0948
1.09167
1.0887
1.08589
1.08327
1.08082
1.07857
1.07652
1.07465
1.07296
1.07145
1.07011
1.06893
1.06789
1.06698
1.06619
1.0655
1.0649
1.06439
1.06395
1.06357
1.06325
1.06297
1.06274
1.06254
1.06238
1.06226
1.06216
1.06209
1.06205
1.06204
1.06206
1.0621
1.06217
1.06226
1.06237
1.0625
1.06265
1.06281
1.06297
1.06314
1.06331
1.06347
1.06363
1.06377
1.06389
1.06399
1.06407
1.06413
1.06416
1.10627
1.10634
1.1065
1.10673
1.10704
1.10744
1.10791
1.10847
1.10912
1.10985
1.11068
1.11161
1.11264
1.11377
1.11502
1.11637
1.11784
1.11943
1.12114
1.12298
1.12493
1.12701
1.1292
1.1315
1.13391
1.13641
1.139
1.14166
1.14438
1.14713
1.14991
1.15269
1.15546
1.15818
1.16084
1.16342
1.1659
1.16824
1.17044
1.17246
1.1743
1.17593
1.17734
1.17851
1.17943
1.18009
1.18048
1.1806
1.18044
1.18
1.17929
1.17829
1.17703
1.17551
1.17373
1.17171
1.16947
1.16702
1.16439
1.16158
1.15863
1.15555
1.15238
1.14913
1.14584
1.14253
1.13922
1.13595
1.13273
1.12959
1.12655
1.12362
1.12083
1.11819
1.1157
1.11337
1.11122
1.10923
1.10741
1.10576
1.10427
1.10293
1.10173
1.10066
1.09972
1.09889
1.09816
1.09752
1.09696
1.09647
1.09605
1.09568
1.09536
1.09509