/*--------------------------------*- C++ -*----------------------------------*\
| =========                 |                                                 |
| \\      /  F ield         | OpenFOAM: The Open Source CFD Toolbox           |
|  \\    /   O peration     | Version:  2406                                  |
|   \\  /    A nd           | Website:  www.openfoam.com                      |
|    \\/     M anipulation  |                                                 |
\*---------------------------------------------------------------------------*/
FoamFile
{
    version     2.0;
    format      ascii;
    arch        "LSB;label=32;scalar=64";
    class       volScalarField;
    location    "7";
    object      C_0;
}
// * * * * * * * * * * * * * * * * * * * * * * * * * * * * * * * * * * * * * //

dimensions      [1 -3 0 0 0 0 0];

internalField   nonuniform List<scalar> 
14400
(
0.240595
0.239397
0.237319
0.234824
0.232381
0.230385
0.229128
0.228794
0.229456
0.231077
0.233505
0.236464
0.239542
0.242193
0.24377
0.24366
0.241573
0.237935
0.233476
0.228943
0.224985
0.222129
0.220804
0.221365
0.224123
0.229363
0.237362
0.248405
0.262786
0.280825
0.30286
0.329246
0.360338
0.396445
0.437719
0.483858
0.532795
0.569469
0.593537
0.613768
0.631241
0.646205
0.658856
0.669342
0.67778
0.68426
0.688848
0.691591
0.69252
0.691648
0.688974
0.684483
0.678143
0.669904
0.659699
0.647438
0.633005
0.61625
0.596983
0.57496
0.54723
0.506448
0.456487
0.410332
0.369451
0.333848
0.30323
0.27722
0.255432
0.237498
0.223078
0.211867
0.203596
0.19803
0.194971
0.194261
0.195777
0.199439
0.205196
0.213019
0.222884
0.234749
0.248518
0.263991
0.280752
0.297807
0.311796
0.318514
0.317582
0.309382
0.297596
0.285429
0.273905
0.263513
0.254508
0.247001
0.241002
0.236438
0.233174
0.231021
0.229754
0.229138
0.22896
0.229073
0.229439
0.230142
0.231374
0.233391
0.236472
0.240887
0.246875
0.254631
0.264296
0.275942
0.289558
0.305004
0.321918
0.339374
0.35422
0.361774
0.248404
0.246876
0.244309
0.241313
0.238439
0.23612
0.234661
0.23425
0.234963
0.236765
0.239508
0.242919
0.246577
0.249892
0.252089
0.252268
0.249763
0.245395
0.240181
0.23499
0.230505
0.22725
0.22564
0.226018
0.228681
0.233906
0.241965
0.253136
0.267713
0.286012
0.308372
0.335151
0.366708
0.403354
0.445219
0.491756
0.539394
0.573557
0.596616
0.616526
0.633749
0.64852
0.66102
0.671389
0.679739
0.686152
0.690693
0.693406
0.69432
0.693449
0.690792
0.686333
0.680041
0.67187
0.661755
0.64961
0.635326
0.618762
0.59974
0.578031
0.551874
0.513071
0.463296
0.416826
0.375474
0.339388
0.308322
0.281914
0.25978
0.241548
0.226879
0.215466
0.207041
0.20137
0.198257
0.197547
0.199122
0.202902
0.20884
0.216909
0.22709
0.239343
0.253578
0.269601
0.287
0.304759
0.31887
0.325068
0.324864
0.3172
0.305078
0.292419
0.280434
0.269665
0.260375
0.252678
0.24658
0.242005
0.238808
0.236787
0.235692
0.235251
0.235205
0.235366
0.235679
0.236249
0.23731
0.239161
0.242116
0.246471
0.252478
0.260341
0.270201
0.282133
0.296123
0.312029
0.329479
0.347482
0.361847
0.368027
0.264555
0.262216
0.258544
0.254474
0.250705
0.247725
0.245858
0.245292
0.246103
0.248263
0.251632
0.255947
0.260791
0.265527
0.269183
0.270249
0.266582
0.260524
0.253703
0.247171
0.241631
0.237584
0.235411
0.235424
0.237899
0.243096
0.251273
0.2627
0.277667
0.296485
0.319492
0.347044
0.379502
0.417179
0.4602
0.507749
0.551183
0.580675
0.602701
0.62197
0.638709
0.653105
0.665314
0.675457
0.683633
0.689916
0.694365
0.697019
0.697906
0.697037
0.694411
0.690015
0.683819
0.67578
0.665841
0.653922
0.639927
0.623733
0.605185
0.584091
0.560027
0.525397
0.477076
0.429963
0.387624
0.35056
0.318601
0.2914
0.268575
0.249752
0.234588
0.222776
0.214047
0.208171
0.204956
0.204251
0.205945
0.209962
0.216261
0.22482
0.235625
0.248644
0.263795
0.280876
0.299426
0.318186
0.331835
0.337299
0.337914
0.33245
0.320046
0.30645
0.293574
0.282071
0.272227
0.264159
0.257874
0.25329
0.250249
0.248521
0.247808
0.247761
0.24802
0.248294
0.248482
0.248742
0.249411
0.25089
0.253567
0.257781
0.263813
0.271877
0.28212
0.294613
0.30933
0.326099
0.344448
0.362922
0.375196
0.379723
0.290107
0.286066
0.280419
0.274588
0.269417
0.265429
0.262943
0.262141
0.263095
0.265778
0.270066
0.275719
0.282351
0.289349
0.295639
0.299013
0.292587
0.283521
0.274156
0.265607
0.258514
0.253304
0.250302
0.249778
0.251975
0.25713
0.265485
0.277298
0.292849
0.312442
0.336409
0.365094
0.39883
0.437861
0.482051
0.52937
0.565819
0.590617
0.611541
0.629946
0.64601
0.659879
0.671674
0.681493
0.689419
0.695515
0.69983
0.7024
0.703247
0.702381
0.699802
0.695496
0.689439
0.681592
0.671904
0.660311
0.646728
0.631056
0.613175
0.592949
0.57024
0.541273
0.498257
0.449904
0.406038
0.367525
0.334244
0.305868
0.282015
0.262312
0.246414
0.234012
0.224837
0.218663
0.215305
0.214617
0.216494
0.220869
0.227706
0.236991
0.248718
0.262864
0.27935
0.297961
0.3181
0.337679
0.349189
0.354066
0.355299
0.352727
0.34213
0.327513
0.313446
0.300911
0.290274
0.281676
0.275133
0.270565
0.267804
0.266586
0.266543
0.26721
0.268046
0.268539
0.268476
0.268147
0.268105
0.268927
0.271114
0.275071
0.28111
0.289457
0.300256
0.313565
0.329326
0.347291
0.366718
0.38404
0.392398
0.395774
0.326158
0.318899
0.310199
0.301884
0.294816
0.289489
0.286187
0.285072
0.286205
0.289561
0.295022
0.302368
0.311254
0.3211
0.330519
0.3332
0.326842
0.314054
0.301471
0.29039
0.281335
0.274643
0.270575
0.269355
0.271191
0.276297
0.284894
0.297223
0.313553
0.334178
0.359413
0.389574
0.424926
0.465563
0.510782
0.553081
0.581478
0.603329
0.622901
0.640263
0.655507
0.668727
0.680008
0.689423
0.697036
0.702895
0.707042
0.709504
0.7103
0.709439
0.706919
0.702729
0.696848
0.689244
0.679875
0.668688
0.655618
0.640588
0.623512
0.604292
0.582822
0.558449
0.523603
0.476023
0.430755
0.390487
0.35551
0.325596
0.30039
0.279526
0.262659
0.24948
0.239723
0.233166
0.229629
0.228975
0.231106
0.235961
0.243512
0.253752
0.266682
0.282284
0.300475
0.320989
0.342933
0.361224
0.369798
0.374446
0.37622
0.375296
0.369475
0.355364
0.340174
0.326418
0.314791
0.305527
0.298674
0.294173
0.29186
0.291438
0.292468
0.294336
0.296216
0.297133
0.296575
0.295182
0.293942
0.293712
0.295128
0.298665
0.304668
0.313361
0.324867
0.33922
0.356263
0.375502
0.395248
0.40735
0.412565
0.415199
0.366016
0.359355
0.347536
0.336364
0.327057
0.320136
0.315857
0.314367
0.315713
0.319863
0.326691
0.335937
0.347155
0.35929
0.366773
0.366723
0.363382
0.350721
0.335325
0.321575
0.310311
0.301891
0.296557
0.294501
0.295907
0.300962
0.30987
0.322852
0.34016
0.362069
0.388873
0.420828
0.458035
0.500088
0.544326
0.575961
0.598227
0.618317
0.636472
0.652697
0.667028
0.679515
0.690208
0.699156
0.706404
0.711988
0.715937
0.718274
0.719011
0.718156
0.715706
0.711653
0.70598
0.69866
0.689663
0.678948
0.666467
0.652167
0.635991
0.617883
0.597794
0.575697
0.548856
0.508648
0.462046
0.41974
0.382739
0.350951
0.324079
0.301777
0.283708
0.269568
0.259094
0.252071
0.248326
0.247729
0.250187
0.255646
0.264084
0.275498
0.289893
0.30724
0.327404
0.349882
0.37266
0.386456
0.393276
0.397701
0.399837
0.399825
0.397845
0.389466
0.373843
0.358812
0.34606
0.336029
0.328828
0.324459
0.322797
0.323524
0.326146
0.329922
0.33366
0.33544
0.333867
0.330611
0.327468
0.325681
0.325978
0.328894
0.334801
0.343886
0.356215
0.371784
0.390196
0.410149
0.424574
0.431202
0.435201
0.437259
0.40219
0.399819
0.390838
0.377676
0.366149
0.357538
0.352186
0.350285
0.351871
0.356906
0.365216
0.376328
0.389106
0.399015
0.401202
0.40031
0.398601
0.391721
0.375416
0.359289
0.345723
0.335398
0.328636
0.325627
0.326545
0.331561
0.340857
0.354634
0.373116
0.396549
0.425195
0.459215
0.498391
0.541019
0.574223
0.596907
0.616861
0.635241
0.651973
0.667025
0.680394
0.692095
0.702152
0.71059
0.717437
0.722716
0.726446
0.728642
0.729314
0.728466
0.726096
0.722198
0.716757
0.709755
0.70117
0.690974
0.679135
0.665621
0.650403
0.633455
0.614771
0.594371
0.572309
0.54274
0.499225
0.455452
0.416309
0.382373
0.353542
0.329533
0.310031
0.294742
0.283414
0.27584
0.271855
0.271338
0.274201
0.280391
0.289886
0.302685
0.318781
0.338109
0.360423
0.384682
0.403929
0.412987
0.419055
0.423245
0.425603
0.426253
0.425405
0.422687
0.413512
0.39801
0.384222
0.373429
0.365854
0.36167
0.360884
0.36312
0.367856
0.374328
0.380916
0.384316
0.380848
0.374818
0.368955
0.365121
0.363935
0.366005
0.371762
0.381281
0.394428
0.411197
0.430127
0.444766
0.452264
0.456676
0.459777
0.461376
0.436343
0.43613
0.433334
0.424569
0.411794
0.401707
0.395293
0.392996
0.394827
0.400754
0.410517
0.422764
0.432612
0.435945
0.435562
0.434708
0.433278
0.430974
0.421185
0.403676
0.387879
0.37554
0.367242
0.363187
0.363578
0.368578
0.378347
0.393064
0.412904
0.43804
0.468684
0.504722
0.544525
0.577152
0.599798
0.61902
0.637071
0.653813
0.669154
0.683035
0.695428
0.70632
0.715713
0.723615
0.730038
0.734992
0.738488
0.740535
0.741138
0.740299
0.738016
0.734284
0.729094
0.722434
0.714289
0.704642
0.693478
0.680781
0.666543
0.650765
0.633465
0.614689
0.594514
0.572722
0.541515
0.497847
0.456655
0.420354
0.389298
0.363329
0.342164
0.325537
0.31321
0.304992
0.300735
0.300323
0.30367
0.310718
0.321438
0.335815
0.353805
0.375201
0.399271
0.422365
0.434477
0.441319
0.446714
0.450621
0.453075
0.454181
0.454116
0.453126
0.450457
0.442405
0.428801
0.41771
0.409767
0.405758
0.406074
0.410023
0.416837
0.425751
0.43061
0.432186
0.430918
0.42625
0.417711
0.411917
0.408983
0.409984
0.415589
0.425601
0.439138
0.456249
0.46887
0.475912
0.480071
0.483463
0.485856
0.487092
0.470709
0.470681
0.470698
0.468614
0.462205
0.451969
0.444896
0.442374
0.444364
0.450788
0.46121
0.468375
0.471203
0.470855
0.470393
0.469682
0.46864
0.467225
0.464242
0.453694
0.436821
0.422589
0.412794
0.407634
0.407488
0.412511
0.422838
0.438631
0.459981
0.486809
0.519243
0.555897
0.585779
0.607122
0.625086
0.642306
0.658588
0.673787
0.687794
0.700535
0.711962
0.722044
0.730766
0.738121
0.744106
0.748725
0.751979
0.753871
0.754403
0.753575
0.751385
0.747829
0.742902
0.736598
0.728909
0.719828
0.709353
0.697481
0.684223
0.669596
0.653637
0.636403
0.617981
0.598481
0.577016
0.54581
0.503942
0.465308
0.431867
0.403743
0.380705
0.362548
0.349068
0.340106
0.335536
0.335253
0.339167
0.3472
0.359297
0.375416
0.395443
0.418818
0.443412
0.458038
0.465175
0.471093
0.47586
0.47945
0.481894
0.48328
0.483752
0.483514
0.482829
0.481246
0.475757
0.467629
0.459628
0.455719
0.457271
0.462454
0.46748
0.470659
0.471478
0.471455
0.47224
0.47189
0.469228
0.464629
0.460179
0.460036
0.465514
0.475958
0.487732
0.496782
0.501995
0.505476
0.508645
0.511247
0.513091
0.514045
0.505103
0.505188
0.505418
0.505927
0.505638
0.502631
0.498906
0.496854
0.498638
0.502586
0.505999
0.50692
0.506297
0.505872
0.505472
0.504989
0.504372
0.50362
0.502795
0.500134
0.491214
0.476309
0.465563
0.459283
0.458673
0.463786
0.474717
0.491656
0.514577
0.542378
0.574809
0.600169
0.618833
0.635141
0.651117
0.666529
0.68119
0.694952
0.7077
0.71935
0.72984
0.739129
0.747186
0.753995
0.759543
0.763823
0.766832
0.768568
0.769029
0.768213
0.766119
0.762744
0.758087
0.752146
0.744919
0.73641
0.726623
0.71557
0.703271
0.689759
0.675082
0.659307
0.642527
0.624856
0.606438
0.585922
0.556464
0.517155
0.481607
0.451339
0.426263
0.406409
0.391613
0.381791
0.37686
0.37673
0.381299
0.390431
0.404011
0.421916
0.443909
0.468106
0.483664
0.491056
0.496962
0.502021
0.506182
0.509425
0.511772
0.513292
0.514097
0.514348
0.514246
0.514032
0.513902
0.511652
0.508612
0.506629
0.506628
0.507687
0.508108
0.507009
0.506506
0.506625
0.507407
0.508858
0.510858
0.511156
0.511154
0.512629
0.516607
0.522092
0.527194
0.530038
0.532686
0.535351
0.537785
0.539791
0.541215
0.541953
0.539413
0.539548
0.53986
0.540426
0.541356
0.542733
0.542895
0.542699
0.5432
0.543592
0.542525
0.541702
0.541189
0.540865
0.540633
0.540431
0.540241
0.540088
0.540056
0.540294
0.539402
0.534091
0.524947
0.517825
0.517159
0.522491
0.533885
0.551589
0.575582
0.59964
0.619591
0.634679
0.649063
0.663493
0.677712
0.691504
0.704691
0.71713
0.728703
0.739323
0.74892
0.757444
0.764856
0.771129
0.776246
0.780192
0.782959
0.78454
0.784931
0.784129
0.782133
0.778942
0.774556
0.768979
0.762213
0.754269
0.745159
0.734904
0.723532
0.711087
0.697624
0.683217
0.667962
0.651978
0.635409
0.618432
0.599885
0.573681
0.538156
0.506488
0.479343
0.457724
0.44145
0.430641
0.425295
0.425334
0.430652
0.440956
0.455967
0.475234
0.49779
0.512267
0.51935
0.524731
0.529595
0.533846
0.537422
0.540296
0.542478
0.544018
0.544998
0.545535
0.545775
0.545878
0.546
0.54627
0.546515
0.546081
0.544911
0.5433
0.542005
0.541205
0.540909
0.541132
0.541899
0.543226
0.545134
0.547715
0.550737
0.55342
0.555784
0.557559
0.559245
0.561239
0.563362
0.565455
0.567355
0.568916
0.570024
0.570598
0.573587
0.573733
0.574047
0.57456
0.575303
0.576252
0.577234
0.577913
0.577787
0.577223
0.576631
0.576172
0.575892
0.575766
0.575763
0.575861
0.576071
0.576435
0.577046
0.578047
0.579654
0.58158
0.580915
0.580101
0.581168
0.586928
0.598079
0.612952
0.628393
0.642372
0.654166
0.666529
0.679246
0.692056
0.704733
0.717083
0.728942
0.740172
0.750661
0.76032
0.769074
0.77687
0.783663
0.789421
0.79412
0.797741
0.800271
0.801702
0.802026
0.80124
0.799343
0.796335
0.792218
0.786999
0.780686
0.773294
0.764841
0.755353
0.744868
0.733433
0.721109
0.707975
0.694127
0.679684
0.664788
0.649609
0.634348
0.61856
0.596705
0.568395
0.539854
0.516877
0.498987
0.487099
0.481293
0.481468
0.487615
0.498992
0.514751
0.533072
0.544683
0.550303
0.55469
0.558922
0.562843
0.566346
0.569363
0.571858
0.573828
0.575303
0.57634
0.57702
0.577441
0.577705
0.577896
0.578049
0.578072
0.577759
0.57704
0.576142
0.575371
0.574897
0.574792
0.575096
0.575832
0.577011
0.57863
0.580659
0.582942
0.585199
0.58716
0.588897
0.590573
0.59231
0.594066
0.595752
0.597262
0.598495
0.599367
0.599818
0.607614
0.607751
0.608033
0.608466
0.609043
0.609716
0.61037
0.610829
0.610938
0.610803
0.610606
0.610465
0.610439
0.610546
0.61079
0.611181
0.611745
0.612537
0.613645
0.615195
0.617364
0.620377
0.624579
0.628986
0.633465
0.639933
0.64854
0.657994
0.6669
0.676572
0.687028
0.698023
0.709335
0.720752
0.732082
0.743154
0.753821
0.763955
0.773451
0.782219
0.790188
0.797299
0.803506
0.808773
0.813071
0.81638
0.818683
0.819969
0.82023
0.819462
0.817663
0.814835
0.810982
0.806113
0.800239
0.793379
0.785556
0.776801
0.767154
0.756667
0.745405
0.733446
0.720887
0.707843
0.69445
0.680869
0.667284
0.653911
0.640918
0.624503
0.604762
0.582978
0.563721
0.551043
0.544838
0.544846
0.551539
0.562938
0.573336
0.580731
0.583913
0.586952
0.590187
0.593422
0.596507
0.599333
0.601826
0.603944
0.605673
0.607026
0.608039
0.608764
0.609265
0.609604
0.609831
0.609959
0.609952
0.609746
0.609343
0.608855
0.60844
0.608219
0.608267
0.608627
0.609322
0.610357
0.611716
0.613349
0.615152
0.616974
0.618691
0.620297
0.621841
0.623362
0.624841
0.626226
0.627447
0.628435
0.62913
0.629489
0.641503
0.641625
0.641869
0.642229
0.642687
0.643201
0.6437
0.644095
0.644331
0.644445
0.644524
0.644642
0.644853
0.645188
0.645671
0.646327
0.647193
0.648324
0.6498
0.651725
0.65423
0.657461
0.661561
0.666525
0.672386
0.678757
0.685537
0.692953
0.701105
0.709934
0.71935
0.729202
0.73932
0.749535
0.759688
0.76963
0.779232
0.788377
0.796967
0.804918
0.812159
0.818631
0.824289
0.829092
0.833012
0.836025
0.838112
0.839262
0.839464
0.838715
0.837013
0.834361
0.830763
0.826231
0.820779
0.814428
0.807203
0.79914
0.79028
0.780678
0.770397
0.759518
0.748132
0.736351
0.724301
0.712132
0.70001
0.688129
0.676702
0.665985
0.655113
0.642586
0.630184
0.619919
0.613801
0.612291
0.613984
0.617071
0.619281
0.619941
0.621414
0.623405
0.625684
0.628073
0.630431
0.632653
0.634664
0.636419
0.637894
0.63909
0.640026
0.640732
0.641249
0.641616
0.641863
0.642003
0.64203
0.641932
0.641731
0.641495
0.641315
0.641273
0.64143
0.641823
0.642473
0.64338
0.644527
0.645871
0.647341
0.648853
0.650334
0.651759
0.653131
0.654455
0.655711
0.656864
0.657866
0.658668
0.65923
0.659519
0.67527
0.675377
0.675588
0.675893
0.676275
0.676702
0.677132
0.677521
0.677846
0.678124
0.678401
0.678727
0.679143
0.679683
0.680379
0.681263
0.682374
0.683766
0.685506
0.687676
0.690368
0.693678
0.697677
0.702381
0.707763
0.713695
0.720122
0.727093
0.734633
0.742707
0.751238
0.760114
0.769208
0.778382
0.787503
0.796448
0.805099
0.813354
0.821123
0.828327
0.834898
0.840779
0.845925
0.850296
0.85386
0.856595
0.858479
0.859501
0.85965
0.858921
0.857314
0.85483
0.851478
0.847269
0.842218
0.836349
0.829689
0.822274
0.814149
0.805365
0.795989
0.786095
0.775773
0.765126
0.754272
0.743346
0.732496
0.721892
0.711714
0.702163
0.693435
0.685853
0.679065
0.672504
0.66726
0.663829
0.661227
0.658932
0.657846
0.657749
0.658397
0.659568
0.661073
0.662756
0.664491
0.666183
0.66776
0.669173
0.670394
0.671415
0.672241
0.67289
0.673384
0.673748
0.674003
0.674162
0.674231
0.674221
0.674154
0.674078
0.674051
0.674129
0.674356
0.674763
0.675365
0.676163
0.67714
0.678265
0.679491
0.680762
0.682032
0.683273
0.684471
0.685615
0.686684
0.687652
0.688483
0.689143
0.689602
0.689838
0.708931
0.709026
0.709212
0.70948
0.709817
0.7102
0.710606
0.711011
0.711407
0.711804
0.712231
0.712721
0.713308
0.714023
0.7149
0.715971
0.717275
0.71886
0.720782
0.723103
0.72589
0.729204
0.73309
0.737558
0.742592
0.748137
0.754162
0.760663
0.767628
0.775022
0.782779
0.790811
0.799014
0.80728
0.815497
0.823558
0.831362
0.838818
0.845845
0.852368
0.858326
0.863664
0.868336
0.872305
0.875539
0.878014
0.87971
0.880613
0.880713
0.880006
0.87849
0.876169
0.873051
0.869147
0.864476
0.859061
0.85293
0.84612
0.838675
0.830647
0.822098
0.813101
0.803739
0.794108
0.784316
0.774482
0.764738
0.755227
0.746101
0.737516
0.729623
0.722561
0.716321
0.710939
0.706294
0.702293
0.699125
0.696818
0.695413
0.69481
0.694858
0.695398
0.696283
0.697384
0.698595
0.699829
0.701019
0.702118
0.703095
0.703935
0.704635
0.705202
0.705648
0.705988
0.706238
0.706409
0.706514
0.706565
0.706587
0.706613
0.706683
0.706835
0.707102
0.707507
0.708062
0.708766
0.709606
0.71056
0.711594
0.712672
0.713759
0.71483
0.715866
0.716849
0.71776
0.718576
0.719271
0.719819
0.720198
0.720392
0.742497
0.742583
0.742753
0.742999
0.743312
0.743677
0.74408
0.744511
0.744966
0.745456
0.745998
0.746618
0.747343
0.748203
0.749226
0.750445
0.751895
0.753618
0.755658
0.758064
0.760884
0.764159
0.767919
0.772172
0.776908
0.782101
0.787727
0.793767
0.800196
0.806974
0.814045
0.821335
0.828759
0.836228
0.843646
0.850924
0.857973
0.864712
0.871069
0.876975
0.882374
0.887213
0.891451
0.895049
0.897977
0.900212
0.901733
0.902527
0.902584
0.901899
0.900471
0.898305
0.895408
0.891794
0.887479
0.882488
0.87685
0.870601
0.863784
0.856448
0.848655
0.840471
0.831974
0.823252
0.814401
0.805528
0.796747
0.788178
0.779948
0.772178
0.764981
0.758445
0.752605
0.747474
0.743022
0.73923
0.73615
0.733802
0.73218
0.731221
0.730826
0.730882
0.731276
0.731904
0.732677
0.733518
0.734369
0.735184
0.735932
0.736594
0.737162
0.737634
0.738018
0.73832
0.738552
0.738724
0.738848
0.738939
0.739016
0.739104
0.739232
0.739426
0.739711
0.740103
0.74061
0.741231
0.741959
0.742774
0.743654
0.744572
0.745503
0.746422
0.747312
0.748155
0.748931
0.749621
0.750205
0.750663
0.750979
0.75114
0.775976
0.776058
0.776218
0.776452
0.776754
0.777115
0.777527
0.777986
0.778492
0.779054
0.779686
0.780409
0.781245
0.782218
0.783356
0.784687
0.786244
0.788059
0.790169
0.792612
0.795423
0.79863
0.802254
0.806301
0.810766
0.815632
0.820878
0.826482
0.832413
0.838634
0.845091
0.851724
0.858461
0.865225
0.871937
0.878518
0.884893
0.89099
0.896742
0.90209
0.906981
0.911366
0.915204
0.918462
0.921109
0.923123
0.924483
0.925178
0.925196
0.924534
0.923192
0.921172
0.918483
0.91514
0.911158
0.906563
0.901382
0.89565
0.88941
0.882709
0.875602
0.868154
0.860435
0.852525
0.844509
0.836482
0.828542
0.820791
0.813333
0.806266
0.799677
0.793635
0.78818
0.783331
0.77909
0.775456
0.772444
0.770059
0.768282
0.767068
0.766344
0.766029
0.766035
0.76628
0.766689
0.767198
0.767755
0.768318
0.768855
0.769348
0.769783
0.770156
0.770468
0.770722
0.770926
0.771087
0.771217
0.771327
0.771433
0.771555
0.771713
0.771927
0.772213
0.772583
0.773042
0.773592
0.774223
0.774924
0.775677
0.776461
0.777257
0.778045
0.778807
0.779527
0.780188
0.780773
0.781265
0.78165
0.781914
0.782049
0.809375
0.809453
0.809609
0.809838
0.810137
0.810501
0.810927
0.811413
0.811962
0.812582
0.813285
0.814087
0.815008
0.816069
0.817293
0.818705
0.820333
0.822204
0.824348
0.826792
0.829564
0.832684
0.836166
0.840014
0.844224
0.848783
0.853672
0.858869
0.864342
0.870056
0.875963
0.88201
0.888136
0.894274
0.900358
0.906319
0.912091
0.917611
0.92282
0.927663
0.932093
0.936064
0.939539
0.942486
0.944876
0.946686
0.9479
0.948504
0.948489
0.947851
0.946589
0.944707
0.942214
0.939123
0.935452
0.931223
0.926464
0.921209
0.915497
0.909374
0.902891
0.896107
0.889087
0.881902
0.874628
0.867349
0.860147
0.853112
0.846328
0.839875
0.833826
0.828237
0.823148
0.818582
0.81455
0.811058
0.808112
0.805707
0.803823
0.802423
0.801454
0.800854
0.800555
0.800491
0.800601
0.800831
0.801135
0.801476
0.801824
0.802159
0.802466
0.80274
0.802976
0.803175
0.803342
0.803482
0.803604
0.803718
0.803835
0.803971
0.80414
0.804356
0.80463
0.804973
0.805386
0.80587
0.806418
0.807022
0.807667
0.808338
0.809018
0.809692
0.810344
0.810958
0.811521
0.812017
0.812433
0.812757
0.81298
0.813093
0.842694
0.842772
0.842925
0.843154
0.843455
0.843826
0.844266
0.844777
0.845361
0.846026
0.846784
0.847647
0.848632
0.849757
0.851042
0.852508
0.854179
0.856077
0.858225
0.860645
0.863357
0.866376
0.869711
0.873365
0.877333
0.881603
0.886159
0.890978
0.896031
0.901284
0.906695
0.912217
0.917797
0.923378
0.928902
0.934309
0.939541
0.944544
0.949263
0.953651
0.957663
0.961258
0.964403
0.967066
0.969221
0.970847
0.971928
0.97245
0.972406
0.971791
0.970605
0.968853
0.966542
0.963687
0.960302
0.956412
0.952042
0.947224
0.941996
0.936399
0.930481
0.924297
0.917904
0.911368
0.904754
0.898136
0.891587
0.885182
0.878991
0.873082
0.867516
0.86234
0.857592
0.853297
0.849469
0.846116
0.84324
0.840833
0.838879
0.837347
0.836196
0.835378
0.834839
0.834528
0.834393
0.83439
0.834479
0.834627
0.834806
0.834996
0.835184
0.83536
0.835519
0.83566
0.835785
0.835896
0.836
0.836105
0.836219
0.836354
0.836519
0.836725
0.836981
0.837291
0.837659
0.838083
0.838559
0.839079
0.839631
0.840205
0.840787
0.841362
0.841918
0.842442
0.84292
0.843341
0.843693
0.843967
0.844154
0.844249
0.875937
0.876014
0.876168
0.876397
0.876702
0.877081
0.877535
0.878066
0.878679
0.879379
0.880178
0.881085
0.882115
0.883284
0.884609
0.886107
0.887797
0.889699
0.89183
0.894206
0.896844
0.899752
0.902938
0.906402
0.910139
0.914138
0.918383
0.922852
0.92752
0.932354
0.937317
0.942367
0.947458
0.95254
0.957562
0.962473
0.967222
0.971759
0.976038
0.980014
0.983649
0.986904
0.989748
0.992153
0.994095
0.995553
0.996513
0.996962
0.996893
0.996301
0.995188
0.993557
0.991416
0.988779
0.98566
0.982081
0.978068
0.973651
0.968863
0.963744
0.958338
0.952695
0.946866
0.94091
0.934885
0.928855
0.922884
0.917036
0.911371
0.905946
0.900814
0.896015
0.891585
0.887545
0.883913
0.880697
0.877897
0.875508
0.873513
0.87189
0.870605
0.869621
0.868896
0.868387
0.868054
0.867858
0.867765
0.867745
0.867776
0.867837
0.867914
0.867998
0.868081
0.868162
0.86824
0.868316
0.868395
0.868482
0.868583
0.868706
0.868858
0.869046
0.869276
0.869552
0.869875
0.870245
0.870655
0.871102
0.871575
0.872065
0.872561
0.873051
0.873525
0.87397
0.874376
0.874733
0.875031
0.875263
0.875421
0.875501
0.909102
0.909179
0.909334
0.909566
0.909875
0.910262
0.910728
0.911275
0.911909
0.912635
0.913462
0.914399
0.91546
0.916656
0.918002
0.919514
0.921205
0.923092
0.925188
0.927507
0.930059
0.932851
0.935887
0.939167
0.942683
0.946427
0.950382
0.954529
0.958842
0.963295
0.967851
0.972476
0.977127
0.981761
0.986333
0.9908
0.995114
0.999233
1.00311
1.00672
1.01001
1.01296
1.01553
1.0177
1.01945
1.02076
1.02161
1.02199
1.0219
1.02133
1.02029
1.01877
1.01679
1.01435
1.01148
1.00819
1.0045
1.00045
0.99606
0.991376
0.986433
0.981278
0.975956
0.970519
0.965021
0.959516
0.954059
0.948706
0.94351
0.938519
0.933778
0.929323
0.925185
0.921386
0.917942
0.914861
0.912144
0.909787
0.907777
0.906094
0.904714
0.903606
0.902737
0.902072
0.901578
0.901222
0.900976
0.900814
0.900715
0.900661
0.900637
0.900635
0.900646
0.900667
0.900697
0.900735
0.900783
0.900845
0.900925
0.901028
0.90116
0.901324
0.901526
0.901766
0.902046
0.902364
0.902717
0.903098
0.903502
0.903919
0.904341
0.904758
0.90516
0.905538
0.905882
0.906184
0.906436
0.906632
0.906765
0.906833
0.942189
0.942267
0.942423
0.942657
0.94297
0.943363
0.943838
0.944397
0.945046
0.945789
0.946635
0.947591
0.948669
0.949878
0.951231
0.95274
0.954417
0.956275
0.958324
0.960574
0.963033
0.965706
0.968593
0.971694
0.975001
0.978504
0.982189
0.986038
0.990027
0.994131
0.998319
1.00256
1.00681
1.01104
1.01521
1.01928
1.0232
1.02694
1.03047
1.03374
1.03672
1.03939
1.04172
1.04368
1.04525
1.04642
1.04717
1.0475
1.04739
1.04684
1.04586
1.04445
1.04261
1.04036
1.03771
1.03468
1.0313
1.02758
1.02356
1.01927
1.01474
1.01003
1.00516
1.00019
0.995163
0.990127
0.98513
0.98022
0.975444
0.970842
0.966455
0.962314
0.958446
0.954873
0.951608
0.94866
0.946032
0.943719
0.941712
0.939996
0.938551
0.937352
0.936373
0.935586
0.934962
0.934477
0.934104
0.933821
0.93361
0.933453
0.93334
0.933258
0.933201
0.933165
0.933145
0.933142
0.933156
0.933189
0.933243
0.933322
0.933429
0.933566
0.933736
0.93394
0.934179
0.934449
0.934749
0.935073
0.935415
0.935769
0.936126
0.936479
0.936819
0.937139
0.93743
0.937685
0.937898
0.938063
0.938176
0.938233
0.975199
0.975277
0.975434
0.97567
0.975986
0.976383
0.976864
0.977431
0.978088
0.978842
0.979697
0.980662
0.981745
0.982956
0.984303
0.985798
0.987449
0.989267
0.991259
0.993433
0.995794
0.998346
1.00109
1.00401
1.00712
1.0104
1.01383
1.01741
1.0211
1.02488
1.02873
1.03263
1.03652
1.04039
1.04419
1.0479
1.05147
1.05487
1.05807
1.06104
1.06375
1.06617
1.06827
1.07004
1.07145
1.0725
1.07316
1.07343
1.07331
1.07279
1.07187
1.07055
1.06885
1.06677
1.06433
1.06154
1.05843
1.05501
1.05132
1.04739
1.04324
1.03892
1.03447
1.02992
1.02531
1.0207
1.01611
1.0116
1.0072
1.00295
0.998886
0.995031
0.991413
0.988051
0.984957
0.98214
0.979604
0.977345
0.975357
0.973628
0.972141
0.970878
0.969817
0.968935
0.96821
0.967619
0.967141
0.966756
0.966449
0.966204
0.96601
0.965856
0.965736
0.965644
0.965577
0.965533
0.965511
0.965513
0.965538
0.965589
0.965667
0.965775
0.965912
0.966081
0.966279
0.966506
0.966757
0.967029
0.967317
0.967614
0.967915
0.968212
0.968499
0.968768
0.969014
0.969229
0.969408
0.969547
0.969641
0.969689
1.00813
1.00821
1.00837
1.0086
1.00892
1.00932
1.0098
1.01037
1.01103
1.01179
1.01265
1.01362
1.0147
1.0159
1.01723
1.0187
1.02031
1.02208
1.02401
1.0261
1.02837
1.0308
1.03339
1.03615
1.03907
1.04214
1.04534
1.04866
1.05207
1.05557
1.05911
1.06269
1.06626
1.0698
1.07327
1.07665
1.07991
1.083
1.08591
1.08861
1.09107
1.09326
1.09516
1.09675
1.09802
1.09896
1.09954
1.09977
1.09963
1.09913
1.09827
1.09704
1.09546
1.09354
1.09129
1.08872
1.08586
1.08272
1.07933
1.07572
1.07192
1.06796
1.06388
1.0597
1.05548
1.05124
1.04702
1.04287
1.03881
1.03488
1.0311
1.02751
1.02412
1.02096
1.01803
1.01534
1.0129
1.0107
1.00874
1.00702
1.00551
1.0042
1.00308
1.00213
1.00132
1.00065
1.00008
0.999614
0.999226
0.998904
0.998639
0.998421
0.998243
0.998099
0.997986
0.997902
0.997844
0.997812
0.997806
0.997827
0.997876
0.997953
0.998058
0.998191
0.998352
0.998537
0.998744
0.998969
0.999209
0.999457
0.999708
0.999956
1.0002
1.00042
1.00063
1.00081
1.00096
1.00107
1.00115
1.00119
1.04098
1.04106
1.04122
1.04146
1.04177
1.04217
1.04266
1.04323
1.04389
1.04464
1.0455
1.04645
1.04752
1.04871
1.05002
1.05145
1.05303
1.05474
1.0566
1.05861
1.06077
1.06308
1.06554
1.06814
1.07088
1.07374
1.07672
1.07981
1.08297
1.0862
1.08947
1.09275
1.09603
1.09927
1.10245
1.10553
1.1085
1.11132
1.11397
1.11642
1.11865
1.12063
1.12235
1.12379
1.12493
1.12576
1.12628
1.12646
1.12632
1.12584
1.12503
1.12389
1.12242
1.12064
1.11856
1.1162
1.11356
1.11067
1.10756
1.10424
1.10075
1.09712
1.09337
1.08954
1.08565
1.08176
1.07788
1.07404
1.07029
1.06665
1.06314
1.05979
1.05661
1.05363
1.05086
1.04829
1.04595
1.04382
1.0419
1.04019
1.03867
1.03734
1.03618
1.03517
1.03431
1.03357
1.03293
1.03239
1.03193
1.03155
1.03122
1.03095
1.03071
1.03052
1.03037
1.03024
1.03015
1.03008
1.03005
1.03004
1.03006
1.0301
1.03018
1.03028
1.0304
1.03055
1.03071
1.0309
1.03109
1.0313
1.0315
1.03171
1.03191
1.0321
1.03227
1.03242
1.03254
1.03264
1.0327
1.03274
1.07376
1.07383
1.07399
1.07423
1.07454
1.07494
1.07542
1.07599
1.07664
1.07739
1.07824
1.07918
1.08023
1.0814
1.08267
1.08407
1.0856
1.08725
1.08904
1.09096
1.09302
1.09521
1.09753
1.09998
1.10255
1.10523
1.10801
1.11087
1.11381
1.11679
1.1198
1.12282
1.12583
1.1288
1.13171
1.13453
1.13724
1.13981
1.14222
1.14445
1.14647
1.14827
1.14983
1.15112
1.15215
1.15289
1.15334
1.15349
1.15334
1.15288
1.15212
1.15105
1.14969
1.14805
1.14613
1.14394
1.14151
1.13886
1.13599
1.13294
1.12973
1.12639
1.12294
1.11942
1.11585
1.11226
1.10868
1.10514
1.10166
1.09828
1.09502
1.09189
1.08891
1.0861
1.08347
1.08103
1.07878
1.07672
1.07485
1.07316
1.07165
1.07031
1.06912
1.06808
1.06717
1.06637
1.06568
1.06509
1.06457
1.06413
1.06375
1.06342
1.06315
1.06291
1.06272
1.06255
1.06243
1.06233
1.06226
1.06222
1.06221
1.06223
1.06227
1.06233
1.06242
1.06254
1.06266
1.06281
1.06297
1.06313
1.0633
1.06347
1.06363
1.06379
1.06393
1.06405
1.06415
1.06423
1.06429
1.06432
1.10645
1.10653
1.10668
1.10692
1.10723
1.10762
1.1081
1.10866
1.10931
1.11004
1.11088
1.1118
1.11283
1.11397
1.11521
1.11657
1.11804
1.11963
1.12135
1.12318
1.12514
1.12721
1.12941
1.13171
1.13412
1.13662
1.13921
1.14187
1.14459
1.14735
1.15013
1.15291
1.15567
1.1584
1.16106
1.16364
1.16612
1.16846
1.17066
1.17268
1.17452
1.17615
1.17756
1.17873
1.17965
1.18031
1.18071
1.18082
1.18067
1.18023
1.17951
1.17852
1.17725
1.17573
1.17395
1.17194
1.1697
1.16725
1.16461
1.1618
1.15885
1.15577
1.1526
1.14935
1.14606
1.14275
1.13944
1.13616
1.13294
1.1298
1.12676
1.12383
1.12104
1.11839
1.1159
1.11358
1.11142
1.10943
1.10761
1.10596
1.10446
1.10312
1.10192
1.10085
1.09991
1.09908
1.09834
1.0977
1.09714