/*--------------------------------*- C++ -*----------------------------------*\
| =========                 |                                                 |
| \\      /  F ield         | OpenFOAM: The Open Source CFD Toolbox           |
|  \\    /   O peration     | Version:  2406                                  |
|   \\  /    A nd           | Website:  www.openfoam.com                      |
|    \\/     M anipulation  |                                                 |
\*---------------------------------------------------------------------------*/
FoamFile
{
    version     2.0;
    format      ascii;
    arch        "LSB;label=32;scalar=64";
    class       volScalarField;
    location    "7";
    object      C_0_0;
}
// * * * * * * * * * * * * * * * * * * * * * * * * * * * * * * * * * * * * * //

dimensions      [1 -3 0 0 0 0 0];

internalField   nonuniform List<scalar> 
14400
(
0.240697
0.239498
0.237417
0.234919
0.232474
0.230477
0.22922
0.228886
0.22955
0.231175
0.233608
0.236573
0.239658
0.242315
0.243898
0.243791
0.241704
0.238064
0.233602
0.229067
0.225107
0.222252
0.220929
0.221494
0.224259
0.229508
0.23752
0.248578
0.262977
0.281037
0.303096
0.329511
0.360635
0.396776
0.438086
0.484253
0.533191
0.569824
0.593863
0.614088
0.631556
0.646517
0.659163
0.669647
0.678083
0.68456
0.689147
0.691889
0.692817
0.691944
0.689271
0.68478
0.67844
0.670202
0.659999
0.64774
0.633309
0.616557
0.597293
0.575274
0.547582
0.506835
0.456845
0.410656
0.369741
0.334106
0.303458
0.277421
0.25561
0.237655
0.223216
0.21199
0.203706
0.19813
0.195063
0.194348
0.195862
0.199524
0.205284
0.213112
0.222985
0.234859
0.248639
0.264126
0.280902
0.297973
0.31197
0.318688
0.317757
0.30955
0.297752
0.285573
0.274037
0.263634
0.25462
0.247107
0.241101
0.236534
0.233266
0.231111
0.229844
0.229228
0.229049
0.229163
0.229529
0.230233
0.231466
0.233485
0.236568
0.240987
0.24698
0.254743
0.264415
0.276072
0.289699
0.305159
0.322088
0.339559
0.354411
0.361961
0.248514
0.246984
0.244414
0.241414
0.238538
0.236216
0.234757
0.234347
0.235062
0.236868
0.239617
0.243034
0.246699
0.250022
0.252226
0.252409
0.249903
0.245532
0.240314
0.23512
0.230633
0.227378
0.22577
0.226152
0.228821
0.234056
0.242127
0.253313
0.267908
0.286229
0.308614
0.335422
0.36701
0.403693
0.445596
0.492168
0.539783
0.573899
0.596941
0.616845
0.634063
0.64883
0.661327
0.671694
0.680041
0.686452
0.690991
0.693703
0.694617
0.693745
0.691088
0.686629
0.680338
0.672168
0.662054
0.649911
0.635629
0.619068
0.600049
0.578344
0.552217
0.513452
0.46366
0.417157
0.37577
0.339651
0.308556
0.282121
0.259962
0.241709
0.227022
0.215594
0.207155
0.201474
0.198354
0.197639
0.199211
0.202992
0.208932
0.217007
0.227195
0.239458
0.253705
0.269741
0.287154
0.304927
0.319046
0.325243
0.32504
0.317373
0.30524
0.292567
0.280571
0.269791
0.260492
0.252788
0.246684
0.242105
0.238906
0.236883
0.235787
0.235346
0.2353
0.235462
0.235775
0.236346
0.237407
0.239259
0.242217
0.246575
0.252588
0.260456
0.270324
0.282267
0.296268
0.312188
0.329653
0.347671
0.362039
0.368214
0.26468
0.262338
0.258661
0.254586
0.250813
0.247831
0.245963
0.245397
0.246212
0.248375
0.25175
0.256073
0.260925
0.265671
0.269337
0.270411
0.26674
0.260677
0.253849
0.247313
0.24177
0.237722
0.23555
0.235567
0.238049
0.243255
0.251444
0.262886
0.277871
0.296711
0.319743
0.347325
0.379815
0.417529
0.460589
0.508173
0.551556
0.581003
0.603023
0.622288
0.639022
0.653415
0.66562
0.675761
0.683934
0.690215
0.694662
0.697316
0.698201
0.697332
0.694707
0.69031
0.684115
0.676077
0.666139
0.654222
0.640229
0.624037
0.605492
0.584402
0.560353
0.525767
0.477457
0.430309
0.387932
0.350835
0.318844
0.291616
0.268766
0.249922
0.23474
0.222912
0.21417
0.208284
0.205062
0.204352
0.206043
0.21006
0.216362
0.224926
0.235739
0.248768
0.26393
0.281025
0.299589
0.318361
0.332012
0.337476
0.338091
0.332629
0.320218
0.306608
0.29372
0.282205
0.272352
0.264277
0.257987
0.253398
0.250356
0.248627
0.247913
0.247867
0.248127
0.248401
0.248589
0.248849
0.249519
0.250999
0.253677
0.257894
0.26393
0.272001
0.282252
0.294755
0.309483
0.326266
0.344629
0.363115
0.375384
0.379909
0.290256
0.286209
0.280554
0.274716
0.26954
0.265549
0.263062
0.26226
0.263216
0.265905
0.270199
0.27586
0.282503
0.289514
0.295817
0.299207
0.292771
0.283695
0.274321
0.265766
0.258668
0.253456
0.250455
0.249934
0.252138
0.257302
0.26567
0.277498
0.293067
0.312682
0.336675
0.365389
0.399159
0.438226
0.48245
0.529781
0.566169
0.59094
0.61186
0.630261
0.646321
0.660187
0.671978
0.681795
0.689719
0.695813
0.700127
0.702696
0.703542
0.702676
0.700096
0.69579
0.689733
0.681888
0.672201
0.660609
0.647028
0.631359
0.613481
0.593258
0.570551
0.541622
0.49865
0.450265
0.406363
0.367815
0.334503
0.306097
0.28222
0.262495
0.246579
0.23416
0.224973
0.218789
0.215423
0.21473
0.216605
0.22098
0.22782
0.237111
0.248845
0.263001
0.279499
0.298124
0.318277
0.337864
0.349369
0.354245
0.355478
0.352907
0.342314
0.327684
0.313604
0.301058
0.290411
0.281807
0.275258
0.270687
0.267925
0.266706
0.266664
0.267333
0.268171
0.268664
0.268601
0.268271
0.268228
0.26905
0.271238
0.275197
0.28124
0.289593
0.300399
0.313719
0.329491
0.34747
0.36691
0.384231
0.392582
0.395958
0.32634
0.319067
0.310355
0.302031
0.294957
0.289626
0.286322
0.285207
0.286343
0.289704
0.295173
0.302529
0.311427
0.321287
0.330719
0.333401
0.327052
0.314253
0.301659
0.290569
0.281508
0.274814
0.270746
0.269528
0.271371
0.276486
0.285096
0.297441
0.31379
0.334437
0.359698
0.389889
0.425274
0.465949
0.511205
0.553454
0.581802
0.603648
0.623217
0.640575
0.655816
0.669032
0.680311
0.689724
0.697334
0.703192
0.707337
0.709798
0.710594
0.709732
0.707212
0.703022
0.697141
0.689538
0.68017
0.668984
0.655916
0.640888
0.623814
0.604597
0.58313
0.558776
0.523979
0.476399
0.431101
0.390797
0.355788
0.325843
0.300612
0.279726
0.26284
0.249645
0.239875
0.233308
0.229763
0.229105
0.231234
0.236089
0.243643
0.253888
0.266826
0.282438
0.300641
0.321168
0.343123
0.361413
0.369981
0.374628
0.376401
0.375477
0.369661
0.355548
0.340347
0.32658
0.314944
0.305674
0.298816
0.294312
0.291998
0.291576
0.292609
0.294481
0.296364
0.297282
0.296724
0.295327
0.294084
0.293853
0.295269
0.298807
0.304814
0.313512
0.325025
0.339388
0.356443
0.375693
0.395446
0.407534
0.412748
0.415382
0.366198
0.359545
0.347716
0.336533
0.327218
0.320293
0.316011
0.314521
0.31587
0.320027
0.326863
0.33612
0.347352
0.359498
0.366973
0.366918
0.363591
0.350943
0.335536
0.321777
0.310507
0.302084
0.296749
0.294696
0.296108
0.301173
0.310094
0.323093
0.34042
0.362352
0.389182
0.421166
0.458405
0.500486
0.544719
0.576298
0.598547
0.618633
0.636784
0.653006
0.667334
0.679817
0.690508
0.699454
0.7067
0.712283
0.716231
0.718566
0.719303
0.718447
0.715997
0.711944
0.706271
0.698953
0.689957
0.679243
0.666763
0.652465
0.636291
0.618185
0.598097
0.576003
0.549199
0.509052
0.46242
0.420075
0.383039
0.351221
0.324323
0.301999
0.28391
0.269754
0.259267
0.252233
0.24848
0.247878
0.250334
0.255794
0.264235
0.275654
0.290057
0.307415
0.327592
0.350082
0.372864
0.386646
0.393462
0.397886
0.400021
0.400008
0.39803
0.38966
0.374031
0.358991
0.346232
0.336195
0.328989
0.324618
0.322956
0.323684
0.326311
0.330092
0.333838
0.33562
0.334047
0.330783
0.327635
0.325844
0.326139
0.329056
0.334966
0.344056
0.356391
0.37197
0.390394
0.410357
0.424766
0.431383
0.435382
0.43744
0.402361
0.400003
0.391038
0.377868
0.366332
0.357717
0.352362
0.35046
0.35205
0.357093
0.365411
0.376535
0.389325
0.39922
0.401399
0.40051
0.398805
0.391949
0.37565
0.359517
0.345944
0.335615
0.328853
0.325847
0.326771
0.331798
0.341107
0.354901
0.373404
0.39686
0.425532
0.459582
0.498789
0.541435
0.574579
0.597225
0.617176
0.635552
0.652281
0.66733
0.680696
0.692395
0.702449
0.710886
0.717731
0.723008
0.726737
0.728933
0.729604
0.728756
0.726386
0.722487
0.717047
0.710046
0.701462
0.691266
0.679429
0.665916
0.650699
0.633754
0.615072
0.594673
0.572612
0.543094
0.499621
0.455812
0.416634
0.382668
0.353811
0.32978
0.310258
0.294952
0.283611
0.276026
0.272033
0.271511
0.274372
0.280562
0.29006
0.302865
0.318969
0.338308
0.360635
0.384905
0.404132
0.413178
0.419245
0.423433
0.425789
0.426438
0.425589
0.422879
0.413716
0.398207
0.384416
0.373617
0.366038
0.361852
0.361066
0.363304
0.368047
0.374524
0.381129
0.384528
0.381062
0.375017
0.369148
0.365308
0.364119
0.36619
0.371949
0.381471
0.394623
0.411402
0.430342
0.44496
0.452443
0.456856
0.459957
0.461556
0.436517
0.436305
0.433524
0.42478
0.411998
0.401911
0.395492
0.393194
0.39503
0.400965
0.410735
0.422993
0.432822
0.436143
0.435763
0.434913
0.433488
0.431197
0.421439
0.40393
0.388128
0.375786
0.367489
0.363436
0.363833
0.368843
0.378628
0.393364
0.413226
0.438385
0.469053
0.505121
0.544951
0.577513
0.600113
0.619332
0.63738
0.654119
0.669457
0.683336
0.695726
0.706617
0.716008
0.723908
0.730329
0.735282
0.738777
0.740823
0.741425
0.740586
0.738303
0.734571
0.729382
0.722722
0.714578
0.704932
0.693769
0.681073
0.666836
0.65106
0.633762
0.614987
0.594814
0.573039
0.541887
0.498221
0.457004
0.420677
0.389597
0.363606
0.342421
0.325776
0.313435
0.305206
0.300941
0.300523
0.303868
0.310916
0.321639
0.336021
0.354019
0.375425
0.399506
0.422585
0.434675
0.441514
0.446906
0.450811
0.453263
0.454367
0.454301
0.45331
0.450652
0.442611
0.429018
0.41792
0.409975
0.405965
0.406281
0.41023
0.417053
0.425957
0.430804
0.432377
0.431113
0.42646
0.417927
0.412126
0.409193
0.410193
0.4158
0.425812
0.43935
0.456466
0.469065
0.47609
0.480249
0.48364
0.486034
0.48727
0.470886
0.470859
0.470877
0.468809
0.462419
0.4522
0.445115
0.442593
0.444588
0.451024
0.46144
0.468586
0.4714
0.471055
0.470597
0.469891
0.468853
0.467445
0.464487
0.453976
0.4371
0.422866
0.413074
0.407915
0.407775
0.412809
0.423154
0.438969
0.460341
0.487193
0.519639
0.556319
0.586137
0.607431
0.625393
0.642612
0.658892
0.674088
0.688093
0.700832
0.712257
0.722337
0.731058
0.738411
0.744395
0.749012
0.752266
0.754157
0.754689
0.75386
0.75167
0.748114
0.743187
0.736883
0.729195
0.720115
0.709641
0.697771
0.684513
0.669887
0.65393
0.636698
0.618278
0.598781
0.577351
0.5462
0.504318
0.465661
0.432201
0.404056
0.380996
0.362821
0.349325
0.340351
0.335772
0.335484
0.339396
0.347429
0.359529
0.375651
0.395684
0.419065
0.443655
0.45825
0.465377
0.471292
0.476055
0.479642
0.482084
0.483467
0.483937
0.483698
0.483011
0.481437
0.475959
0.467849
0.459858
0.455947
0.457499
0.462668
0.467675
0.470842
0.471648
0.471624
0.47241
0.472075
0.469426
0.464849
0.46041
0.460262
0.465746
0.476186
0.48794
0.496974
0.502171
0.505652
0.508821
0.511423
0.513267
0.514222
0.505282
0.505367
0.505598
0.506107
0.505832
0.502839
0.499131
0.497088
0.498869
0.502804
0.506206
0.507116
0.506496
0.506074
0.505678
0.5052
0.504588
0.503842
0.503024
0.500393
0.491514
0.476614
0.465879
0.459598
0.458992
0.464118
0.475069
0.492036
0.514977
0.542801
0.575207
0.600517
0.619136
0.635443
0.651418
0.666829
0.681488
0.695248
0.707994
0.719642
0.730131
0.739418
0.747474
0.754281
0.759828
0.764108
0.767116
0.768851
0.769312
0.768495
0.766401
0.763027
0.75837
0.752429
0.745203
0.736694
0.726908
0.715856
0.703558
0.690047
0.675371
0.659598
0.64282
0.625151
0.606736
0.586262
0.556859
0.517537
0.481982
0.451692
0.426593
0.406719
0.391907
0.382072
0.377131
0.376996
0.381564
0.390696
0.404278
0.422182
0.444179
0.468376
0.483897
0.491267
0.497167
0.502222
0.506379
0.509619
0.511964
0.513481
0.514284
0.514532
0.514428
0.514211
0.514082
0.511842
0.508808
0.506827
0.506821
0.507872
0.508279
0.507177
0.506675
0.506794
0.507576
0.509025
0.511032
0.511343
0.511349
0.512829
0.516806
0.522284
0.527376
0.530211
0.53286
0.535525
0.53796
0.539966
0.541389
0.542128
0.539593
0.539729
0.540041
0.540607
0.541538
0.542917
0.543094
0.542905
0.543404
0.543786
0.542717
0.541898
0.541389
0.541068
0.54084
0.540643
0.540458
0.540311
0.540285
0.540531
0.539671
0.534396
0.525303
0.518168
0.517508
0.522853
0.534267
0.552009
0.575998
0.600001
0.619915
0.634975
0.649358
0.663788
0.678006
0.691797
0.704984
0.717421
0.728993
0.739612
0.749207
0.757729
0.76514
0.771413
0.776528
0.780474
0.78324
0.78482
0.785211
0.784409
0.782413
0.779222
0.774836
0.769259
0.762494
0.75455
0.745441
0.735186
0.723816
0.711372
0.69791
0.683504
0.668251
0.652268
0.635701
0.618726
0.60022
0.574062
0.538573
0.506888
0.479713
0.458075
0.441785
0.430961
0.425604
0.425638
0.430956
0.44126
0.456274
0.47553
0.49808
0.512517
0.51957
0.524944
0.529803
0.534049
0.53762
0.540491
0.542671
0.544207
0.545185
0.54572
0.545957
0.546057
0.546176
0.546442
0.546684
0.54625
0.545077
0.543467
0.542173
0.541373
0.541077
0.541301
0.542067
0.543393
0.545301
0.547879
0.550902
0.55359
0.555951
0.557724
0.559414
0.561409
0.563533
0.565627
0.567528
0.56909
0.570198
0.570772
0.573769
0.573915
0.574229
0.574743
0.575486
0.576435
0.577417
0.578097
0.577974
0.577413
0.576825
0.57637
0.576092
0.575971
0.575971
0.576074
0.576288
0.576658
0.577275
0.578283
0.579897
0.581849
0.581215
0.580433
0.581535
0.587311
0.59846
0.613306
0.628715
0.642661
0.654451
0.666816
0.679534
0.692344
0.705021
0.717371
0.729229
0.740458
0.750946
0.760604
0.769357
0.777152
0.783944
0.789701
0.794399
0.798019
0.800549
0.801979
0.802303
0.801517
0.79962
0.796611
0.792495
0.787276
0.780964
0.773572
0.765119
0.755633
0.745148
0.733714
0.721391
0.708258
0.694411
0.679969
0.665075
0.649897
0.634637
0.618875
0.597063
0.568828
0.540255
0.517269
0.499367
0.487457
0.481638
0.48181
0.487963
0.499334
0.515101
0.53337
0.544942
0.550529
0.55491
0.559136
0.563051
0.56655
0.569563
0.572054
0.574021
0.575493
0.576528
0.577205
0.577624
0.577884
0.578073
0.578223
0.578243
0.577927
0.577208
0.576309
0.575539
0.575065
0.574961
0.575264
0.576
0.577178
0.578797
0.580824
0.583107
0.585363
0.587325
0.589064
0.590741
0.592479
0.594237
0.595924
0.597434
0.598667
0.599539
0.59999
0.607797
0.607935
0.608217
0.608651
0.609228
0.609901
0.610555
0.611016
0.611126
0.610995
0.610801
0.610663
0.61064
0.610751
0.610999
0.611394
0.611963
0.61276
0.613873
0.615429
0.617604
0.620623
0.62483
0.62927
0.63377
0.640245
0.648844
0.658274
0.667172
0.676848
0.687307
0.698304
0.709617
0.721034
0.732364
0.743436
0.754102
0.764236
0.773731
0.782499
0.790467
0.797577
0.803783
0.809049
0.813347
0.816655
0.818958
0.820243
0.820504
0.819736
0.817937
0.815109
0.811256
0.806387
0.800514
0.793654
0.785831
0.777076
0.76743
0.756944
0.745683
0.733725
0.721167
0.708124
0.694732
0.681151
0.667567
0.654193
0.641206
0.62484
0.60515
0.583403
0.564145
0.55143
0.545208
0.545217
0.551929
0.563288
0.573631
0.580988
0.584145
0.587177
0.590407
0.593636
0.596716
0.599538
0.602027
0.604141
0.605867
0.607217
0.608227
0.608949
0.609447
0.609784
0.610008
0.610133
0.610124
0.609917
0.609513
0.609024
0.608609
0.608388
0.608436
0.608795
0.60949
0.610525
0.611882
0.613515
0.615317
0.617139
0.618857
0.620464
0.622009
0.62353
0.625011
0.626396
0.627618
0.628606
0.629301
0.62966
0.641688
0.64181
0.642054
0.642414
0.642873
0.643388
0.643887
0.644284
0.644522
0.644639
0.64472
0.644841
0.645055
0.645394
0.645881
0.64654
0.64741
0.648546
0.650027
0.651957
0.654467
0.657703
0.661807
0.666775
0.672639
0.679012
0.685796
0.693218
0.701372
0.710204
0.719623
0.729476
0.739596
0.749812
0.759964
0.769907
0.779508
0.788654
0.797243
0.805193
0.812433
0.818905
0.824562
0.829365
0.833284
0.836297
0.838384
0.839533
0.839735
0.838986
0.837284
0.834631
0.831034
0.826502
0.82105
0.814699
0.807475
0.799412
0.790553
0.780951
0.770671
0.759792
0.748407
0.736626
0.724577
0.712408
0.700287
0.688405
0.676977
0.666258
0.655418
0.642917
0.630538
0.620291
0.614168
0.612636
0.614296
0.617352
0.619524
0.620176
0.621643
0.623629
0.625903
0.628287
0.63064
0.632858
0.634865
0.636616
0.638088
0.639281
0.640214
0.640918
0.641432
0.641797
0.642041
0.642179
0.642203
0.642104
0.641902
0.641665
0.641484
0.641442
0.641599
0.641991
0.64264
0.643547
0.644693
0.646037
0.647507
0.649018
0.6505
0.651925
0.653299
0.654623
0.65588
0.657033
0.658035
0.658838
0.6594
0.659689
0.675456
0.675563
0.675774
0.676079
0.676462
0.67689
0.677321
0.677711
0.678038
0.678319
0.678599
0.678926
0.679345
0.679889
0.680589
0.681476
0.682591
0.683987
0.685731
0.687905
0.690602
0.693916
0.69792
0.702627
0.708012
0.713947
0.720377
0.727352
0.734895
0.742971
0.751504
0.760383
0.769478
0.778652
0.787775
0.796719
0.805371
0.813626
0.821395
0.828598
0.835168
0.84105
0.846195
0.850565
0.854129
0.856863
0.858747
0.859769
0.859917
0.859189
0.857581
0.855098
0.851746
0.847536
0.842486
0.836617
0.829958
0.822543
0.814417
0.805635
0.796259
0.786365
0.776044
0.765397
0.754543
0.743616
0.732767
0.722162
0.711983
0.70243
0.6937
0.686114
0.679338
0.672798
0.667557
0.664109
0.661476
0.659172
0.658083
0.657981
0.658624
0.65979
0.66129
0.662968
0.6647
0.666388
0.667961
0.66937
0.670588
0.671606
0.67243
0.673076
0.673567
0.673929
0.674181
0.674338
0.674406
0.674394
0.674326
0.674249
0.674221
0.674298
0.674525
0.674931
0.675533
0.67633
0.677307
0.678432
0.679657
0.680928
0.682198
0.68344
0.684638
0.685782
0.686852
0.68782
0.688651
0.689312
0.689771
0.690007
0.709118
0.709213
0.709399
0.709668
0.710005
0.710389
0.710796
0.711203
0.7116
0.712
0.712429
0.712921
0.713511
0.714229
0.715109
0.716183
0.717491
0.71908
0.721006
0.723331
0.726121
0.729439
0.733329
0.737801
0.742837
0.748386
0.754414
0.760917
0.767886
0.775282
0.78304
0.791074
0.799279
0.807546
0.815763
0.823824
0.831629
0.839085
0.846112
0.852635
0.858592
0.86393
0.868602
0.87257
0.875804
0.878279
0.879974
0.880877
0.880977
0.88027
0.878754
0.876433
0.873315
0.869412
0.864741
0.859325
0.853195
0.846385
0.83894
0.830912
0.822363
0.813367
0.804005
0.794374
0.784582
0.774747
0.765003
0.755492
0.746365
0.737778
0.729883
0.722818
0.716576
0.711189
0.706541
0.702538
0.699367
0.697055
0.695647
0.695039
0.695082
0.695618
0.696499
0.697596
0.698803
0.700033
0.701219
0.702315
0.703289
0.704126
0.704823
0.705388
0.705831
0.70617
0.706417
0.706587
0.706689
0.706739
0.706759
0.706784
0.706853
0.707005
0.707271
0.707676
0.70823
0.708933
0.709773
0.710727
0.711761
0.712838
0.713925
0.714997
0.716032
0.717016
0.717927
0.718744
0.719438
0.719987
0.720366
0.72056
0.742685
0.742771
0.742941
0.743187
0.743501
0.743867
0.744271
0.744703
0.74516
0.745652
0.746196
0.746818
0.747546
0.748408
0.749434
0.750657
0.75211
0.753837
0.75588
0.75829
0.761113
0.764392
0.768154
0.772411
0.77715
0.782346
0.787975
0.794017
0.800448
0.807229
0.814302
0.821593
0.829019
0.836489
0.843908
0.851186
0.858235
0.864975
0.871331
0.877238
0.882636
0.887476
0.891713
0.895311
0.898239
0.900473
0.901994
0.902788
0.902845
0.90216
0.900732
0.898566
0.895669
0.892054
0.88774
0.882749
0.877111
0.870862
0.864045
0.85671
0.848916
0.840733
0.832236
0.823514
0.814662
0.805789
0.797007
0.788437
0.780206
0.772434
0.765235
0.758698
0.752855
0.747721
0.743266
0.739471
0.736388
0.734035
0.73241
0.731447
0.731048
0.7311
0.73149
0.732115
0.732883
0.733721
0.734569
0.735381
0.736126
0.736785
0.73735
0.73782
0.738201
0.738501
0.738731
0.738902
0.739024
0.739113
0.739189
0.739276
0.739402
0.739596
0.73988
0.740271
0.740778
0.741399
0.742126
0.742941
0.743821
0.744739
0.745669
0.746589
0.747479
0.748321
0.749098
0.749788
0.750372
0.75083
0.751146
0.751307
0.776164
0.776246
0.776406
0.776641
0.776943
0.777305
0.777718
0.778179
0.778686
0.77925
0.779885
0.780609
0.781448
0.782424
0.783564
0.784898
0.786458
0.788276
0.79039
0.792836
0.795649
0.79886
0.802487
0.806537
0.811005
0.815874
0.821122
0.826728
0.832662
0.838884
0.845344
0.851978
0.858716
0.865481
0.872194
0.878776
0.885151
0.891248
0.897001
0.902349
0.907239
0.911624
0.915463
0.91872
0.921368
0.923381
0.924741
0.925435
0.925454
0.924792
0.923449
0.921429
0.918741
0.915397
0.911416
0.90682
0.901639
0.895908
0.889667
0.882966
0.87586
0.868411
0.860692
0.852782
0.844766
0.836738
0.828797
0.821046
0.813586
0.806517
0.799926
0.793882
0.788425
0.783574
0.779329
0.775692
0.772678
0.770289
0.768509
0.767291
0.766564
0.766245
0.766247
0.766489
0.766894
0.767401
0.767954
0.768514
0.769048
0.769538
0.769971
0.770342
0.770651
0.770904
0.771105
0.771265
0.771392
0.771501
0.771606
0.771727
0.771884
0.772097
0.772382
0.772751
0.77321
0.773759
0.77439
0.775091
0.775843
0.776627
0.777423
0.778211
0.778973
0.779693
0.780354
0.780939
0.781432
0.781817
0.782081
0.782216
0.809563
0.809642
0.809798
0.810027
0.810327
0.810692
0.811119
0.811606
0.812156
0.812778
0.813483
0.814288
0.815211
0.816274
0.8175
0.818915
0.820546
0.82242
0.824566
0.827014
0.829788
0.832911
0.836396
0.840247
0.844459
0.849021
0.853913
0.859111
0.864587
0.870302
0.876211
0.88226
0.888386
0.894526
0.900611
0.906572
0.912345
0.917865
0.923075
0.927918
0.932347
0.936319
0.939794
0.94274
0.94513
0.946941
0.948155
0.948759
0.948743
0.948105
0.946843
0.944961
0.942468
0.939377
0.935705
0.931476
0.926718
0.921463
0.915751
0.909628
0.903145
0.896361
0.88934
0.882155
0.874881
0.8676
0.860398
0.853362
0.846576
0.840122
0.834071
0.82848
0.823389
0.81882
0.814785
0.811291
0.808342
0.805934
0.804047
0.802644
0.801672
0.801068
0.800765
0.800698
0.800805
0.801032
0.801333
0.801671
0.802016
0.802348
0.802654
0.802925
0.803159
0.803356
0.803521
0.80366
0.80378
0.803892
0.804008
0.804143
0.804311
0.804526
0.8048
0.805141
0.805554
0.806037
0.806585
0.807188
0.807833
0.808504
0.809184
0.809858
0.81051
0.811124
0.811686
0.812183
0.812599
0.812923
0.813146
0.813259
0.842883
0.842961
0.843115
0.843344
0.843645
0.844017
0.844458
0.84497
0.845556
0.846223
0.846982
0.847847
0.848834
0.849961
0.851248
0.852717
0.85439
0.856291
0.858441
0.860865
0.863579
0.866601
0.869939
0.873595
0.877565
0.881838
0.886396
0.891216
0.896272
0.901526
0.906939
0.912463
0.918044
0.923626
0.92915
0.934558
0.939791
0.944794
0.949514
0.953902
0.957914
0.961509
0.964654
0.967317
0.969472
0.971098
0.972179
0.972701
0.972656
0.972041
0.970856
0.969103
0.966793
0.963937
0.960553
0.956662
0.952292
0.947475
0.942246
0.936649
0.930731
0.924546
0.918153
0.911616
0.905002
0.898384
0.891834
0.885427
0.879235
0.873325
0.867756
0.862579
0.857829
0.853532
0.849701
0.846345
0.843466
0.841057
0.8391
0.837565
0.836411
0.835589
0.835048
0.834733
0.834596
0.83459
0.834676
0.834821
0.834997
0.835186
0.835371
0.835545
0.835702
0.835841
0.835963
0.836073
0.836176
0.836279
0.836392
0.836526
0.83669
0.836895
0.83715
0.837459
0.837827
0.83825
0.838725
0.839245
0.839797
0.840371
0.840952
0.841527
0.842083
0.842607
0.843085
0.843506
0.843858
0.844132
0.844319
0.844414
0.876126
0.876203
0.876357
0.876587
0.876893
0.877273
0.877728
0.87826
0.878874
0.879575
0.880375
0.881284
0.882317
0.883488
0.884814
0.886315
0.888007
0.889911
0.892044
0.894424
0.897063
0.899975
0.903163
0.906629
0.910368
0.914369
0.918616
0.923087
0.927757
0.932592
0.937557
0.942608
0.9477
0.952783
0.957807
0.962718
0.967468
0.972006
0.976285
0.980262
0.983896
0.987151
0.989996
0.992401
0.994342
0.995801
0.99676
0.997209
0.99714
0.996548
0.995435
0.993804
0.991663
0.989026
0.985907
0.982328
0.978315
0.973897
0.969109
0.96399
0.958584
0.95294
0.947111
0.941154
0.935129
0.929098
0.923127
0.917277
0.911611
0.906185
0.90105
0.89625
0.891817
0.887776
0.884142
0.880923
0.878121
0.875729
0.873732
0.872105
0.870818
0.869831
0.869103
0.868591
0.868255
0.868056
0.86796
0.867939
0.867966
0.868025
0.8681
0.868182
0.868264
0.868343
0.868419
0.868493
0.868571
0.868656
0.868756
0.868877
0.869028
0.869215
0.869445
0.86972
0.870043
0.870411
0.870822
0.871268
0.871741
0.87223
0.872726
0.873216
0.87369
0.874135
0.874541
0.874898
0.875196
0.875427
0.875585
0.875666
0.909291
0.909368
0.909523
0.909756
0.910065
0.910453
0.91092
0.911468
0.912103
0.91283
0.913659
0.914598
0.91566
0.916859
0.918207
0.91972
0.921414
0.923303
0.925401
0.927722
0.930276
0.933071
0.936109
0.939391
0.942909
0.946655
0.950612
0.95476
0.959076
0.96353
0.968088
0.972713
0.977365
0.982001
0.986574
0.991041
0.995356
0.999476
1.00336
1.00696
1.01026
1.0132
1.01578
1.01795
1.0197
1.021
1.02185
1.02224
1.02215
1.02158
1.02053
1.01901
1.01703
1.01459
1.01172
1.00843
1.00474
1.00069
0.996303
0.991618
0.986676
0.981519
0.976197
0.97076
0.965261
0.959755
0.954297
0.948943
0.943746
0.938753
0.93401
0.929554
0.925414
0.921614
0.918167
0.915084
0.912365
0.910005
0.907992
0.906307
0.904924
0.903813
0.902941
0.902274
0.901777
0.901419
0.901171
0.901007
0.900905
0.900848
0.900823
0.900818
0.900828
0.900847
0.900875
0.900911
0.900958
0.901018
0.901097
0.901199
0.90133
0.901494
0.901694
0.901934
0.902213
0.902531
0.902883
0.903264
0.903667
0.904084
0.904505
0.904922
0.905324
0.905702
0.906046
0.906348
0.9066
0.906796
0.906929
0.906997
0.942378
0.942456
0.942612
0.942847
0.943161
0.943554
0.94403
0.94459
0.94524
0.945985
0.946832
0.947789
0.948868
0.950079
0.951434
0.952945
0.954624
0.956484
0.958535
0.960788
0.963249
0.965923
0.968813
0.971915
0.975224
0.978729
0.982416
0.986266
0.990257
0.994362
0.998552
1.00279
1.00705
1.01128
1.01545
1.01952
1.02344
1.02718
1.03071
1.03398
1.03696
1.03963
1.04196
1.04392
1.04549
1.04666
1.04741
1.04774
1.04763
1.04708
1.0461
1.04469
1.04285
1.0406
1.03795
1.03492
1.03154
1.02782
1.02379
1.0195
1.01498
1.01026
1.0054
1.00043
0.995399
0.990362
0.985364
0.980453
0.975676
0.971073
0.966684
0.962541
0.958672
0.955097
0.95183
0.94888
0.946249
0.943934
0.941925
0.940206
0.938759
0.937557
0.936576
0.935786
0.93516
0.934672
0.934297
0.934012
0.933798
0.93364
0.933524
0.933441
0.933382
0.933344
0.933323
0.933318
0.933331
0.933362
0.933415
0.933493
0.933599
0.933735
0.933904
0.934108
0.934345
0.934615
0.934914
0.935238
0.93558
0.935933
0.93629
0.936642
0.936983
0.937302
0.937593
0.937848
0.938061
0.938226
0.938339
0.938396
0.975387
0.975466
0.975623
0.975859
0.976176
0.976574
0.977055
0.977623
0.978282
0.979036
0.979893
0.980859
0.981944
0.983156
0.984505
0.986001
0.987655
0.989474
0.991468
0.993644
0.996007
0.99856
1.0013
1.00423
1.00734
1.01062
1.01406
1.01763
1.02132
1.02511
1.02896
1.03286
1.03675
1.04062
1.04443
1.04813
1.0517
1.05511
1.05831
1.06128
1.06399
1.0664
1.06851
1.07028
1.07169
1.07273
1.0734
1.07367
1.07355
1.07303
1.0721
1.07079
1.06909
1.06701
1.06456
1.06178
1.05866
1.05525
1.05156
1.04762
1.04348
1.03916
1.0347
1.03015
1.02555
1.02093
1.01634
1.01183
1.00743
1.00318
0.999111
0.995255
0.991635
0.988271
0.985175
0.982357
0.979818
0.977557
0.975567
0.973835
0.972346
0.971081
0.970018
0.969134
0.968406
0.967813
0.967332
0.966946
0.966636
0.966389
0.966193
0.966038
0.965916
0.965823
0.965754
0.965708
0.965685
0.965685
0.965709
0.965759
0.965836
0.965943
0.96608
0.966248
0.966445
0.966671
0.966922
0.967193
0.967481
0.967778
0.968078
0.968375
0.968662
0.968931
0.969176
0.969391
0.96957
0.969709
0.969803
0.969851
1.00832
1.0084
1.00855
1.00879
1.00911
1.00951
1.00999
1.01057
1.01123
1.01199
1.01284
1.01381
1.01489
1.0161
1.01743
1.0189
1.02052
1.02229
1.02422
1.02631
1.02858
1.03101
1.03361
1.03637
1.03929
1.04236
1.04556
1.04888
1.0523
1.05579
1.05934
1.06291
1.06649
1.07003
1.0735
1.07688
1.08014
1.08324
1.08615
1.08884
1.0913
1.09349
1.09539
1.09699
1.09826
1.09919
1.09977
1.1
1.09987
1.09937
1.0985
1.09728
1.0957
1.09377
1.09152
1.08895
1.08609
1.08295
1.07956
1.07595
1.07215
1.06819
1.06411
1.05993
1.05571
1.05147
1.04725
1.0431
1.03904
1.0351
1.03133
1.02773
1.02434
1.02118
1.01824
1.01555
1.01311
1.01091
1.00895
1.00722
1.00571
1.0044
1.00328
1.00233
1.00152
1.00084
1.00027
0.999803
0.999412
0.999088
0.998821
0.998601
0.998422
0.998277
0.998162
0.998076
0.998017
0.997984
0.997977
0.997997
0.998045
0.998121
0.998225
0.998358
0.998517
0.998702
0.998908
0.999133
0.999372
0.99962
0.999871
1.00012
1.00036
1.00058
1.00079
1.00097
1.00112
1.00124
1.00131
1.00136
1.04117
1.04125
1.04141
1.04164
1.04196
1.04236
1.04285
1.04342
1.04408
1.04483
1.04569
1.04665
1.04772
1.04891
1.05022
1.05165
1.05323
1.05494
1.05681
1.05882
1.06098
1.06329
1.06575
1.06835
1.07109
1.07396
1.07694
1.08003
1.08319
1.08642
1.08969
1.09297
1.09625
1.09949
1.10267
1.10576
1.10873
1.11155
1.1142
1.11665
1.11888
1.12086
1.12258
1.12402
1.12516
1.126
1.12651
1.1267
1.12655
1.12607
1.12526
1.12412
1.12265
1.12087
1.11879
1.11643
1.11379
1.1109
1.10779
1.10447
1.10098
1.09735
1.0936
1.08976
1.08588
1.08198
1.0781
1.07427
1.07051
1.06687
1.06336
1.06001
1.05683
1.05385
1.05107
1.0485
1.04616
1.04402
1.0421
1.04039
1.03887
1.03754
1.03638
1.03537
1.0345
1.03376
1.03312
1.03258
1.03212
1.03173
1.0314
1.03112
1.03089
1.0307
1.03054
1.03042
1.03032
1.03026
1.03022
1.03021
1.03022
1.03027
1.03034
1.03044
1.03056
1.03071
1.03088
1.03106
1.03125
1.03146
1.03167
1.03187
1.03207
1.03226
1.03243
1.03258
1.0327
1.0328
1.03287
1.0329
1.07394
1.07402
1.07418
1.07441
1.07473
1.07513
1.07561
1.07618
1.07683
1.07758
1.07843
1.07938
1.08043
1.08159
1.08287
1.08427
1.0858
1.08745
1.08924
1.09117
1.09323
1.09542
1.09774
1.10019
1.10277
1.10545
1.10823
1.11109
1.11402
1.11701
1.12002
1.12304
1.12605
1.12903
1.13193
1.13476
1.13746
1.14004
1.14245
1.14468
1.1467
1.1485
1.15005
1.15135
1.15238
1.15312
1.15357
1.15372
1.15357
1.15311
1.15235
1.15128
1.14992
1.14828
1.14635
1.14417
1.14174
1.13908
1.13622
1.13317
1.12996
1.12662
1.12317
1.11964
1.11607
1.11248
1.1089
1.10536
1.10188
1.0985
1.09523
1.0921
1.08912
1.08631
1.08368
1.08124
1.07899
1.07692
1.07505
1.07336
1.07185
1.0705
1.06932
1.06827
1.06736
1.06656
1.06587
1.06527
1.06476
1.06431
1.06393
1.0636
1.06332
1.06309
1.06289
1.06273
1.0626
1.0625
1.06243
1.06239
1.06238
1.06239
1.06243
1.0625
1.06259
1.0627
1.06283
1.06297
1.06313
1.06329
1.06346
1.06363
1.06379
1.06395
1.06409
1.06421
1.06431
1.06439
1.06445
1.06448
1.10664
1.10672
1.10687
1.10711
1.10742
1.10781
1.10829
1.10885
1.1095
1.11024
1.11107
1.112
1.11303
1.11416
1.11541
1.11677
1.11824
1.11983
1.12155
1.12338
1.12534
1.12742
1.12961
1.13192
1.13433
1.13684
1.13942
1.14209
1.1448
1.14756
1.15034
1.15313
1.15589
1.15862
1.16128
1.16386
1.16634
1.16868
1.17088
1.17291
1.17474
1.17638
1.17778
1.17895
1.17988
1.18054
1.18093
1.18105
1.18089
1.18045
1.17973
1.17874
1.17748
1.17595
1.17418
1.17216
1.16992
1.16747
1.16483
1.16202
1.15907
1.15599
1.15282
1.14957
1.14628
1.14296
1.13965
1.13638
1.13316
1.13001
1.12697
1.12404
1.12125
1.1186
1.11611
1.11378
1.11162
1.10963
1.10781
1.10616
1.10466
1.10331
1.10211
1.10104
1.1001
1.09926
1.09853
1.09789
1.09732
1.09683
1.0964