/*--------------------------------*- C++ -*----------------------------------*\
| =========                 |                                                 |
| \\      /  F ield         | OpenFOAM: The Open Source CFD Toolbox           |
|  \\    /   O peration     | Version:  2406                                  |
|   \\  /    A nd           | Website:  www.openfoam.com                      |
|    \\/     M anipulation  |                                                 |
\*---------------------------------------------------------------------------*/
FoamFile
{
    version     2.0;
    format      ascii;
    arch        "LSB;label=32;scalar=64";
    class       volScalarField;
    location    "7";
    object      D;
}
// * * * * * * * * * * * * * * * * * * * * * * * * * * * * * * * * * * * * * //

dimensions      [0 2 -1 0 0 0 0];

internalField   nonuniform List<scalar> 
14400
(
6.65023e-05
6.64073e-05
6.62594e-05
6.61032e-05
6.59668e-05
6.58631e-05
6.57962e-05
6.57679e-05
6.57811e-05
6.58416e-05
6.59567e-05
6.61319e-05
6.63599e-05
6.66022e-05
6.67633e-05
6.67005e-05
6.63404e-05
6.58106e-05
6.5238e-05
6.468e-05
6.41482e-05
6.36374e-05
6.3141e-05
6.26571e-05
6.21895e-05
6.17461e-05
6.13371e-05
6.09737e-05
6.06672e-05
6.04301e-05
6.02779e-05
6.02342e-05
6.03391e-05
6.06731e-05
6.14277e-05
6.3219e-05
6.94319e-05
0.000129296
0.00013824
0.00013824
0.00013824
0.00013824
0.00013824
0.00013824
0.00013824
0.00013824
0.00013824
0.00013824
0.00013824
0.00013824
0.00013824
0.00013824
0.00013824
0.00013824
0.00013824
0.00013824
0.00013824
0.00013824
0.00013824
0.00013824
0.000111679
6.81509e-05
6.30371e-05
6.16137e-05
6.10771e-05
6.09222e-05
6.09936e-05
6.12279e-05
6.15944e-05
6.20742e-05
6.26502e-05
6.33e-05
6.39907e-05
6.46766e-05
6.53029e-05
6.58158e-05
6.61764e-05
6.63725e-05
6.64226e-05
6.63728e-05
6.6291e-05
6.6264e-05
6.64084e-05
6.69216e-05
6.82925e-05
7.26219e-05
9.67805e-05
0.000138193
0.00011094
7.33661e-05
6.77934e-05
6.597e-05
6.51341e-05
6.47259e-05
6.45524e-05
6.45233e-05
6.45872e-05
6.47097e-05
6.48641e-05
6.50267e-05
6.5174e-05
6.52819e-05
6.53272e-05
6.52933e-05
6.51757e-05
6.49842e-05
6.47393e-05
6.44653e-05
6.41861e-05
6.3924e-05
6.37006e-05
6.35393e-05
6.34695e-05
6.35339e-05
6.38062e-05
6.44414e-05
6.58638e-05
6.98872e-05
9.03027e-05
0.000138128
6.64457e-05
6.62952e-05
6.60774e-05
6.58611e-05
6.5681e-05
6.55487e-05
6.54661e-05
6.5433e-05
6.5452e-05
6.55293e-05
6.5675e-05
6.59003e-05
6.6208e-05
6.65703e-05
6.68803e-05
6.69087e-05
6.64442e-05
6.57831e-05
6.51191e-05
6.45105e-05
6.39571e-05
6.34437e-05
6.29568e-05
6.249e-05
6.20437e-05
6.16234e-05
6.12377e-05
6.08968e-05
6.06119e-05
6.03959e-05
6.02658e-05
6.02477e-05
6.03879e-05
6.07831e-05
6.16807e-05
6.39669e-05
7.27989e-05
0.000136419
0.00013824
0.00013824
0.00013824
0.00013824
0.00013824
0.00013824
0.00013824
0.00013824
0.00013824
0.00013824
0.00013824
0.00013824
0.00013824
0.00013824
0.00013824
0.00013824
0.00013824
0.00013824
0.00013824
0.00013824
0.00013824
0.00013824
0.000122579
6.90807e-05
6.33499e-05
6.17542e-05
6.11403e-05
6.09392e-05
6.0976e-05
6.1179e-05
6.1513e-05
6.19565e-05
6.24906e-05
6.30927e-05
6.37311e-05
6.4364e-05
6.49425e-05
6.54194e-05
6.57611e-05
6.59576e-05
6.60264e-05
6.60105e-05
6.59738e-05
6.60001e-05
6.62068e-05
6.68007e-05
6.83203e-05
7.33107e-05
0.000106343
0.000138235
0.000124035
7.46374e-05
6.81366e-05
6.60473e-05
6.50934e-05
6.46183e-05
6.44e-05
6.43378e-05
6.43764e-05
6.44806e-05
6.46242e-05
6.47841e-05
6.49365e-05
6.50549e-05
6.51118e-05
6.5085e-05
6.49676e-05
6.47727e-05
6.45258e-05
6.42552e-05
6.3986e-05
6.37401e-05
6.35381e-05
6.34029e-05
6.33639e-05
6.34664e-05
6.37906e-05
6.45116e-05
6.61367e-05
7.11618e-05
0.0001053
0.000138236
6.65214e-05
6.62108e-05
6.58225e-05
6.54769e-05
6.52098e-05
6.50236e-05
6.49118e-05
6.48699e-05
6.48986e-05
6.50055e-05
6.5206e-05
6.55242e-05
6.599e-05
6.66218e-05
6.73505e-05
6.77683e-05
6.68681e-05
6.58289e-05
6.49473e-05
6.42292e-05
6.36295e-05
6.31072e-05
6.26343e-05
6.21954e-05
6.17851e-05
6.14048e-05
6.10602e-05
6.076e-05
6.05149e-05
6.03389e-05
6.02515e-05
6.02843e-05
6.04964e-05
6.10205e-05
6.22537e-05
6.62185e-05
9.4733e-05
0.000138228
0.00013824
0.00013824
0.00013824
0.00013824
0.00013824
0.00013824
0.00013824
0.00013824
0.00013824
0.00013824
0.00013824
0.00013824
0.00013824
0.00013824
0.00013824
0.00013824
0.00013824
0.00013824
0.00013824
0.00013824
0.00013824
0.00013824
0.000136166
7.28006e-05
6.4292e-05
6.2103e-05
6.12887e-05
6.09854e-05
6.09514e-05
6.10934e-05
6.13666e-05
6.17438e-05
6.22035e-05
6.27221e-05
6.32708e-05
6.3814e-05
6.43123e-05
6.47289e-05
6.50388e-05
6.52358e-05
6.53363e-05
6.53786e-05
6.54209e-05
6.55441e-05
6.58707e-05
6.66336e-05
6.84747e-05
7.45785e-05
0.00012224
0.00013824
0.000137247
8.0943e-05
6.93338e-05
6.63257e-05
6.50746e-05
6.44564e-05
6.4151e-05
6.40279e-05
6.40221e-05
6.4096e-05
6.42235e-05
6.43828e-05
6.45499e-05
6.46944e-05
6.47789e-05
6.47671e-05
6.46462e-05
6.44369e-05
6.41785e-05
6.39074e-05
6.36511e-05
6.34306e-05
6.3265e-05
6.31761e-05
6.31949e-05
6.33727e-05
6.38077e-05
6.47281e-05
6.6843e-05
7.36819e-05
0.000127685
0.00013824
6.72686e-05
6.64504e-05
6.56823e-05
6.51053e-05
6.47021e-05
6.44376e-05
6.42851e-05
6.42304e-05
6.42713e-05
6.4417e-05
6.46919e-05
6.51433e-05
6.58582e-05
6.70048e-05
6.89262e-05
7.20583e-05
6.82957e-05
6.61627e-05
6.4837e-05
6.39276e-05
6.32498e-05
6.27062e-05
6.22438e-05
6.18346e-05
6.14655e-05
6.11329e-05
6.08394e-05
6.05915e-05
6.03997e-05
6.02795e-05
6.02546e-05
6.03658e-05
6.0694e-05
6.14344e-05
6.32257e-05
6.94771e-05
0.00012572
0.00013824
0.00013824
0.00013824
0.00013824
0.00013824
0.00013824
0.00013824
0.00013824
0.00013824
0.00013824
0.00013824
0.00013824
0.00013824
0.00013824
0.00013824
0.00013824
0.00013824
0.00013824
0.00013824
0.00013824
0.00013824
0.00013824
0.00013824
0.000138237
0.000101465
6.70615e-05
6.27993e-05
6.15645e-05
6.10845e-05
6.09399e-05
6.09932e-05
6.11828e-05
6.14734e-05
6.18392e-05
6.22564e-05
6.26989e-05
6.31382e-05
6.3545e-05
6.38934e-05
6.41674e-05
6.43654e-05
6.45033e-05
6.46155e-05
6.47563e-05
6.50079e-05
6.55106e-05
6.65752e-05
6.92163e-05
7.89971e-05
0.000136511
0.00013824
0.00013824
0.000115848
7.28099e-05
6.7058e-05
6.51943e-05
6.43338e-05
6.38974e-05
6.36904e-05
6.3628e-05
6.36667e-05
6.37806e-05
6.39494e-05
6.41504e-05
6.43489e-05
6.44911e-05
6.45072e-05
6.43686e-05
6.41161e-05
6.38206e-05
6.35324e-05
6.32812e-05
6.30858e-05
6.29629e-05
6.29339e-05
6.30343e-05
6.33297e-05
6.39596e-05
6.53156e-05
6.9217e-05
9.27829e-05
0.000138198
0.00013824
7.12718e-05
6.7695e-05
6.5929e-05
6.49218e-05
6.43069e-05
6.39323e-05
6.37245e-05
6.36522e-05
6.37077e-05
6.39035e-05
6.42785e-05
6.49222e-05
6.60444e-05
6.82799e-05
7.48149e-05
0.000114747
7.35911e-05
6.72337e-05
6.4943e-05
6.37092e-05
6.2907e-05
6.23211e-05
6.18577e-05
6.14713e-05
6.11401e-05
6.08552e-05
6.06155e-05
6.04261e-05
6.02974e-05
6.02475e-05
6.03073e-05
6.05345e-05
6.10542e-05
6.22329e-05
6.58975e-05
9.1422e-05
0.00013822
0.00013824
0.00013824
0.00013824
0.00013824
0.00013824
0.00013824
0.00013824
0.00013824
0.00013824
0.00013824
0.00013824
0.00013824
0.00013824
0.00013824
0.00013824
0.00013824
0.00013824
0.00013824
0.00013824
0.00013824
0.00013824
0.00013824
0.00013824
0.00013824
0.000132222
7.09291e-05
6.398e-05
6.20481e-05
6.12809e-05
6.09732e-05
6.09087e-05
6.09963e-05
6.11881e-05
6.14526e-05
6.17649e-05
6.21019e-05
6.2441e-05
6.27616e-05
6.30471e-05
6.3289e-05
6.34899e-05
6.36665e-05
6.3852e-05
6.41016e-05
6.45072e-05
6.52503e-05
6.68287e-05
7.17579e-05
0.000108171
0.000138238
0.00013824
0.00013824
0.000137921
8.41939e-05
6.89492e-05
6.56724e-05
6.43874e-05
6.3755e-05
6.34351e-05
6.33042e-05
6.33071e-05
6.34163e-05
6.36153e-05
6.38874e-05
6.41979e-05
6.44728e-05
6.4551e-05
6.43517e-05
6.39803e-05
6.35897e-05
6.32481e-05
6.29815e-05
6.28017e-05
6.27223e-05
6.27652e-05
6.29765e-05
6.34543e-05
6.44282e-05
6.66277e-05
7.39809e-05
0.0001323
0.00013824
0.00013824
0.000106515
7.27506e-05
6.71322e-05
6.51603e-05
6.41741e-05
6.36301e-05
6.33407e-05
6.32421e-05
6.33175e-05
6.35854e-05
6.41127e-05
6.50839e-05
6.70569e-05
7.29082e-05
0.000115302
0.000138237
0.000104584
7.05001e-05
6.55099e-05
6.3689e-05
6.26868e-05
6.20242e-05
6.15392e-05
6.11615e-05
6.08586e-05
6.06159e-05
6.04291e-05
6.03017e-05
6.02453e-05
6.02834e-05
6.04608e-05
6.08689e-05
6.17265e-05
6.37658e-05
7.1135e-05
0.000134485
0.00013824
0.00013824
0.00013824
0.00013824
0.00013824
0.00013824
0.00013824
0.00013824
0.00013824
0.00013824
0.00013824
0.00013824
0.00013824
0.00013824
0.00013824
0.00013824
0.00013824
0.00013824
0.00013824
0.00013824
0.00013824
0.00013824
0.00013824
0.00013824
0.00013824
0.000138239
0.000107415
6.77937e-05
6.30622e-05
6.16697e-05
6.11011e-05
6.08788e-05
6.08457e-05
6.09304e-05
6.10926e-05
6.13049e-05
6.15457e-05
6.17973e-05
6.20451e-05
6.22795e-05
6.24976e-05
6.27055e-05
6.29223e-05
6.31838e-05
6.35539e-05
6.41514e-05
6.52412e-05
6.76319e-05
7.56074e-05
0.000134442
0.00013824
0.00013824
0.00013824
0.00013824
0.000132377
7.4437e-05
6.70782e-05
6.48637e-05
6.38837e-05
6.33883e-05
6.31646e-05
6.31288e-05
6.32501e-05
6.35182e-05
6.39396e-05
6.45064e-05
6.51752e-05
6.54592e-05
6.5024e-05
6.42807e-05
6.36516e-05
6.31814e-05
6.28597e-05
6.2677e-05
6.26413e-05
6.2777e-05
6.31554e-05
6.3974e-05
6.58151e-05
7.17038e-05
0.000117204
0.00013824
0.00013824
0.00013824
0.000138237
0.000107609
7.18805e-05
6.63844e-05
6.45347e-05
6.36783e-05
6.3246e-05
6.31026e-05
6.32099e-05
6.3602e-05
6.44131e-05
6.61277e-05
7.09322e-05
9.92027e-05
0.000138229
0.00013824
0.000137311
7.82649e-05
6.69914e-05
6.4045e-05
6.26921e-05
6.18879e-05
6.13461e-05
6.09548e-05
6.06659e-05
6.04574e-05
6.03216e-05
6.02615e-05
6.02921e-05
6.04484e-05
6.08078e-05
6.15584e-05
6.32843e-05
6.91852e-05
0.000122162
0.00013824
0.00013824
0.00013824
0.00013824
0.00013824
0.00013824
0.00013824
0.00013824
0.00013824
0.00013824
0.00013824
0.00013824
0.00013824
0.00013824
0.00013824
0.00013824
0.00013824
0.00013824
0.00013824
0.00013824
0.00013824
0.00013824
0.00013824
0.00013824
0.00013824
0.00013824
0.00013824
0.00013799
8.00665e-05
6.52516e-05
6.2414e-05
6.14027e-05
6.0957e-05
6.07751e-05
6.07418e-05
6.08006e-05
6.09186e-05
6.10744e-05
6.12523e-05
6.14423e-05
6.1639e-05
6.18436e-05
6.20659e-05
6.23285e-05
6.26754e-05
6.31922e-05
6.40674e-05
6.58498e-05
7.12713e-05
0.000112828
0.00013824
0.00013824
0.00013824
0.00013824
0.00013824
0.00013824
0.000123739
7.29281e-05
6.64997e-05
6.46141e-05
6.37548e-05
6.33692e-05
6.32791e-05
6.34456e-05
6.38689e-05
6.46502e-05
6.59438e-05
6.85669e-05
7.02487e-05
6.81672e-05
6.56473e-05
6.43141e-05
6.35281e-05
6.30656e-05
6.28425e-05
6.28598e-05
6.31428e-05
6.38257e-05
6.54891e-05
7.07653e-05
0.000105594
0.000138238
0.00013824
0.00013824
0.00013824
0.00013824
0.000138236
0.000104438
7.13976e-05
6.6046e-05
6.44071e-05
6.36418e-05
6.34059e-05
6.35762e-05
6.42442e-05
6.57772e-05
7.03245e-05
9.30171e-05
0.000138193
0.00013824
0.00013824
0.00013824
0.000128938
7.22663e-05
6.53463e-05
6.31262e-05
6.20177e-05
6.13502e-05
6.0907e-05
6.06108e-05
6.04271e-05
6.03436e-05
6.0365e-05
6.05146e-05
6.08545e-05
6.15505e-05
6.3159e-05
6.84783e-05
0.000110235
0.00013824
0.00013824
0.00013824
0.00013824
0.00013824
0.00013824
0.00013824
0.00013824
0.00013824
0.00013824
0.00013824
0.00013824
0.00013824
0.00013824
0.00013824
0.00013824
0.00013824
0.00013824
0.00013824
0.00013824
0.00013824
0.00013824
0.00013824
0.00013824
0.00013824
0.00013824
0.00013824
0.00013824
0.00013824
0.000133767
7.10983e-05
6.40257e-05
6.20614e-05
6.12371e-05
6.08465e-05
6.06694e-05
6.06154e-05
6.06403e-05
6.07181e-05
6.08334e-05
6.09781e-05
6.11501e-05
6.13535e-05
6.16019e-05
6.19248e-05
6.23815e-05
6.31028e-05
6.44316e-05
6.77868e-05
8.46375e-05
0.000138049
0.00013824
0.00013824
0.00013824
0.00013824
0.00013824
0.00013824
0.00013824
0.000122589
7.30698e-05
6.71359e-05
6.5089e-05
6.42948e-05
6.40775e-05
6.43974e-05
6.52457e-05
6.7312e-05
7.18591e-05
9.30503e-05
0.0001149
8.938e-05
7.12374e-05
6.66198e-05
6.48189e-05
6.39482e-05
6.3568e-05
6.36917e-05
6.43283e-05
6.57694e-05
7.11225e-05
0.000106128
0.000138237
0.00013824
0.00013824
0.00013824
0.00013824
0.00013824
0.00013824
0.000138237
0.00011136
7.2291e-05
6.72308e-05
6.51444e-05
6.46604e-05
6.49946e-05
6.6611e-05
7.14242e-05
0.000100346
0.000138197
0.00013824
0.00013824
0.00013824
0.00013824
0.00013824
0.00011722
7.06914e-05
6.46076e-05
6.26425e-05
6.1686e-05
6.11091e-05
6.07692e-05
6.05992e-05
6.05779e-05
6.07206e-05
6.10749e-05
6.17803e-05
6.33247e-05
6.86047e-05
0.000107482
0.000138239
0.00013824
0.00013824
0.00013824
0.00013824
0.00013824
0.00013824
0.00013824
0.00013824
0.00013824
0.00013824
0.00013824
0.00013824
0.00013824
0.00013824
0.00013824
0.00013824
0.00013824
0.00013824
0.00013824
0.00013824
0.00013824
0.00013824
0.00013824
0.00013824
0.00013824
0.00013824
0.00013824
0.00013824
0.00013824
0.00013824
0.000125647
6.98833e-05
6.37071e-05
6.19345e-05
6.11716e-05
6.0784e-05
6.05862e-05
6.05064e-05
6.05054e-05
6.05632e-05
6.0672e-05
6.08318e-05
6.105e-05
6.13455e-05
6.17608e-05
6.23879e-05
6.3465e-05
6.57404e-05
7.33134e-05
0.000133986
0.00013824
0.00013824
0.00013824
0.00013824
0.00013824
0.00013824
0.00013824
0.00013824
0.00013824
0.000130907
8.00243e-05
7.02951e-05
6.75697e-05
6.66865e-05
6.791e-05
7.0712e-05
8.19931e-05
0.000126244
0.000138211
0.00013824
0.000138178
0.000122702
7.74541e-05
6.98876e-05
6.6974e-05
6.5724e-05
6.63283e-05
6.87818e-05
7.33002e-05
0.000119614
0.000138238
0.00013824
0.00013824
0.00013824
0.00013824
0.00013824
0.00013824
0.00013824
0.00013824
0.00013824
0.000127849
8.41372e-05
7.10767e-05
6.96803e-05
7.06397e-05
7.83877e-05
0.000121602
0.000138234
0.00013824
0.00013824
0.00013824
0.00013824
0.00013824
0.00013824
0.00013824
0.000113942
7.03885e-05
6.4506e-05
6.274e-05
6.17724e-05
6.13056e-05
6.11331e-05
6.1208e-05
6.16003e-05
6.24703e-05
6.43271e-05
6.96724e-05
0.000114773
0.000138239
0.00013824
0.00013824
0.00013824
0.00013824
0.00013824
0.00013824
0.00013824
0.00013824
0.00013824
0.00013824
0.00013824
0.00013824
0.00013824
0.00013824
0.00013824
0.00013824
0.00013824
0.00013824
0.00013824
0.00013824
0.00013824
0.00013824
0.00013824
0.00013824
0.00013824
0.00013824
0.00013824
0.00013824
0.00013824
0.00013824
0.00013824
0.00013824
0.000121054
6.96733e-05
6.37218e-05
6.20248e-05
6.12315e-05
6.07991e-05
6.05765e-05
6.04797e-05
6.04752e-05
6.05533e-05
6.07158e-05
6.0975e-05
6.13592e-05
6.19443e-05
6.29073e-05
6.49127e-05
7.14021e-05
0.000125544
0.00013824
0.00013824
0.00013824
0.00013824
0.00013824
0.00013824
0.00013824
0.00013824
0.00013824
0.00013824
0.00013824
0.000137755
0.000115187
8.67478e-05
7.80968e-05
9.03529e-05
0.000119
0.000137936
0.00013824
0.00013824
0.00013824
0.00013824
0.00013824
0.000137341
0.000114048
8.38485e-05
7.38045e-05
7.87353e-05
0.000105155
0.000134567
0.00013824
0.00013824
0.00013824
0.00013824
0.00013824
0.00013824
0.00013824
0.00013824
0.00013824
0.00013824
0.00013824
0.00013824
0.000138069
0.000125957
0.000113671
0.000123065
0.000137573
0.00013824
0.00013824
0.00013824
0.00013824
0.00013824
0.00013824
0.00013824
0.00013824
0.00013824
0.00013824
0.000122498
7.18084e-05
6.65398e-05
6.35955e-05
6.27388e-05
6.25299e-05
6.28138e-05
6.40477e-05
6.74283e-05
7.66185e-05
0.000128981
0.00013824
0.00013824
0.00013824
0.00013824
0.00013824
0.00013824
0.00013824
0.00013824
0.00013824
0.00013824
0.00013824
0.00013824
0.00013824
0.00013824
0.00013824
0.00013824
0.00013824
0.00013824
0.00013824
0.00013824
0.00013824
0.00013824
0.00013824
0.00013824
0.00013824
0.00013824
0.00013824
0.00013824
0.00013824
0.00013824
0.00013824
0.00013824
0.00013824
0.00013824
0.00013824
0.00012401
7.03593e-05
6.44814e-05
6.24501e-05
6.14581e-05
6.09829e-05
6.07336e-05
6.06401e-05
6.06864e-05
6.08754e-05
6.12328e-05
6.1807e-05
6.27927e-05
6.46493e-05
7.08328e-05
0.000120833
0.00013824
0.00013824
0.00013824
0.00013824
0.00013824
0.00013824
0.00013824
0.00013824
0.00013824
0.00013824
0.00013824
0.00013824
0.00013824
0.00013824
0.000138121
0.000137381
0.000138184
0.00013824
0.00013824
0.00013824
0.00013824
0.00013824
0.00013824
0.00013824
0.00013824
0.00013824
0.000138041
0.000135542
0.00013761
0.000138238
0.00013824
0.00013824
0.00013824
0.00013824
0.00013824
0.00013824
0.00013824
0.00013824
0.00013824
0.00013824
0.00013824
0.00013824
0.00013824
0.00013824
0.00013824
0.00013824
0.00013824
0.00013824
0.00013824
0.00013824
0.00013824
0.00013824
0.00013824
0.00013824
0.00013824
0.00013824
0.00013824
0.00013824
0.00013824
0.000134363
9.62342e-05
7.03216e-05
6.79799e-05
6.76015e-05
6.85822e-05
7.51703e-05
0.000112607
0.000137762
0.00013824
0.00013824
0.00013824
0.00013824
0.00013824
0.00013824
0.00013824
0.00013824
0.00013824
0.00013824
0.00013824
0.00013824
0.00013824
0.00013824
0.00013824
0.00013824
0.00013824
0.00013824
0.00013824
0.00013824
0.00013824
0.00013824
0.00013824
0.00013824
0.00013824
0.00013824
0.00013824
0.00013824
0.00013824
0.00013824
0.00013824
0.00013824
0.00013824
0.00013824
0.00013824
0.00013824
0.00013824
0.000132281
7.64178e-05
6.67688e-05
6.32357e-05
6.21391e-05
6.15205e-05
6.12372e-05
6.12365e-05
6.15067e-05
6.21448e-05
6.32473e-05
6.58099e-05
7.16615e-05
0.000125103
0.00013824
0.00013824
0.00013824
0.00013824
0.00013824
0.00013824
0.00013824
0.00013824
0.00013824
0.00013824
0.00013824
0.00013824
0.00013824
0.00013824
0.00013824
0.00013824
0.00013824
0.00013824
0.00013824
0.00013824
0.00013824
0.00013824
0.00013824
0.00013824
0.00013824
0.00013824
0.00013824
0.00013824
0.00013824
0.00013824
0.00013824
0.00013824
0.00013824
0.00013824
0.00013824
0.00013824
0.00013824
0.00013824
0.00013824
0.00013824
0.00013824
0.00013824
0.00013824
0.00013824
0.00013824
0.00013824
0.00013824
0.00013824
0.00013824
0.00013824
0.00013824
0.00013824
0.00013824
0.00013824
0.00013824
0.00013824
0.00013824
0.00013824
0.00013824
0.00013824
0.00013824
0.000138232
0.000132258
0.000116362
0.000113137
0.000124671
0.00013752
0.00013824
0.00013824
0.00013824
0.00013824
0.00013824
0.00013824
0.00013824
0.00013824
0.00013824
0.00013824
0.00013824
0.00013824
0.00013824
0.00013824
0.00013824
0.00013824
0.00013824
0.00013824
0.00013824
0.00013824
0.00013824
0.00013824
0.00013824
0.00013824
0.00013824
0.00013824
0.00013824
0.00013824
0.00013824
0.00013824
0.00013824
0.00013824
0.00013824
0.00013824
0.00013824
0.00013824
0.00013824
0.00013824
0.00013824
0.00013824
0.000137729
0.000103245
6.98278e-05
6.63244e-05
6.38385e-05
6.2867e-05
6.27564e-05
6.32853e-05
6.52456e-05
6.8786e-05
8.49862e-05
0.000133928
0.00013824
0.00013824
0.00013824
0.00013824
0.00013824
0.00013824
0.00013824
0.00013824
0.00013824
0.00013824
0.00013824
0.00013824
0.00013824
0.00013824
0.00013824
0.00013824
0.00013824
0.00013824
0.00013824
0.00013824
0.00013824
0.00013824
0.00013824
0.00013824
0.00013824
0.00013824
0.00013824
0.00013824
0.00013824
0.00013824
0.00013824
0.00013824
0.00013824
0.00013824
0.00013824
0.00013824
0.00013824
0.00013824
0.00013824
0.00013824
0.00013824
0.00013824
0.00013824
0.00013824
0.00013824
0.00013824
0.00013824
0.00013824
0.00013824
0.00013824
0.00013824
0.00013824
0.00013824
0.00013824
0.00013824
0.00013824
0.00013824
0.00013824
0.00013824
0.00013824
0.00013824
0.00013824
0.00013824
0.00013824
0.00013824
0.00013824
0.00013824
0.00013824
0.00013824
0.00013824
0.00013824
0.00013824
0.00013824
0.00013824
0.00013824
0.00013824
0.00013824
0.00013824
0.00013824
0.00013824
0.00013824
0.00013824
0.00013824
0.00013824
0.00013824
0.00013824
0.00013824
0.00013824
0.00013824
0.00013824
0.00013824
0.00013824
0.00013824
0.00013824
0.00013824
0.00013824
0.00013824
0.00013824
0.00013824
0.00013824
0.00013824
0.00013824
0.00013824
0.00013824
0.00013824
0.00013824
0.00013824
0.00013824
0.00013824
0.000138239
0.000130873
0.00010111
7.42493e-05
6.8891e-05
6.84592e-05
6.99185e-05
8.46313e-05
0.000119695
0.000138155
0.00013824
0.00013824
0.00013824
0.00013824
0.00013824
0.00013824
0.00013824
0.00013824
0.00013824
0.00013824
0.00013824
0.00013824
0.00013824
0.00013824
0.00013824
0.00013824
0.00013824
0.00013824
0.00013824
0.00013824
0.00013824
0.00013824
0.00013824
0.00013824
0.00013824
0.00013824
0.00013824
0.00013824
0.00013824
0.00013824
0.00013824
0.00013824
0.00013824
0.00013824
0.00013824
0.00013824
0.00013824
0.00013824
0.00013824
0.00013824
0.00013824
0.00013824
0.00013824
0.00013824
0.00013824
0.00013824
0.00013824
0.00013824
0.00013824
0.00013824
0.00013824
0.00013824
0.00013824
0.00013824
0.00013824
0.00013824
0.00013824
0.00013824
0.00013824
0.00013824
0.00013824
0.00013824
0.00013824
0.00013824
0.00013824
0.00013824
0.00013824
0.00013824
0.00013824
0.00013824
0.00013824
0.00013824
0.00013824
0.00013824
0.00013824
0.00013824
0.00013824
0.00013824
0.00013824
0.00013824
0.00013824
0.00013824
0.00013824
0.00013824
0.00013824
0.00013824
0.00013824
0.00013824
0.00013824
0.00013824
0.00013824
0.00013824
0.00013824
0.00013824
0.00013824
0.00013824
0.00013824
0.00013824
0.00013824
0.00013824
0.00013824
0.00013824
0.00013824
0.00013824
0.00013824
0.00013824
0.00013824
0.00013824
0.00013824
0.00013824
0.00013824
0.00013824
0.000138237
0.000137323
0.000129586
0.000126166
0.000133019
0.000138152
0.00013824
0.00013824
0.00013824
0.00013824
0.00013824
0.00013824
0.00013824
0.00013824
0.00013824
0.00013824
0.00013824
0.00013824
0.00013824
0.00013824
0.00013824
0.00013824
0.00013824
0.00013824
0.00013824
0.00013824
0.00013824
0.00013824
0.00013824
0.00013824
0.00013824
0.00013824
0.00013824
0.00013824
0.00013824
0.00013824
0.00013824
0.00013824
0.00013824
0.00013824
0.00013824
0.00013824
0.00013824
0.00013824
0.00013824
0.00013824
0.00013824
0.00013824
0.00013824
0.00013824
0.00013824
0.00013824
0.00013824
0.00013824
0.00013824
0.00013824
0.00013824
0.00013824
0.00013824
0.00013824
0.00013824
0.00013824
0.00013824
0.00013824
0.00013824
0.00013824
0.00013824
0.00013824
0.00013824
0.00013824
0.00013824
0.00013824
0.00013824
0.00013824
0.00013824
0.00013824
0.00013824
0.00013824
0.00013824
0.00013824
0.00013824
0.00013824
0.00013824
0.00013824
0.00013824
0.00013824
0.00013824
0.00013824
0.00013824
0.00013824
0.00013824
0.00013824
0.00013824
0.00013824
0.00013824
0.00013824
0.00013824
0.00013824
0.00013824
0.00013824
0.00013824
0.00013824
0.00013824
0.00013824
0.00013824
0.00013824
0.00013824
0.00013824
0.00013824
0.00013824
0.00013824
0.00013824
0.00013824
0.00013824
0.00013824
0.00013824
0.00013824
0.00013824
0.00013824
0.00013824
0.00013824
0.00013824
0.00013824
0.00013824
0.00013824
0.00013824
0.00013824
0.00013824
0.00013824
0.00013824
0.00013824
0.00013824
0.00013824
0.00013824
0.00013824
0.00013824
0.00013824
0.00013824
0.00013824
0.00013824
0.00013824
0.00013824
0.00013824
0.00013824
0.00013824
0.00013824
0.00013824
0.00013824
0.00013824
0.00013824
0.00013824
0.00013824
0.00013824
0.00013824
0.00013824
0.00013824
0.00013824
0.00013824
0.00013824
0.00013824
0.00013824
0.00013824
0.00013824
0.00013824
0.00013824
0.00013824
0.00013824
0.00013824
0.00013824
0.00013824
0.00013824
0.00013824
0.00013824
0.00013824
0.00013824
0.00013824
0.00013824
0.00013824
0.00013824
0.00013824
0.00013824
0.00013824
0.00013824
0.00013824
0.00013824
0.00013824
0.00013824
0.00013824
0.00013824
0.00013824
0.00013824
0.00013824
0.00013824
0.00013824
0.00013824
0.00013824
0.00013824
0.00013824
0.00013824
0.00013824
0.00013824
0.00013824
0.00013824
0.00013824
0.00013824
0.00013824
0.00013824
0.00013824
0.00013824
0.00013824
0.00013824
0.00013824
0.00013824
0.00013824
0.00013824
0.00013824
0.00013824
0.00013824
0.00013824
0.00013824
0.00013824
0.00013824
0.00013824
0.00013824
0.00013824
0.00013824
0.00013824
0.00013824
0.00013824
0.00013824
0.00013824
0.00013824
0.00013824
0.00013824
0.00013824
0.00013824
0.00013824
0.00013824
0.00013824
0.00013824
0.00013824
0.00013824
0.00013824
0.00013824
0.00013824
0.00013824
0.00013824
0.00013824
0.00013824
0.00013824
0.00013824
0.00013824
0.00013824
0.00013824
0.00013824
0.00013824
0.00013824
0.00013824
0.00013824
0.00013824
0.00013824
0.00013824
0.00013824
0.00013824
0.00013824
0.00013824
0.00013824
0.00013824
0.00013824
0.00013824
0.00013824
0.00013824
0.00013824
0.00013824
0.00013824
0.00013824
0.00013824
0.00013824
0.00013824
0.00013824
0.00013824
0.00013824
0.00013824
0.00013824
0.00013824
0.00013824
0.00013824
0.00013824
0.00013824
0.00013824
0.00013824
0.00013824
0.00013824
0.00013824
0.00013824
0.00013824
0.00013824
0.00013824
0.00013824
0.00013824
0.00013824
0.00013824
0.00013824
0.00013824
0.00013824
0.00013824
0.00013824
0.00013824
0.00013824
0.00013824
0.00013824
0.00013824
0.00013824
0.00013824
0.00013824
0.00013824
0.00013824
0.00013824
0.00013824
0.00013824
0.00013824
0.00013824
0.00013824
0.00013824
0.00013824
0.00013824
0.00013824
0.00013824
0.00013824
0.00013824
0.00013824
0.00013824
0.00013824
0.00013824
0.00013824
0.00013824
0.00013824
0.00013824
0.00013824
0.00013824
0.00013824
0.00013824
0.00013824
0.00013824
0.00013824
0.00013824
0.00013824
0.00013824
0.00013824
0.00013824
0.00013824
0.00013824
0.00013824
0.00013824
0.00013824
0.00013824
0.00013824
0.00013824
0.00013824
0.00013824
0.00013824
0.00013824
0.00013824
0.00013824
0.00013824
0.00013824
0.00013824
0.00013824
0.00013824
0.00013824
0.00013824
0.00013824
0.00013824
0.00013824
0.00013824
0.00013824
0.00013824
0.00013824
0.00013824
0.00013824
0.00013824
0.00013824
0.00013824
0.00013824
0.00013824
0.00013824
0.00013824
0.00013824
0.00013824
0.00013824
0.00013824
0.00013824
0.00013824
0.00013824
0.00013824
0.00013824
0.00013824
0.00013824
0.00013824
0.00013824
0.00013824
0.00013824
0.00013824
0.00013824
0.00013824
0.00013824
0.00013824
0.00013824
0.00013824
0.00013824
0.00013824
0.00013824
0.00013824
0.00013824
0.00013824
0.00013824
0.00013824
0.00013824
0.00013824
0.00013824
0.00013824
0.00013824
0.00013824
0.00013824
0.00013824
0.00013824
0.00013824
0.00013824
0.00013824
0.00013824
0.00013824
0.00013824
0.00013824
0.00013824
0.00013824
0.00013824
0.00013824
0.00013824
0.00013824
0.00013824
0.00013824
0.00013824
0.00013824
0.00013824
0.00013824
0.00013824
0.00013824
0.00013824
0.00013824
0.00013824
0.00013824
0.00013824
0.00013824
0.00013824
0.00013824
0.00013824
0.00013824
0.00013824
0.00013824
0.00013824
0.00013824
0.00013824
0.00013824
0.00013824
0.00013824
0.00013824
0.00013824
0.00013824
0.00013824
0.00013824
0.00013824
0.00013824
0.00013824
0.00013824
0.00013824
0.00013824
0.00013824
0.00013824
0.00013824
0.00013824
0.00013824
0.00013824
0.00013824
0.00013824
0.00013824
0.00013824
0.00013824
0.00013824
0.00013824
0.00013824
0.00013824
0.00013824
0.00013824
0.00013824
0.00013824
0.00013824
0.00013824
0.00013824
0.00013824
0.00013824
0.00013824
0.00013824
0.00013824
0.00013824
0.00013824
0.00013824
0.00013824
0.00013824
0.00013824
0.00013824
0.00013824
0.00013824
0.00013824
0.00013824
0.00013824
0.00013824
0.00013824
0.00013824
0.00013824
0.00013824
0.00013824
0.00013824
0.00013824
0.00013824
0.00013824
0.00013824
0.00013824
0.00013824
0.00013824
0.00013824
0.00013824
0.00013824
0.00013824
0.00013824
0.00013824
0.00013824
0.00013824
0.00013824
0.00013824
0.00013824
0.00013824
0.00013824
0.00013824
0.00013824
0.00013824
0.00013824
0.00013824
0.00013824
0.00013824
0.00013824
0.00013824
0.00013824
0.00013824
0.00013824
0.00013824
0.00013824
0.00013824
0.00013824
0.00013824
0.00013824
0.00013824
0.00013824
0.00013824
0.00013824
0.00013824
0.00013824
0.00013824
0.00013824
0.00013824
0.00013824
0.00013824
0.00013824
0.00013824
0.00013824
0.00013824
0.00013824
0.00013824
0.00013824
0.00013824
0.00013824
0.00013824
0.00013824
0.00013824
0.00013824
0.00013824
0.00013824
0.00013824
0.00013824
0.00013824
0.00013824
0.00013824
0.00013824
0.00013824
0.00013824
0.00013824
0.00013824
0.00013824
0.00013824
0.00013824
0.00013824
0.00013824
0.00013824
0.00013824
0.00013824
0.00013824
0.00013824
0.00013824
0.00013824
0.00013824
0.00013824
0.00013824
0.00013824
0.00013824
0.00013824
0.00013824
0.00013824
0.00013824
0.00013824
0.00013824
0.00013824
0.00013824
0.00013824
0.00013824
0.00013824
0.00013824
0.00013824
0.00013824
0.00013824
0.00013824
0.00013824
0.00013824
0.00013824
0.00013824
0.00013824
0.00013824
0.00013824
0.00013824
0.00013824
0.00013824
0.00013824
0.00013824
0.00013824
0.00013824
0.00013824
0.00013824
0.00013824
0.00013824
0.00013824
0.00013824
0.00013824
0.00013824
0.00013824
0.00013824
0.00013824
0.00013824
0.00013824
0.00013824
0.00013824
0.00013824
0.00013824
0.00013824
0.00013824
0.00013824
0.00013824
0.00013824
0.00013824
0.00013824
0.00013824
0.00013824
0.00013824
0.00013824
0.00013824
0.00013824
0.00013824
0.00013824
0.00013824
0.00013824
0.00013824
0.00013824
0.00013824
0.00013824
0.00013824
0.00013824
0.00013824
0.00013824
0.00013824
0.00013824
0.00013824
0.00013824
0.00013824
0.00013824
0.00013824
0.00013824
0.00013824
0.00013824
0.00013824
0.00013824
0.00013824
0.00013824
0.00013824
0.00013824
0.00013824
0.00013824
0.00013824
0.00013824
0.00013824
0.00013824
0.00013824
0.00013824
0.00013824
0.00013824
0.00013824
0.00013824
0.00013824
0.00013824
0.00013824
0.00013824
0.00013824
0.00013824
0.00013824
0.00013824
0.00013824
0.00013824
0.00013824
0.00013824
0.00013824
0.00013824
0.00013824
0.00013824
0.00013824
0.00013824
0.00013824
0.00013824
0.00013824
0.00013824
0.00013824
0.00013824
0.00013824
0.00013824
0.00013824
0.00013824
0.00013824
0.00013824
0.00013824
0.00013824
0.00013824
0.00013824
0.00013824
0.00013824
0.00013824
0.00013824
0.00013824
0.00013824
0.00013824
0.00013824
0.00013824
0.00013824
0.00013824
0.00013824
0.00013824
0.00013824
0.00013824
0.00013824
0.00013824
0.00013824
0.00013824
0.00013824
0.00013824
0.00013824
0.00013824
0.00013824
0.00013824
0.00013824
0.00013824
0.00013824
0.00013824
0.00013824
0.00013824
0.00013824
0.00013824
0.00013824
0.00013824
0.00013824
0.00013824
0.00013824
0.00013824
0.00013824
0.00013824
0.00013824
0.00013824
0.00013824
0.00013824
0.00013824
0.00013824
0.00013824
0.00013824
0.00013824
0.00013824
0.00013824
0.00013824
0.00013824
0.00013824
0.00013824
0.00013824
0.00013824
0.00013824
0.00013824
0.00013824
0.00013824
0.00013824
0.00013824
0.00013824
0.00013824
0.00013824
0.00013824
0.00013824
0.00013824
0.00013824
0.00013824
0.00013824