/*--------------------------------*- C++ -*----------------------------------*\
| =========                 |                                                 |
| \\      /  F ield         | OpenFOAM: The Open Source CFD Toolbox           |
|  \\    /   O peration     | Version:  2406                                  |
|   \\  /    A nd           | Website:  www.openfoam.com                      |
|    \\/     M anipulation  |                                                 |
\*---------------------------------------------------------------------------*/
FoamFile
{
    version     2.0;
    format      ascii;
    arch        "LSB;label=32;scalar=64";
    class       volScalarField;
    location    "7";
    object      Da;
}
// * * * * * * * * * * * * * * * * * * * * * * * * * * * * * * * * * * * * * //

dimensions      [0 2 -1 0 0 0 0];

internalField   nonuniform List<scalar> 
14400
(
4.63019e-05
4.626e-05
4.61947e-05
4.61258e-05
4.60657e-05
4.602e-05
4.59905e-05
4.5978e-05
4.59838e-05
4.60105e-05
4.60613e-05
4.61385e-05
4.62391e-05
4.63459e-05
4.64169e-05
4.63892e-05
4.62303e-05
4.59964e-05
4.57436e-05
4.5497e-05
4.52619e-05
4.50359e-05
4.4816e-05
4.46016e-05
4.43943e-05
4.41976e-05
4.40161e-05
4.38548e-05
4.37187e-05
4.36132e-05
4.35454e-05
4.35254e-05
4.35711e-05
4.37178e-05
4.40496e-05
4.48374e-05
4.75718e-05
7.39366e-05
7.8e-05
7.8e-05
7.8e-05
7.8e-05
7.8e-05
7.8e-05
7.8e-05
7.8e-05
7.8e-05
7.8e-05
7.8e-05
7.8e-05
7.8e-05
7.8e-05
7.8e-05
7.8e-05
7.8e-05
7.8e-05
7.8e-05
7.8e-05
7.8e-05
7.79999e-05
6.61351e-05
4.70153e-05
4.47615e-05
4.41339e-05
4.38977e-05
4.38299e-05
4.38622e-05
4.39666e-05
4.41295e-05
4.43427e-05
4.45985e-05
4.48871e-05
4.51938e-05
4.54982e-05
4.57761e-05
4.60035e-05
4.61632e-05
4.62496e-05
4.62712e-05
4.62483e-05
4.62111e-05
4.61981e-05
4.62609e-05
4.64868e-05
4.70916e-05
4.90025e-05
5.96541e-05
7.7979e-05
6.59068e-05
4.93302e-05
4.6869e-05
4.60636e-05
4.56946e-05
4.55146e-05
4.54383e-05
4.54258e-05
4.54545e-05
4.5509e-05
4.55775e-05
4.56497e-05
4.5715e-05
4.57628e-05
4.57829e-05
4.57679e-05
4.57158e-05
4.56309e-05
4.55224e-05
4.54009e-05
4.5277e-05
4.51607e-05
4.50615e-05
4.49897e-05
4.49584e-05
4.49864e-05
4.51063e-05
4.53865e-05
4.60144e-05
4.7789e-05
5.6773e-05
7.79494e-05
4.62762e-05
4.62098e-05
4.61136e-05
4.60182e-05
4.59387e-05
4.58803e-05
4.58438e-05
4.58292e-05
4.58376e-05
4.58717e-05
4.59361e-05
4.60355e-05
4.61713e-05
4.63311e-05
4.64679e-05
4.64804e-05
4.62754e-05
4.59836e-05
4.56904e-05
4.54215e-05
4.51768e-05
4.49496e-05
4.47341e-05
4.45273e-05
4.43294e-05
4.4143e-05
4.39719e-05
4.38206e-05
4.36941e-05
4.3598e-05
4.35399e-05
4.35313e-05
4.35926e-05
4.37662e-05
4.41607e-05
4.51624e-05
4.90027e-05
7.71468e-05
7.8e-05
7.8e-05
7.8e-05
7.8e-05
7.8e-05
7.8e-05
7.8e-05
7.8e-05
7.8e-05
7.8e-05
7.8e-05
7.8e-05
7.8e-05
7.8e-05
7.8e-05
7.8e-05
7.8e-05
7.8e-05
7.8e-05
7.8e-05
7.8e-05
7.8e-05
7.09655e-05
4.74238e-05
4.48984e-05
4.41955e-05
4.39253e-05
4.38373e-05
4.38543e-05
4.39448e-05
4.40933e-05
4.42903e-05
4.45276e-05
4.47949e-05
4.50784e-05
4.53593e-05
4.56159e-05
4.58274e-05
4.59786e-05
4.60653e-05
4.60952e-05
4.60874e-05
4.60702e-05
4.60809e-05
4.61713e-05
4.64328e-05
4.71034e-05
4.93067e-05
6.38772e-05
7.79978e-05
7.1696e-05
4.98909e-05
4.702e-05
4.60973e-05
4.56762e-05
4.54666e-05
4.53705e-05
4.53433e-05
4.53608e-05
4.54072e-05
4.54709e-05
4.55419e-05
4.56094e-05
4.56619e-05
4.56871e-05
4.56752e-05
4.56232e-05
4.55368e-05
4.54274e-05
4.53075e-05
4.51881e-05
4.5079e-05
4.49893e-05
4.4929e-05
4.49114e-05
4.49563e-05
4.50991e-05
4.54173e-05
4.61348e-05
4.83525e-05
6.33956e-05
7.79982e-05
4.63086e-05
4.61714e-05
4.59999e-05
4.58472e-05
4.57292e-05
4.5647e-05
4.55976e-05
4.55791e-05
4.55918e-05
4.5639e-05
4.57276e-05
4.58682e-05
4.60738e-05
4.63527e-05
4.66742e-05
4.68585e-05
4.64615e-05
4.60028e-05
4.56134e-05
4.52961e-05
4.5031e-05
4.47999e-05
4.45906e-05
4.43962e-05
4.42144e-05
4.40458e-05
4.3893e-05
4.37597e-05
4.36509e-05
4.35725e-05
4.35334e-05
4.35473e-05
4.36404e-05
4.3871e-05
4.44136e-05
4.61545e-05
5.86024e-05
7.79943e-05
7.8e-05
7.8e-05
7.8e-05
7.8e-05
7.8e-05
7.8e-05
7.8e-05
7.8e-05
7.8e-05
7.8e-05
7.8e-05
7.8e-05
7.8e-05
7.8e-05
7.8e-05
7.8e-05
7.8e-05
7.8e-05
7.8e-05
7.8e-05
7.8e-05
7.8e-05
7.70351e-05
4.90197e-05
4.53091e-05
4.43485e-05
4.39904e-05
4.38573e-05
4.38431e-05
4.39066e-05
4.40281e-05
4.41958e-05
4.43999e-05
4.46302e-05
4.48738e-05
4.51149e-05
4.53359e-05
4.55205e-05
4.56577e-05
4.57446e-05
4.57886e-05
4.58067e-05
4.58246e-05
4.58783e-05
4.60218e-05
4.63581e-05
4.71706e-05
4.98657e-05
7.09027e-05
7.8e-05
7.75537e-05
5.26542e-05
4.75463e-05
4.62194e-05
4.56671e-05
4.53943e-05
4.52596e-05
4.52055e-05
4.52033e-05
4.52362e-05
4.52928e-05
4.53635e-05
4.54375e-05
4.55015e-05
4.55389e-05
4.55336e-05
4.54801e-05
4.53874e-05
4.52729e-05
4.51528e-05
4.50392e-05
4.49414e-05
4.48678e-05
4.48282e-05
4.48361e-05
4.49144e-05
4.51062e-05
4.55124e-05
4.6446e-05
4.94646e-05
7.32993e-05
7.8e-05
4.66373e-05
4.6276e-05
4.59367e-05
4.56817e-05
4.55035e-05
4.53867e-05
4.53192e-05
4.52951e-05
4.53132e-05
4.53776e-05
4.54991e-05
4.56985e-05
4.60143e-05
4.65205e-05
4.73681e-05
4.87481e-05
4.70901e-05
4.61488e-05
4.55633e-05
4.51615e-05
4.48619e-05
4.46215e-05
4.44169e-05
4.42358e-05
4.40723e-05
4.39249e-05
4.37947e-05
4.36847e-05
4.35995e-05
4.35459e-05
4.35345e-05
4.35831e-05
4.37273e-05
4.40533e-05
4.48421e-05
4.75948e-05
7.23607e-05
7.8e-05
7.8e-05
7.8e-05
7.8e-05
7.8e-05
7.8e-05
7.8e-05
7.8e-05
7.8e-05
7.8e-05
7.8e-05
7.8e-05
7.8e-05
7.8e-05
7.8e-05
7.8e-05
7.8e-05
7.8e-05
7.8e-05
7.8e-05
7.8e-05
7.8e-05
7.8e-05
7.79986e-05
6.15855e-05
4.6529e-05
4.46554e-05
4.41118e-05
4.39007e-05
4.38376e-05
4.38618e-05
4.39463e-05
4.40755e-05
4.42381e-05
4.44233e-05
4.46197e-05
4.48146e-05
4.4995e-05
4.51494e-05
4.52706e-05
4.5358e-05
4.54187e-05
4.54678e-05
4.55294e-05
4.56399e-05
4.58614e-05
4.63309e-05
4.74956e-05
5.18011e-05
7.72243e-05
7.8e-05
7.79999e-05
6.80625e-05
4.908e-05
4.65416e-05
4.5719e-05
4.53391e-05
4.51466e-05
4.50554e-05
4.50281e-05
4.50454e-05
4.50959e-05
4.51707e-05
4.52597e-05
4.53475e-05
4.54104e-05
4.54175e-05
4.53561e-05
4.52444e-05
4.51136e-05
4.4986e-05
4.48747e-05
4.47881e-05
4.47335e-05
4.47204e-05
4.47645e-05
4.48947e-05
4.51727e-05
4.5771e-05
4.74905e-05
5.78422e-05
7.79809e-05
7.8e-05
4.84013e-05
4.68242e-05
4.60444e-05
4.55994e-05
4.53276e-05
4.5162e-05
4.50702e-05
4.50382e-05
4.50628e-05
4.51494e-05
4.53151e-05
4.55996e-05
4.60953e-05
4.70823e-05
4.99643e-05
6.7531e-05
4.9424e-05
4.662e-05
4.56086e-05
4.50636e-05
4.47091e-05
4.44502e-05
4.42452e-05
4.40742e-05
4.39276e-05
4.38014e-05
4.36951e-05
4.36111e-05
4.35538e-05
4.35314e-05
4.35574e-05
4.36572e-05
4.3886e-05
4.44045e-05
4.60118e-05
5.71176e-05
7.79905e-05
7.8e-05
7.8e-05
7.8e-05
7.8e-05
7.8e-05
7.8e-05
7.8e-05
7.8e-05
7.8e-05
7.8e-05
7.8e-05
7.8e-05
7.8e-05
7.8e-05
7.8e-05
7.8e-05
7.8e-05
7.8e-05
7.8e-05
7.8e-05
7.8e-05
7.8e-05
7.8e-05
7.8e-05
7.52636e-05
4.82347e-05
4.51755e-05
4.43246e-05
4.39868e-05
4.38517e-05
4.38239e-05
4.38633e-05
4.39487e-05
4.40663e-05
4.42049e-05
4.43545e-05
4.45049e-05
4.4647e-05
4.47735e-05
4.48805e-05
4.49692e-05
4.5047e-05
4.51286e-05
4.52384e-05
4.54172e-05
4.5745e-05
4.64416e-05
4.86164e-05
6.46631e-05
7.79991e-05
7.8e-05
7.8e-05
7.78553e-05
5.40667e-05
4.73729e-05
4.59289e-05
4.53618e-05
4.50827e-05
4.49415e-05
4.48839e-05
4.48853e-05
4.49338e-05
4.50218e-05
4.51421e-05
4.52795e-05
4.54009e-05
4.54355e-05
4.53473e-05
4.51831e-05
4.50103e-05
4.48592e-05
4.47412e-05
4.46616e-05
4.46262e-05
4.4645e-05
4.47382e-05
4.49491e-05
4.5379e-05
4.63498e-05
4.95933e-05
7.53387e-05
7.8e-05
7.8e-05
6.39072e-05
4.90529e-05
4.65744e-05
4.57035e-05
4.52678e-05
4.50273e-05
4.48995e-05
4.48559e-05
4.48892e-05
4.50076e-05
4.52407e-05
4.56698e-05
4.65411e-05
4.91232e-05
6.78068e-05
7.79985e-05
6.30536e-05
4.80568e-05
4.58568e-05
4.50532e-05
4.46106e-05
4.43178e-05
4.41034e-05
4.39364e-05
4.38023e-05
4.36949e-05
4.36121e-05
4.35555e-05
4.35303e-05
4.35468e-05
4.36248e-05
4.38046e-05
4.41823e-05
4.50794e-05
4.83131e-05
7.62661e-05
7.8e-05
7.8e-05
7.8e-05
7.8e-05
7.8e-05
7.8e-05
7.8e-05
7.8e-05
7.8e-05
7.8e-05
7.8e-05
7.8e-05
7.8e-05
7.8e-05
7.8e-05
7.8e-05
7.8e-05
7.8e-05
7.8e-05
7.8e-05
7.8e-05
7.8e-05
7.8e-05
7.8e-05
7.8e-05
7.79997e-05
6.42045e-05
4.6849e-05
4.47699e-05
4.41575e-05
4.39074e-05
4.381e-05
4.3796e-05
4.3834e-05
4.39062e-05
4.40005e-05
4.41074e-05
4.4219e-05
4.43288e-05
4.44326e-05
4.4529e-05
4.46209e-05
4.47165e-05
4.48318e-05
4.49949e-05
4.52585e-05
4.57394e-05
4.67942e-05
5.03093e-05
7.62971e-05
7.8e-05
7.8e-05
7.8e-05
7.8e-05
7.5374e-05
4.97949e-05
4.65487e-05
4.55712e-05
4.51384e-05
4.49199e-05
4.48212e-05
4.48055e-05
4.48592e-05
4.49777e-05
4.51639e-05
4.54144e-05
4.57096e-05
4.58351e-05
4.56426e-05
4.53144e-05
4.50364e-05
4.48286e-05
4.46863e-05
4.46054e-05
4.45895e-05
4.46493e-05
4.48164e-05
4.51779e-05
4.59906e-05
4.8588e-05
6.86254e-05
7.8e-05
7.8e-05
7.8e-05
7.79985e-05
6.43924e-05
4.86671e-05
4.62428e-05
4.54259e-05
4.50475e-05
4.48566e-05
4.47933e-05
4.48406e-05
4.50138e-05
4.53722e-05
4.61291e-05
4.82472e-05
6.06816e-05
7.79948e-05
7.8e-05
7.75759e-05
5.14462e-05
4.65067e-05
4.5209e-05
4.46119e-05
4.42566e-05
4.40171e-05
4.38441e-05
4.37163e-05
4.36241e-05
4.35638e-05
4.35371e-05
4.35503e-05
4.36191e-05
4.37776e-05
4.41086e-05
4.48691e-05
4.74666e-05
7.0727e-05
7.8e-05
7.8e-05
7.8e-05
7.8e-05
7.8e-05
7.8e-05
7.8e-05
7.8e-05
7.8e-05
7.8e-05
7.8e-05
7.8e-05
7.8e-05
7.8e-05
7.8e-05
7.8e-05
7.8e-05
7.8e-05
7.8e-05
7.8e-05
7.8e-05
7.8e-05
7.8e-05
7.8e-05
7.8e-05
7.8e-05
7.8e-05
7.78806e-05
5.21433e-05
4.57264e-05
4.44842e-05
4.40398e-05
4.38438e-05
4.3764e-05
4.37498e-05
4.37763e-05
4.38289e-05
4.3898e-05
4.3977e-05
4.40611e-05
4.41482e-05
4.42386e-05
4.43368e-05
4.44527e-05
4.46057e-05
4.48337e-05
4.52199e-05
4.60061e-05
4.83968e-05
6.67002e-05
7.79998e-05
7.8e-05
7.8e-05
7.8e-05
7.8e-05
7.8e-05
7.15234e-05
4.91295e-05
4.62923e-05
4.54595e-05
4.50806e-05
4.49105e-05
4.48708e-05
4.49445e-05
4.51314e-05
4.54761e-05
4.60474e-05
4.72016e-05
4.79464e-05
4.70246e-05
4.5916e-05
4.53272e-05
4.49805e-05
4.47761e-05
4.46774e-05
4.46849e-05
4.48099e-05
4.51114e-05
4.58458e-05
4.81718e-05
6.3481e-05
7.79991e-05
7.8e-05
7.8e-05
7.8e-05
7.8e-05
7.7998e-05
6.29813e-05
4.84523e-05
4.6092e-05
4.53679e-05
4.50303e-05
4.49263e-05
4.50014e-05
4.52959e-05
4.5973e-05
4.79768e-05
5.79375e-05
7.79782e-05
7.8e-05
7.8e-05
7.8e-05
7.38258e-05
4.88352e-05
4.57828e-05
4.48026e-05
4.43129e-05
4.4018e-05
4.38222e-05
4.36913e-05
4.361e-05
4.35728e-05
4.3582e-05
4.36478e-05
4.37976e-05
4.41048e-05
4.48139e-05
4.7154e-05
6.54318e-05
7.79999e-05
7.8e-05
7.8e-05
7.8e-05
7.8e-05
7.8e-05
7.8e-05
7.8e-05
7.8e-05
7.8e-05
7.8e-05
7.8e-05
7.8e-05
7.8e-05
7.8e-05
7.8e-05
7.8e-05
7.8e-05
7.8e-05
7.8e-05
7.8e-05
7.8e-05
7.8e-05
7.8e-05
7.8e-05
7.8e-05
7.8e-05
7.8e-05
7.8e-05
7.59408e-05
4.83007e-05
4.51942e-05
4.43298e-05
4.39668e-05
4.37948e-05
4.3717e-05
4.36936e-05
4.37049e-05
4.37396e-05
4.37908e-05
4.38549e-05
4.3931e-05
4.40209e-05
4.41306e-05
4.42731e-05
4.44746e-05
4.47929e-05
4.53788e-05
4.68552e-05
5.4233e-05
7.79122e-05
7.8e-05
7.8e-05
7.8e-05
7.8e-05
7.8e-05
7.8e-05
7.8e-05
7.10048e-05
4.91891e-05
4.65674e-05
4.56681e-05
4.53177e-05
4.52218e-05
4.53633e-05
4.57377e-05
4.66454e-05
4.86547e-05
5.7936e-05
6.7611e-05
5.63148e-05
4.83792e-05
4.63399e-05
4.55485e-05
4.5164e-05
4.49961e-05
4.50505e-05
4.53318e-05
4.59672e-05
4.83287e-05
6.37085e-05
7.79984e-05
7.8e-05
7.8e-05
7.8e-05
7.8e-05
7.8e-05
7.8e-05
7.79985e-05
6.6031e-05
4.88458e-05
4.66083e-05
4.56923e-05
4.54793e-05
4.56262e-05
4.63351e-05
4.8462e-05
6.11615e-05
7.79803e-05
7.8e-05
7.8e-05
7.8e-05
7.8e-05
7.8e-05
6.86028e-05
4.81381e-05
4.54553e-05
4.45875e-05
4.41652e-05
4.39106e-05
4.37605e-05
4.36852e-05
4.36755e-05
4.3738e-05
4.3894e-05
4.42043e-05
4.48862e-05
4.72098e-05
6.42105e-05
7.79996e-05
7.8e-05
7.8e-05
7.8e-05
7.8e-05
7.8e-05
7.8e-05
7.8e-05
7.8e-05
7.8e-05
7.8e-05
7.8e-05
7.8e-05
7.8e-05
7.8e-05
7.8e-05
7.8e-05
7.8e-05
7.8e-05
7.8e-05
7.8e-05
7.8e-05
7.8e-05
7.8e-05
7.8e-05
7.8e-05
7.8e-05
7.8e-05
7.8e-05
7.8e-05
7.8e-05
7.22774e-05
4.77749e-05
4.50551e-05
4.42737e-05
4.39373e-05
4.37667e-05
4.36799e-05
4.3645e-05
4.36447e-05
4.36704e-05
4.37186e-05
4.37893e-05
4.38857e-05
4.40162e-05
4.41995e-05
4.44764e-05
4.49517e-05
4.59549e-05
4.92889e-05
7.60744e-05
7.8e-05
7.8e-05
7.8e-05
7.8e-05
7.8e-05
7.8e-05
7.8e-05
7.8e-05
7.8e-05
7.47067e-05
5.21974e-05
4.79621e-05
4.67577e-05
4.63679e-05
4.69085e-05
4.8147e-05
5.30603e-05
7.26362e-05
7.79864e-05
7.79999e-05
7.79712e-05
7.10564e-05
5.10734e-05
4.77814e-05
4.64931e-05
4.59429e-05
4.62078e-05
4.72925e-05
4.9279e-05
6.96718e-05
7.79993e-05
7.8e-05
7.8e-05
7.8e-05
7.8e-05
7.8e-05
7.8e-05
7.8e-05
7.8e-05
7.79998e-05
7.3351e-05
5.3992e-05
4.83079e-05
4.76931e-05
4.81151e-05
5.14745e-05
7.05745e-05
7.7997e-05
7.8e-05
7.8e-05
7.8e-05
7.8e-05
7.8e-05
7.8e-05
7.79999e-05
6.71339e-05
4.80016e-05
4.54072e-05
4.46286e-05
4.42023e-05
4.39965e-05
4.39202e-05
4.39526e-05
4.41242e-05
4.45069e-05
4.53177e-05
4.76797e-05
6.74358e-05
7.79997e-05
7.8e-05
7.8e-05
7.8e-05
7.8e-05
7.8e-05
7.8e-05
7.8e-05
7.8e-05
7.8e-05
7.8e-05
7.8e-05
7.8e-05
7.8e-05
7.8e-05
7.8e-05
7.8e-05
7.8e-05
7.8e-05
7.8e-05
7.8e-05
7.8e-05
7.8e-05
7.8e-05
7.8e-05
7.8e-05
7.8e-05
7.8e-05
7.8e-05
7.8e-05
7.8e-05
7.8e-05
7.8e-05
7.02288e-05
4.7682e-05
4.50602e-05
4.43117e-05
4.3963e-05
4.37729e-05
4.3675e-05
4.36325e-05
4.36306e-05
4.36652e-05
4.37371e-05
4.38516e-05
4.40212e-05
4.42794e-05
4.47044e-05
4.55896e-05
4.84512e-05
7.22907e-05
7.8e-05
7.8e-05
7.8e-05
7.8e-05
7.8e-05
7.8e-05
7.8e-05
7.8e-05
7.8e-05
7.8e-05
7.8e-05
7.77766e-05
6.77334e-05
5.51552e-05
5.13557e-05
5.67455e-05
6.9424e-05
7.78597e-05
7.8e-05
7.8e-05
7.8e-05
7.8e-05
7.8e-05
7.75862e-05
6.72226e-05
5.38674e-05
4.94828e-05
5.16223e-05
6.32759e-05
7.63337e-05
7.8e-05
7.8e-05
7.8e-05
7.8e-05
7.8e-05
7.8e-05
7.8e-05
7.8e-05
7.8e-05
7.8e-05
7.8e-05
7.8e-05
7.79204e-05
7.25001e-05
6.70525e-05
7.1216e-05
7.7692e-05
7.8e-05
7.8e-05
7.8e-05
7.8e-05
7.8e-05
7.8e-05
7.8e-05
7.8e-05
7.8e-05
7.79999e-05
7.09135e-05
4.86147e-05
4.62964e-05
4.50045e-05
4.4628e-05
4.45357e-05
4.46592e-05
4.51941e-05
4.6684e-05
5.06194e-05
7.3787e-05
7.8e-05
7.8e-05
7.8e-05
7.8e-05
7.8e-05
7.8e-05
7.8e-05
7.8e-05
7.8e-05
7.8e-05
7.8e-05
7.8e-05
7.8e-05
7.8e-05
7.8e-05
7.8e-05
7.8e-05
7.8e-05
7.8e-05
7.8e-05
7.8e-05
7.8e-05
7.8e-05
7.8e-05
7.8e-05
7.8e-05
7.8e-05
7.8e-05
7.8e-05
7.8e-05
7.8e-05
7.8e-05
7.8e-05
7.8e-05
7.8e-05
7.15379e-05
4.7978e-05
4.5385e-05
4.44981e-05
4.40626e-05
4.38534e-05
4.37434e-05
4.37024e-05
4.3723e-05
4.38064e-05
4.39642e-05
4.42176e-05
4.46518e-05
4.54706e-05
4.81977e-05
7.01835e-05
7.8e-05
7.8e-05
7.8e-05
7.8e-05
7.8e-05
7.8e-05
7.8e-05
7.8e-05
7.8e-05
7.8e-05
7.8e-05
7.8e-05
7.8e-05
7.79999e-05
7.79451e-05
7.76062e-05
7.79743e-05
7.8e-05
7.8e-05
7.8e-05
7.8e-05
7.8e-05
7.8e-05
7.8e-05
7.8e-05
7.79999e-05
7.7908e-05
7.67692e-05
7.77092e-05
7.79991e-05
7.8e-05
7.8e-05
7.8e-05
7.8e-05
7.8e-05
7.8e-05
7.8e-05
7.8e-05
7.8e-05
7.8e-05
7.8e-05
7.8e-05
7.8e-05
7.8e-05
7.8e-05
7.79999e-05
7.8e-05
7.8e-05
7.8e-05
7.8e-05
7.8e-05
7.8e-05
7.8e-05
7.8e-05
7.8e-05
7.8e-05
7.8e-05
7.8e-05
7.8e-05
7.6224e-05
5.92511e-05
4.79623e-05
4.69369e-05
4.67697e-05
4.7199e-05
4.9996e-05
6.64966e-05
7.77694e-05
7.8e-05
7.8e-05
7.8e-05
7.8e-05
7.8e-05
7.8e-05
7.8e-05
7.8e-05
7.8e-05
7.8e-05
7.8e-05
7.8e-05
7.8e-05
7.8e-05
7.8e-05
7.8e-05
7.8e-05
7.8e-05
7.8e-05
7.8e-05
7.8e-05
7.8e-05
7.8e-05
7.8e-05
7.8e-05
7.8e-05
7.8e-05
7.8e-05
7.8e-05
7.8e-05
7.8e-05
7.8e-05
7.8e-05
7.8e-05
7.8e-05
7.8e-05
7.8e-05
7.52589e-05
5.05333e-05
4.63922e-05
4.4845e-05
4.43617e-05
4.40884e-05
4.39644e-05
4.39645e-05
4.40835e-05
4.43645e-05
4.48509e-05
4.59734e-05
4.85521e-05
7.20669e-05
7.8e-05
7.8e-05
7.8e-05
7.8e-05
7.8e-05
7.8e-05
7.8e-05
7.8e-05
7.8e-05
7.8e-05
7.8e-05
7.8e-05
7.8e-05
7.8e-05
7.8e-05
7.8e-05
7.8e-05
7.8e-05
7.8e-05
7.8e-05
7.8e-05
7.8e-05
7.8e-05
7.8e-05
7.8e-05
7.8e-05
7.8e-05
7.8e-05
7.8e-05
7.8e-05
7.8e-05
7.8e-05
7.8e-05
7.8e-05
7.8e-05
7.8e-05
7.8e-05
7.8e-05
7.8e-05
7.8e-05
7.8e-05
7.8e-05
7.8e-05
7.8e-05
7.8e-05
7.8e-05
7.8e-05
7.8e-05
7.8e-05
7.8e-05
7.8e-05
7.8e-05
7.8e-05
7.8e-05
7.8e-05
7.8e-05
7.8e-05
7.8e-05
7.8e-05
7.8e-05
7.8e-05
7.79962e-05
7.52657e-05
6.81861e-05
6.67517e-05
7.1868e-05
7.76546e-05
7.79999e-05
7.8e-05
7.8e-05
7.8e-05
7.8e-05
7.8e-05
7.8e-05
7.8e-05
7.8e-05
7.8e-05
7.8e-05
7.8e-05
7.8e-05
7.8e-05
7.8e-05
7.8e-05
7.8e-05
7.8e-05
7.8e-05
7.8e-05
7.8e-05
7.8e-05
7.8e-05
7.8e-05
7.8e-05
7.8e-05
7.8e-05
7.8e-05
7.8e-05
7.8e-05
7.8e-05
7.8e-05
7.8e-05
7.8e-05
7.8e-05
7.8e-05
7.8e-05
7.8e-05
7.8e-05
7.8e-05
7.77539e-05
6.23181e-05
4.77465e-05
4.61991e-05
4.51007e-05
4.46804e-05
4.4633e-05
4.48643e-05
4.57219e-05
4.72873e-05
5.43004e-05
7.6027e-05
7.8e-05
7.8e-05
7.8e-05
7.8e-05
7.8e-05
7.8e-05
7.8e-05
7.8e-05
7.8e-05
7.8e-05
7.8e-05
7.8e-05
7.8e-05
7.8e-05
7.8e-05
7.8e-05
7.8e-05
7.8e-05
7.8e-05
7.8e-05
7.8e-05
7.8e-05
7.8e-05
7.8e-05
7.8e-05
7.8e-05
7.8e-05
7.8e-05
7.8e-05
7.8e-05
7.8e-05
7.8e-05
7.8e-05
7.8e-05
7.8e-05
7.8e-05
7.8e-05
7.8e-05
7.8e-05
7.8e-05
7.8e-05
7.8e-05
7.8e-05
7.8e-05
7.8e-05
7.8e-05
7.8e-05
7.8e-05
7.8e-05
7.8e-05
7.8e-05
7.8e-05
7.8e-05
7.8e-05
7.8e-05
7.8e-05
7.8e-05
7.8e-05
7.8e-05
7.8e-05
7.8e-05
7.8e-05
7.8e-05
7.8e-05
7.8e-05
7.79999e-05
7.8e-05
7.8e-05
7.8e-05
7.8e-05
7.8e-05
7.8e-05
7.8e-05
7.8e-05
7.8e-05
7.8e-05
7.8e-05
7.8e-05
7.8e-05
7.8e-05
7.8e-05
7.8e-05
7.8e-05
7.8e-05
7.8e-05
7.8e-05
7.8e-05
7.8e-05
7.8e-05
7.8e-05
7.8e-05
7.8e-05
7.8e-05
7.8e-05
7.8e-05
7.8e-05
7.8e-05
7.8e-05
7.8e-05
7.8e-05
7.8e-05
7.8e-05
7.8e-05
7.8e-05
7.8e-05
7.8e-05
7.8e-05
7.8e-05
7.8e-05
7.79993e-05
7.46416e-05
6.13971e-05
4.95925e-05
4.73295e-05
4.71439e-05
4.77729e-05
5.41294e-05
6.96805e-05
7.79593e-05
7.8e-05
7.8e-05
7.8e-05
7.8e-05
7.8e-05
7.8e-05
7.8e-05
7.8e-05
7.8e-05
7.8e-05
7.8e-05
7.8e-05
7.8e-05
7.8e-05
7.8e-05
7.8e-05
7.8e-05
7.8e-05
7.8e-05
7.8e-05
7.8e-05
7.8e-05
7.8e-05
7.8e-05
7.8e-05
7.8e-05
7.8e-05
7.8e-05
7.8e-05
7.8e-05
7.8e-05
7.8e-05
7.8e-05
7.8e-05
7.8e-05
7.8e-05
7.8e-05
7.8e-05
7.8e-05
7.8e-05
7.8e-05
7.8e-05
7.8e-05
7.8e-05
7.8e-05
7.8e-05
7.8e-05
7.8e-05
7.8e-05
7.8e-05
7.8e-05
7.8e-05
7.8e-05
7.8e-05
7.8e-05
7.8e-05
7.8e-05
7.8e-05
7.8e-05
7.8e-05
7.8e-05
7.8e-05
7.8e-05
7.8e-05
7.8e-05
7.8e-05
7.8e-05
7.8e-05
7.8e-05
7.8e-05
7.8e-05
7.8e-05
7.8e-05
7.8e-05
7.8e-05
7.8e-05
7.8e-05
7.8e-05
7.8e-05
7.8e-05
7.8e-05
7.8e-05
7.8e-05
7.8e-05
7.8e-05
7.8e-05
7.8e-05
7.8e-05
7.8e-05
7.8e-05
7.8e-05
7.8e-05
7.8e-05
7.8e-05
7.8e-05
7.8e-05
7.8e-05
7.8e-05
7.8e-05
7.8e-05
7.8e-05
7.8e-05
7.8e-05
7.8e-05
7.8e-05
7.8e-05
7.8e-05
7.8e-05
7.8e-05
7.8e-05
7.8e-05
7.8e-05
7.79987e-05
7.75609e-05
7.40452e-05
7.25219e-05
7.55918e-05
7.79576e-05
7.8e-05
7.8e-05
7.8e-05
7.8e-05
7.8e-05
7.8e-05
7.8e-05
7.8e-05
7.8e-05
7.8e-05
7.8e-05
7.8e-05
7.8e-05
7.8e-05
7.8e-05
7.8e-05
7.8e-05
7.8e-05
7.8e-05
7.8e-05
7.8e-05
7.8e-05
7.8e-05
7.8e-05
7.8e-05
7.8e-05
7.8e-05
7.8e-05
7.8e-05
7.8e-05
7.8e-05
7.8e-05
7.8e-05
7.8e-05
7.8e-05
7.8e-05
7.8e-05
7.8e-05
7.8e-05
7.8e-05
7.8e-05
7.8e-05
7.8e-05
7.8e-05
7.8e-05
7.8e-05
7.8e-05
7.8e-05
7.8e-05
7.8e-05
7.8e-05
7.8e-05
7.8e-05
7.8e-05
7.8e-05
7.8e-05
7.8e-05
7.8e-05
7.8e-05
7.8e-05
7.8e-05
7.8e-05
7.8e-05
7.8e-05
7.8e-05
7.8e-05
7.8e-05
7.8e-05
7.8e-05
7.8e-05
7.8e-05
7.8e-05
7.8e-05
7.8e-05
7.8e-05
7.8e-05
7.8e-05
7.8e-05
7.8e-05
7.8e-05
7.8e-05
7.8e-05
7.8e-05
7.8e-05
7.8e-05
7.8e-05
7.8e-05
7.8e-05
7.8e-05
7.8e-05
7.8e-05
7.8e-05
7.8e-05
7.8e-05
7.8e-05
7.8e-05
7.8e-05
7.8e-05
7.8e-05
7.8e-05
7.8e-05
7.8e-05
7.8e-05
7.8e-05
7.8e-05
7.8e-05
7.8e-05
7.8e-05
7.8e-05
7.8e-05
7.8e-05
7.8e-05
7.8e-05
7.8e-05
7.8e-05
7.8e-05
7.8e-05
7.8e-05
7.8e-05
7.8e-05
7.8e-05
7.8e-05
7.8e-05
7.8e-05
7.8e-05
7.8e-05
7.8e-05
7.8e-05
7.8e-05
7.8e-05
7.8e-05
7.8e-05
7.8e-05
7.8e-05
7.8e-05
7.8e-05
7.8e-05
7.8e-05
7.8e-05
7.8e-05
7.8e-05
7.8e-05
7.8e-05
7.8e-05
7.8e-05
7.8e-05
7.8e-05
7.8e-05
7.8e-05
7.8e-05
7.8e-05
7.8e-05
7.8e-05
7.8e-05
7.8e-05
7.8e-05
7.8e-05
7.8e-05
7.8e-05
7.8e-05
7.8e-05
7.8e-05
7.8e-05
7.8e-05
7.8e-05
7.8e-05
7.8e-05
7.8e-05
7.8e-05
7.8e-05
7.8e-05
7.8e-05
7.8e-05
7.8e-05
7.8e-05
7.8e-05
7.8e-05
7.8e-05
7.8e-05
7.8e-05
7.8e-05
7.8e-05
7.8e-05
7.8e-05
7.8e-05
7.8e-05
7.8e-05
7.8e-05
7.8e-05
7.8e-05
7.8e-05
7.8e-05
7.8e-05
7.8e-05
7.8e-05
7.8e-05
7.8e-05
7.8e-05
7.8e-05
7.8e-05
7.8e-05
7.8e-05
7.8e-05
7.8e-05
7.8e-05
7.8e-05
7.8e-05
7.8e-05
7.8e-05
7.8e-05
7.8e-05
7.8e-05
7.8e-05
7.8e-05
7.8e-05
7.8e-05
7.8e-05
7.8e-05
7.8e-05
7.8e-05
7.8e-05
7.8e-05
7.8e-05
7.8e-05
7.8e-05
7.8e-05
7.8e-05
7.8e-05
7.8e-05
7.8e-05
7.8e-05
7.8e-05
7.8e-05
7.8e-05
7.8e-05
7.8e-05
7.8e-05
7.8e-05
7.8e-05
7.8e-05
7.8e-05
7.8e-05
7.8e-05
7.8e-05
7.8e-05
7.8e-05
7.8e-05
7.8e-05
7.8e-05
7.8e-05
7.8e-05
7.8e-05
7.8e-05
7.8e-05
7.8e-05
7.8e-05
7.8e-05
7.8e-05
7.8e-05
7.8e-05
7.8e-05
7.8e-05
7.8e-05
7.8e-05
7.8e-05
7.8e-05
7.8e-05
7.8e-05
7.8e-05
7.8e-05
7.8e-05
7.8e-05
7.8e-05
7.8e-05
7.8e-05
7.8e-05
7.8e-05
7.8e-05
7.8e-05
7.8e-05
7.8e-05
7.8e-05
7.8e-05
7.8e-05
7.8e-05
7.8e-05
7.8e-05
7.8e-05
7.8e-05
7.8e-05
7.8e-05
7.8e-05
7.8e-05
7.8e-05
7.8e-05
7.8e-05
7.8e-05
7.8e-05
7.8e-05
7.8e-05
7.8e-05
7.8e-05
7.8e-05
7.8e-05
7.8e-05
7.8e-05
7.8e-05
7.8e-05
7.8e-05
7.8e-05
7.8e-05
7.8e-05
7.8e-05
7.8e-05
7.8e-05
7.8e-05
7.8e-05
7.8e-05
7.8e-05
7.8e-05
7.8e-05
7.8e-05
7.8e-05
7.8e-05
7.8e-05
7.8e-05
7.8e-05
7.8e-05
7.8e-05
7.8e-05
7.8e-05
7.8e-05
7.8e-05
7.8e-05
7.8e-05
7.8e-05
7.8e-05
7.8e-05
7.8e-05
7.8e-05
7.8e-05
7.8e-05
7.8e-05
7.8e-05
7.8e-05
7.8e-05
7.8e-05
7.8e-05
7.8e-05
7.8e-05
7.8e-05
7.8e-05
7.8e-05
7.8e-05
7.8e-05
7.8e-05
7.8e-05
7.8e-05
7.8e-05
7.8e-05
7.8e-05
7.8e-05
7.8e-05
7.8e-05
7.8e-05
7.8e-05
7.8e-05
7.8e-05
7.8e-05
7.8e-05
7.8e-05
7.8e-05
7.8e-05
7.8e-05
7.8e-05
7.8e-05
7.8e-05
7.8e-05
7.8e-05
7.8e-05
7.8e-05
7.8e-05
7.8e-05
7.8e-05
7.8e-05
7.8e-05
7.8e-05
7.8e-05
7.8e-05
7.8e-05
7.8e-05
7.8e-05
7.8e-05
7.8e-05
7.8e-05
7.8e-05
7.8e-05
7.8e-05
7.8e-05
7.8e-05
7.8e-05
7.8e-05
7.8e-05
7.8e-05
7.8e-05
7.8e-05
7.8e-05
7.8e-05
7.8e-05
7.8e-05
7.8e-05
7.8e-05
7.8e-05
7.8e-05
7.8e-05
7.8e-05
7.8e-05
7.8e-05
7.8e-05
7.8e-05
7.8e-05
7.8e-05
7.8e-05
7.8e-05
7.8e-05
7.8e-05
7.8e-05
7.8e-05
7.8e-05
7.8e-05
7.8e-05
7.8e-05
7.8e-05
7.8e-05
7.8e-05
7.8e-05
7.8e-05
7.8e-05
7.8e-05
7.8e-05
7.8e-05
7.8e-05
7.8e-05
7.8e-05
7.8e-05
7.8e-05
7.8e-05
7.8e-05
7.8e-05
7.8e-05
7.8e-05
7.8e-05
7.8e-05
7.8e-05
7.8e-05
7.8e-05
7.8e-05
7.8e-05
7.8e-05
7.8e-05
7.8e-05
7.8e-05
7.8e-05
7.8e-05
7.8e-05
7.8e-05
7.8e-05
7.8e-05
7.8e-05
7.8e-05
7.8e-05
7.8e-05
7.8e-05
7.8e-05
7.8e-05
7.8e-05
7.8e-05
7.8e-05
7.8e-05
7.8e-05
7.8e-05
7.8e-05
7.8e-05
7.8e-05
7.8e-05
7.8e-05
7.8e-05
7.8e-05
7.8e-05
7.8e-05
7.8e-05
7.8e-05
7.8e-05
7.8e-05
7.8e-05
7.8e-05
7.8e-05
7.8e-05
7.8e-05
7.8e-05
7.8e-05
7.8e-05
7.8e-05
7.8e-05
7.8e-05
7.8e-05
7.8e-05
7.8e-05
7.8e-05
7.8e-05
7.8e-05
7.8e-05
7.8e-05
7.8e-05
7.8e-05
7.8e-05
7.8e-05
7.8e-05
7.8e-05
7.8e-05
7.8e-05
7.8e-05
7.8e-05
7.8e-05
7.8e-05
7.8e-05
7.8e-05
7.8e-05
7.8e-05
7.8e-05
7.8e-05
7.8e-05
7.8e-05
7.8e-05
7.8e-05
7.8e-05
7.8e-05
7.8e-05
7.8e-05
7.8e-05
7.8e-05
7.8e-05
7.8e-05
7.8e-05
7.8e-05
7.8e-05
7.8e-05
7.8e-05
7.8e-05
7.8e-05
7.8e-05
7.8e-05
7.8e-05
7.8e-05
7.8e-05
7.8e-05
7.8e-05
7.8e-05
7.8e-05
7.8e-05
7.8e-05
7.8e-05
7.8e-05
7.8e-05
7.8e-05
7.8e-05
7.8e-05
7.8e-05
7.8e-05
7.8e-05
7.8e-05
7.8e-05
7.8e-05
7.8e-05
7.8e-05
7.8e-05
7.8e-05
7.8e-05
7.8e-05
7.8e-05
7.8e-05
7.8e-05
7.8e-05
7.8e-05
7.8e-05
7.8e-05
7.8e-05
7.8e-05
7.8e-05
7.8e-05
7.8e-05
7.8e-05
7.8e-05
7.8e-05
7.8e-05
7.8e-05
7.8e-05
7.8e-05
7.8e-05
7.8e-05
7.8e-05
7.8e-05
7.8e-05
7.8e-05
7.8e-05
7.8e-05
7.8e-05
7.8e-05
7.8e-05
7.8e-05
7.8e-05
7.8e-05
7.8e-05
7.8e-05
7.8e-05
7.8e-05
7.8e-05
7.8e-05
7.8e-05
7.8e-05
7.8e-05
7.8e-05
7.8e-05
7.8e-05
7.8e-05
7.8e-05
7.8e-05
7.8e-05
7.8e-05
7.8e-05
7.8e-05
7.8e-05
7.8e-05
7.8e-05
7.8e-05
7.8e-05
7.8e-05
7.8e-05
7.8e-05
7.8e-05
7.8e-05
7.8e-05
7.8e-05
7.8e-05
7.8e-05
7.8e-05
7.8e-05
7.8e-05
7.8e-05
7.8e-05
7.8e-05
7.8e-05
7.8e-05
7.8e-05
7.8e-05
7.8e-05
7.8e-05
7.8e-05
7.8e-05
7.8e-05
7.8e-05
7.8e-05
7.8e-05
7.8e-05
7.8e-05
7.8e-05
7.8e-05
7.8e-05
7.8e-05
7.8e-05
7.8e-05
7.8e-05
7.8e-05
7.8e-05
7.8e-05
7.8e-05
7.8e-05
7.8e-05
7.8e-05
7.8e-05
7.8e-05
7.8e-05
7.8e-05
7.8e-05
7.8e-05
7.8e-05
7.8e-05
7.8e-05
7.8e-05
7.8e-05
7.8e-05
7.8e-05
7.8e-05
7.8e-05
7.8e-05
7.8e-05
7.8e-05
7.8e-05
7.8e-05
7.8e-05
7.8e-05
7.8e-05
7.8e-05
7.8e-05
7.8e-05
7.8e-05
7.8e-05
7.8e-05
7.8e-05
7.8e-05
7.8e-05
7.8e-05
7.8e-05
7.8e-05
7.8e-05
7.8e-05
7.8e-05
7.8e-05
7.8e-05
7.8e-05
7.8e-05
7.8e-05
7.8e-05
7.8e-05
7.8e-05
7.8e-05
7.8e-05
7.8e-05
7.8e-05
7.8e-05
7.8e-05
7.8e-05
7.8e-05
7.8e-05
7.8e-05
7.8e-05
7.8e-05
7.8e-05
7.8e-05
7.8e-05
7.8e-05
7.8e-05
7.8e-05
7.8e-05
7.8e-05
7.8e-05
7.8e-05
7.8e-05
7.8e-05
7.8e-05
7.8e-05
7.8e-05
7.8e-05
7.8e-05
7.8e-05
7.8e-05
7.8e-05
7.8e-05
7.8e-05
7.8e-05
7.8e-05
7.8e-05
7.8e-05
7.8e-05
7.8e-05
7.8e-05
7.8e-05
7.8e-05
7.8e-05
7.8e-05
7.8e-05
7.8e-05
7.8e-05
7.8e-05
7.8e-05
7.8e-05
7.8e-05
7.8e-05
7.8e-05
7.8e-05
7.8e-05
7.8e-05
7.8e-05
7.8e-05
7.8e-05
7.8e-05
7.8e-05
7.8e-05
7.8e-05
7.8e-05
7.8e-05
7.8e-05
7.8e-05
7.8e-05
7.8e-05
7.8e-05
7.8e-05
7.8e-05
7.8e-05
7.8e-05
7.8e-05
7.8e-05
7.8e-05
7.8e-05
7.8e-05
7.8e-05
7.8e-05
7.8e-05
7.8e-05
7.8e-05
7.8e-05
7.8e-05
7.8e-05
7.8e-05
7.8e-05
7.8e-05
7.8e-05
7.8e-05
7.8e-05
7.8e-05
7.8e-05
7.8e-05
7.8e-05
7.8e-05
7.8e-05
7.8e-05
7.8e-05
7.8e-05
7.8e-05
7.8e-05
7.8e-05
7.8e-05
7.8e-05
7.8e-05
7.8e-05
7.8e-05
7.8e-05
7.8e-05
7.8e-05
7.8e-05
7.8e-05
7.8e-05
7.8e-05
7.8e-05
7.8e-05
7.8e-05
7.8e-05
7.8e-05
7.8e-05
7.8e-05
7.8e-05
7.8e-05
7.8e-05
7.8e-05
7.8e-05
7.8e-05
7.8e-05
7.8e-05
7.8e-05
7.8e-05
7.8e-05
7.8e-05
7.8e-05
7.8e-05
7.8e-05
7.8e-05
7.8e-05
7.8e-05
7.8e-05
7.8e-05
7.8e-05
7.8e-05
7.8e-05
7.8e-05
7.8e-05
7.8e-05
7.8e-05
7.8e-05
7.8e-05
7.8e-05
7.8e-05
7.8e-05
7.8e-05
7.8e-05
7.8e-05
7.8e-05
7.8e-05
7.8e-05
7.8e-05
7.8e-05
7.8e-05
7.8e-05
7.8e-05
7.8e-05
7.8e-05
7.8e-05
7.8e-05
7.8e-05
7.8e-05
7.8e-05
7.8e-05
7.8e-05
7.8e-05
7.8e-05
7.8e-05
7.8e-05
7.8e-05
7.8e-05
7.8e-05
7.8e-05
7.8e-05
7.8e-05
7.8e-05
7.8e-05
7.8e-05
7.8e-05
7.8e-05
7.8e-05
7.8e-05
7.8e-05
7.8e-05
7.8e-05
7.8e-05
7.8e-05
7.8e-05
7.8e-05
7.8e-05
7.8e-05
7.8e-05
7.8e-05
7.8e-05
7.8e-05
7.8e-05
7.8e-05
7.8e-05
7.8e-05
7.8e-05
7.8e-05
7.8e-05
7.8e-05
7.8e-05
7.8e-05
7.8e-05
7.8e-05
7.8e-05
7.8e-05
7.8e-05
7.8e-05
7.8e-05
7.8e-05
7.8e-05
7.8e-05
7.8e-05
7.8e-05
7.8e-05
7.8e-05
7.8e-05
7.8e-05
7.8e-05
7.8e-05
7.8e-05
7.8e-05
7.8e-05
7.8e-05
7.8e-05
7.8e-05
7.8e-05
7.8e-05
7.8e-05
7.8e-05
7.8e-05
7.8e-05
7.8e-05
7.8e-05
7.8e-05
7.8e-05
7.8e-05
7.8e-05
7.8e-05
7.8e-05
7.8e-05
7.8e-05
7.8e-05
7.8e-05
7.8e-05
7.8e-05
7.8e-05
7.8e-05
7.8e-05
7.8e-05
7.8e-05
7.8e-05
7.8e-05
7.8e-05
7.8e-05
7.8e-05
7.8e-05
7.8e-05
7.8e-05
7.8e-05
7.8e-05
7.8e-05
7.8e-05
7.8e-05
7.8e-05
7.8e-05
7.8e-05
7.8e-05
7.8e-05
7.8e-05
7.8e-05
7.8e-05
7.8e-05
7.8e-05
7.8e-05
7.8e-05
7.8e-05
7.8e-05
7.8e-05
7.8e-05
7.8e-05
7.8e-05
7.8e-05
7.8e-05
7.8e-05
7.8e-05
7.8e-05
7.8e-05
7.8e-05
7.8e-05
7.8e-05
7.8e-05
7.8e-05
7.8e-05
7.8e-05
7.8e-05
7.8e-05
7.8e-05
7.8e-05
7.8e-05
7.8e-05
7.8e-05
7.8e-05
7.8e-05
7.8e-05
7.8e-05
7.8e-05
7.8e-05
7.8e-05
7.8e-05
7.8e-05
7.8e-05
7.8e-05
7.8e-05
7.8e-05
7.8e-05
7.8e-05
7.8e-05
7.8e-05
7.8e-05
7.8e-05
7.8e-05
7.8e-05
7.8e-05
7.8e-05
7.8e-05
7.8e-05
7.8e-05
7.8e-05
7.8e-05
7.8e-05
7.8e-05
7.8e-05
7.8e-05
7.8e-05
7.8e-05
7.8e-05
7.8e-05
7.8e-05
7.8e-05
7.8e-05
7.8e-05
7.8e-05
7.8e-05
7.8e-05
7.8e-05
7.8e-05
7.8e-05
7.8e-05
7.8e-05
7.8e-05
7.8e-05
7.8e-05
7.8e-05
7.8e-05
7.8e-05
7.8e-05
7.8e-05
7.8e-05
7.8e-05
7.8e-05
7.8e-05
7.8e-05
7.8e-05
7.8e-05
7.8e-05
7.8e-05
7.8e-05
7.8e-05
7.8e-05
7.8e-05
7.8e-05
7.8e-05
7.8e-05
7.8e-05
7.8e-05
7.8e-05
7.8e-05
7.8e-05
7.8e-05
7.8e-05
7.8e-05
7.8e-05
7.8e-05
7.8e-05
7.8e-05
7.8e-05
7.8e-05
7.8e-05
7.8e-05
7.8e-05
7.8e-05
7.8e-05
7.8e-05
7.8e-05
7.8e-05
7.8e-05
7.8e-05
7.8e-05
7.8e-05
7.8e-05
7.8e-05
7.8e-05
7.8e-05
7.8e-05
7.8e-05
7.8e-05
7.8e-05
7.8e-05
7.8e-05
7.8e-05
7.8e-05
7.8e-05
7.8e-05
7.8e-05
7.8e-05
7.8e-05
7.8e-05
7.8e-05
7.8e-05
7.8e-05
7.8e-05
7.8e-05
7.8e-05
7.8e-05
7.8e-05
7.8e-05
7.8e-05
7.8e-05
7.8e-05
7.8e-05
7.8e-05
7.8e-05
7.8e-05
7.8e-05
7.8e-05
7.8e-05
7.8e-05
7.8e-05
7.8e-05
7.8e-05
7.8e-05
7.8e-05
7.8e-05
7.8e-05
7.8e-05
7.8e-05
7.8e-05
7.8e-05
7.8e-05
7.8e-05
7.8e-05
7.8e-05
7.8e-05
7.8e-05
7.8e-05
7.8e-05
7.8e-05
7.8e-05
7.8e-05
7.8e-05
7.8e-05
7.8e-05
7.8e-05
7.8e-05
7.8e-05
7.8e-05
7.8e-05
7.8e-05
7.8e-05
7.8e-05
7.8e-05
7.8e-05
7.8e-05
7.8e-05
7.8e-05
7.8e-05
7.8e-05
7.8e-05
7.8e-05
7.8e-05
7.8e-05
7.8e-05
7.8e-05
7.8e-05
7.8e-05
7.8e-05
7.8e-05
7.8e-05
7.8e-05
7.8e-05
7.8e-05
7.8e-05
7.8e-05
7.8e-05
7.8e-05
7.8e-05
7.8e-05
7.8e-05
7.8e-05
7.8e-05
7.8e-05
7.8e-05
7.8e-05
7.8e-05
7.8e-05
7.8e-05
7.8e-05
7.8e-05
7.8e-05
7.8e-05
7.8e-05
7.8e-05
7.8e-05
7.8e-05
7.8e-05
7.8e-05
7.8e-05
7.8e-05
7.8e-05
7.8e-05
7.8e-05
7.8e-05
7.8e-05
7.8e-05
7.8e-05
7.8e-05
7.8e-05
7.8e-05
7.8e-05
7.8e-05
7.8e-05
7.8e-05
7.8e-05
7.8e-05
7.8e-05
7.8e-05
7.8e-05
7.8e-05
7.8e-05
7.8e-05
7.8e-05
7.8e-05
7.8e-05
7.8e-05
7.8e-05
7.8e-05
7.8e-05
7.8e-05
7.8e-05
7.8e-05
7.8e-05
7.8e-05
7.8e-05
7.8e-05
7.8e-05
7.8e-05
7.8e-05
7.8e-05
7.8e-05
7.8e-05
7.8e-05
7.8e-05
7.8e-05
7.8e-05
7.8e-05
7.8e-05
7.8e-05
7.8e-05
7.8e-05
7.8e-05
7.8e-05
7.8e-05
7.8e-05
7.8e-05
7.8e-05
7.8e-05
7.8e-05
7.8e-05
7.8e-05
7.8e-05
7.8e-05
7.8e-05
7.8e-05
7.8e-05
7.8e-05
7.8e-05
7.8e-05
7.8e-05
7.8e-05
7.8e-05
7.8e-05
7.8e-05
7.8e-05
7.8e-05
7.8e-05
7.8e-05
7.8e-05
7.8e-05
7.8e-05
7.8e-05
7.8e-05
7.8e-05
7.8e-05
7.8e-05
7.8e-05
7.8e-05
7.8e-05
7.8e-05
7.8e-05
7.8e-05
7.8e-05
7.8e-05
7.8e-05
7.8e-05
7.8e-05
7.8e-05
7.8e-05
7.8e-05
7.8e-05
7.8e-05
7.8e-05
7.8e-05
7.8e-05
7.8e-05
7.8e-05
7.8e-05
7.8e-05
7.8e-05
7.8e-05
7.8e-05
7.8e-05
7.8e-05
7.8e-05
7.8e-05
7.8e-05
7.8e-05
7.8e-05
7.8e-05
7.8e-05
7.8e-05
7.8e-05
7.8e-05
7.8e-05
7.8e-05
7.8e-05
7.8e-05
7.8e-05
7.8e-05
7.8e-05
7.8e-05
7.8e-05
7.8e-05
7.8e-05
7.8e-05
7.8e-05
7.8e-05
7.8e-05
7.8e-05
7.8e-05
7.8e-05
7.8e-05
7.8e-05
7.8e-05
7.8e-05
7.8e-05
7.8e-05
7.8e-05
7.8e-05
7.8e-05
7.8e-05
7.8e-05
7.8e-05
7.8e-05
7.8e-05
7.8e-05