/*--------------------------------*- C++ -*----------------------------------*\
| =========                 |                                                 |
| \\      /  F ield         | OpenFOAM: The Open Source CFD Toolbox           |
|  \\    /   O peration     | Version:  2406                                  |
|   \\  /    A nd           | Website:  www.openfoam.com                      |
|    \\/     M anipulation  |                                                 |
\*---------------------------------------------------------------------------*/
FoamFile
{
    version     2.0;
    format      ascii;
    arch        "LSB;label=32;scalar=64";
    class       volScalarField;
    location    "9.8";
    object      C_0_0;
}
// * * * * * * * * * * * * * * * * * * * * * * * * * * * * * * * * * * * * * //

dimensions      [1 -3 0 0 0 0 0];

internalField   nonuniform List<scalar> 
14400
(
0.212124
0.211404
0.210126
0.208545
0.206929
0.205514
0.204478
0.203929
0.20391
0.204389
0.205264
0.206356
0.207411
0.208112
0.208115
0.207133
0.205065
0.202097
0.198581
0.194909
0.191437
0.188467
0.186249
0.184997
0.184911
0.186196
0.189077
0.193813
0.200698
0.210048
0.222187
0.237438
0.25612
0.278545
0.30501
0.335748
0.370816
0.409711
0.449801
0.479389
0.49903
0.515668
0.529728
0.541399
0.550826
0.558119
0.563361
0.566611
0.567906
0.567267
0.564698
0.560183
0.55369
0.545168
0.534544
0.52172
0.506568
0.488918
0.468121
0.437028
0.395837
0.3568
0.321873
0.291376
0.265202
0.243098
0.224753
0.209837
0.197995
0.188854
0.182035
0.177195
0.17405
0.172388
0.172059
0.172963
0.175043
0.17827
0.182643
0.188177
0.194895
0.202811
0.211901
0.222053
0.232987
0.244088
0.253909
0.259466
0.258607
0.253457
0.246477
0.239151
0.232133
0.225772
0.220258
0.215672
0.212017
0.209244
0.207256
0.205931
0.205124
0.204692
0.204512
0.204503
0.204647
0.204998
0.205674
0.206836
0.208665
0.211349
0.215064
0.219963
0.226165
0.23374
0.242681
0.252879
0.264068
0.275716
0.286715
0.293792
0.216787
0.21589
0.214331
0.212442
0.210546
0.208913
0.207735
0.207129
0.207139
0.207735
0.20881
0.210178
0.211565
0.21261
0.212884
0.211973
0.209677
0.206303
0.202333
0.198237
0.194407
0.191157
0.188738
0.18736
0.187219
0.188518
0.191478
0.196355
0.203435
0.213028
0.225452
0.241025
0.260067
0.282895
0.309813
0.341065
0.376721
0.416159
0.454972
0.482695
0.501857
0.518246
0.532117
0.543643
0.55296
0.560171
0.565354
0.568565
0.56984
0.569198
0.566643
0.56216
0.555719
0.54727
0.536744
0.524049
0.509064
0.49163
0.471428
0.44194
0.40162
0.362142
0.326653
0.295637
0.268994
0.246463
0.227728
0.212455
0.200291
0.190871
0.183825
0.178811
0.175545
0.173811
0.173455
0.174376
0.176517
0.179851
0.184382
0.190131
0.197129
0.2054
0.214929
0.225614
0.237193
0.249051
0.259416
0.264869
0.264595
0.259218
0.251739
0.243941
0.236511
0.229807
0.22402
0.219232
0.215448
0.212612
0.210623
0.209343
0.208613
0.208264
0.208147
0.208161
0.208281
0.208572
0.209173
0.210272
0.212074
0.214783
0.218585
0.223643
0.230079
0.237962
0.247292
0.257965
0.269714
0.281975
0.293402
0.300052
0.226619
0.225306
0.223115
0.220559
0.218075
0.215988
0.214517
0.213792
0.213858
0.214687
0.216168
0.218103
0.220189
0.221987
0.2229
0.222203
0.219346
0.215045
0.210092
0.205108
0.200544
0.196725
0.193899
0.192266
0.192016
0.19334
0.196455
0.201605
0.209065
0.21913
0.232106
0.24831
0.268061
0.29168
0.319471
0.351676
0.388338
0.428598
0.464458
0.488933
0.507431
0.523344
0.53685
0.548096
0.557199
0.564251
0.569319
0.572454
0.57369
0.573043
0.570516
0.566096
0.559755
0.551448
0.541114
0.528669
0.51401
0.497003
0.47749
0.451086
0.41323
0.372785
0.336219
0.304211
0.276659
0.253292
0.233789
0.217813
0.205016
0.195044
0.18754
0.182172
0.178657
0.176772
0.176359
0.177313
0.179577
0.18313
0.187984
0.194171
0.201737
0.21072
0.221118
0.232841
0.245633
0.258831
0.269928
0.275128
0.275657
0.270563
0.26235
0.253692
0.245474
0.238104
0.231788
0.226614
0.222583
0.219637
0.21766
0.216491
0.215935
0.215775
0.215804
0.215872
0.215935
0.216085
0.216514
0.217466
0.219193
0.221933
0.225896
0.231254
0.238134
0.24661
0.256685
0.26826
0.28107
0.294481
0.306276
0.311541
0.242631
0.240492
0.237166
0.233491
0.230056
0.227253
0.225327
0.224413
0.224559
0.225736
0.227832
0.230644
0.233843
0.236917
0.239058
0.238978
0.234891
0.2289
0.222311
0.215921
0.210223
0.205538
0.202093
0.200075
0.199652
0.201005
0.204336
0.209872
0.217871
0.228611
0.242387
0.25951
0.280299
0.305073
0.334119
0.367619
0.405373
0.445586
0.476788
0.497934
0.515592
0.530847
0.543842
0.554692
0.563491
0.570313
0.575217
0.578244
0.579423
0.578768
0.576282
0.571953
0.565757
0.557654
0.547593
0.535504
0.521302
0.504882
0.48612
0.463204
0.429403
0.388394
0.350579
0.317219
0.28836
0.263774
0.243149
0.226147
0.212424
0.201638
0.193452
0.187546
0.183644
0.181522
0.181015
0.182016
0.18447
0.188361
0.193713
0.200574
0.209003
0.219055
0.230736
0.243954
0.258404
0.273193
0.284572
0.289496
0.290742
0.28739
0.278539
0.268712
0.259383
0.251067
0.243999
0.238279
0.233913
0.230838
0.228923
0.227975
0.227744
0.227933
0.228236
0.228405
0.228355
0.228235
0.228338
0.229005
0.230564
0.233303
0.23746
0.243223
0.250722
0.260033
0.271155
0.283971
0.298146
0.312726
0.323594
0.327274
0.266291
0.262513
0.257299
0.251932
0.247136
0.243335
0.240781
0.239605
0.239852
0.241488
0.244405
0.248401
0.253151
0.258119
0.262354
0.263857
0.257188
0.248455
0.23949
0.23116
0.223931
0.218084
0.213812
0.211268
0.2106
0.211967
0.215551
0.221559
0.230228
0.24182
0.256619
0.274929
0.297064
0.323333
0.353999
0.389144
0.428114
0.465367
0.490671
0.50953
0.526154
0.54061
0.55298
0.56334
0.571759
0.578295
0.58299
0.585881
0.586989
0.586325
0.583892
0.579678
0.573664
0.565819
0.556099
0.544452
0.530812
0.515103
0.497243
0.477052
0.448827
0.409023
0.369933
0.334892
0.304353
0.278186
0.256104
0.237776
0.222863
0.21103
0.201954
0.195337
0.190912
0.188462
0.187822
0.188887
0.191601
0.19596
0.201994
0.209767
0.219351
0.23081
0.244157
0.259285
0.275776
0.292111
0.302481
0.307267
0.309127
0.307992
0.300257
0.289289
0.278655
0.269178
0.261176
0.254785
0.25003
0.246849
0.245099
0.244551
0.244883
0.245685
0.246481
0.246835
0.246559
0.245941
0.24546
0.245614
0.246839
0.249486
0.253826
0.260056
0.268309
0.27865
0.291063
0.305382
0.321058
0.336047
0.343752
0.346429
0.299022
0.292161
0.284107
0.276439
0.269874
0.264803
0.261457
0.25995
0.260315
0.262513
0.266434
0.27188
0.278537
0.285846
0.292472
0.293096
0.285889
0.273857
0.261957
0.251254
0.242155
0.234882
0.22958
0.226369
0.225371
0.226718
0.23057
0.237113
0.246563
0.259167
0.275195
0.29494
0.318705
0.346773
0.379336
0.416228
0.455609
0.485582
0.505846
0.523355
0.538883
0.55246
0.564126
0.573929
0.581912
0.588115
0.59257
0.595301
0.596326
0.595652
0.593281
0.589203
0.583404
0.575858
0.566534
0.555392
0.542389
0.527477
0.51061
0.491762
0.469109
0.435015
0.394557
0.357517
0.324955
0.296868
0.273017
0.253086
0.236741
0.223655
0.213516
0.206041
0.20098
0.198126
0.197325
0.198474
0.201524
0.206477
0.213374
0.222282
0.233285
0.24645
0.261785
0.279153
0.297929
0.3145
0.323033
0.327925
0.330377
0.330514
0.326508
0.315559
0.30369
0.292922
0.28384
0.276681
0.271508
0.268281
0.266856
0.266972
0.268226
0.270064
0.271741
0.272456
0.271716
0.270197
0.268716
0.268012
0.268654
0.271059
0.275525
0.282252
0.291358
0.302877
0.316749
0.332706
0.349654
0.361547
0.366102
0.368255
0.33471
0.328393
0.317493
0.307232
0.298631
0.292081
0.287809
0.285915
0.286421
0.289273
0.294341
0.301393
0.310055
0.319362
0.324557
0.322961
0.317886
0.304548
0.289793
0.27652
0.265319
0.256403
0.249893
0.245881
0.244463
0.245749
0.249875
0.257007
0.267342
0.281109
0.298563
0.319979
0.34563
0.375737
0.410338
0.448615
0.482761
0.505152
0.523013
0.539161
0.553565
0.566219
0.577137
0.586338
0.593845
0.599684
0.603872
0.606428
0.607361
0.606677
0.604375
0.60045
0.594889
0.587675
0.578786
0.568195
0.555876
0.541804
0.525958
0.508336
0.488934
0.462543
0.424016
0.385302
0.350515
0.320213
0.294301
0.272506
0.254508
0.239984
0.228633
0.220184
0.214401
0.211094
0.210119
0.211384
0.214847
0.220514
0.228432
0.238673
0.251321
0.266437
0.283994
0.303699
0.324236
0.338704
0.346046
0.351023
0.353943
0.354924
0.354071
0.347335
0.334791
0.322718
0.312447
0.304443
0.298836
0.295647
0.294753
0.295876
0.298536
0.302053
0.305278
0.306777
0.305021
0.301934
0.298842
0.29681
0.296548
0.298522
0.303032
0.310264
0.320298
0.333069
0.34839
0.365567
0.38051
0.387246
0.390541
0.392232
0.36807
0.365701
0.356354
0.344176
0.333588
0.325461
0.320184
0.317869
0.318545
0.322125
0.328429
0.337052
0.347243
0.355586
0.356385
0.354213
0.350573
0.339931
0.323029
0.307236
0.293811
0.283091
0.275218
0.270281
0.26836
0.269546
0.273956
0.281736
0.293063
0.308146
0.327219
0.350529
0.378283
0.410524
0.446728
0.483277
0.507885
0.525596
0.541894
0.556712
0.569995
0.581716
0.591864
0.600439
0.607448
0.612901
0.616808
0.619177
0.620013
0.619319
0.617094
0.613333
0.608028
0.601167
0.592738
0.582726
0.571117
0.557903
0.543082
0.526664
0.508676
0.48838
0.458238
0.418554
0.381418
0.348643
0.320404
0.296502
0.276639
0.260504
0.247803
0.238278
0.231708
0.227915
0.226769
0.228188
0.232138
0.238631
0.247715
0.259462
0.27395
0.291219
0.31118
0.333225
0.353541
0.364399
0.371189
0.376179
0.379447
0.381115
0.381352
0.379557
0.371427
0.358733
0.347298
0.338437
0.332385
0.32932
0.329177
0.331692
0.336287
0.34231
0.347914
0.351108
0.34724
0.341777
0.336321
0.33243
0.330922
0.332271
0.336738
0.344472
0.35549
0.369455
0.38578
0.402043
0.410385
0.41403
0.416585
0.4179
0.400875
0.400507
0.396897
0.386569
0.374739
0.365093
0.358818
0.356069
0.356955
0.36131
0.368854
0.378566
0.388139
0.390679
0.389127
0.386809
0.383546
0.377449
0.361569
0.343683
0.328031
0.315389
0.306022
0.300051
0.297554
0.298612
0.303327
0.311824
0.32426
0.340818
0.361696
0.3871
0.417126
0.451432
0.487952
0.513919
0.531392
0.547422
0.562253
0.575797
0.587989
0.598786
0.608163
0.616106
0.622607
0.627666
0.631283
0.633459
0.634195
0.633493
0.631349
0.62776
0.622722
0.616229
0.608274
0.598853
0.587964
0.57561
0.561802
0.546563
0.529928
0.511943
0.490044
0.456689
0.417863
0.382549
0.351793
0.325574
0.303649
0.285729
0.271539
0.260835
0.253411
0.249104
0.247793
0.249408
0.253921
0.261348
0.271736
0.285148
0.301639
0.321192
0.34353
0.367195
0.383377
0.391685
0.39813
0.403056
0.406551
0.408735
0.409778
0.409906
0.407745
0.400096
0.388292
0.378823
0.372321
0.36946
0.370234
0.374479
0.381196
0.390049
0.396054
0.397769
0.395829
0.389117
0.381028
0.37493
0.371948
0.372545
0.376889
0.385076
0.397112
0.411757
0.427012
0.435604
0.439103
0.441899
0.443868
0.444884
0.434048
0.433898
0.433673
0.430011
0.421282
0.41073
0.403714
0.400517
0.401675
0.406707
0.415081
0.42308
0.425896
0.424432
0.422637
0.420349
0.41744
0.413842
0.404527
0.386029
0.368378
0.353755
0.342786
0.335688
0.332558
0.333474
0.338528
0.347824
0.361492
0.379679
0.402501
0.430101
0.462323
0.497375
0.523318
0.540549
0.555961
0.570446
0.5839
0.596233
0.607376
0.617277
0.625898
0.633214
0.639209
0.643872
0.647197
0.64918
0.649817
0.649107
0.647048
0.643636
0.638871
0.632751
0.625276
0.616448
0.606275
0.59477
0.581954
0.567858
0.552529
0.536028
0.518436
0.49499
0.459349
0.422181
0.388924
0.360251
0.33609
0.316214
0.300385
0.288388
0.280035
0.275176
0.273704
0.275555
0.280709
0.28918
0.30101
0.316241
0.334866
0.35673
0.381045
0.402484
0.413229
0.420559
0.426589
0.431366
0.434966
0.437498
0.439118
0.440026
0.440488
0.439103
0.43374
0.425045
0.418296
0.415791
0.417396
0.42332
0.430608
0.435144
0.437051
0.43713
0.437604
0.435683
0.43095
0.423476
0.41933
0.419253
0.423384
0.431677
0.444339
0.455755
0.462943
0.465875
0.468467
0.470595
0.472103
0.472884
0.467372
0.467357
0.467396
0.46763
0.465413
0.460327
0.45386
0.450202
0.451696
0.456536
0.460517
0.46193
0.46018
0.458476
0.456639
0.45451
0.451993
0.449045
0.44523
0.433814
0.415118
0.398581
0.385964
0.377691
0.373894
0.374669
0.380115
0.390298
0.405307
0.425252
0.449984
0.479492
0.512394
0.536786
0.553192
0.567642
0.581456
0.594501
0.606667
0.61786
0.628006
0.637047
0.644937
0.651643
0.657142
0.661417
0.664454
0.666246
0.666786
0.666071
0.664098
0.660866
0.656375
0.650628
0.64363
0.635389
0.625919
0.615241
0.603384
0.590388
0.576303
0.561198
0.545157
0.528225
0.503914
0.467547
0.432211
0.401077
0.374555
0.352557
0.33493
0.32151
0.312138
0.306681
0.305043
0.307168
0.313038
0.322665
0.336075
0.353267
0.374091
0.397977
0.422425
0.436439
0.444118
0.450731
0.456301
0.460853
0.464447
0.467175
0.469168
0.470594
0.471669
0.472654
0.472953
0.470744
0.467961
0.466529
0.467854
0.470285
0.472221
0.472078
0.471631
0.471801
0.472579
0.474032
0.474504
0.473028
0.47114
0.470947
0.47472
0.481383
0.487813
0.492222
0.494242
0.496341
0.498292
0.499912
0.501066
0.501665
0.500711
0.500762
0.500914
0.501261
0.501953
0.501922
0.500174
0.498684
0.498595
0.499097
0.498223
0.496124
0.494336
0.492655
0.490931
0.489059
0.486978
0.484677
0.482197
0.478184
0.467106
0.449845
0.435828
0.426478
0.422032
0.422679
0.42859
0.439737
0.456109
0.477862
0.503806
0.533257
0.554698
0.569347
0.582523
0.595369
0.607719
0.619436
0.630406
0.640534
0.649742
0.657967
0.665159
0.67128
0.676301
0.680198
0.682957
0.684564
0.685011
0.684293
0.682408
0.679355
0.675136
0.669757
0.663227
0.655558
0.646772
0.636892
0.625955
0.614004
0.601097
0.587303
0.572707
0.557403
0.541279
0.517172
0.481709
0.448488
0.419632
0.395381
0.375791
0.36081
0.35032
0.344205
0.342387
0.344819
0.351474
0.362358
0.377469
0.396733
0.419701
0.444655
0.461236
0.46928
0.476029
0.481948
0.487032
0.491299
0.494793
0.497587
0.499784
0.501515
0.502939
0.504237
0.505597
0.507189
0.507907
0.507958
0.508092
0.50745
0.506316
0.505702
0.505541
0.505866
0.5067
0.508079
0.51004
0.512598
0.514091
0.515583
0.518116
0.520979
0.522496
0.523795
0.525347
0.526955
0.52845
0.529694
0.530583
0.531045
0.533997
0.534068
0.534235
0.534542
0.535037
0.535709
0.536474
0.536542
0.535459
0.533568
0.531692
0.529964
0.528383
0.526878
0.525373
0.523816
0.522182
0.520489
0.518802
0.517244
0.514222
0.50579
0.491907
0.482139
0.477184
0.477709
0.484206
0.496339
0.51364
0.536685
0.559312
0.576743
0.588888
0.600552
0.612184
0.623593
0.634616
0.645119
0.654988
0.664128
0.67246
0.679919
0.686452
0.692018
0.696582
0.700119
0.702611
0.704041
0.704401
0.703683
0.701886
0.699009
0.695057
0.690037
0.683961
0.676846
0.668716
0.6596
0.649538
0.638578
0.626778
0.614212
0.600962
0.587128
0.572817
0.557804
0.535169
0.502265
0.471733
0.445247
0.423561
0.406902
0.3952
0.388357
0.386337
0.389102
0.396592
0.408787
0.425613
0.446822
0.470695
0.48789
0.496481
0.502916
0.50877
0.513999
0.51858
0.522517
0.525839
0.528596
0.530865
0.532741
0.534335
0.535759
0.537108
0.53841
0.539504
0.540132
0.539993
0.539549
0.539093
0.538872
0.538966
0.539423
0.540275
0.541543
0.543232
0.545313
0.547661
0.549926
0.551549
0.552713
0.553875
0.555099
0.556394
0.557681
0.558859
0.559833
0.560526
0.560886
0.567213
0.567277
0.567414
0.567637
0.567942
0.56828
0.568517
0.568347
0.567583
0.566367
0.56501
0.563656
0.562354
0.561099
0.559869
0.558649
0.557446
0.556296
0.555277
0.554514
0.554198
0.553453
0.549193
0.543178
0.538317
0.538749
0.545971
0.558814
0.574594
0.589475
0.60191
0.611517
0.621536
0.631789
0.642069
0.652201
0.662032
0.671435
0.680298
0.68853
0.696052
0.702798
0.708714
0.713756
0.71789
0.721087
0.723325
0.724589
0.724867
0.724153
0.722443
0.719739
0.716045
0.711372
0.705734
0.69915
0.691646
0.683256
0.67402
0.66399
0.653226
0.641803
0.629804
0.617328
0.60449
0.591421
0.578017
0.558099
0.530243
0.50235
0.478622
0.460305
0.447356
0.439701
0.437444
0.440566
0.448878
0.462298
0.480484
0.502346
0.517918
0.526092
0.531747
0.537131
0.542137
0.546696
0.550772
0.554352
0.557449
0.560094
0.56234
0.564251
0.5659
0.567356
0.568666
0.569832
0.57078
0.571403
0.57164
0.571658
0.571636
0.571728
0.572026
0.572584
0.573434
0.574587
0.576032
0.577718
0.579536
0.58129
0.582779
0.58403
0.585193
0.58633
0.587451
0.588518
0.589472
0.590251
0.590803
0.591089
0.600365
0.600413
0.60051
0.60065
0.600814
0.60095
0.600966
0.600725
0.600154
0.59931
0.598324
0.597296
0.596279
0.595295
0.594354
0.593466
0.592656
0.591973
0.591495
0.591339
0.591665
0.592689
0.594598
0.59496
0.595468
0.598299
0.604279
0.612575
0.621474
0.629051
0.636757
0.645135
0.653949
0.662998
0.672103
0.681109
0.689878
0.69829
0.706241
0.713642
0.720419
0.726506
0.731849
0.736404
0.740135
0.743013
0.745014
0.746123
0.746326
0.745618
0.743994
0.741457
0.738014
0.733673
0.728453
0.722373
0.715463
0.707756
0.699296
0.690135
0.680335
0.669969
0.659122
0.647892
0.636394
0.624761
0.613149
0.601684
0.585792
0.564967
0.540433
0.521142
0.507113
0.498525
0.49598
0.499505
0.508429
0.522405
0.540021
0.551919
0.558264
0.562742
0.567284
0.571726
0.57595
0.579878
0.583459
0.586671
0.58951
0.591992
0.594149
0.596022
0.597658
0.599098
0.600369
0.601473
0.602382
0.60306
0.603508
0.603806
0.604063
0.604378
0.604826
0.605454
0.60629
0.60734
0.608589
0.609993
0.611472
0.612921
0.614245
0.615436
0.616537
0.617577
0.618561
0.619467
0.620259
0.620897
0.621345
0.621576
0.633469
0.633501
0.633561
0.633639
0.633712
0.633742
0.633671
0.633433
0.632999
0.632393
0.631681
0.630925
0.63017
0.62945
0.628786
0.628204
0.627739
0.627444
0.627392
0.62768
0.628435
0.629804
0.631939
0.634976
0.638856
0.643054
0.647502
0.65229
0.657704
0.663966
0.670878
0.678317
0.686127
0.69415
0.702238
0.710255
0.71808
0.725605
0.732732
0.73938
0.745476
0.750957
0.755772
0.759876
0.763233
0.765814
0.767596
0.768561
0.768697
0.767997
0.766459
0.764083
0.760878
0.756855
0.752031
0.746428
0.740075
0.733009
0.725273
0.716919
0.70801
0.698616
0.688822
0.678724
0.668434
0.658081
0.647818
0.637824
0.628327
0.617374
0.603363
0.587651
0.573456
0.563896
0.560991
0.564883
0.573369
0.582414
0.589486
0.592905
0.59592
0.59933
0.602922
0.606538
0.61006
0.613405
0.616517
0.619362
0.621927
0.624215
0.626242
0.628031
0.629612
0.631009
0.63224
0.63331
0.634214
0.634946
0.635524
0.635997
0.636432
0.636897
0.637445
0.638116
0.638931
0.639894
0.640992
0.642192
0.64344
0.644675
0.645845
0.646932
0.647941
0.648881
0.649749
0.65053
0.651201
0.651734
0.652105
0.652295
0.666541
0.66656
0.666594
0.666632
0.666655
0.666636
0.666541
0.666338
0.666014
0.665583
0.665082
0.664551
0.664029
0.663547
0.663135
0.662824
0.662654
0.662673
0.662947
0.663555
0.664591
0.666152
0.668326
0.671162
0.674607
0.678484
0.682717
0.687356
0.692505
0.698231
0.70447
0.711129
0.718092
0.725236
0.732442
0.739593
0.746584
0.753316
0.759704
0.76567
0.771146
0.776075
0.780405
0.784095
0.787108
0.789415
0.790995
0.791829
0.791905
0.791216
0.78976
0.787539
0.784561
0.780838
0.776387
0.771232
0.765401
0.758932
0.751868
0.74426
0.736168
0.727663
0.718826
0.709748
0.700536
0.691312
0.682216
0.673411
0.665088
0.657464
0.65066
0.642463
0.63429
0.627978
0.624855
0.625026
0.627155
0.629039
0.629596
0.631062
0.633183
0.635734
0.638535
0.641443
0.644347
0.647166
0.649841
0.652333
0.654621
0.6567
0.658572
0.66025
0.661749
0.663085
0.664271
0.665313
0.666216
0.666987
0.667645
0.668225
0.668772
0.669331
0.669942
0.670634
0.671423
0.672313
0.673294
0.674342
0.675422
0.676495
0.677529
0.678504
0.679415
0.680257
0.681024
0.681704
0.682279
0.682732
0.683045
0.683204
0.699594
0.699605
0.699623
0.699639
0.699639
0.699606
0.69952
0.699365
0.699136
0.698844
0.698511
0.698169
0.697847
0.697575
0.697383
0.697305
0.697378
0.697647
0.698168
0.699003
0.700221
0.701886
0.704052
0.70674
0.709921
0.713528
0.717522
0.721911
0.726728
0.731985
0.737643
0.743636
0.749874
0.756263
0.762701
0.769092
0.775344
0.781372
0.787097
0.792449
0.797365
0.801791
0.80568
0.80899
0.811687
0.813745
0.815139
0.815854
0.815877
0.815201
0.813826
0.811752
0.808989
0.805548
0.801447
0.79671
0.791366
0.785451
0.779007
0.772084
0.76474
0.757044
0.74907
0.740906
0.73265
0.724414
0.716323
0.708516
0.701147
0.694379
0.688365
0.683259
0.679115
0.675622
0.672683
0.670252
0.668417
0.667609
0.667705
0.668565
0.670014
0.671889
0.674041
0.676352
0.678721
0.681071
0.683347
0.685507
0.687526
0.68939
0.691096
0.692646
0.694049
0.695313
0.696446
0.697456
0.698351
0.699141
0.699845
0.700487
0.701099
0.701713
0.702358
0.703054
0.703815
0.704642
0.705529
0.706459
0.70741
0.708355
0.709271
0.710142
0.710957
0.711708
0.712387
0.712982
0.713481
0.71387
0.714137
0.714273
0.732637
0.732643
0.732654
0.732661
0.732657
0.73263
0.732568
0.732465
0.732321
0.732144
0.731951
0.731766
0.731615
0.731522
0.731519
0.731634
0.731905
0.73237
0.733075
0.734069
0.735403
0.73712
0.739256
0.741823
0.74481
0.748187
0.751932
0.756039
0.76051
0.765336
0.770483
0.775897
0.781508
0.787239
0.793007
0.79873
0.80433
0.809731
0.814863
0.819663
0.824074
0.828045
0.831533
0.834497
0.836908
0.838737
0.839963
0.84057
0.840547
0.839887
0.838589
0.836656
0.834095
0.830918
0.827144
0.822796
0.817903
0.812498
0.806624
0.800328
0.793666
0.786701
0.779504
0.772155
0.764745
0.757372
0.750146
0.743183
0.736607
0.73054
0.725094
0.720353
0.716333
0.712944
0.710116
0.707836
0.706175
0.705255
0.70505
0.705477
0.706422
0.707764
0.709391
0.711202
0.713112
0.715052
0.716969
0.718823
0.720585
0.722239
0.723775
0.725191
0.726488
0.72767
0.728744
0.729715
0.730591
0.731382
0.732105
0.732778
0.733424
0.734065
0.734722
0.735411
0.736139
0.736911
0.73772
0.738556
0.739403
0.740243
0.741058
0.741835
0.742563
0.743232
0.743833
0.744357
0.744792
0.74513
0.745361
0.745478
0.765672
0.765678
0.765687
0.765696
0.765697
0.765687
0.765658
0.765608
0.765539
0.76546
0.765384
0.765331
0.765322
0.765382
0.765534
0.765809
0.766237
0.766853
0.767693
0.768797
0.7702
0.771937
0.774029
0.776488
0.779308
0.782477
0.785979
0.789803
0.793938
0.798367
0.803056
0.80796
0.813022
0.818177
0.823357
0.828492
0.833515
0.838358
0.842961
0.847267
0.851223
0.854784
0.857908
0.86056
0.862709
0.864331
0.865406
0.865917
0.865854
0.865212
0.863988
0.862187
0.859815
0.856886
0.853416
0.849428
0.84495
0.840015
0.834663
0.828939
0.822895
0.81659
0.810089
0.803467
0.796802
0.790184
0.783704
0.777462
0.771556
0.766081
0.761118
0.756724
0.752918
0.749674
0.746969
0.744799
0.743193
0.742186
0.741764
0.741872
0.742432
0.743356
0.744556
0.745952
0.747472
0.749056
0.750655
0.75223
0.753753
0.755206
0.756575
0.757854
0.759041
0.760137
0.761144
0.762068
0.762914
0.763693
0.764415
0.765097
0.765753
0.766401
0.767055
0.767726
0.768421
0.769142
0.769885
0.770643
0.771404
0.772155
0.772883
0.773578
0.774227
0.774823
0.775356
0.775819
0.776202
0.776497
0.776698
0.7768
0.798702
0.798709
0.798721
0.798736
0.798751
0.798762
0.798768
0.798768
0.798766
0.798771
0.798794
0.798852
0.798962
0.799147
0.799428
0.79983
0.800382
0.801111
0.802048
0.803224
0.804665
0.806397
0.808436
0.81079
0.813459
0.816434
0.819703
0.823255
0.827073
0.831136
0.835414
0.839865
0.844442
0.84909
0.853752
0.858368
0.862878
0.867226
0.871357
0.875219
0.878767
0.881958
0.884755
0.887124
0.889038
0.890474
0.891411
0.891837
0.891741
0.891117
0.889965
0.888288
0.886093
0.883393
0.880205
0.876549
0.872454
0.867949
0.863074
0.857869
0.852385
0.846674
0.840797
0.83482
0.828814
0.822856
0.817026
0.811406
0.806075
0.80111
0.796572
0.792508
0.788939
0.785867
0.783286
0.781197
0.779611
0.778533
0.777947
0.777814
0.778077
0.77867
0.779526
0.780579
0.781769
0.783045
0.784363
0.785688
0.786993
0.788256
0.789465
0.79061
0.791686
0.792692
0.793628
0.794497
0.795306
0.796059
0.796767
0.79744
0.798091
0.798731
0.799371
0.800018
0.800678
0.801351
0.802036
0.802726
0.803414
0.80409
0.804743
0.805365
0.805945
0.806477
0.806951
0.807361
0.807699
0.807959
0.808135
0.808225
0.831726
0.831735
0.831753
0.831777
0.831808
0.831844
0.831884
0.83193
0.831988
0.832064
0.832171
0.83232
0.832529
0.832815
0.833199
0.833703
0.834349
0.835162
0.836165
0.837384
0.83884
0.84055
0.842527
0.844778
0.847303
0.850095
0.853145
0.856441
0.859963
0.863692
0.867598
0.871644
0.875791
0.87999
0.884193
0.888348
0.892404
0.896311
0.90002
0.903486
0.906668
0.909527
0.912029
0.914144
0.915846
0.917114
0.917929
0.918279
0.918155
0.917551
0.916468
0.914907
0.912877
0.91039
0.90746
0.904111
0.900366
0.896255
0.891813
0.88708
0.882101
0.876924
0.871605
0.866202
0.860778
0.855401
0.850138
0.845059
0.840229
0.83571
0.831553
0.827797
0.824465
0.821568
0.81911
0.817094
0.815521
0.814388
0.813678
0.813361
0.813392
0.813723
0.814298
0.815067
0.81598
0.816992
0.818065
0.819167
0.820273
0.821361
0.822419
0.823434
0.824401
0.825316
0.826178
0.826989
0.827752
0.828471
0.829153
0.829807
0.83044
0.831062
0.831679
0.832297
0.83292
0.833549
0.834181
0.834812
0.835437
0.836047
0.836635
0.837193
0.837713
0.838187
0.83861
0.838974
0.839274
0.839504
0.839659
0.839738
0.86474
0.864752
0.864777
0.864813
0.864861
0.864921
0.864993
0.865081
0.865191
0.865328
0.865503
0.865728
0.866017
0.866386
0.866852
0.867433
0.868149
0.869021
0.870068
0.871308
0.872759
0.874435
0.876345
0.878493
0.880879
0.883499
0.886343
0.889398
0.892648
0.896071
0.89964
0.903324
0.907086
0.910887
0.914682
0.918428
0.922079
0.925593
0.928926
0.932038
0.934892
0.937453
0.939691
0.941577
0.943089
0.944206
0.944912
0.945196
0.945048
0.944466
0.943447
0.941995
0.940118
0.937827
0.935137
0.932068
0.928644
0.924891
0.920844
0.916538
0.912013
0.907317
0.902496
0.897604
0.892696
0.887831
0.883067
0.878462
0.874073
0.869949
0.866134
0.862662
0.859556
0.85683
0.854493
0.852547
0.850991
0.84982
0.849017
0.848558
0.848408
0.848529
0.848878
0.849413
0.850092
0.850878
0.851738
0.852643
0.853569
0.854498
0.855414
0.856306
0.857168
0.857993
0.85878
0.859529
0.860241
0.860919
0.861568
0.862193
0.862801
0.863396
0.863985
0.864571
0.865157
0.865743
0.866326
0.866905
0.867473
0.868026
0.868557
0.869059
0.869525
0.86995
0.870328
0.870652
0.870918
0.871122
0.87126
0.87133
0.897741
0.897757
0.897789
0.897837
0.897902
0.897984
0.898087
0.898212
0.898365
0.898554
0.898786
0.899073
0.899426
0.89986
0.900389
0.901028
0.901795
0.902705
0.903776
0.905021
0.906455
0.908086
0.909923
0.911969
0.914223
0.916679
0.91933
0.922162
0.92516
0.928303
0.931568
0.934926
0.938344
0.941788
0.94522
0.948601
0.951893
0.955056
0.958053
0.960849
0.963409
0.965703
0.967703
0.969385
0.970726
0.971708
0.972318
0.972543
0.972377
0.971816
0.970858
0.969509
0.967773
0.965663
0.963193
0.960381
0.957249
0.953823
0.950133
0.946213
0.942099
0.937833
0.933458
0.929022
0.924572
0.92016
0.915836
0.911651
0.907651
0.903879
0.900372
0.89716
0.894266
0.891705
0.889484
0.887609
0.886077
0.884883
0.884013
0.883445
0.883154
0.883108
0.883272
0.883613
0.884097
0.88469
0.885366
0.886098
0.886864
0.887647
0.888433
0.88921
0.88997
0.890708
0.891421
0.892106
0.892764
0.893396
0.894006
0.894597
0.895173
0.895738
0.896295
0.896847
0.897394
0.897938
0.898477
0.899007
0.899526
0.900028
0.900507
0.90096
0.901379
0.901761
0.902098
0.902388
0.902626
0.902807
0.90293
0.902992
0.930727
0.930746
0.930785
0.930845
0.930925
0.931028
0.931157
0.931314
0.931505
0.931736
0.932015
0.932351
0.932755
0.933239
0.933814
0.934496
0.935297
0.93623
0.937309
0.938547
0.939952
0.941532
0.943294
0.945238
0.947363
0.949665
0.952134
0.954759
0.957526
0.960414
0.963403
0.966466
0.969576
0.972701
0.975808
0.978864
0.981834
0.984684
0.987382
0.989894
0.992192
0.994247
0.996035
0.997532
0.998721
0.999584
1.00011
1.00028
1.0001
0.999562
0.998663
0.997407
0.995803
0.99386
0.991591
0.989014
0.986148
0.983019
0.979653
0.976082
0.972338
0.968458
0.964482
0.960452
0.95641
0.952401
0.948468
0.944654
0.941
0.937543
0.934314
0.931341
0.928644
0.926237
0.92413
0.922327
0.920826
0.919623
0.918705
0.918056
0.917655
0.917475
0.91749
0.917672
0.917991
0.918421
0.918937
0.919517
0.920142
0.920794
0.92146
0.922131
0.922796
0.92345
0.924088
0.92471
0.925312
0.925897
0.926464
0.927017
0.927557
0.928087
0.92861
0.929125
0.929636
0.930139
0.930636
0.931122
0.931595
0.932051
0.932485
0.932894
0.933272
0.933614
0.933917
0.934177
0.934389
0.934551
0.93466
0.934715
0.963693
0.963716
0.963761
0.963831
0.963926
0.964047
0.964198
0.964382
0.964604
0.96487
0.965186
0.965561
0.966004
0.966525
0.967135
0.967844
0.968666
0.969609
0.970685
0.971904
0.973273
0.974797
0.976481
0.978325
0.980328
0.982483
0.984783
0.987216
0.989769
0.992425
0.995163
0.997961
1.00079
1.00363
1.00645
1.00921
1.0119
1.01447
1.0169
1.01915
1.02122
1.02306
1.02466
1.02599
1.02704
1.0278
1.02825
1.02838
1.02819
1.02767
1.02682
1.02566
1.02417
1.02238
1.0203
1.01793
1.01531
1.01245
1.00938
1.00612
1.00271
0.999179
0.995561
0.991894
0.988215
0.984564
0.980979
0.977497
0.974153
0.970978
0.968001
0.965246
0.962731
0.960471
0.958472
0.956742
0.955278
0.954077
0.953128
0.95242
0.951933
0.951648
0.951542
0.951592
0.951774
0.952065
0.952445
0.952892
0.953391
0.953926
0.954485
0.955056
0.955632
0.956206
0.956774
0.957332
0.957879
0.958413
0.958936
0.959448
0.959951
0.960444
0.960931
0.96141
0.961883
0.962348
0.962804
0.96325
0.963681
0.964096
0.96449
0.964859
0.965199
0.965508
0.96578
0.966012
0.966202
0.966347
0.966445
0.966494
0.996636
0.996662
0.996714
0.996792
0.996899
0.997037
0.997206
0.997413
0.99766
0.997953
0.998298
0.998703
0.999175
0.999722
1.00035
1.00108
1.00191
1.00286
1.00392
1.00511
1.00644
1.0079
1.00951
1.01125
1.01314
1.01516
1.0173
1.01955
1.02191
1.02435
1.02686
1.02942
1.032
1.03458
1.03714
1.03964
1.04207
1.04439
1.04658
1.04861
1.05046
1.05211
1.05354
1.05473
1.05566
1.05632
1.0567
1.0568
1.05659
1.0561
1.0553
1.05422
1.05285
1.0512
1.04928
1.04711
1.04471
1.0421
1.03929
1.03632
1.03321
1.02999
1.02669
1.02335
1.01999
1.01666
1.01339
1.0102
1.00714
1.00422
1.00147
0.998911
0.996565
0.994441
0.992548
0.99089
0.989468
0.988278
0.987313
0.986561
0.98601
0.985642
0.985438
0.98538
0.985448
0.985622
0.985884
0.986217
0.986605
0.987035
0.987496
0.987977
0.98847
0.988969
0.989468
0.989965
0.990457
0.990942
0.99142
0.99189
0.992353
0.992809
0.993259
0.993702
0.994137
0.994565
0.994984
0.995391
0.995785
0.996161
0.996518
0.996852
0.997159
0.997437
0.997681
0.99789
0.998061
0.99819
0.998278
0.998322
1.02955
1.02958
1.02964
1.02973
1.02984
1.02999
1.03018
1.0304
1.03067
1.03098
1.03135
1.03178
1.03227
1.03283
1.03348
1.03422
1.03505
1.03598
1.03702
1.03818
1.03946
1.04087
1.0424
1.04405
1.04582
1.0477
1.0497
1.05179
1.05397
1.05621
1.05852
1.06086
1.06321
1.06556
1.06788
1.07015
1.07235
1.07444
1.07642
1.07825
1.07991
1.08139
1.08267
1.08372
1.08455
1.08512