/*--------------------------------*- C++ -*----------------------------------*\
| =========                 |                                                 |
| \\      /  F ield         | OpenFOAM: The Open Source CFD Toolbox           |
|  \\    /   O peration     | Version:  2406                                  |
|   \\  /    A nd           | Website:  www.openfoam.com                      |
|    \\/     M anipulation  |                                                 |
\*---------------------------------------------------------------------------*/
FoamFile
{
    version     2.0;
    format      ascii;
    arch        "LSB;label=32;scalar=64";
    class       volScalarField;
    location    "9.8";
    object      Da;
}
// * * * * * * * * * * * * * * * * * * * * * * * * * * * * * * * * * * * * * //

dimensions      [0 2 -1 0 0 0 0];

internalField   nonuniform List<scalar> 
14400
(
5.24732e-05
5.2484e-05
5.25117e-05
5.2558e-05
5.26164e-05
5.26751e-05
5.27217e-05
5.27477e-05
5.27503e-05
5.27341e-05
5.27106e-05
5.26949e-05
5.27023e-05
5.274e-05
5.27988e-05
5.28521e-05
5.2877e-05
5.28905e-05
5.29039e-05
5.29049e-05
5.28636e-05
5.27427e-05
5.25056e-05
5.21221e-05
5.15732e-05
5.08573e-05
4.99977e-05
4.90503e-05
4.80979e-05
4.72229e-05
4.64783e-05
4.58825e-05
4.54335e-05
4.51255e-05
4.4962e-05
4.49726e-05
4.52575e-05
4.61903e-05
4.98449e-05
7.68124e-05
7.8e-05
7.8e-05
7.8e-05
7.8e-05
7.8e-05
7.8e-05
7.8e-05
7.8e-05
7.8e-05
7.8e-05
7.8e-05
7.8e-05
7.8e-05
7.8e-05
7.8e-05
7.8e-05
7.8e-05
7.8e-05
7.53048e-05
4.91302e-05
4.61948e-05
4.54667e-05
4.5301e-05
4.54104e-05
4.57243e-05
4.6235e-05
4.69605e-05
4.79212e-05
4.91077e-05
5.04466e-05
5.18043e-05
5.30444e-05
5.40787e-05
5.48685e-05
5.54029e-05
5.5685e-05
5.57251e-05
5.55388e-05
5.51478e-05
5.45842e-05
5.38966e-05
5.31563e-05
5.24613e-05
5.19439e-05
5.18114e-05
5.25976e-05
5.70651e-05
7.74154e-05
6.03322e-05
5.21895e-05
5.05331e-05
5.00839e-05
5.00532e-05
5.02294e-05
5.05182e-05
5.08621e-05
5.122e-05
5.15614e-05
5.18651e-05
5.21173e-05
5.23092e-05
5.24344e-05
5.24873e-05
5.24629e-05
5.23579e-05
5.21721e-05
5.19074e-05
5.15674e-05
5.11584e-05
5.06918e-05
5.01869e-05
4.96727e-05
4.91859e-05
4.87678e-05
4.84642e-05
4.8333e-05
4.84785e-05
4.91892e-05
5.19276e-05
7.27596e-05
5.19812e-05
5.19612e-05
5.1945e-05
5.19487e-05
5.19724e-05
5.20068e-05
5.20397e-05
5.20624e-05
5.20722e-05
5.20737e-05
5.20788e-05
5.21042e-05
5.21662e-05
5.22711e-05
5.23986e-05
5.24889e-05
5.24804e-05
5.24369e-05
5.24004e-05
5.23661e-05
5.23028e-05
5.21708e-05
5.1932e-05
5.15565e-05
5.10271e-05
5.03454e-05
4.95382e-05
4.86614e-05
4.779e-05
4.69932e-05
4.63143e-05
4.57695e-05
4.53593e-05
4.5082e-05
4.49467e-05
4.49927e-05
4.53532e-05
4.66134e-05
5.30004e-05
7.78248e-05
7.8e-05
7.8e-05
7.8e-05
7.8e-05
7.8e-05
7.8e-05
7.8e-05
7.8e-05
7.8e-05
7.8e-05
7.8e-05
7.8e-05
7.8e-05
7.8e-05
7.8e-05
7.8e-05
7.8e-05
7.8e-05
7.72982e-05
5.07379e-05
4.65077e-05
4.55473e-05
4.5311e-05
4.53811e-05
4.56598e-05
4.6129e-05
4.68002e-05
4.76904e-05
4.87947e-05
5.00547e-05
5.13533e-05
5.25597e-05
5.35789e-05
5.43627e-05
5.48947e-05
5.51753e-05
5.52137e-05
5.50257e-05
5.46348e-05
5.40763e-05
5.34029e-05
5.26901e-05
5.20388e-05
5.15834e-05
5.15501e-05
5.26363e-05
5.9367e-05
7.78678e-05
6.4902e-05
5.24223e-05
5.03718e-05
4.98078e-05
4.96985e-05
4.98056e-05
5.00317e-05
5.03204e-05
5.06334e-05
5.09426e-05
5.12277e-05
5.14743e-05
5.16708e-05
5.18063e-05
5.18689e-05
5.18482e-05
5.1739e-05
5.15445e-05
5.12732e-05
5.0935e-05
5.05409e-05
5.01046e-05
4.96457e-05
4.91905e-05
4.87713e-05
4.84243e-05
4.81927e-05
4.81384e-05
4.83859e-05
4.93027e-05
5.26794e-05
7.60366e-05
5.11496e-05
5.1056e-05
5.09441e-05
5.08607e-05
5.08163e-05
5.0803e-05
5.08086e-05
5.08239e-05
5.0846e-05
5.08799e-05
5.0938e-05
5.10401e-05
5.12084e-05
5.1455e-05
5.17465e-05
5.19398e-05
5.18214e-05
5.16307e-05
5.1479e-05
5.13664e-05
5.12549e-05
5.10992e-05
5.08591e-05
5.05051e-05
5.00232e-05
4.94188e-05
4.87212e-05
4.798e-05
4.72534e-05
4.65913e-05
4.60249e-05
4.55684e-05
4.52271e-05
4.50063e-05
4.49245e-05
4.50376e-05
4.55366e-05
4.74462e-05
6.17597e-05
7.79975e-05
7.8e-05
7.8e-05
7.8e-05
7.8e-05
7.8e-05
7.8e-05
7.8e-05
7.8e-05
7.8e-05
7.8e-05
7.8e-05
7.8e-05
7.8e-05
7.8e-05
7.8e-05
7.8e-05
7.8e-05
7.8e-05
7.7982e-05
5.79116e-05
4.72963e-05
4.57119e-05
4.53339e-05
4.53302e-05
4.55439e-05
4.59379e-05
4.65118e-05
4.72755e-05
4.82279e-05
4.93317e-05
5.05002e-05
5.16197e-05
5.25911e-05
5.33519e-05
5.38732e-05
5.41484e-05
5.41844e-05
5.39978e-05
5.3616e-05
5.30807e-05
5.24524e-05
5.18122e-05
5.12617e-05
5.09352e-05
5.10834e-05
5.27003e-05
6.44626e-05
7.79931e-05
7.21171e-05
5.2872e-05
5.0164e-05
4.93657e-05
4.91049e-05
4.9087e-05
4.92015e-05
4.93913e-05
4.96207e-05
4.98657e-05
5.01089e-05
5.03367e-05
5.05349e-05
5.06855e-05
5.07659e-05
5.07536e-05
5.06396e-05
5.04345e-05
5.01599e-05
4.98367e-05
4.94816e-05
4.91102e-05
4.87393e-05
4.83896e-05
4.80853e-05
4.78563e-05
4.77444e-05
4.78232e-05
4.82747e-05
4.98421e-05
5.83305e-05
7.79386e-05
5.02714e-05
5.00366e-05
4.97741e-05
4.95717e-05
4.94404e-05
4.93674e-05
4.9338e-05
4.93423e-05
4.93771e-05
4.94475e-05
4.95673e-05
4.97609e-05
5.00652e-05
5.05247e-05
5.11386e-05
5.16307e-05
5.11629e-05
5.06688e-05
5.03253e-05
5.00946e-05
4.99131e-05
4.97252e-05
4.94878e-05
4.91726e-05
4.8768e-05
4.82804e-05
4.77339e-05
4.71643e-05
4.66101e-05
4.6104e-05
4.56687e-05
4.53185e-05
4.5064e-05
4.49193e-05
4.49158e-05
4.51365e-05
4.58611e-05
4.85878e-05
7.2643e-05
7.8e-05
7.8e-05
7.8e-05
7.8e-05
7.8e-05
7.8e-05
7.8e-05
7.8e-05
7.8e-05
7.8e-05
7.8e-05
7.8e-05
7.8e-05
7.8e-05
7.8e-05
7.8e-05
7.8e-05
7.8e-05
7.8e-05
7.8e-05
6.89702e-05
4.83175e-05
4.59594e-05
4.5385e-05
4.52756e-05
4.54001e-05
4.56962e-05
4.61478e-05
4.67544e-05
4.75131e-05
4.84021e-05
4.93674e-05
5.03258e-05
5.11877e-05
5.1883e-05
5.23694e-05
5.26294e-05
5.26652e-05
5.24942e-05
5.21494e-05
5.16803e-05
5.11535e-05
5.06506e-05
5.02687e-05
5.01416e-05
5.05552e-05
5.28152e-05
7.11266e-05
7.79999e-05
7.76562e-05
5.57131e-05
5.02758e-05
4.89421e-05
4.84498e-05
4.82734e-05
4.82569e-05
4.83325e-05
4.84638e-05
4.86295e-05
4.88159e-05
4.90118e-05
4.92032e-05
4.93679e-05
4.94709e-05
4.94724e-05
4.93561e-05
4.91443e-05
4.88763e-05
4.85841e-05
4.82877e-05
4.80008e-05
4.77356e-05
4.75055e-05
4.73285e-05
4.72307e-05
4.72569e-05
4.75008e-05
4.82296e-05
5.07593e-05
6.97137e-05
7.79999e-05
4.97888e-05
4.92393e-05
4.87484e-05
4.84046e-05
4.81829e-05
4.80516e-05
4.79883e-05
4.798e-05
4.8023e-05
4.8123e-05
4.82966e-05
4.85766e-05
4.90273e-05
4.97808e-05
5.11039e-05
5.32134e-05
5.0936e-05
4.98108e-05
4.91925e-05
4.88203e-05
4.85616e-05
4.83404e-05
4.81097e-05
4.78421e-05
4.7526e-05
4.71639e-05
4.67697e-05
4.63644e-05
4.59711e-05
4.56112e-05
4.53024e-05
4.50601e-05
4.49002e-05
4.48477e-05
4.49554e-05
4.53746e-05
4.68085e-05
5.56406e-05
7.79622e-05
7.8e-05
7.8e-05
7.8e-05
7.8e-05
7.8e-05
7.8e-05
7.8e-05
7.8e-05
7.8e-05
7.8e-05
7.8e-05
7.8e-05
7.8e-05
7.8e-05
7.8e-05
7.8e-05
7.8e-05
7.8e-05
7.8e-05
7.8e-05
7.74071e-05
5.08579e-05
4.65099e-05
4.5525e-05
4.52492e-05
4.52585e-05
4.54425e-05
4.5764e-05
4.62091e-05
4.67687e-05
4.74263e-05
4.81494e-05
4.88855e-05
4.95694e-05
5.01392e-05
5.05491e-05
5.07754e-05
5.08157e-05
5.06871e-05
5.04248e-05
5.00795e-05
4.97144e-05
4.94036e-05
4.92396e-05
4.93778e-05
5.02427e-05
5.3944e-05
7.6943e-05
7.8e-05
7.79999e-05
6.95731e-05
5.13075e-05
4.87334e-05
4.79007e-05
4.75466e-05
4.74027e-05
4.73747e-05
4.7419e-05
4.75145e-05
4.76496e-05
4.78158e-05
4.80017e-05
4.81849e-05
4.83196e-05
4.83408e-05
4.82176e-05
4.79935e-05
4.77299e-05
4.74677e-05
4.72263e-05
4.70156e-05
4.68432e-05
4.6718e-05
4.66554e-05
4.66831e-05
4.68581e-05
4.73219e-05
4.85795e-05
5.38731e-05
7.76295e-05
7.8e-05
5.10439e-05
4.9069e-05
4.8103e-05
4.7557e-05
4.72313e-05
4.70409e-05
4.69453e-05
4.69243e-05
4.69719e-05
4.70954e-05
4.73177e-05
4.76878e-05
4.83241e-05
4.95917e-05
5.3396e-05
7.19627e-05
5.22373e-05
4.93349e-05
4.82899e-05
4.77546e-05
4.74185e-05
4.7166e-05
4.69418e-05
4.67162e-05
4.64754e-05
4.62163e-05
4.59441e-05
4.56693e-05
4.54053e-05
4.51666e-05
4.49681e-05
4.48266e-05
4.47649e-05
4.48226e-05
4.50901e-05
4.58538e-05
4.86672e-05
7.32551e-05
7.8e-05
7.8e-05
7.8e-05
7.8e-05
7.8e-05
7.8e-05
7.8e-05
7.8e-05
7.8e-05
7.8e-05
7.8e-05
7.8e-05
7.8e-05
7.8e-05
7.8e-05
7.8e-05
7.8e-05
7.8e-05
7.8e-05
7.8e-05
7.8e-05
7.79999e-05
6.76407e-05
4.81028e-05
4.5864e-05
4.52928e-05
4.51512e-05
4.52124e-05
4.54059e-05
4.57025e-05
4.60849e-05
4.65361e-05
4.7033e-05
4.7543e-05
4.80251e-05
4.84368e-05
4.87427e-05
4.89221e-05
4.89717e-05
4.89062e-05
4.87555e-05
4.8562e-05
4.83782e-05
4.82695e-05
4.83339e-05
4.87927e-05
5.06315e-05
6.35984e-05
7.79955e-05
7.8e-05
7.8e-05
7.78449e-05
5.58341e-05
4.90947e-05
4.7608e-05
4.70266e-05
4.67533e-05
4.66342e-05
4.66087e-05
4.6652e-05
4.67532e-05
4.69061e-05
4.71032e-05
4.73281e-05
4.75239e-05
4.75798e-05
4.74246e-05
4.71573e-05
4.68732e-05
4.66202e-05
4.64123e-05
4.62545e-05
4.61505e-05
4.61082e-05
4.61445e-05
4.62968e-05
4.66554e-05
4.74967e-05
5.02301e-05
7.12542e-05
7.8e-05
7.8e-05
6.82289e-05
5.07666e-05
4.80678e-05
4.71102e-05
4.66246e-05
4.63577e-05
4.6225e-05
4.61901e-05
4.62424e-05
4.63923e-05
4.6676e-05
4.7179e-05
4.81647e-05
5.09534e-05
7.04815e-05
7.79836e-05
6.04174e-05
4.96385e-05
4.77268e-05
4.69796e-05
4.65583e-05
4.62725e-05
4.60488e-05
4.58516e-05
4.56631e-05
4.54759e-05
4.52898e-05
4.51091e-05
4.49418e-05
4.47986e-05
4.46932e-05
4.46454e-05
4.46883e-05
4.48903e-05
4.54496e-05
4.73597e-05
6.17083e-05
7.79982e-05
7.8e-05
7.8e-05
7.8e-05
7.8e-05
7.8e-05
7.8e-05
7.8e-05
7.8e-05
7.8e-05
7.8e-05
7.8e-05
7.8e-05
7.8e-05
7.8e-05
7.8e-05
7.8e-05
7.8e-05
7.8e-05
7.8e-05
7.8e-05
7.8e-05
7.8e-05
7.78068e-05
5.25396e-05
4.66362e-05
4.54737e-05
4.51167e-05
4.50376e-05
4.51058e-05
4.52712e-05
4.55074e-05
4.57945e-05
4.61134e-05
4.64419e-05
4.67549e-05
4.70269e-05
4.72368e-05
4.73718e-05
4.74308e-05
4.74246e-05
4.73756e-05
4.73167e-05
4.72915e-05
4.7364e-05
4.76524e-05
4.84776e-05
5.13503e-05
7.40325e-05
7.8e-05
7.8e-05
7.8e-05
7.8e-05
7.45785e-05
5.09538e-05
4.78039e-05
4.68134e-05
4.63628e-05
4.61456e-05
4.60563e-05
4.60609e-05
4.61472e-05
4.63112e-05
4.65533e-05
4.68801e-05
4.72325e-05
4.73915e-05
4.71048e-05
4.6706e-05
4.63429e-05
4.60618e-05
4.58584e-05
4.5729e-05
4.56731e-05
4.56997e-05
4.58344e-05
4.61399e-05
4.6807e-05
4.8745e-05
6.05815e-05
7.79919e-05
7.8e-05
7.8e-05
7.79977e-05
6.35621e-05
4.94921e-05
4.72029e-05
4.63816e-05
4.59837e-05
4.57968e-05
4.57438e-05
4.58048e-05
4.59964e-05
4.63871e-05
4.71611e-05
4.91969e-05
6.06207e-05
7.79894e-05
7.8e-05
7.39106e-05
5.06568e-05
4.75618e-05
4.65079e-05
4.59721e-05
4.56409e-05
4.54069e-05
4.52229e-05
4.50659e-05
4.49251e-05
4.47969e-05
4.46827e-05
4.45876e-05
4.45209e-05
4.44974e-05
4.4543e-05
4.47095e-05
4.51248e-05
4.62779e-05
5.16232e-05
7.77396e-05
7.8e-05
7.8e-05
7.8e-05
7.8e-05
7.8e-05
7.8e-05
7.8e-05
7.8e-05
7.8e-05
7.8e-05
7.8e-05
7.8e-05
7.8e-05
7.8e-05
7.8e-05
7.8e-05
7.8e-05
7.8e-05
7.8e-05
7.8e-05
7.8e-05
7.8e-05
7.8e-05
7.8e-05
7.31693e-05
4.87364e-05
4.59694e-05
4.52199e-05
4.49521e-05
4.48865e-05
4.49327e-05
4.50491e-05
4.52113e-05
4.54007e-05
4.56003e-05
4.57942e-05
4.59673e-05
4.6108e-05
4.62104e-05
4.62753e-05
4.63119e-05
4.63379e-05
4.63809e-05
4.64837e-05
4.6722e-05
4.72813e-05
4.89766e-05
5.92987e-05
7.79795e-05
7.8e-05
7.8e-05
7.8e-05
7.8e-05
7.79999e-05
6.86281e-05
4.98292e-05
4.71605e-05
4.63072e-05
4.59376e-05
4.57663e-05
4.57356e-05
4.58273e-05
4.60435e-05
4.63999e-05
4.70143e-05
4.79666e-05
4.88349e-05
4.76449e-05
4.67817e-05
4.6179e-05
4.57992e-05
4.55596e-05
4.54349e-05
4.54149e-05
4.55133e-05
4.57807e-05
4.63487e-05
4.77452e-05
5.37494e-05
7.78009e-05
7.8e-05
7.8e-05
7.8e-05
7.8e-05
7.79747e-05
5.82869e-05
4.85945e-05
4.66606e-05
4.59543e-05
4.56673e-05
4.55839e-05
4.56641e-05
4.59385e-05
4.6579e-05
4.81304e-05
5.4486e-05
7.78325e-05
7.8e-05
7.8e-05
7.79948e-05
6.12797e-05
4.84275e-05
4.63947e-05
4.56441e-05
4.52371e-05
4.49758e-05
4.47896e-05
4.46476e-05
4.45351e-05
4.44462e-05
4.43807e-05
4.43435e-05
4.43448e-05
4.44036e-05
4.45605e-05
4.49138e-05
4.57703e-05
4.88287e-05
7.54337e-05
7.8e-05
7.8e-05
7.8e-05
7.8e-05
7.8e-05
7.8e-05
7.8e-05
7.8e-05
7.8e-05
7.8e-05
7.8e-05
7.8e-05
7.8e-05
7.8e-05
7.8e-05
7.8e-05
7.8e-05
7.8e-05
7.8e-05
7.8e-05
7.8e-05
7.8e-05
7.8e-05
7.8e-05
7.8e-05
7.79994e-05
6.37454e-05
4.77182e-05
4.56244e-05
4.50076e-05
4.47708e-05
4.46964e-05
4.47091e-05
4.47735e-05
4.48685e-05
4.49792e-05
4.50935e-05
4.52021e-05
4.52984e-05
4.538e-05
4.54497e-05
4.55164e-05
4.55965e-05
4.57184e-05
4.59325e-05
4.63461e-05
4.72676e-05
5.02464e-05
7.39269e-05
7.8e-05
7.8e-05
7.8e-05
7.8e-05
7.8e-05
7.8e-05
7.79994e-05
6.55344e-05
4.93641e-05
4.68599e-05
4.61373e-05
4.57944e-05
4.57145e-05
4.58466e-05
4.62276e-05
4.69018e-05
4.88234e-05
5.3799e-05
6.45174e-05
5.16177e-05
4.82585e-05
4.66054e-05
4.59233e-05
4.55591e-05
4.54075e-05
4.54204e-05
4.56271e-05
4.61821e-05
4.75414e-05
5.20644e-05
7.74097e-05
7.8e-05
7.8e-05
7.8e-05
7.8e-05
7.8e-05
7.8e-05
7.79526e-05
5.77246e-05
4.85139e-05
4.65226e-05
4.59852e-05
4.58261e-05
4.59615e-05
4.64545e-05
4.81076e-05
5.38524e-05
7.76766e-05
7.8e-05
7.8e-05
7.8e-05
7.8e-05
7.69889e-05
5.07007e-05
4.67565e-05
4.55984e-05
4.50509e-05
4.47323e-05
4.45251e-05
4.43835e-05
4.42864e-05
4.42253e-05
4.41997e-05
4.42166e-05
4.42919e-05
4.44558e-05
4.47904e-05
4.55784e-05
4.83056e-05
7.17008e-05
7.8e-05
7.8e-05
7.8e-05
7.8e-05
7.8e-05
7.8e-05
7.8e-05
7.8e-05
7.8e-05
7.8e-05
7.8e-05
7.8e-05
7.8e-05
7.8e-05
7.8e-05
7.8e-05
7.8e-05
7.8e-05
7.8e-05
7.8e-05
7.8e-05
7.8e-05
7.8e-05
7.8e-05
7.8e-05
7.8e-05
7.8e-05
7.79598e-05
5.53117e-05
4.68013e-05
4.53035e-05
4.47947e-05
4.45763e-05
4.44866e-05
4.44665e-05
4.44877e-05
4.45338e-05
4.45937e-05
4.46599e-05
4.47282e-05
4.47983e-05
4.48743e-05
4.4966e-05
4.50918e-05
4.52866e-05
4.5623e-05
4.63038e-05
4.83017e-05
6.18772e-05
7.79967e-05
7.8e-05
7.8e-05
7.8e-05
7.8e-05
7.8e-05
7.8e-05
7.8e-05
7.79994e-05
6.81274e-05
4.96716e-05
4.74833e-05
4.64133e-05
4.6215e-05
4.64944e-05
4.7701e-05
4.97426e-05
6.58378e-05
7.78042e-05
7.7999e-05
7.7342e-05
6.08798e-05
4.90772e-05
4.69515e-05
4.60885e-05
4.58357e-05
4.5897e-05
4.6362e-05
4.81809e-05
5.48488e-05
7.7521e-05
7.8e-05
7.8e-05
7.8e-05
7.8e-05
7.8e-05
7.8e-05
7.8e-05
7.8e-05
7.79748e-05
6.38125e-05
4.92772e-05
4.77098e-05
4.7126e-05
4.75805e-05
4.90247e-05
5.9937e-05
7.78257e-05
7.8e-05
7.8e-05
7.8e-05
7.8e-05
7.8e-05
7.8e-05
7.25827e-05
4.89983e-05
4.60694e-05
4.51397e-05
4.46914e-05
4.44303e-05
4.42711e-05
4.41784e-05
4.41392e-05
4.41532e-05
4.4235e-05
4.44199e-05
4.47718e-05
4.55274e-05
4.81682e-05
6.98398e-05
7.8e-05
7.8e-05
7.8e-05
7.8e-05
7.8e-05
7.8e-05
7.8e-05
7.8e-05
7.8e-05
7.8e-05
7.8e-05
7.8e-05
7.8e-05
7.8e-05
7.8e-05
7.8e-05
7.8e-05
7.8e-05
7.8e-05
7.8e-05
7.8e-05
7.8e-05
7.8e-05
7.8e-05
7.8e-05
7.8e-05
7.8e-05
7.8e-05
7.8e-05
7.75283e-05
5.06394e-05
4.61476e-05
4.50492e-05
4.46095e-05
4.4394e-05
4.42857e-05
4.42397e-05
4.42327e-05
4.42514e-05
4.42879e-05
4.43386e-05
4.44041e-05
4.449e-05
4.46089e-05
4.4785e-05
4.50685e-05
4.55785e-05
4.67209e-05
5.09325e-05
7.72747e-05
7.8e-05
7.8e-05
7.8e-05
7.8e-05
7.8e-05
7.8e-05
7.8e-05
7.8e-05
7.8e-05
7.79999e-05
7.45224e-05
5.72482e-05
4.92176e-05
4.86098e-05
4.94903e-05
5.94566e-05
7.50338e-05
7.79997e-05
7.8e-05
7.8e-05
7.8e-05
7.79955e-05
7.18268e-05
5.30283e-05
4.85539e-05
4.78752e-05
4.81155e-05
4.95876e-05
6.54189e-05
7.79226e-05
7.8e-05
7.8e-05
7.8e-05
7.8e-05
7.8e-05
7.8e-05
7.8e-05
7.8e-05
7.8e-05
7.8e-05
7.79991e-05
7.38074e-05
6.11018e-05
5.45087e-05
5.93804e-05
7.19882e-05
7.79931e-05
7.8e-05
7.8e-05
7.8e-05
7.8e-05
7.8e-05
7.8e-05
7.8e-05
7.8e-05
6.82321e-05
4.84227e-05
4.57701e-05
4.49571e-05
4.45591e-05
4.43491e-05
4.42466e-05
4.42294e-05
4.42967e-05
4.44856e-05
4.49238e-05
4.58333e-05
4.84346e-05
7.12958e-05
7.8e-05
7.8e-05
7.8e-05
7.8e-05
7.8e-05
7.8e-05
7.8e-05
7.8e-05
7.8e-05
7.8e-05
7.8e-05
7.8e-05
7.8e-05
7.8e-05
7.8e-05
7.8e-05
7.8e-05
7.8e-05
7.8e-05
7.8e-05
7.8e-05
7.8e-05
7.8e-05
7.8e-05
7.8e-05
7.8e-05
7.8e-05
7.8e-05
7.8e-05
7.8e-05
7.8e-05
7.64849e-05
4.92645e-05
4.58701e-05
4.49114e-05
4.44791e-05
4.42475e-05
4.41229e-05
4.40623e-05
4.40443e-05
4.40571e-05
4.40964e-05
4.41635e-05
4.42665e-05
4.44238e-05
4.46733e-05
4.51102e-05
4.60169e-05
4.89189e-05
7.29369e-05
7.8e-05
7.8e-05
7.8e-05
7.8e-05
7.8e-05
7.8e-05
7.8e-05
7.8e-05
7.8e-05
7.8e-05
7.8e-05
7.8e-05
7.79759e-05
7.48298e-05
7.14723e-05
7.5748e-05
7.79914e-05
7.8e-05
7.8e-05
7.8e-05
7.8e-05
7.8e-05
7.8e-05
7.8e-05
7.78252e-05
7.13388e-05
6.48962e-05
6.80545e-05
7.62816e-05
7.79997e-05
7.8e-05
7.8e-05
7.8e-05
7.8e-05
7.8e-05
7.8e-05
7.8e-05
7.8e-05
7.8e-05
7.8e-05
7.8e-05
7.8e-05
7.8e-05
7.7996e-05
7.79033e-05
7.79905e-05
7.8e-05
7.8e-05
7.8e-05
7.8e-05
7.8e-05
7.8e-05
7.8e-05
7.8e-05
7.8e-05
7.8e-05
7.79999e-05
6.87664e-05
4.85226e-05
4.60241e-05
4.51371e-05
4.47757e-05
4.46269e-05
4.46509e-05
4.4832e-05
4.528e-05
4.6882e-05
5.11985e-05
7.51902e-05
7.8e-05
7.8e-05
7.8e-05
7.8e-05
7.8e-05
7.8e-05
7.8e-05
7.8e-05
7.8e-05
7.8e-05
7.8e-05
7.8e-05
7.8e-05
7.8e-05
7.8e-05
7.8e-05
7.8e-05
7.8e-05
7.8e-05
7.8e-05
7.8e-05
7.8e-05
7.8e-05
7.8e-05
7.8e-05
7.8e-05
7.8e-05
7.8e-05
7.8e-05
7.8e-05
7.8e-05
7.8e-05
7.8e-05
7.59547e-05
4.92405e-05
4.59618e-05
4.49088e-05
4.44179e-05
4.41662e-05
4.40337e-05
4.39736e-05
4.39631e-05
4.39949e-05
4.40713e-05
4.42053e-05
4.44301e-05
4.48189e-05
4.56392e-05
4.81987e-05
6.73239e-05
7.79999e-05
7.8e-05
7.8e-05
7.8e-05
7.8e-05
7.8e-05
7.8e-05
7.8e-05
7.8e-05
7.8e-05
7.8e-05
7.8e-05
7.8e-05
7.8e-05
7.8e-05
7.8e-05
7.8e-05
7.8e-05
7.8e-05
7.8e-05
7.8e-05
7.8e-05
7.8e-05
7.8e-05
7.8e-05
7.8e-05
7.8e-05
7.79995e-05
7.79999e-05
7.8e-05
7.8e-05
7.8e-05
7.8e-05
7.8e-05
7.8e-05
7.8e-05
7.8e-05
7.8e-05
7.8e-05
7.8e-05
7.8e-05
7.8e-05
7.8e-05
7.8e-05
7.8e-05
7.8e-05
7.8e-05
7.8e-05
7.8e-05
7.8e-05
7.8e-05
7.8e-05
7.8e-05
7.8e-05
7.8e-05
7.8e-05
7.8e-05
7.8e-05
7.8e-05
7.39231e-05
5.16719e-05
4.74689e-05
4.63764e-05
4.59436e-05
4.61878e-05
4.69256e-05
4.83576e-05
6.38834e-05
7.7771e-05
7.8e-05
7.8e-05
7.8e-05
7.8e-05
7.8e-05
7.8e-05
7.8e-05
7.8e-05
7.8e-05
7.8e-05
7.8e-05
7.8e-05
7.8e-05
7.8e-05
7.8e-05
7.8e-05
7.8e-05
7.8e-05
7.8e-05
7.8e-05
7.8e-05
7.8e-05
7.8e-05
7.8e-05
7.8e-05
7.8e-05
7.8e-05
7.8e-05
7.8e-05
7.8e-05
7.8e-05
7.8e-05
7.8e-05
7.8e-05
7.8e-05
7.67944e-05
5.11986e-05
4.65455e-05
4.50397e-05
4.44775e-05
4.42074e-05
4.40817e-05
4.40387e-05
4.40655e-05
4.41665e-05
4.43649e-05
4.47444e-05
4.54925e-05
4.79662e-05
6.53107e-05
7.79997e-05
7.8e-05
7.8e-05
7.8e-05
7.8e-05
7.8e-05
7.8e-05
7.8e-05
7.8e-05
7.8e-05
7.8e-05
7.8e-05
7.8e-05
7.8e-05
7.8e-05
7.8e-05
7.8e-05
7.8e-05
7.8e-05
7.8e-05
7.8e-05
7.8e-05
7.8e-05
7.8e-05
7.8e-05
7.8e-05
7.8e-05
7.8e-05
7.8e-05
7.8e-05
7.8e-05
7.8e-05
7.8e-05
7.8e-05
7.8e-05
7.8e-05
7.8e-05
7.8e-05
7.8e-05
7.8e-05
7.8e-05
7.8e-05
7.8e-05
7.8e-05
7.8e-05
7.8e-05
7.8e-05
7.8e-05
7.8e-05
7.8e-05
7.8e-05
7.8e-05
7.8e-05
7.8e-05
7.8e-05
7.8e-05
7.8e-05
7.8e-05
7.8e-05
7.8e-05
7.8e-05
7.77973e-05
6.85607e-05
5.69876e-05
5.28151e-05
5.59185e-05
6.52294e-05
7.58211e-05
7.79996e-05
7.8e-05
7.8e-05
7.8e-05
7.8e-05
7.8e-05
7.8e-05
7.8e-05
7.8e-05
7.8e-05
7.8e-05
7.8e-05
7.8e-05
7.8e-05
7.8e-05
7.8e-05
7.8e-05
7.8e-05
7.8e-05
7.8e-05
7.8e-05
7.8e-05
7.8e-05
7.8e-05
7.8e-05
7.8e-05
7.8e-05
7.8e-05
7.8e-05
7.8e-05
7.8e-05
7.8e-05
7.8e-05
7.8e-05
7.8e-05
7.8e-05
7.8e-05
7.8e-05
7.77643e-05
5.855e-05
4.74999e-05
4.55171e-05
4.48138e-05
4.45353e-05
4.44156e-05
4.4438e-05
4.46138e-05
4.49864e-05
4.59585e-05
4.83116e-05
6.82501e-05
7.79997e-05
7.8e-05
7.8e-05
7.8e-05
7.8e-05
7.8e-05
7.8e-05
7.8e-05
7.8e-05
7.8e-05
7.8e-05
7.8e-05
7.8e-05
7.8e-05
7.8e-05
7.8e-05
7.8e-05
7.8e-05
7.8e-05
7.8e-05
7.8e-05
7.8e-05
7.8e-05
7.8e-05
7.8e-05
7.8e-05
7.8e-05
7.8e-05
7.8e-05
7.8e-05
7.8e-05
7.8e-05
7.8e-05
7.8e-05
7.8e-05
7.8e-05
7.8e-05
7.8e-05
7.8e-05
7.8e-05
7.8e-05
7.8e-05
7.8e-05
7.8e-05
7.8e-05
7.8e-05
7.8e-05
7.8e-05
7.8e-05
7.8e-05
7.8e-05
7.8e-05
7.8e-05
7.8e-05
7.8e-05
7.8e-05
7.8e-05
7.8e-05
7.8e-05
7.8e-05
7.8e-05
7.8e-05
7.8e-05
7.8e-05
7.79841e-05
7.78853e-05
7.79753e-05
7.79998e-05
7.8e-05
7.8e-05
7.8e-05
7.8e-05
7.8e-05
7.8e-05
7.8e-05
7.8e-05
7.8e-05
7.8e-05
7.8e-05
7.8e-05
7.8e-05
7.8e-05
7.8e-05
7.8e-05
7.8e-05
7.8e-05
7.8e-05
7.8e-05
7.8e-05
7.8e-05
7.8e-05
7.8e-05
7.8e-05
7.8e-05
7.8e-05
7.8e-05
7.8e-05
7.8e-05
7.8e-05
7.8e-05
7.8e-05
7.8e-05
7.8e-05
7.8e-05
7.8e-05
7.8e-05
7.8e-05
7.8e-05
7.79944e-05
7.04961e-05
5.0585e-05
4.71793e-05
4.62391e-05
4.57038e-05
4.57093e-05
4.63082e-05
4.74508e-05
5.32488e-05
7.44399e-05
7.8e-05
7.8e-05
7.8e-05
7.8e-05
7.8e-05
7.8e-05
7.8e-05
7.8e-05
7.8e-05
7.8e-05
7.8e-05
7.8e-05
7.8e-05
7.8e-05
7.8e-05
7.8e-05
7.8e-05
7.8e-05
7.8e-05
7.8e-05
7.8e-05
7.8e-05
7.8e-05
7.8e-05
7.8e-05
7.8e-05
7.8e-05
7.8e-05
7.8e-05
7.8e-05
7.8e-05
7.8e-05
7.8e-05
7.8e-05
7.8e-05
7.8e-05
7.8e-05
7.8e-05
7.8e-05
7.8e-05
7.8e-05
7.8e-05
7.8e-05
7.8e-05
7.8e-05
7.8e-05
7.8e-05
7.8e-05
7.8e-05
7.8e-05
7.8e-05
7.8e-05
7.8e-05
7.8e-05
7.8e-05
7.8e-05
7.8e-05
7.8e-05
7.8e-05
7.8e-05
7.8e-05
7.8e-05
7.8e-05
7.8e-05
7.8e-05
7.8e-05
7.8e-05
7.8e-05
7.8e-05
7.8e-05
7.8e-05
7.8e-05
7.8e-05
7.8e-05
7.8e-05
7.8e-05
7.8e-05
7.8e-05
7.8e-05
7.8e-05
7.8e-05
7.8e-05
7.8e-05
7.8e-05
7.8e-05
7.8e-05
7.8e-05
7.8e-05
7.8e-05
7.8e-05
7.8e-05
7.8e-05
7.8e-05
7.8e-05
7.8e-05
7.8e-05
7.8e-05
7.8e-05
7.8e-05
7.8e-05
7.8e-05
7.8e-05
7.8e-05
7.8e-05
7.8e-05
7.8e-05
7.8e-05
7.8e-05
7.8e-05
7.8e-05
7.8e-05
7.77172e-05
6.94012e-05
5.85747e-05
5.24956e-05
5.22911e-05
5.85114e-05
7.03245e-05
7.79263e-05
7.8e-05
7.8e-05
7.8e-05
7.8e-05
7.8e-05
7.8e-05
7.8e-05
7.8e-05
7.8e-05
7.8e-05
7.8e-05
7.8e-05
7.8e-05
7.8e-05
7.8e-05
7.8e-05
7.8e-05
7.8e-05
7.8e-05
7.8e-05
7.8e-05
7.8e-05
7.8e-05
7.8e-05
7.8e-05
7.8e-05
7.8e-05
7.8e-05
7.8e-05
7.8e-05
7.8e-05
7.8e-05
7.8e-05
7.8e-05
7.8e-05
7.8e-05
7.8e-05
7.8e-05
7.8e-05
7.8e-05
7.8e-05
7.8e-05
7.8e-05
7.8e-05
7.8e-05
7.8e-05
7.8e-05
7.8e-05
7.8e-05
7.8e-05
7.8e-05
7.8e-05
7.8e-05
7.8e-05
7.8e-05
7.8e-05
7.8e-05
7.8e-05
7.8e-05
7.8e-05
7.8e-05
7.8e-05
7.8e-05
7.8e-05
7.8e-05
7.8e-05
7.8e-05
7.8e-05
7.8e-05
7.8e-05
7.8e-05
7.8e-05
7.8e-05
7.8e-05
7.8e-05
7.8e-05
7.8e-05
7.8e-05
7.8e-05
7.8e-05
7.8e-05
7.8e-05
7.8e-05
7.8e-05
7.8e-05
7.8e-05
7.8e-05
7.8e-05
7.8e-05
7.8e-05
7.8e-05
7.8e-05
7.8e-05
7.8e-05
7.8e-05
7.8e-05
7.8e-05
7.8e-05
7.8e-05
7.8e-05
7.8e-05
7.8e-05
7.8e-05
7.8e-05
7.8e-05
7.8e-05
7.8e-05
7.8e-05
7.8e-05
7.8e-05
7.8e-05
7.8e-05
7.8e-05
7.8e-05
7.79938e-05
7.78845e-05
7.78692e-05
7.79933e-05
7.8e-05
7.8e-05
7.8e-05
7.8e-05
7.8e-05
7.8e-05
7.8e-05
7.8e-05
7.8e-05
7.8e-05
7.8e-05
7.8e-05
7.8e-05
7.8e-05
7.8e-05
7.8e-05
7.8e-05
7.8e-05
7.8e-05
7.8e-05
7.8e-05
7.8e-05
7.8e-05
7.8e-05
7.8e-05
7.8e-05
7.8e-05
7.8e-05
7.8e-05
7.8e-05
7.8e-05
7.8e-05
7.8e-05
7.8e-05
7.8e-05
7.8e-05
7.8e-05
7.8e-05
7.8e-05
7.8e-05
7.8e-05
7.8e-05
7.8e-05
7.8e-05
7.8e-05
7.8e-05
7.8e-05
7.8e-05
7.8e-05
7.8e-05
7.8e-05
7.8e-05
7.8e-05
7.8e-05
7.8e-05
7.8e-05
7.8e-05
7.8e-05
7.8e-05
7.8e-05
7.8e-05
7.8e-05
7.8e-05
7.8e-05
7.8e-05
7.8e-05
7.8e-05
7.8e-05
7.8e-05
7.8e-05
7.8e-05
7.8e-05
7.8e-05
7.8e-05
7.8e-05
7.8e-05
7.8e-05
7.8e-05
7.8e-05
7.8e-05
7.8e-05
7.8e-05
7.8e-05
7.8e-05
7.8e-05
7.8e-05
7.8e-05
7.8e-05
7.8e-05
7.8e-05
7.8e-05
7.8e-05
7.8e-05
7.8e-05
7.8e-05
7.8e-05
7.8e-05
7.8e-05
7.8e-05
7.8e-05
7.8e-05
7.8e-05
7.8e-05
7.8e-05
7.8e-05
7.8e-05
7.8e-05
7.8e-05
7.8e-05
7.8e-05
7.8e-05
7.8e-05
7.8e-05
7.8e-05
7.8e-05
7.8e-05
7.8e-05
7.8e-05
7.8e-05
7.8e-05
7.8e-05
7.8e-05
7.8e-05
7.8e-05
7.8e-05
7.8e-05
7.8e-05
7.8e-05
7.8e-05
7.8e-05
7.8e-05
7.8e-05
7.8e-05
7.8e-05
7.8e-05
7.8e-05
7.8e-05
7.8e-05
7.8e-05
7.8e-05
7.8e-05
7.8e-05
7.8e-05
7.8e-05
7.8e-05
7.8e-05
7.8e-05
7.8e-05
7.8e-05
7.8e-05
7.8e-05
7.8e-05
7.8e-05
7.8e-05
7.8e-05
7.8e-05
7.8e-05
7.8e-05
7.8e-05
7.8e-05
7.8e-05
7.8e-05
7.8e-05
7.8e-05
7.8e-05
7.8e-05
7.8e-05
7.8e-05
7.8e-05
7.8e-05
7.8e-05
7.8e-05
7.8e-05
7.8e-05
7.8e-05
7.8e-05
7.8e-05
7.8e-05
7.8e-05
7.8e-05
7.8e-05
7.8e-05
7.8e-05
7.8e-05
7.8e-05
7.8e-05
7.8e-05
7.8e-05
7.8e-05
7.8e-05
7.8e-05
7.8e-05
7.8e-05
7.8e-05
7.8e-05
7.8e-05
7.8e-05
7.8e-05
7.8e-05
7.8e-05
7.8e-05
7.8e-05
7.8e-05
7.8e-05
7.8e-05
7.8e-05
7.8e-05
7.8e-05
7.8e-05
7.8e-05
7.8e-05
7.8e-05
7.8e-05
7.8e-05
7.8e-05
7.8e-05
7.8e-05
7.8e-05
7.8e-05
7.8e-05
7.8e-05
7.8e-05
7.8e-05
7.8e-05
7.8e-05
7.8e-05
7.8e-05
7.8e-05
7.8e-05
7.8e-05
7.8e-05
7.8e-05
7.8e-05
7.8e-05
7.8e-05
7.8e-05
7.8e-05
7.8e-05
7.8e-05
7.8e-05
7.8e-05
7.8e-05
7.8e-05
7.8e-05
7.8e-05
7.8e-05
7.8e-05
7.8e-05
7.8e-05
7.8e-05
7.8e-05
7.8e-05
7.8e-05
7.8e-05
7.8e-05
7.8e-05
7.8e-05
7.8e-05
7.8e-05
7.8e-05
7.8e-05
7.8e-05
7.8e-05
7.8e-05
7.8e-05
7.8e-05
7.8e-05
7.8e-05
7.8e-05
7.8e-05
7.8e-05
7.8e-05
7.8e-05
7.8e-05
7.8e-05
7.8e-05
7.8e-05
7.8e-05
7.8e-05
7.8e-05
7.8e-05
7.8e-05
7.8e-05
7.8e-05
7.8e-05
7.8e-05
7.8e-05
7.8e-05
7.8e-05
7.8e-05
7.8e-05
7.8e-05
7.8e-05
7.8e-05
7.8e-05
7.8e-05
7.8e-05
7.8e-05
7.8e-05
7.8e-05
7.8e-05
7.8e-05
7.8e-05
7.8e-05
7.8e-05
7.8e-05
7.8e-05
7.8e-05
7.8e-05
7.8e-05
7.8e-05
7.8e-05
7.8e-05
7.8e-05
7.8e-05
7.8e-05
7.8e-05
7.8e-05
7.8e-05
7.8e-05
7.8e-05
7.8e-05
7.8e-05
7.8e-05
7.8e-05
7.8e-05
7.8e-05
7.8e-05
7.8e-05
7.8e-05
7.8e-05
7.8e-05
7.8e-05
7.8e-05
7.8e-05
7.8e-05
7.8e-05
7.8e-05
7.8e-05
7.8e-05
7.8e-05
7.8e-05
7.8e-05
7.8e-05
7.8e-05
7.8e-05
7.8e-05
7.8e-05
7.8e-05
7.8e-05
7.8e-05
7.8e-05
7.8e-05
7.8e-05
7.8e-05
7.8e-05
7.8e-05
7.8e-05
7.8e-05
7.8e-05
7.8e-05
7.8e-05
7.8e-05
7.8e-05
7.8e-05
7.8e-05
7.8e-05
7.8e-05
7.8e-05
7.8e-05
7.8e-05
7.8e-05
7.8e-05
7.8e-05
7.8e-05
7.8e-05
7.8e-05
7.8e-05
7.8e-05
7.8e-05
7.8e-05
7.8e-05
7.8e-05
7.8e-05
7.8e-05
7.8e-05
7.8e-05
7.8e-05
7.8e-05
7.8e-05
7.8e-05
7.8e-05
7.8e-05
7.8e-05
7.8e-05
7.8e-05
7.8e-05
7.8e-05
7.8e-05
7.8e-05
7.8e-05
7.8e-05
7.8e-05
7.8e-05
7.8e-05
7.8e-05
7.8e-05
7.8e-05
7.8e-05
7.8e-05
7.8e-05
7.8e-05
7.8e-05
7.8e-05
7.8e-05
7.8e-05
7.8e-05
7.8e-05
7.8e-05
7.8e-05
7.8e-05
7.8e-05
7.8e-05
7.8e-05
7.8e-05
7.8e-05
7.8e-05
7.8e-05
7.8e-05
7.8e-05
7.8e-05
7.8e-05
7.8e-05
7.8e-05
7.8e-05
7.8e-05
7.8e-05
7.8e-05
7.8e-05
7.8e-05
7.8e-05
7.8e-05
7.8e-05
7.8e-05
7.8e-05
7.8e-05
7.8e-05
7.8e-05
7.8e-05
7.8e-05
7.8e-05
7.8e-05
7.8e-05
7.8e-05
7.8e-05
7.8e-05
7.8e-05
7.8e-05
7.8e-05
7.8e-05
7.8e-05
7.8e-05
7.8e-05
7.8e-05
7.8e-05
7.8e-05
7.8e-05
7.8e-05
7.8e-05
7.8e-05
7.8e-05
7.8e-05
7.8e-05
7.8e-05
7.8e-05
7.8e-05
7.8e-05
7.8e-05
7.8e-05
7.8e-05
7.8e-05
7.8e-05
7.8e-05
7.8e-05
7.8e-05
7.8e-05
7.8e-05
7.8e-05
7.8e-05
7.8e-05
7.8e-05
7.8e-05
7.8e-05
7.8e-05
7.8e-05
7.8e-05
7.8e-05
7.8e-05
7.8e-05
7.8e-05
7.8e-05
7.8e-05
7.8e-05
7.8e-05
7.8e-05
7.8e-05
7.8e-05
7.8e-05
7.8e-05
7.8e-05
7.8e-05
7.8e-05
7.8e-05
7.8e-05
7.8e-05
7.8e-05
7.8e-05
7.8e-05
7.8e-05
7.8e-05
7.8e-05
7.8e-05
7.8e-05
7.8e-05
7.8e-05
7.8e-05
7.8e-05
7.8e-05
7.8e-05
7.8e-05
7.8e-05
7.8e-05
7.8e-05
7.8e-05
7.8e-05
7.8e-05
7.8e-05
7.8e-05
7.8e-05
7.8e-05
7.8e-05
7.8e-05
7.8e-05
7.8e-05
7.8e-05
7.8e-05
7.8e-05
7.8e-05
7.8e-05
7.8e-05
7.8e-05
7.8e-05
7.8e-05
7.8e-05
7.8e-05
7.8e-05
7.8e-05
7.8e-05
7.8e-05
7.8e-05
7.8e-05
7.8e-05
7.8e-05
7.8e-05
7.8e-05
7.8e-05
7.8e-05
7.8e-05
7.8e-05
7.8e-05
7.8e-05
7.8e-05
7.8e-05
7.8e-05
7.8e-05
7.8e-05
7.8e-05
7.8e-05
7.8e-05
7.8e-05
7.8e-05
7.8e-05
7.8e-05
7.8e-05
7.8e-05
7.8e-05
7.8e-05
7.8e-05
7.8e-05
7.8e-05
7.8e-05
7.8e-05
7.8e-05
7.8e-05
7.8e-05
7.8e-05
7.8e-05
7.8e-05
7.8e-05
7.8e-05
7.8e-05
7.8e-05
7.8e-05
7.8e-05
7.8e-05
7.8e-05
7.8e-05
7.8e-05
7.8e-05
7.8e-05
7.8e-05
7.8e-05
7.8e-05
7.8e-05
7.8e-05
7.8e-05
7.8e-05
7.8e-05
7.8e-05
7.8e-05
7.8e-05
7.8e-05
7.8e-05
7.8e-05
7.8e-05
7.8e-05
7.8e-05
7.8e-05
7.8e-05
7.8e-05
7.8e-05
7.8e-05
7.8e-05
7.8e-05
7.8e-05
7.8e-05
7.8e-05
7.8e-05
7.8e-05
7.8e-05
7.8e-05
7.8e-05
7.8e-05
7.8e-05
7.8e-05
7.8e-05
7.8e-05
7.8e-05
7.8e-05
7.8e-05
7.8e-05
7.8e-05
7.8e-05
7.8e-05
7.8e-05
7.8e-05
7.8e-05
7.8e-05
7.8e-05
7.8e-05
7.8e-05
7.8e-05
7.8e-05
7.8e-05
7.8e-05
7.8e-05
7.8e-05
7.8e-05
7.8e-05
7.8e-05
7.8e-05
7.8e-05
7.8e-05
7.8e-05
7.8e-05
7.8e-05
7.8e-05
7.8e-05
7.8e-05
7.8e-05
7.8e-05
7.8e-05
7.8e-05
7.8e-05
7.8e-05
7.8e-05
7.8e-05
7.8e-05
7.8e-05
7.8e-05
7.8e-05
7.8e-05
7.8e-05
7.8e-05
7.8e-05
7.8e-05
7.8e-05
7.8e-05
7.8e-05
7.8e-05
7.8e-05
7.8e-05
7.8e-05
7.8e-05
7.8e-05
7.8e-05
7.8e-05
7.8e-05
7.8e-05
7.8e-05
7.8e-05
7.8e-05
7.8e-05
7.8e-05
7.8e-05
7.8e-05
7.8e-05
7.8e-05
7.8e-05
7.8e-05
7.8e-05
7.8e-05
7.8e-05
7.8e-05
7.8e-05
7.8e-05
7.8e-05
7.8e-05
7.8e-05
7.8e-05
7.8e-05
7.8e-05
7.8e-05
7.8e-05
7.8e-05
7.8e-05
7.8e-05
7.8e-05
7.8e-05
7.8e-05
7.8e-05
7.8e-05
7.8e-05
7.8e-05
7.8e-05
7.8e-05
7.8e-05
7.8e-05
7.8e-05
7.8e-05
7.8e-05
7.8e-05
7.8e-05
7.8e-05
7.8e-05
7.8e-05
7.8e-05
7.8e-05
7.8e-05
7.8e-05
7.8e-05
7.8e-05
7.8e-05
7.8e-05
7.8e-05
7.8e-05
7.8e-05
7.8e-05
7.8e-05
7.8e-05
7.8e-05
7.8e-05
7.8e-05
7.8e-05
7.8e-05
7.8e-05
7.8e-05
7.8e-05
7.8e-05
7.8e-05
7.8e-05
7.8e-05
7.8e-05
7.8e-05
7.8e-05
7.8e-05
7.8e-05
7.8e-05
7.8e-05
7.8e-05
7.8e-05
7.8e-05
7.8e-05
7.8e-05
7.8e-05
7.8e-05
7.8e-05
7.8e-05
7.8e-05
7.8e-05
7.8e-05
7.8e-05
7.8e-05
7.8e-05
7.8e-05
7.8e-05
7.8e-05
7.8e-05
7.8e-05
7.8e-05
7.8e-05
7.8e-05
7.8e-05
7.8e-05
7.8e-05
7.8e-05
7.8e-05
7.8e-05
7.8e-05
7.8e-05
7.8e-05
7.8e-05
7.8e-05
7.8e-05
7.8e-05
7.8e-05
7.8e-05
7.8e-05
7.8e-05
7.8e-05
7.8e-05
7.8e-05
7.8e-05
7.8e-05
7.8e-05
7.8e-05
7.8e-05
7.8e-05
7.8e-05
7.8e-05
7.8e-05
7.8e-05
7.8e-05
7.8e-05
7.8e-05
7.8e-05
7.8e-05
7.8e-05
7.8e-05
7.8e-05
7.8e-05
7.8e-05
7.8e-05
7.8e-05
7.8e-05
7.8e-05
7.8e-05
7.8e-05
7.8e-05
7.8e-05
7.8e-05
7.8e-05
7.8e-05
7.8e-05
7.8e-05
7.8e-05
7.8e-05
7.8e-05
7.8e-05
7.8e-05
7.8e-05
7.8e-05
7.8e-05
7.8e-05
7.8e-05
7.8e-05
7.8e-05
7.8e-05
7.8e-05
7.8e-05
7.8e-05
7.8e-05
7.8e-05
7.8e-05
7.8e-05
7.8e-05
7.8e-05
7.8e-05
7.8e-05
7.8e-05
7.8e-05
7.8e-05
7.8e-05
7.8e-05
7.8e-05
7.8e-05
7.8e-05
7.8e-05
7.8e-05
7.8e-05
7.8e-05
7.8e-05
7.8e-05
7.8e-05
7.8e-05
7.8e-05
7.8e-05
7.8e-05
7.8e-05
7.8e-05
7.8e-05
7.8e-05
7.8e-05
7.8e-05
7.8e-05
7.8e-05
7.8e-05
7.8e-05
7.8e-05
7.8e-05
7.8e-05
7.8e-05
7.8e-05
7.8e-05
7.8e-05
7.8e-05
7.8e-05
7.8e-05
7.8e-05
7.8e-05
7.8e-05
7.8e-05
7.8e-05
7.8e-05
7.8e-05
7.8e-05
7.8e-05
7.8e-05
7.8e-05
7.8e-05
7.8e-05
7.8e-05
7.8e-05
7.8e-05
7.8e-05
7.8e-05
7.8e-05
7.8e-05
7.8e-05
7.8e-05
7.8e-05
7.8e-05
7.8e-05
7.8e-05