/*--------------------------------*- C++ -*----------------------------------*\
| =========                 |                                                 |
| \\      /  F ield         | OpenFOAM: The Open Source CFD Toolbox           |
|  \\    /   O peration     | Version:  2406                                  |
|   \\  /    A nd           | Website:  www.openfoam.com                      |
|    \\/     M anipulation  |                                                 |
\*---------------------------------------------------------------------------*/
FoamFile
{
    version     2.0;
    format      ascii;
    arch        "LSB;label=32;scalar=64";
    class       volScalarField;
    location    "4.1";
    object      C;
}
// * * * * * * * * * * * * * * * * * * * * * * * * * * * * * * * * * * * * * //

dimensions      [1 -3 0 0 0 0 0];

internalField   nonuniform List<scalar> 
14400
(
0.428274
0.421106
0.411133
0.401028
0.392394
0.3862
0.383039
0.383265
0.387054
0.394425
0.405244
0.419191
0.43568
0.453679
0.471119
0.481772
0.478693
0.465944
0.450303
0.435975
0.424614
0.417143
0.414187
0.416226
0.423667
0.43689
0.45626
0.482139
0.514878
0.554795
0.602102
0.656676
0.716859
0.769303
0.804975
0.831593
0.855006
0.875603
0.893686
0.909491
0.923204
0.934972
0.944911
0.953113
0.959651
0.964582
0.967946
0.969774
0.970083
0.968879
0.96616
0.96191
0.956104
0.948705
0.939663
0.928914
0.916373
0.901941
0.885489
0.866859
0.845854
0.822225
0.79566
0.765335
0.719491
0.656144
0.595605
0.541467
0.494426
0.454405
0.421091
0.394111
0.3731
0.35773
0.347724
0.342855
0.342949
0.34788
0.35756
0.371921
0.39089
0.414341
0.441996
0.473177
0.50587
0.529312
0.540633
0.545664
0.545032
0.53841
0.521044
0.494943
0.468991
0.445635
0.425736
0.409606
0.397282
0.388612
0.383281
0.380801
0.3805
0.381526
0.382909
0.38375
0.383599
0.382948
0.382734
0.383961
0.387519
0.394123
0.404308
0.418449
0.436764
0.459293
0.485812
0.515545
0.546102
0.567398
0.577635
0.582484
0.445835
0.435896
0.423776
0.412249
0.402674
0.395869
0.392353
0.392447
0.396312
0.403961
0.415263
0.429911
0.447335
0.466474
0.48487
0.494146
0.492143
0.479107
0.462162
0.446787
0.434635
0.426585
0.423227
0.425024
0.432375
0.445654
0.465221
0.491431
0.524623
0.565087
0.612972
0.668005
0.728153
0.776403
0.808664
0.834798
0.857822
0.878116
0.895963
0.911583
0.92515
0.936801
0.946647
0.954777
0.961259
0.966148
0.969483
0.971293
0.971595
0.970395
0.96769
0.963465
0.957697
0.950348
0.941371
0.930704
0.918266
0.903961
0.887667
0.869234
0.848476
0.825162
0.798997
0.769587
0.727828
0.667684
0.606284
0.551272
0.503518
0.462905
0.4291
0.401728
0.380423
0.364854
0.354743
0.349863
0.350041
0.35515
0.365104
0.379837
0.399283
0.42332
0.451655
0.483442
0.515487
0.53628
0.54651
0.551326
0.550929
0.54522
0.531297
0.506697
0.480012
0.45599
0.43561
0.419178
0.406745
0.398176
0.39317
0.39125
0.391733
0.393686
0.395947
0.397239
0.396624
0.395086
0.393937
0.394376
0.397369
0.403641
0.413718
0.427956
0.446556
0.469548
0.496707
0.527108
0.555917
0.573614
0.582828
0.587332
0.473823
0.463241
0.448181
0.434334
0.4231
0.415175
0.410989
0.410832
0.414852
0.423049
0.435282
0.451259
0.470393
0.49143
0.509032
0.514727
0.513933
0.503753
0.485383
0.468261
0.454656
0.445506
0.441373
0.442698
0.449873
0.463266
0.483228
0.510099
0.544195
0.585749
0.634756
0.69034
0.747445
0.787617
0.816014
0.841112
0.863369
0.883076
0.900468
0.915728
0.92901
0.940434
0.9501
0.958088
0.96446
0.969267
0.972545
0.97432
0.974609
0.973416
0.970739
0.966565
0.960869
0.953619
0.94477
0.934263
0.922026
0.907969
0.891983
0.873933
0.853656
0.83095
0.805562
0.777174
0.74184
0.689318
0.627056
0.570746
0.521733
0.479991
0.445226
0.417078
0.395185
0.379219
0.368899
0.363997
0.36434
0.369803
0.3803
0.395766
0.416138
0.441294
0.470917
0.503902
0.532721
0.5487
0.557747
0.562201
0.562136
0.557566
0.547979
0.528508
0.50152
0.476542
0.45532
0.43832
0.425675
0.417298
0.412935
0.412143
0.414248
0.418206
0.422522
0.425131
0.423169
0.419557
0.416394
0.415202
0.417058
0.422674
0.43254
0.446965
0.466101
0.489895
0.517975
0.548658
0.571837
0.584731
0.592726
0.596685
0.504582
0.499013
0.483018
0.466769
0.45348
0.444075
0.438958
0.438452
0.442712
0.451711
0.465249
0.483022
0.50413
0.525949
0.537265
0.540522
0.540409
0.535515
0.519213
0.500154
0.484643
0.473986
0.468753
0.469394
0.476311
0.489881
0.510435
0.538285
0.573713
0.616851
0.66749
0.72366
0.768992
0.800175
0.826572
0.850268
0.871464
0.890353
0.907102
0.921853
0.934728
0.945826
0.955232
0.963014
0.969227
0.973914
0.977109
0.978834
0.979103
0.977922
0.975286
0.971185
0.965596
0.95849
0.949826
0.939552
0.927605
0.913906
0.898362
0.88086
0.861265
0.839418
0.815129
0.788172
0.758137
0.716337
0.657052
0.599836
0.549206
0.505856
0.469681
0.440382
0.417614
0.401055
0.390421
0.385486
0.386076
0.392065
0.403363
0.419897
0.441583
0.46824
0.499245
0.532063
0.553879
0.565762
0.573578
0.577593
0.57785
0.574436
0.567536
0.555284
0.532656
0.507037
0.484803
0.467009
0.454053
0.44594
0.442501
0.443368
0.447961
0.45512
0.462985
0.468818
0.463576
0.456394
0.450016
0.446325
0.446509
0.451182
0.460757
0.475453
0.495327
0.520052
0.548662
0.574729
0.590158
0.600014
0.606661
0.609996
0.536858
0.535497
0.526695
0.508967
0.493564
0.482518
0.476243
0.475301
0.479897
0.489941
0.505005
0.524846
0.54736
0.56156
0.566863
0.569654
0.570211
0.568625
0.560571
0.541766
0.524469
0.512121
0.505539
0.505301
0.51188
0.525692
0.547029
0.576127
0.61321
0.658037
0.709272
0.756027
0.788951
0.815517
0.839832
0.861922
0.881868
0.89977
0.915733
0.929854
0.942221
0.95291
0.961988
0.969509
0.975519
0.980054
0.983142
0.984803
0.985048
0.983881
0.981299
0.977292
0.971841
0.964919
0.956492
0.946515
0.934936
0.921689
0.9067
0.889879
0.871126
0.850328
0.827362
0.802103
0.774453
0.742631
0.696665
0.638811
0.586174
0.540773
0.502767
0.47196
0.448039
0.430695
0.419647
0.414666
0.415581
0.422263
0.434608
0.452506
0.475815
0.504244
0.53647
0.562851
0.577018
0.58661
0.59321
0.596744
0.597233
0.594791
0.589648
0.582219
0.568844
0.546459
0.523808
0.505102
0.491775
0.483953
0.481634
0.484494
0.492224
0.503062
0.513142
0.516327
0.513664
0.504233
0.49416
0.487317
0.48549
0.489017
0.498267
0.513285
0.533991
0.559026
0.584384
0.600596
0.610621
0.618507
0.623907
0.626643
0.570437
0.569664
0.567663
0.558777
0.542546
0.530305
0.522645
0.521194
0.526226
0.537566
0.55378
0.574639
0.588333
0.594554
0.598433
0.60102
0.602154
0.601888
0.600387
0.591556
0.573718
0.559938
0.551871
0.55058
0.556719
0.570858
0.593162
0.623635
0.662467
0.707839
0.751564
0.783763
0.80919
0.833112
0.855316
0.87572
0.894314
0.911126
0.926206
0.939609
0.951392
0.961606
0.9703
0.977515
0.983286
0.987641
0.990604
0.992188
0.992404
0.991255
0.988738
0.984843
0.979555
0.972853
0.964706
0.955081
0.943934
0.931215
0.916868
0.90083
0.883033
0.863407
0.841887
0.818425
0.79301
0.765696
0.732731
0.685818
0.63244
0.584945
0.544805
0.512194
0.486866
0.468559
0.457
0.45196
0.453269
0.4608
0.474417
0.493892
0.518852
0.548384
0.576742
0.592785
0.602667
0.610451
0.615908
0.618939
0.619549
0.617845
0.614044
0.608495
0.601657
0.589478
0.571158
0.551972
0.538452
0.530876
0.529753
0.534331
0.544731
0.552982
0.556796
0.556829
0.557313
0.554071
0.546532
0.536995
0.533423
0.535722
0.544682
0.559845
0.58094
0.601657
0.61623
0.625325
0.633218
0.639486
0.643817
0.646026
0.604789
0.604411
0.603779
0.602502
0.596148
0.586233
0.577186
0.575361
0.580783
0.593511
0.608137
0.618807
0.624103
0.627965
0.631293
0.633838
0.635496
0.636317
0.6365
0.636036
0.629341
0.616672
0.607537
0.605142
0.610686
0.625297
0.648755
0.680185
0.719805
0.756372
0.785067
0.808362
0.830932
0.852423
0.872601
0.891329
0.908541
0.924215
0.938356
0.950985
0.96213
0.971822
0.980091
0.986964
0.992468
0.996622
0.999443
1.00094
1.00113
0.999997
0.997554
0.993787
0.988685
0.98223
0.9744
0.965168
0.954503
0.942369
0.928728
0.91354
0.896768
0.878379
0.858354
0.8367
0.813466
0.788768
0.762813
0.730703
0.686509
0.638296
0.596017
0.561462
0.534525
0.515111
0.502957
0.497837
0.499585
0.508088
0.523171
0.544276
0.570207
0.597346
0.613522
0.622621
0.630413
0.636618
0.641032
0.643554
0.64418
0.642996
0.640188
0.636045
0.630953
0.625394
0.616601
0.604728
0.592431
0.584982
0.585055
0.589259
0.593045
0.594306
0.593582
0.593525
0.594128
0.595418
0.594778
0.591755
0.588519
0.589572
0.59835
0.612255
0.625969
0.636684
0.644161
0.651235
0.657439
0.662401
0.66585
0.667616
0.639519
0.63941
0.639297
0.63939
0.639903
0.63776
0.635154
0.634954
0.639249
0.645954
0.652146
0.655378
0.658633
0.66191
0.664937
0.667544
0.669673
0.671384
0.67286
0.674405
0.676242
0.674118
0.670414
0.667733
0.672576
0.687872
0.712456
0.742075
0.769684
0.792641
0.813171
0.833684
0.853752
0.873047
0.891334
0.908453
0.924306
0.938836
0.952018
0.963845
0.974322
0.983461
0.991276
0.997784
1.003
1.00694
1.0096
1.01101
1.01116
1.01005
1.00769
1.00407
0.999167
0.992982
0.985496
0.976689
0.966541
0.95503
0.942134
0.927836
0.91212
0.894986
0.876449
0.856554
0.835388
0.813094
0.789889
0.766074
0.737142
0.699173
0.656057
0.619957
0.591319
0.570758
0.557959
0.552725
0.554878
0.564338
0.580939
0.602949
0.625164
0.639249
0.646824
0.653746
0.659748
0.664575
0.668047
0.670067
0.670619
0.669771
0.667669
0.664542
0.660697
0.65651
0.65243
0.647706
0.641562
0.636586
0.634565
0.633974
0.632062
0.630427
0.629634
0.629561
0.630185
0.631553
0.633809
0.63642
0.637846
0.64093
0.647184
0.654723
0.660972
0.666638
0.67247
0.678017
0.682903
0.686828
0.689567
0.690973
0.674357
0.674416
0.674607
0.675076
0.676034
0.677766
0.679942
0.68168
0.684015
0.68585
0.687762
0.690288
0.693142
0.696103
0.699001
0.70173
0.704268
0.706685
0.70915
0.711936
0.71543
0.720181
0.724118
0.728484
0.736972
0.751302
0.769558
0.788522
0.80571
0.823227
0.841288
0.859449
0.877344
0.894681
0.911236
0.926844
0.941393
0.954806
0.967035
0.978055
0.987852
0.996423
1.00377
1.0099
1.01481
1.01852
1.02102
1.02233
1.02245
1.02137
1.01909
1.01562
1.01093
1.00504
0.997911
0.98955
0.979941
0.969075
0.956944
0.943547
0.92889
0.912995
0.895902
0.877681
0.858438
0.83833
0.817573
0.796451
0.775317
0.751553
0.721705
0.686782
0.656904
0.635546
0.622126
0.616728
0.619036
0.628782
0.645909
0.660205
0.669993
0.675341
0.680722
0.685792
0.690258
0.693886
0.696514
0.698046
0.69846
0.697798
0.696173
0.693758
0.690782
0.687513
0.684236
0.681186
0.678532
0.67574
0.672465
0.669402
0.667168
0.665706
0.664965
0.664899
0.6655
0.666797
0.66886
0.671766
0.675607
0.6798
0.683661
0.687499
0.691812
0.696417
0.701063
0.705459
0.709329
0.712441
0.714617
0.715735
0.709137
0.709288
0.709638
0.710272
0.711296
0.712793
0.714674
0.716722
0.71852
0.720372
0.722453
0.724869
0.727542
0.730361
0.733234
0.736106
0.738983
0.741939
0.745121
0.748756
0.753149
0.758681
0.765775
0.774864
0.7853
0.796941
0.809429
0.82297
0.837708
0.853269
0.869306
0.88548
0.901495
0.917097
0.932083
0.946295
0.959616
0.971958
0.983262
0.993488
1.00261
1.01061
1.01748
1.02322
1.02783
1.0313
1.03364
1.03485
1.03493
1.03388
1.0317
1.02838
1.02392
1.01831
1.01156
1.00366
0.9946
0.984385
0.97302
0.960518
0.946899
0.932202
0.916484
0.899828
0.882352
0.864215
0.845623
0.826839
0.808183
0.79004
0.771915
0.750506
0.727852
0.707608
0.693768
0.688163
0.689841
0.695336
0.701392
0.705367
0.708001
0.711334
0.714929
0.718444
0.721604
0.724198
0.726075
0.727145
0.727375
0.72679
0.725468
0.723536
0.721159
0.718523
0.715815
0.713181
0.710678
0.70818
0.705637
0.703319
0.701501
0.700263
0.69962
0.699571
0.700118
0.701277
0.703069
0.705498
0.708507
0.711836
0.715221
0.718693
0.722363
0.726153
0.729907
0.733426
0.736512
0.738991
0.740724
0.741615
0.743765
0.743963
0.744385
0.745077
0.746087
0.747433
0.749064
0.750865
0.752709
0.754663
0.756809
0.759193
0.761795
0.764567
0.767466
0.770476
0.773619
0.776965
0.78064
0.78482
0.789727
0.795615
0.802722
0.811198
0.820882
0.831542
0.843107
0.855569
0.868881
0.882836
0.897185
0.911672
0.926057
0.940128
0.953704
0.966639
0.978817
0.990148
1.00057
1.01002
1.01849
1.02592
1.03233
1.03768
1.04198
1.04521
1.04739
1.0485
1.04855
1.04752
1.04544
1.04228
1.03804
1.03274
1.02637
1.01892
1.01041
1.00084
0.990235
0.978604
0.965986
0.95243
0.938003
0.922796
0.906928
0.890554
0.873866
0.8571
0.840533
0.824488
0.809325
0.795459
0.781661
0.768056
0.756962
0.750094
0.747176
0.746011
0.744371
0.744241
0.745282
0.747062
0.749218
0.75145
0.753516
0.755227
0.756445
0.757084
0.757105
0.756518
0.755373
0.75376
0.751794
0.749605
0.747321
0.745042
0.742821
0.740657
0.738585
0.736736
0.735255
0.734224
0.733682
0.733645
0.734124
0.735122
0.736639
0.73865
0.741086
0.743811
0.746694
0.749691
0.752791
0.755927
0.758985
0.761825
0.764303
0.766288
0.767673
0.768385
0.778195
0.778413
0.778862
0.779564
0.78054
0.78179
0.783283
0.784964
0.786787
0.788764
0.790928
0.7933
0.795878
0.798645
0.801589
0.804714
0.80805
0.811664
0.815654
0.820155
0.825325
0.831328
0.838302
0.846317
0.855317
0.865199
0.875886
0.887319
0.89941
0.912008
0.924926
0.937966
0.950934
0.963653
0.975965
0.987738
0.998863
1.00925
1.01883
1.02756
1.03538
1.04228
1.04822
1.05319
1.05719
1.06019
1.0622
1.06322
1.06323
1.06224
1.06024
1.05724
1.05324
1.04824
1.04224
1.03525
1.02728
1.01835
1.00847
0.997677
0.986012
0.97353
0.960303
0.946423
0.932009
0.917206
0.902187
0.887161
0.872362
0.858052
0.844509
0.831998
0.820697
0.810902
0.802458
0.795303
0.789571
0.78554
0.783083
0.781944
0.781825
0.782416
0.783431
0.784622
0.785783
0.786748
0.787394
0.78764
0.787444
0.786802
0.785747
0.784336
0.782651
0.780783
0.778822
0.776845
0.774906
0.773044
0.771309
0.769784
0.768558
0.767696
0.767238
0.767205
0.767609
0.76845
0.769716
0.771377
0.773376
0.775629
0.778051
0.780585
0.783183
0.785778
0.788281
0.790586
0.792586
0.794184
0.795296
0.795867
0.812408
0.812632
0.813085
0.813778
0.814719
0.815903
0.817313
0.818922
0.82071
0.822678
0.824838
0.827201
0.829771
0.832546
0.835531
0.838739
0.842205
0.845984
0.850157
0.854822
0.86009
0.866069
0.872842
0.88045
0.888871
0.898049
0.90792
0.918411
0.929432
0.940859
0.952545
0.964332
0.976061
0.987584
0.998766
1.00949
1.01965
1.02916
1.03796
1.04599
1.05321
1.05958
1.06508
1.06969
1.07338
1.07616
1.07801
1.07893
1.07891
1.07795
1.07605
1.07322
1.06944
1.06474
1.05911
1.05256
1.04512
1.03679
1.02762
1.01762
1.00685
0.995374
0.983254
0.970585
0.95748
0.944072
0.930517
0.916994
0.903701
0.890852
0.87866
0.867327
0.857018
0.847876
0.839914
0.833142
0.827622
0.823423
0.820479
0.818626
0.817657
0.817344
0.817467
0.817825
0.818245
0.818587
0.818743
0.818637
0.818227
0.817501
0.816475
0.815187
0.813691
0.812053
0.810339
0.808609
0.806915
0.805303
0.803822
0.802534
0.801498
0.800764
0.800368
0.800329
0.800658
0.801352
0.802397
0.803766
0.805412
0.807277
0.809296
0.811415
0.813578
0.815723
0.817774
0.819652
0.821273
0.822564
0.823461
0.823921
0.846398
0.84662
0.847068
0.847745
0.848654
0.84979
0.851144
0.852702
0.854454
0.8564
0.858544
0.860895
0.863458
0.866239
0.869249
0.872507
0.876045
0.879912
0.884168
0.888887
0.894145
0.900014
0.906548
0.91377
0.921669
0.930208
0.939332
0.948973
0.959048
0.969452
0.980063
0.990755
1.00139
1.01186
1.02203
1.0318
1.04107
1.04978
1.05786
1.06524
1.07188
1.07776
1.08283
1.08709
1.0905
1.09306
1.09476
1.09558
1.09553
1.09461
1.09281
1.09013
1.08657
1.08216
1.07689
1.07077
1.06383
1.05609
1.04758
1.03834
1.02841
1.01786
1.00675
0.995184
0.983254
0.971085
0.958814
0.946597
0.934598
0.922992
0.911951
0.901633
0.892171
0.88367
0.876179
0.86973
0.864351
0.860053
0.856782
0.854425
0.852833
0.851838
0.851268
0.850964
0.850786
0.850613
0.850353
0.849938
0.849327
0.848501
0.847466
0.846244
0.844874
0.8434
0.841872
0.840338
0.838843
0.83743
0.836144
0.83503
0.834135
0.833495
0.83314
0.833086
0.833341
0.833902
0.834756
0.835878
0.837231
0.838769
0.840443
0.842201
0.843992
0.84576
0.847442
0.848974
0.850291
0.851337
0.852062
0.852434
0.880165
0.880383
0.880821
0.881481
0.882361
0.883459
0.88477
0.886286
0.888004
0.889922
0.892045
0.894377
0.896927
0.899702
0.902718
0.905994
0.909558
0.91345
0.917717
0.922412
0.927589
0.933295
0.939565
0.946412
0.953827
0.961781
0.970226
0.979102
0.988335
0.997835
1.0075
1.01723
1.02691
1.03642
1.04569
1.0546
1.06307
1.07104
1.07844
1.08522
1.09133
1.09674
1.10141
1.10533
1.10847
1.11082
1.11237
1.11311
1.11303
1.11214
1.11043
1.10791
1.10457
1.10043
1.09551
1.0898
1.08335
1.07616
1.06828
1.05974
1.05059
1.04089
1.03072
1.02014
1.00927
0.998198
0.987059
0.97598
0.965102
0.954569
0.944519
0.935081
0.926364
0.918453
0.911403
0.905246
0.9
0.895656
0.89217
0.88946
0.887413
0.885905
0.884802
0.883979
0.88332
0.882727
0.882119
0.881437
0.88064
0.87971
0.878643
0.877451
0.87616
0.874801
0.87341
0.872027
0.870688
0.869431
0.868292
0.867309
0.866516
0.865942
0.86561
0.865533
0.865717
0.866159
0.866847
0.867758
0.868863
0.870126
0.871504
0.872954
0.87443
0.875882
0.877259
0.878509
0.879581
0.88043
0.881018
0.881318
0.913713
0.913927
0.914354
0.914995
0.91585
0.916916
0.91819
0.91967
0.921354
0.923241
0.925335
0.927642
0.930169
0.932926
0.935927
0.939191
0.942743
0.946613
0.950837
0.955455
0.960502
0.966012
0.972004
0.978486
0.985447
0.992862
1.00069
1.00887
1.01735
1.02605
1.03488
1.04375
1.05257
1.06125
1.0697
1.07783
1.08558
1.09287
1.09965
1.10587
1.11148
1.11645
1.12074
1.12435
1.12723
1.12938
1.13079
1.13145
1.13135
1.13049
1.12887
1.1265
1.12337
1.1195
1.1149
1.10959
1.10359
1.09693
1.08963
1.08175
1.07332
1.06441
1.05508
1.0454
1.03547
1.02538
1.01524
1.00516
0.995262
0.985662
0.976475
0.967808
0.959751
0.952376
0.945733
0.939852
0.934745
0.930401
0.926784
0.92383
0.921456
0.919566
0.918057
0.916828
0.915788
0.914854
0.913959
0.913049
0.912088
0.911055
0.909943
0.908758
0.907513
0.906232
0.904942
0.903672
0.902452
0.901313
0.900285
0.899398
0.898677
0.898147
0.897825
0.89772
0.897836
0.898171
0.898713
0.899444
0.900339
0.901367
0.902494
0.903682
0.904891
0.906079
0.907204
0.908223
0.909094
0.909783
0.91026
0.910504
0.947049
0.947256
0.947672
0.948296
0.949127
0.950164
0.951406
0.952851
0.954499
0.956352
0.958413
0.960687
0.963181
0.965906
0.968874
0.972101
0.975609
0.979421
0.983565
0.988067
0.992954
0.998246
1.00395
1.01008
1.01661
1.02353
1.03079
1.03835
1.04616
1.05414
1.06222
1.07033
1.07838
1.08631
1.09402
1.10145
1.10853
1.11521
1.12142
1.12712
1.13227
1.13683
1.14077
1.14408
1.14672
1.14869
1.14997
1.15055
1.15043
1.1496
1.14807
1.14584
1.14291
1.13929
1.13501
1.13007
1.1245
1.11833
1.11158
1.1043
1.09654
1.08835
1.07978
1.07092
1.06184
1.05262
1.04336
1.03416
1.02512
1.01634
1.00791
0.999925
0.992457
0.985567
0.979301
0.973684
0.968727
0.964419
0.960733
0.95762
0.955015
0.952845
0.95103
0.94949
0.94815
0.946944
0.945812
0.944712
0.943608
0.94248
0.941318
0.940123
0.938903
0.937673
0.936453
0.935266
0.934134
0.933083
0.932137
0.931319
0.930649
0.930145
0.929821
0.929684
0.929737
0.929976
0.930391
0.930966
0.93168
0.932509
0.933422
0.934388
0.935372
0.93634
0.937255
0.938083
0.938791
0.939349
0.939735
0.939933
0.980176
0.980378
0.980782
0.981389
0.982197
0.983207
0.984417
0.985828
0.98744
0.989256
0.991278
0.993511
0.995963
0.998642
1.00156
1.00473
1.00817
1.0119
1.01593
1.02029
1.025
1.03006
1.03549
1.04127
1.0474
1.05385
1.0606
1.06759
1.07478
1.08212
1.08953
1.09696
1.10433
1.11157
1.11862
1.12542
1.1319
1.13801
1.1437
1.14892
1.15364
1.15783
1.16144
1.16447
1.16689
1.16869
1.16984
1.17035
1.17021
1.16942
1.16797
1.16587
1.16313
1.15976
1.15577
1.15118
1.14601
1.14029
1.13406
1.12734
1.12019
1.11265
1.10478
1.09666
1.08834
1.0799
1.07143
1.06301
1.05472
1.04666
1.03891
1.03152
1.02458
1.01814
1.01222
1.00686
1.00206
0.997817
0.99411
0.9909
0.988139
0.985769
0.983728
0.981951
0.98038
0.978957
0.977636
0.976377
0.975151
0.973938
0.972726
0.971513
0.970302
0.969104
0.967932
0.966804
0.965736
0.964749
0.963861
0.963091
0.962454
0.961964
0.96163
0.961459
0.961452
0.961604
0.961907
0.962348
0.962908
0.963567
0.964298
0.965076
0.96587
0.966653
0.967394
0.968063
0.968636
0.969087
0.969399
0.969559
1.0131
1.0133
1.01369
1.01428
1.01507
1.01605
1.01723
1.0186
1.02018
1.02195
1.02393
1.02612
1.02852
1.03114
1.03399
1.03709
1.04044
1.04407
1.04797
1.05218
1.05669
1.06152
1.06666
1.07211
1.07786
1.08388
1.09015
1.09663
1.10327
1.11002
1.11683
1.12364
1.13039
1.13703
1.14349
1.14971
1.15564
1.16123
1.16644
1.17123
1.17556
1.17939
1.1827
1.18548
1.18769
1.18932
1.19036
1.19081
1.19065
1.18989
1.18852
1.18655
1.18399
1.18084
1.17713
1.17287
1.16807
1.16278
1.15701
1.15081
1.14422
1.13728
1.13005
1.12258
1.11495
1.10721
1.09944
1.09171
1.0841
1.07668
1.06952
1.06268
1.05622
1.05017
1.04458
1.03947
1.03483
1.03068
1.02699
1.02373
1.02087
1.01837
1.01616
1.01421
1.01246
1.01087
1.0094
1.00801
1.00668
1.00539
1.00413
1.0029
1.00169
1.00051
0.999369
0.99828
0.997258
0.996316
0.995468
0.99473
0.994112
0.993625
0.993277
0.993071
0.993007
0.993082
0.993287
0.993611
0.994038
0.994551
0.995128
0.995746
0.996381
0.997008
0.997603
0.998141
0.998601
0.998965
0.999216
0.999344
1.04583
1.04602
1.0464
1.04698
1.04774
1.04869
1.04984
1.05118
1.05272
1.05445
1.05637
1.05851
1.06085
1.06341
1.06618
1.0692
1.07245
1.07595
1.07972
1.08375
1.08807
1.09266
1.09752
1.10266
1.10805
1.11367
1.1195
1.1255
1.13164
1.13786
1.14413
1.15039
1.15658
1.16266
1.16858
1.17428
1.17971
1.18484
1.18961
1.194
1.19796
1.20147
1.20451
1.20704
1.20906
1.21054
1.21148
1.21186
1.21169
1.21096
1.20967
1.20782
1.20543
1.2025
1.19904
1.19508
1.19064
1.18574
1.18041
1.17468
1.1686
1.16221
1.15555
1.14868
1.14166
1.13455
1.12741
1.1203
1.11329
1.10645
1.09982
1.09346
1.08743
1.08176
1.07647
1.07159
1.06713
1.06308
1.05943
1.05617
1.05325
1.05066
1.04834
1.04626
1.04438
1.04266
1.04107
1.03958
1.03817
1.03682
1.03552
1.03426
1.03305
1.03187
1.03075
1.02969
1.0287
1.02779
1.02697
1.02625
1.02564
1.02515
1.02478
1.02454
1.02442
1.02443
1.02455
1.02477
1.02508
1.02547
1.02592
1.0264
1.0269
1.0274
1.02787
1.0283
1.02866
1.02895
1.02915
1.02926
1.07837
1.07855
1.07892
1.07948
1.08022
1.08115
1.08226
1.08357
1.08506
1.08674
1.08862
1.09069
1.09297
1.09545
1.09814
1.10106
1.1042
1.10758
1.11119
1.11505
1.11916
1.12352
1.12812
1.13295
1.138
1.14325
1.14867
1.15424
1.15991
1.16566
1.17143
1.17719
1.18288
1.18847
1.19389
1.19912
1.2041
1.2088
1.21317
1.21719
1.22082
1.22403
1.22681
1.22912
1.23096
1.2323
1.23315
1.23348
1.23329
1.23259
1.23137
1.22964
1.2274
1.22467
1.22146
1.21778
1.21366
1.20912
1.20419
1.1989
1.19329
1.18739
1.18126
1.17494
1.16847
1.16193
1.15535
1.14879
1.14232
1.13599
1.12984
1.12393
1.11828
1.11295
1.10795
1.1033
1.09901
1.09508
1.0915
1.08825
1.08532
1.08267
1.08028
1.07811
1.07614
1.07433
1.07265
1.07108
1.0696
1.0682
1.06686
1.06558
1.06436
1.06319
1.06208
1.06103
1.06006
1.05917
1.05836
1.05765
1.05705
1.05655
1.05616
1.05588
1.05572
1.05566
1.0557
1.05584
1.05605
1.05633
1.05667
1.05703
1.05742
1.05781
1.05818
1.05851
1.0588
1.05903
1.05919
1.05927
1.11072
1.1109
1.11126
1.1118
1.11252
1.11342
1.1145
1.11576
1.11721
1.11884
1.12066
1.12267
1.12487
1.12728
1.12988
1.13269
1.13572
1.13896
1.14242
1.14611
1.15001
1.15414
1.15848
1.16302
1.16775
1.17265
1.1777
1.18287
1.18812
1.19343
1.19876
1.20406
1.20929
1.21442
1.21941
1.2242
1.22877
1.23308
1.23709
1.24077
1.24409
1.24703
1.24957
1.25168
1.25335
1.25457
1.25533
1.25561
1.25541
1.25474
1.25359
1.25197
1.24988
1.24733
1.24434
1.24093
1.2371
1.2329
1.22834
1.22344
1.21826
1.21282
1.20716
1.20133
1.19537
1.18933
1.18326
1.1772
1.17122
1.16534
1.15963
1.15411
1.14883
1.14381
1.13908
1.13465
1.13053
1.12672
1.12322
1.12002
1.1171
1.11443
1.112
1.10978
1.10774
1.10586
1.10411
1.10249
1.10096
1.09951
1.09815
1.09685
1.09561
1.09444
1.09334
1.0923
1.09134
1.09046
1.08966
1.08896
1.08835
1.08784
1.08743
1.08712
1.08691
1.08679
1.08677
1.08683
1.08695
1.08714
1.08738
1.08765
1.08794
1.08824
1.08852
1.08878
1.089
1.08918
1.08931
1.08937
1.14289
1.14306
1.14341
1.14393
1.14463
1.1455
1.14655
1.14777
1.14917
1.15075
1.15251
1.15446
1.15659
1.1589
1.16141
1.16412
1.16702
1.17012
1.17343
1.17694
1.18064
1.18455
1.18864
1.1929
1.19733
1.20191
1.20661
1.21141
1.21628
1.22119
1.22611
1.23099
1.23581
1.24053
1.24511
1.24951
1.2537
1.25765
1.26133
1.2647
1.26775
1.27044
1.27276
1.27468
1.2762
1.27731
1.27798
1.27821
1.27801
1.27736
1.27628
1.27476
1.2728
1.27043
1.26765
1.26448
1.26093
1.25703
1.25281
1.24828
1.24349
1.23846
1.23323
1.22785
1.22234
1.21676
1.21115
1.20555
1.2
1.19454
1.18922
1.18407
1.17912
1.17439
1.16991
1.16569
1.16174
1.15806
1.15466
1.15151
1.14862
1.14595
1.14351
1.14125
1.13918
1.13725
1.13546
1.13379
1.13223
1.13075
1.12936
1.12805
1.1268
1.12563
1.12453
1.1235
1.12254
1.12167
1.12087
1.12017
1.11955
1.11902
1.11859
1.11825
1.118
1.11783
1.11775
1.11774
1.1178
1.11791
1.11806
1.11825
1.11846
1.11867
1.11888
1.11908
1.11925
1.11939
1.11948
1.11953
1.17489
1.17506
1.17539
1.1759
1.17657
1.17741
1.17842
1.17961
1.18096
1.18248
1.18418
1.18606
1.18811
1.19034
1.19275
1.19534
1.19812
1.20109
1.20423
1.20757
1.21108
1.21476
1.21862
1.22262
1.22677
1.23105
1.23542
1.23988
1.2444
1.24894
1.25348
1.25799
1.26243
1.26677
1.27098
1.27503
1.27888
1.2825
1.28587
1.28897
1.29175
1.29422
1.29633
1.29809
1.29947
1.30047
1.30106
1.30126
1.30105
1.30043
1.2994
1.29797
1.29615
1.29394
1.29135
1.2884
1.28511
1.28149
1.27758
1.27339
1.26895
1.2643
1.25947
1.25448
1.24939
1.24423
1.23903
1.23383
1.22868
1.22361
1.21864
1.21382
1.20917
1.20472
1.20047
1.19646
1.19267
1.18913
1.18583
1.18275
1.1799
1.17726
1.17482
1.17256
1.17046
1.16851
1.1667
1.165
1.16341
1.16191
1.1605
1.15917
1.15792
1.15675
1.15564
1.15462
1.15366
1.15279
1.152
1.15129
1.15066
1.15012
1.14966
1.14929
1.14901
1.1488
1.14866
1.14859
1.14858
1.14863
1.14871
1.14883
1.14897
1.14912
1.14927
1.14941
1.14953
1.14963
1.1497
1.14974
1.20672
1.20688
1.2072
1.20769
1.20834
1.20915
1.21013
1.21127
1.21257
1.21404
1.21568
1.21748
1.21945
1.22159
1.2239
1.22639
1.22904
1.23186
1.23486
1.23802
1.24134
1.24482
1.24844
1.2522
1.25609
1.26008
1.26415
1.2683
1.27249
1.2767
1.28089
1.28505
1.28915
1.29315
1.29702
1.30074
1.30428
1.30761
1.3107
1.31353
1.31609
1.31834
1.32027
1.32187
1.32313
1.32402
1.32455
1.32471
1.3245
1.3239
1.32293
1.32159
1.31988
1.31782
1.31541
1.31267
1.30961
1.30625
1.30262
1.29874
1.29463
1.29032
1.28585
1.28123
1.27651
1.27173
1.2669
1.26208
1.25729
1.25256
1.24792
1.24341
1.23904
1.23483
1.23081
1.22699
1.22337
1.21996
1.21676
1.21377
1.21098
1.20837
1.20595
1.2037
1.2016
1.19964
1.19781
1.19609
1.19449
1.19298
1.19156
1.19022
1.18897
1.18779
1.18669
1.18566
1.18471
1.18383
1.18304
1.18232
1.18169
1.18113
1.18065
1.18025
1.17993
1.17968
1.1795
1.17938
1.17932
1.1793
1.17933
1.17939
1.17946
1.17956
1.17966
1.17975
1.17984
1.17991
1.17996
1.17998
1.23838
1.23854
1.23885
1.23932
1.23995
1.24073
1.24167
1.24277
1.24402
1.24543
1.247
1.24874
1.25063
1.25268
1.25489
1.25725
1.25978
1.26247
1.26531
1.2683
1.27144
1.27472
1.27813
1.28166
1.28529
1.28902
1.29282
1.29667
1.30056
1.30446
1.30834
1.31218
1.31596
1.31965
1.32322
1.32664
1.32989
1.33294
1.33578
1.33838
1.34072
1.34278
1.34455
1.346
1.34714
1.34795
1.34842
1.34854
1.34832
1.34775
1.34683
1.34557
1.34397
1.34205
1.3398
1.33725
1.33441
1.33129
1.32792
1.32432
1.32051
1.31651
1.31236
1.30808
1.30371
1.29926
1.29478
1.29029
1.28583
1.28141
1.27708
1.27284
1.26873
1.26477
1.26096
1.25732
1.25386
1.25058
1.24749
1.24459
1.24186
1.2393
1.23692
1.23468
1.23259
1.23064
1.2288
1.22709
1.22547
1.22396
1.22253
1.22119
1.21993
1.21876
1.21765
1.21663
1.21568
1.2148
1.214
1.21328
1.21263
1.21206
1.21156
1.21114
1.21079
1.2105
1.21028
1.21012
1.21001
1.20994
1.20991
1.20992
1.20995
1.20999
1.21005
1.2101
1.21016
1.2102
1.21023
1.21025
1.2699
1.27005
1.27035
1.2708
1.2714
1.27215
1.27305
1.27411
1.27531
1.27667
1.27817
1.27983
1.28164
1.2836
1.28571
1.28797
1.29037
1.29292
1.29562
1.29845
1.30141
1.30449
1.3077
1.31101
1.31441
1.31788
1.32143
1.32501
1.32862
1.33223
1.33583
1.33938
1.34287
1.34627
1.34955
1.3527
1.35569
1.3585
1.36111
1.36349
1.36563
1.36751
1.36913
1.37045
1.37148
1.37221
1.37262
1.37272
1.37249
1.37194
1.37108
1.36989
1.36839
1.36659
1.3645
1.36212
1.35948
1.35658
1.35345
1.35011
1.34657
1.34286
1.33901
1.33503
1.33097
1.32684
1.32267
1.31849
1.31432
1.31019
1.30613
1.30216
1.29829
1.29454
1.29093
1.28747
1.28416
1.28102
1.27804
1.27522
1.27257
1.27007
1.26772
1.26552
1.26345
1.26151
1.25968
1.25797
1.25636
1.25484
1.25342
1.25208
1.25082
1.24965
1.24854
1.24752
1.24657
1.24569
1.24489
1.24415
1.2435
1.24291
1.2424
1.24195
1.24157
1.24126
1.241
1.2408
1.24065
1.24054
1.24047
1.24043
1.24042
1.24042
1.24044
1.24046
1.24049
1.24051
1.24053
1.24054
1.30126
1.3014
1.30169
1.30212
1.3027
1.30342
1.30429
1.3053
1.30645
1.30775
1.30919
1.31077
1.3125
1.31437
1.31638
1.31853
1.32081
1.32323
1.32578
1.32846
1.33125
1.33415
1.33716
1.34026
1.34344
1.34669
1.34999
1.35332
1.35668
1.36003
1.36336
1.36664
1.36986
1.373
1.37603
1.37893
1.38168
1.38426
1.38665
1.38884
1.3908
1.39252
1.39399
1.3952
1.39613
1.39678
1.39715
1.39721
1.39698
1.39646
1.39564
1.39452
1.39312
1.39144
1.38948
1.38727
1.3848
1.38211
1.3792
1.37609
1.3728
1.36935
1.36577
1.36207
1.35829
1.35445
1.35056
1.34666
1.34277
1.33891
1.3351
1.33137
1.32772
1.32418
1.32076
1.31746
1.31431
1.31129
1.30842
1.3057
1.30312
1.30069
1.29839
1.29622
1.29418
1.29226
1.29046
1.28875
1.28715
1.28564
1.28422
1.28289
1.28163
1.28046
1.27936
1.27833
1.27738
1.2765
1.2757
1.27496
1.27429
1.2737
1.27317
1.2727
1.2723
1.27195
1.27167
1.27143
1.27124
1.2711
1.27099
1.27091
1.27086
1.27083
1.27082
1.27082
1.27082
1.27082
1.27083
1.27083
1.33247
1.33261
1.33289
1.3333
1.33386
1.33455
1.33538
1.33634
1.33745
1.33869
1.34006
1.34158
1.34322
1.345
1.34691
1.34895
1.35112
1.35341
1.35582
1.35835
1.36098
1.36371
1.36653
1.36944
1.37241
1.37544
1.37852
1.38162
1.38474
1.38784
1.39093
1.39397
1.39695
1.39984
1.40263
1.4053
1.40784
1.41021
1.4124
1.41441
1.41621
1.41778
1.41912
1.42022
1.42106
1.42165
1.42196
1.422
1.42177
1.42127
1.42049
1.41944
1.41812
1.41655
1.41472
1.41265
1.41036
1.40785
1.40514
1.40224
1.39918
1.39598
1.39264
1.3892
1.38568
1.3821
1.37847
1.37483
1.37119
1.36757
1.364
1.36049
1.35705
1.3537
1.35045
1.34732
1.34431
1.34142
1.33866
1.33603
1.33353
1.33117
1.32892
1.3268
1.3248
1.32291
1.32112
1.31944
1.31785
1.31635
1.31494
1.31361
1.31237
1.3112
1.3101
1.30908