/*--------------------------------*- C++ -*----------------------------------*\
| =========                 |                                                 |
| \\      /  F ield         | OpenFOAM: The Open Source CFD Toolbox           |
|  \\    /   O peration     | Version:  2406                                  |
|   \\  /    A nd           | Website:  www.openfoam.com                      |
|    \\/     M anipulation  |                                                 |
\*---------------------------------------------------------------------------*/
FoamFile
{
    version     2.0;
    format      ascii;
    arch        "LSB;label=32;scalar=64";
    class       volScalarField;
    location    "0.4";
    object      C;
}
// * * * * * * * * * * * * * * * * * * * * * * * * * * * * * * * * * * * * * //

dimensions      [1 -3 0 0 0 0 0];

internalField   nonuniform List<scalar> 
14400
(
3.83991
3.83955
3.83879
3.83755
3.83566
3.83277
3.82803
3.81727
3.82852
3.83367
3.837
3.83934
3.84105
3.84232
3.84322
3.84381
3.84412
3.84415
3.84387
3.84324
3.84217
3.84047
3.8378
3.83331
3.82288
3.83452
3.84003
3.84375
3.84654
3.84875
3.85056
3.85209
3.85339
3.85451
3.85547
3.8563
3.85702
3.85763
3.85814
3.85857
3.85891
3.85918
3.85937
3.85948
3.85953
3.85951
3.85942
3.85926
3.85904
3.85875
3.85839
3.85797
3.85747
3.8569
3.85625
3.85553
3.85472
3.85382
3.85283
3.85174
3.85054
3.84922
3.84777
3.84616
3.84438
3.8424
3.84017
3.83764
3.83473
3.83132
3.82717
3.8219
3.81457
3.80009
3.80661
3.80607
3.79824
3.81136
3.81754
3.82164
3.82456
3.82672
3.82834
3.82955
3.8304
3.83096
3.83126
3.8313
3.8311
3.83065
3.82993
3.82891
3.82753
3.8257
3.82323
3.81977
3.81447
3.80302
3.8135
3.81797
3.82056
3.82209
3.82289
3.82312
3.82281
3.82193
3.82032
3.81766
3.81311
3.80256
3.81392
3.81915
3.82256
3.82497
3.82676
3.8281
3.8291
3.8298
3.83026
3.83048
3.84027
3.83995
3.83927
3.8382
3.83667
3.83459
3.83201
3.8298
3.83246
3.83547
3.83798
3.83997
3.84151
3.84267
3.84353
3.8441
3.84441
3.84445
3.84422
3.84368
3.84278
3.84145
3.8396
3.83729
3.83538
3.8384
3.84177
3.84469
3.84711
3.84914
3.85085
3.85231
3.85357
3.85466
3.8556
3.85642
3.85712
3.85772
3.85823
3.85865
3.85899
3.85925
3.85944
3.85955
3.8596
3.85958
3.85949
3.85933
3.85911
3.85882
3.85846
3.85804
3.85754
3.85697
3.85633
3.85561
3.85481
3.85392
3.85293
3.85185
3.85066
3.84936
3.84792
3.84633
3.84458
3.84264
3.84047
3.83802
3.83524
3.83204
3.82831
3.8239
3.81876
3.81352
3.81265
3.81205
3.81168
3.81567
3.8196
3.82281
3.82532
3.82727
3.82876
3.82989
3.8307
3.83123
3.83151
3.83155
3.83135
3.83092
3.83023
3.82927
3.82799
3.82633
3.82422
3.82157
3.8184
3.81554
3.81752
3.81983
3.82162
3.82281
3.82347
3.82366
3.82339
3.82265
3.82138
3.81951
3.81712
3.81507
3.81786
3.82095
3.82355
3.8256
3.82721
3.82845
3.82938
3.83005
3.83049
3.8307
3.84096
3.84069
3.84015
3.83932
3.83821
3.8369
3.8356
3.83496
3.83603
3.83775
3.8395
3.84104
3.84232
3.84334
3.84412
3.84465
3.84496
3.84504
3.84488
3.84449
3.84384
3.84294
3.84186
3.84083
3.84049
3.8419
3.84398
3.84612
3.84809
3.84985
3.85139
3.85274
3.85392
3.85496
3.85586
3.85665
3.85733
3.85791
3.85841
3.85882
3.85915
3.8594
3.85958
3.85969
3.85974
3.85971
3.85962
3.85946
3.85924
3.85895
3.8586
3.85818
3.85769
3.85712
3.85649
3.85577
3.85498
3.8541
3.85313
3.85207
3.8509
3.84962
3.84822
3.84667
3.84498
3.84311
3.84104
3.83874
3.83617
3.83331
3.83011
3.82662
3.82301
3.81988
3.81837
3.81777
3.81806
3.81998
3.82238
3.82467
3.82664
3.82826
3.82955
3.83055
3.83127
3.83175
3.832
3.83203
3.83184
3.83143
3.8308
3.82994
3.82882
3.82742
3.82576
3.82388
3.822
3.82074
3.82117
3.82222
3.82327
3.82406
3.82453
3.82466
3.82444
3.82389
3.82302
3.8219
3.82077
3.82026
3.82145
3.82325
3.82507
3.82668
3.82802
3.8291
3.82993
3.83054
3.83094
3.83114
3.84192
3.84171
3.8413
3.84071
3.83997
3.83918
3.83854
3.83837
3.83896
3.84001
3.84121
3.84238
3.84341
3.84427
3.84494
3.84543
3.84573
3.84585
3.84578
3.84554
3.84514
3.84461
3.84407
3.84369
3.84381
3.84472
3.84613
3.84771
3.84928
3.85076
3.85212
3.85333
3.85442
3.85539
3.85624
3.85698
3.85763
3.85819
3.85867
3.85906
3.85938
3.85962
3.85979
3.8599
3.85994
3.85991
3.85982
3.85966
3.85944
3.85916
3.8588
3.85839
3.8579
3.85735
3.85672
3.85602
3.85524
3.85438
3.85343
3.85239
3.85125
3.85001
3.84865
3.84717
3.84555
3.84378
3.84184
3.83972
3.83741
3.8349
3.83222
3.82946
3.82679
3.82457
3.8232
3.8226
3.82278
3.82381
3.82528
3.82685
3.82831
3.82959
3.83064
3.83148
3.83209
3.8325
3.83271
3.83272
3.83255
3.83218
3.83162
3.83086
3.82992
3.82879
3.82751
3.82618
3.82498
3.82422
3.8242
3.82462
3.82516
3.82563
3.82592
3.82599
3.82584
3.82546
3.82491
3.82429
3.82379
3.82373
3.82441
3.82554
3.82681
3.82802
3.8291
3.83
3.83071
3.83124
3.83159
3.83177
3.84308
3.84293
3.84265
3.84224
3.84178
3.84132
3.84102
3.84102
3.84142
3.84212
3.84297
3.84384
3.84466
3.84537
3.84595
3.84639
3.84669
3.84684
3.84686
3.84676
3.84656
3.84631
3.8461
3.84606
3.84634
3.84705
3.84809
3.84931
3.85057
3.85181
3.85298
3.85406
3.85504
3.85593
3.85672
3.85742
3.85803
3.85855
3.859
3.85938
3.85968
3.85991
3.86008
3.86017
3.86021
3.86018
3.86008
3.85993
3.85971
3.85942
3.85908
3.85866
3.85819
3.85764
3.85703
3.85634
3.85558
3.85474
3.85382
3.85281
3.85171
3.85051
3.84921
3.8478
3.84627
3.84461
3.84282
3.84089
3.83883
3.83666
3.83442
3.83219
3.83012
3.82841
3.82724
3.82665
3.82665
3.82719
3.82808
3.82912
3.83017
3.83113
3.83195
3.83262
3.83312
3.83345
3.83361
3.83361
3.83344
3.83311
3.83263
3.83198
3.8312
3.8303
3.82932
3.82835
3.82752
3.82696
3.82679
3.8269
3.82714
3.82738
3.82753
3.82756
3.82744
3.8272
3.82688
3.82656
3.82637
3.82646
3.82693
3.8277
3.8286
3.82951
3.83035
3.83108
3.83167
3.83212
3.83242
3.83257
3.8444
3.84429
3.8441
3.84384
3.84356
3.84332
3.84319
3.84326
3.84357
3.84408
3.8447
3.84537
3.84602
3.8466
3.8471
3.8475
3.84779
3.84798
3.84806
3.84807
3.84802
3.84797
3.84796
3.8481
3.84845
3.84906
3.84988
3.85085
3.85189
3.85293
3.85393
3.85488
3.85576
3.85657
3.85729
3.85793
3.8585
3.859
3.85942
3.85977
3.86005
3.86027
3.86042
3.86051
3.86054
3.8605
3.86041
3.86025
3.86003
3.85975
3.85941
3.85901
3.85854
3.85801
3.85741
3.85674
3.856
3.85518
3.85429
3.85332
3.85226
3.85112
3.84988
3.84855
3.84711
3.84558
3.84394
3.8422
3.84037
3.83849
3.8366
3.83477
3.83309
3.83171
3.8307
3.83013
3.82998
3.83022
3.83073
3.8314
3.83212
3.83281
3.83342
3.83393
3.83431
3.83457
3.83468
3.83466
3.8345
3.83421
3.83379
3.83325
3.8326
3.83188
3.83112
3.83039
3.82977
3.82932
3.8291
3.82906
3.82912
3.82921
3.82926
3.82926
3.82918
3.82903
3.82885
3.8287
3.82866
3.8288
3.82917
3.82971
3.83037
3.83106
3.83171
3.83229
3.83278
3.83315
3.8334
3.83353
3.84581
3.84575
3.84563
3.84547
3.84531
3.84519
3.84517
3.84527
3.84553
3.84592
3.8464
3.84692
3.84744
3.84792
3.84835
3.84871
3.84899
3.8492
3.84935
3.84944
3.8495
3.84957
3.84969
3.84992
3.8503
3.85084
3.85153
3.85233
3.8532
3.85408
3.85495
3.85578
3.85656
3.85728
3.85794
3.85853
3.85905
3.85951
3.8599
3.86023
3.86049
3.86069
3.86083
3.86091
3.86093
3.86089
3.86079
3.86064
3.86042
3.86014
3.85981
3.85941
3.85896
3.85844
3.85785
3.8572
3.85649
3.8557
3.85485
3.85391
3.85291
3.85182
3.85065
3.8494
3.84806
3.84664
3.84515
3.84359
3.84197
3.84034
3.83872
3.83718
3.83578
3.83462
3.83373
3.83317
3.83293
3.83296
3.83322
3.83362
3.83409
3.83456
3.835
3.83537
3.83564
3.83582
3.83589
3.83584
3.83569
3.83543
3.83506
3.83461
3.83408
3.8335
3.8329
3.83233
3.83183
3.83146
3.83122
3.8311
3.83107
3.83107
3.83106
3.83104
3.83097
3.83088
3.8308
3.83074
3.83077
3.83092
3.83121
3.83162
3.83211
3.83264
3.83314
3.8336
3.83399
3.8343
3.8345
3.83461
3.84729
3.84725
3.84718
3.8471
3.84702
3.84698
3.84701
3.84713
3.84735
3.84767
3.84805
3.84846
3.84889
3.8493
3.84967
3.85
3.85027
3.8505
3.85068
3.85083
3.85097
3.85112
3.85132
3.85159
3.85198
3.85247
3.85307
3.85375
3.85449
3.85524
3.85599
3.85672
3.85741
3.85806
3.85865
3.85919
3.85967
3.86009
3.86045
3.86075
3.86099
3.86118
3.8613
3.86137
3.86138
3.86134
3.86124
3.86108
3.86087
3.8606
3.86027
3.85988
3.85944
3.85893
3.85837
3.85774
3.85705
3.85629
3.85547
3.85458
3.85363
3.8526
3.8515
3.85033
3.84909
3.84779
3.84643
3.84503
3.8436
3.84216
3.84076
3.83944
3.83825
3.83724
3.83645
3.8359
3.83559
3.83549
3.83558
3.83578
3.83606
3.83636
3.83664
3.83689
3.83707
3.83718
3.8372
3.83714
3.83699
3.83675
3.83644
3.83605
3.83561
3.83513
3.83465
3.83419
3.83378
3.83346
3.83322
3.83307
3.83298
3.83293
3.83289
3.83285
3.8328
3.83274
3.8327
3.8327
3.83276
3.8329
3.83314
3.83345
3.83383
3.83423
3.83462
3.83499
3.8353
3.83554
3.83571
3.83579
3.84881
3.84879
3.84875
3.84872
3.84869
3.8487
3.84876
3.84889
3.84908
3.84935
3.84966
3.85
3.85036
3.85071
3.85104
3.85134
3.85161
3.85184
3.85204
3.85223
3.85242
3.85262
3.85286
3.85317
3.85354
3.854
3.85453
3.85512
3.85575
3.85641
3.85706
3.8577
3.85832
3.85889
3.85943
3.85991
3.86035
3.86073
3.86106
3.86133
3.86155
3.86172
3.86183
3.86189
3.86189
3.86184
3.86174
3.86158
3.86137
3.8611
3.86078
3.86041
3.85998
3.85949
3.85894
3.85834
3.85767
3.85695
3.85617
3.85532
3.85442
3.85345
3.85242
3.85133
3.85019
3.84899
3.84776
3.84649
3.84522
3.84395
3.84273
3.84158
3.84054
3.83964
3.83892
3.83838
3.83803
3.83785
3.83781
3.83787
3.838
3.83817
3.83833
3.83847
3.83857
3.83862
3.83861
3.83852
3.83837
3.83815
3.83788
3.83754
3.83717
3.83678
3.83638
3.836
3.83565
3.83537
3.83514
3.83498
3.83486
3.83478
3.83472
3.83466
3.83462
3.83458
3.83457
3.83459
3.83466
3.83479
3.83498
3.83523
3.83552
3.83583
3.83614
3.83642
3.83667
3.83686
3.837
3.83706
3.85035
3.85034
3.85033
3.85032
3.85033
3.85037
3.85044
3.85057
3.85075
3.85097
3.85124
3.85153
3.85184
3.85214
3.85244
3.85271
3.85297
3.85321
3.85343
3.85364
3.85385
3.85409
3.85435
3.85466
3.85503
3.85545
3.85592
3.85645
3.857
3.85757
3.85815
3.85871
3.85925
3.85977
3.86025
3.86068
3.86108
3.86142
3.86172
3.86197
3.86217
3.86232
3.86241
3.86246
3.86246
3.8624
3.86229
3.86214
3.86193
3.86167
3.86135
3.86099
3.86057
3.8601
3.85957
3.85899
3.85836
3.85767
3.85693
3.85612
3.85527
3.85436
3.8534
3.85239
3.85133
3.85024
3.84911
3.84797
3.84683
3.8457
3.84462
3.8436
3.84268
3.84187
3.8412
3.84068
3.8403
3.84006
3.83993
3.83989
3.83991
3.83997
3.84004
3.8401
3.84013
3.84013
3.84008
3.83998
3.83982
3.83962
3.83937
3.83908
3.83876
3.83842
3.83808
3.83776
3.83747
3.83721
3.837
3.83683
3.83671
3.83661
3.83653
3.83648
3.83643
3.83641
3.8364
3.83643
3.8365
3.83661
3.83677
3.83696
3.83719
3.83743
3.83767
3.83789
3.83809
3.83824
3.83835
3.8384
3.85189
3.85189
3.8519
3.85191
3.85194
3.85199
3.85208
3.8522
3.85236
3.85256
3.85279
3.85305
3.85331
3.85358
3.85385
3.85411
3.85435
3.85459
3.85481
3.85504
3.85527
3.85552
3.85579
3.8561
3.85645
3.85684
3.85727
3.85774
3.85823
3.85873
3.85924
3.85974
3.86022
3.86068
3.8611
3.8615
3.86185
3.86216
3.86243
3.86265
3.86283
3.86296
3.86305
3.86308
3.86307
3.86301
3.8629
3.86274
3.86254
3.86228
3.86198
3.86162
3.86122
3.86076
3.86026
3.85971
3.8591
3.85844
3.85774
3.85698
3.85617
3.85532
3.85443
3.85349
3.85251
3.85151
3.85049
3.84945
3.84842
3.84741
3.84644
3.84553
3.8447
3.84397
3.84334
3.84283
3.84244
3.84215
3.84196
3.84185
3.84179
3.84177
3.84176
3.84175
3.84173
3.84168
3.8416
3.84148
3.84132
3.84113
3.8409
3.84064
3.84036
3.84007
3.83978
3.8395
3.83924
3.83901
3.83881
3.83865
3.83852
3.83842
3.83833
3.83827
3.83823
3.83821
3.83821
3.83823
3.83829
3.83838
3.83851
3.83867
3.83884
3.83903
3.83922
3.83939
3.83955
3.83967
3.83975
3.8398
3.85344
3.85344
3.85346
3.85348
3.85352
3.85359
3.85367
3.85379
3.85394
3.85412
3.85433
3.85455
3.85479
3.85503
3.85527
3.85551
3.85575
3.85598
3.85621
3.85644
3.85667
3.85693
3.8572
3.8575
3.85783
3.8582
3.85859
3.85901
3.85945
3.85989
3.86034
3.86078
3.86121
3.86162
3.862
3.86235
3.86267
3.86295
3.86319
3.86339
3.86354
3.86366
3.86372
3.86375
3.86373
3.86366
3.86355
3.8634
3.86319
3.86294
3.86265
3.86231
3.86192
3.86148
3.861
3.86047
3.85989
3.85927
3.8586
3.85788
3.85713
3.85633
3.85549
3.85462
3.85372
3.8528
3.85187
3.85093
3.84999
3.84908
3.84821
3.84739
3.84663
3.84595
3.84536
3.84487
3.84447
3.84416
3.84392
3.84375
3.84363
3.84354
3.84348
3.84341
3.84334
3.84326
3.84315
3.84302
3.84286
3.84267
3.84246
3.84223
3.84198
3.84172
3.84146
3.84121
3.84098
3.84077
3.84059
3.84043
3.8403
3.8402
3.84012
3.84005
3.84001
3.83998
3.83998
3.84
3.84005
3.84013
3.84023
3.84035
3.84049
3.84063
3.84078
3.84092
3.84104
3.84113
3.8412
3.84123
3.85498
3.85499
3.85501
3.85504
3.85508
3.85515
3.85524
3.85535
3.85549
3.85566
3.85584
3.85604
3.85625
3.85647
3.85669
3.85692
3.85714
3.85737
3.85759
3.85782
3.85806
3.85831
3.85858
3.85887
3.85919
3.85952
3.85988
3.86026
3.86065
3.86105
3.86145
3.86184
3.86222
3.86258
3.86292
3.86324
3.86352
3.86377
3.86398
3.86416
3.8643
3.86439
3.86445
3.86446
3.86444
3.86437
3.86425
3.8641
3.8639
3.86365
3.86337
3.86304
3.86266
3.86224
3.86178
3.86128
3.86073
3.86014
3.8595
3.85883
3.85812
3.85737
3.8566
3.85579
3.85496
3.85411
3.85325
3.85239
3.85154
3.85072
3.84992
3.84917
3.84848
3.84785
3.84729
3.84681
3.84641
3.84608
3.84581
3.8456
3.84544
3.8453
3.84519
3.84508
3.84498
3.84486
3.84474
3.84459
3.84443
3.84424
3.84404
3.84382
3.8436
3.84337
3.84314
3.84291
3.8427
3.84251
3.84234
3.84219
3.84207
3.84196
3.84188
3.84181
3.84177
3.84174
3.84173
3.84175
3.84178
3.84184
3.84192
3.84202
3.84212
3.84224
3.84235
3.84246
3.84255
3.84263
3.84268
3.84271
3.85651
3.85652
3.85654
3.85658
3.85663
3.8567
3.85678
3.85689
3.85702
3.85717
3.85733
3.85752
3.85771
3.85791
3.85812
3.85833
3.85854
3.85876
3.85898
3.8592
3.85944
3.85968
3.85994
3.86022
3.86051
3.86082
3.86115
3.8615
3.86185
3.8622
3.86256
3.86291
3.86325
3.86357
3.86388
3.86415
3.86441
3.86463
3.86482
3.86497
3.86509
3.86517
3.86521
3.86522
3.86518
3.86511
3.865
3.86484
3.86464
3.86441
3.86413
3.86381
3.86345
3.86305
3.86261
3.86213
3.86161
3.86105
3.86045
3.85982
3.85915
3.85845
3.85773
3.85698
3.85621
3.85543
3.85464
3.85385
3.85307
3.85232
3.85159
3.8509
3.85026
3.84967
3.84914
3.84868
3.84828
3.84794
3.84765
3.84741
3.84721
3.84704
3.84689
3.84675
3.84662
3.84648
3.84634
3.84618
3.84601
3.84583
3.84564
3.84543
3.84522
3.84501
3.8448
3.8446
3.84441
3.84423
3.84407
3.84393
3.84381
3.8437
3.84362
3.84355
3.8435
3.84347
3.84346
3.84347
3.84349
3.84354
3.8436
3.84367
3.84375
3.84384
3.84393
3.84401
3.84408
3.84414
3.84418
3.8442
3.85803
3.85804
3.85806
3.8581
3.85815
3.85822
3.8583
3.85841
3.85853
3.85866
3.85882
3.85898
3.85916
3.85934
3.85954
3.85973
3.85994
3.86014
3.86035
3.86057
3.8608
3.86104
3.86128
3.86155
3.86182
3.86211
3.86241
3.86272
3.86304
3.86336
3.86368
3.86399
3.86429
3.86458
3.86485
3.8651
3.86532
3.86552
3.86568
3.86582
3.86592
3.86599
3.86602
3.86601
3.86597
3.86589
3.86578
3.86562
3.86543
3.8652
3.86493
3.86462
3.86428
3.8639
3.86347
3.86302
3.86252
3.86199
3.86143
3.86083
3.86021
3.85956
3.85888
3.85818
3.85747
3.85675
3.85602
3.8553
3.85458
3.85389
3.85322
3.85258
3.85198
3.85143
3.85093
3.85048
3.85009
3.84974
3.84944
3.84918
3.84896
3.84876
3.84858
3.84842
3.84826
3.84811
3.84795
3.84778
3.84761
3.84743
3.84724
3.84705
3.84685
3.84665
3.84646
3.84627
3.84609
3.84593
3.84578
3.84564
3.84553
3.84542
3.84534
3.84527
3.84522
3.84519
3.84517
3.84517
3.84518
3.84521
3.84526
3.84531
3.84538
3.84544
3.84551
3.84557
3.84563
3.84567
3.84571
3.84572
3.85954
3.85955
3.85957
3.85961
3.85966
3.85973
3.85981
3.8599
3.86001
3.86014
3.86028
3.86043
3.8606
3.86077
3.86095
3.86114
3.86133
3.86152
3.86173
3.86193
3.86215
3.86238
3.86261
3.86286
3.86312
3.86338
3.86366
3.86394
3.86423
3.86452
3.8648
3.86508
3.86535
3.86561
3.86585
3.86607
3.86626
3.86644
3.86658
3.8667
3.86678
3.86684
3.86686
3.86684
3.8668
3.86672
3.8666
3.86645
3.86626
3.86603
3.86577
3.86548
3.86515
3.86478
3.86438
3.86394
3.86347
3.86297
3.86244
3.86188
3.8613
3.86069
3.86006
3.85941
3.85875
3.85808
3.8574
3.85674
3.85608
3.85543
3.85481
3.85422
3.85366
3.85314
3.85266
3.85223
3.85184
3.8515
3.85119
3.85092
3.85068
3.85046
3.85026
3.85008
3.8499
3.84973
3.84956
3.84939
3.84922
3.84904
3.84885
3.84867
3.84848
3.84829
3.84811
3.84794
3.84777
3.84761
3.84747
3.84734
3.84723
3.84713
3.84705
3.84698
3.84692
3.84689
3.84686
3.84686
3.84686
3.84688
3.84691
3.84695
3.847
3.84705
3.8471
3.84714
3.84719
3.84722
3.84724
3.84726
3.86103
3.86104
3.86107
3.8611
3.86115
3.86122
3.86129
3.86138
3.86149
3.86161
3.86174
3.86188
3.86203
3.86219
3.86236
3.86253
3.86271
3.8629
3.86309
3.86329
3.86349
3.86371
3.86393
3.86416
3.8644
3.86465
3.8649
3.86516
3.86542
3.86568
3.86593
3.86618
3.86643
3.86665
3.86687
3.86706
3.86723
3.86738
3.86751
3.86761
3.86768
3.86772
3.86773
3.86771
3.86766
3.86757
3.86745
3.8673
3.86712
3.8669
3.86665
3.86637
3.86605
3.8657
3.86532
3.8649
3.86446
3.86398
3.86348
3.86296
3.86241
3.86184
3.86125
3.86064
3.86003
3.85941
3.85878
3.85816
3.85755
3.85695
3.85638
3.85582
3.8553
3.85481
3.85435
3.85394
3.85356
3.85321
3.8529
3.85262
3.85237
3.85214
3.85193
3.85173
3.85154
3.85136
3.85118
3.851
3.85083
3.85065
3.85047
3.85029
3.85011
3.84993
3.84976
3.84959
3.84943
3.84929
3.84915
3.84903
3.84892
3.84882
3.84874
3.84867
3.84861
3.84857
3.84854
3.84853
3.84852
3.84853
3.84855
3.84858
3.84861
3.84865
3.84868
3.84872
3.84875
3.84878
3.84879
3.8488
3.86252
3.86253
3.86255
3.86259
3.86263
3.86269
3.86277
3.86285
3.86295
3.86306
3.86318
3.86331
3.86345
3.8636
3.86376
3.86392
3.86409
3.86427
3.86445
3.86464
3.86483
3.86503
3.86524
3.86545
3.86568
3.8659
3.86614
3.86637
3.86661
3.86684
3.86707
3.86729
3.86751
3.86771
3.8679
3.86807
3.86822
3.86835
3.86846
3.86854
3.8686
3.86863
3.86863
3.86861
3.86855
3.86846
3.86834
3.86819
3.86801
3.8678
3.86756
3.86729
3.86698
3.86665
3.86628
3.86589
3.86547
3.86502
3.86455
3.86406
3.86354
3.863
3.86245
3.86189
3.86132
3.86074
3.86016
3.85958
3.85901
3.85846
3.85792
3.8574
3.85691
3.85644
3.85601
3.85561
3.85523
3.85489
3.85458
3.8543
3.85404
3.8538
3.85358
3.85337
3.85317
3.85298
3.8528
3.85262
3.85244
3.85226
3.85208
3.8519
3.85173
3.85156
3.8514
3.85124
3.85109
3.85095
3.85082
3.8507
3.85059
3.85049
3.85041
3.85034
3.85028
3.85024
3.85021
3.85019
3.85018
3.85018
3.85018
3.8502
3.85022
3.85025
3.85027
3.8503
3.85032
3.85034
3.85035
3.85036
3.86399
3.864
3.86402
3.86406
3.8641
3.86416
3.86423
3.86431
3.8644
3.8645
3.86461
3.86473
3.86486
3.865
3.86515
3.8653
3.86546
3.86563
3.8658
3.86598
3.86616
3.86635
3.86654
3.86674
3.86695
3.86716
3.86737
3.86758
3.8678
3.86801
3.86821
3.86841
3.86861
3.86879
3.86895
3.8691
3.86924
3.86935
3.86944
3.86951
3.86955
3.86957
3.86957
3.86953
3.86947
3.86938
3.86926
3.86912
3.86894
3.86873
3.8685
3.86824
3.86795
3.86763
3.86728
3.86691
3.86651
3.86609
3.86564
3.86517
3.86469
3.86419
3.86367
3.86314
3.86261
3.86207
3.86153
3.86099
3.86046
3.85994
3.85944
3.85895
3.85849
3.85804
3.85763
3.85724
3.85688
3.85655
3.85624
3.85595
3.85569
3.85544
3.85522
3.855
3.8548
3.8546
3.85441
3.85423
3.85405
3.85387
3.85369
3.85352
3.85335
3.85319
3.85303
3.85288
3.85273
3.8526
3.85247
3.85235
3.85225
3.85216
3.85207
3.852
3.85194
3.8519
3.85186
3.85183
3.85182
3.85181
3.85181
3.85182
3.85183
3.85184
3.85186
3.85188
3.85189
3.85191
3.85192
3.85192
3.86545
3.86546
3.86548
3.86551
3.86556
3.86561
3.86567
3.86575
3.86583
3.86593
3.86603
3.86615
3.86627
3.8664
3.86653
3.86668
3.86683
3.86698
3.86714
3.86731
3.86748
3.86766
3.86784
3.86802
3.86821
3.86841
3.8686
3.86879
3.86899
3.86918
3.86936
3.86954
3.86971
3.86987
3.87002
3.87015
3.87027
3.87036
3.87044
3.8705
3.87053
3.87054
3.87053
3.87049
3.87042
3.87033
3.87021
3.87007
3.86989
3.8697
3.86947
3.86922
3.86894
3.86863
3.8683
3.86795
3.86757
3.86717
3.86675
3.86631
3.86586
3.86538
3.8649
3.86441
3.86391
3.8634
3.8629
3.86239
3.8619
3.86141
3.86094
3.86048
3.86004
3.85962
3.85922
3.85885
3.8585
3.85817
3.85787
3.85758
3.85732
3.85707
3.85684
3.85662
3.85641
3.85621
3.85602
3.85583
3.85565
3.85547
3.8553
3.85513
3.85497
3.85481
3.85465
3.85451
3.85437
3.85424
3.85411
3.854
3.8539
3.85381
3.85372
3.85365
3.85359
3.85354
3.8535
3.85347
3.85345
3.85344
3.85343
3.85343
3.85343
3.85344
3.85345
3.85346
3.85347
3.85348
3.85349
3.85349
3.8669
3.86691
3.86693
3.86696
3.867
3.86705
3.86711
3.86718
3.86726
3.86735
3.86745
3.86755
3.86767
3.86779
3.86791
3.86805
3.86819
3.86833
3.86848
3.86864
3.8688
3.86896
3.86913
3.8693
3.86948
3.86965
3.86983
3.87001
3.87018
3.87035
3.87052
3.87068
3.87083
3.87097
3.8711
3.87122
3.87132
3.8714
3.87146
3.87151
3.87153
3.87153
3.87151
3.87147
3.8714
3.8713
3.87119
3.87104
3.87088
3.87068
3.87047
3.87022
3.86996
3.86966
3.86935
3.86901
3.86866
3.86828
3.86788
3.86747
3.86704
3.86659
3.86614
3.86568
3.86521
3.86474
3.86426
3.86379
3.86333
3.86287
3.86242
3.86199
3.86157
3.86117
3.86079
3.86043
3.8601
3.85978
3.85948
3.85919
3.85893
3.85868
3.85845
3.85823
3.85802
3.85781
3.85762
3.85743
3.85725
3.85708
3.8569
3.85674
3.85658
3.85642
3.85627
3.85613
3.85599
3.85587
3.85575
3.85564
3.85554
3.85545
3.85536
3.85529
3.85523
3.85518
3.85513
3.8551
3.85507
3.85505
3.85504
3.85504
3.85503
3.85503
3.85504
3.85504
3.85505
3.85505
3.85506
3.85506
3.86834
3.86835
3.86837
3.8684
3.86843
3.86848
3.86854
3.8686
3.86868
3.86876
3.86885
3.86895
3.86905
3.86917
3.86929
3.86941
3.86954
3.86968
3.86982
3.86996
3.87011
3.87026
3.87042
3.87058
3.87074
3.8709
3.87106
3.87122
3.87138
3.87153
3.87168
3.87182
3.87196
3.87208
3.8722
3.8723
3.87238
3.87245
3.8725
3.87254
3.87255
3.87254
3.87252
3.87247
3.8724
3.8723
3.87219
3.87205
3.87188
3.8717
3.87149
3.87125
3.871
3.87072
3.87042
3.8701
3.86976
3.8694
3.86903
3.86864
3.86823
3.86781
3.86739
3.86695
3.86651
3.86607
3.86562
3.86518
3.86475
3.86431
3.86389
3.86349
3.86309
3.86271
3.86235
3.862
3.86167
3.86136
3.86107
3.86079
3.86053
3.86028
3.86005
3.85982
3.85961
3.85941
3.85922
3.85903
3.85885
3.85867
3.8585
3.85834
3.85818
3.85803
3.85788
3.85774
3.85761
3.85749
3.85737
3.85726
3.85716
3.85707
3.85699
3.85692
3.85686
3.8568
3.85676
3.85672
3.85669
3.85667
3.85665
3.85664
3.85663
3.85663
3.85663
3.85663
3.85663
3.85663
3.85663
3.85663
3.86977
3.86978
3.8698
3.86982
3.86986
3.8699
3.86996
3.87002
3.87009
3.87016
3.87025
3.87034
3.87044
3.87054
3.87065
3.87077
3.87089
3.87102
3.87115
3.87128
3.87142
3.87156
3.8717
3.87185
3.872
3.87214
3.87229
3.87244
3.87258
3.87272
3.87285
3.87298
3.8731
3.87321
3.8733
3.87339
3.87346
3.87352
3.87356
3.87359
3.87359
3.87358
3.87355
3.87349
3.87342
3.87333
3.87321
3.87307
3.87291
3.87273
3.87253
3.8723
3.87206
3.87179
3.87151
3.8712
3.87088
3.87054
3.87019
3.86982
3.86944
3.86904
3.86864
3.86823
3.86782
3.8674
3.86698
3.86657
3.86616
3.86575
3.86535
3.86497
3.86459
3.86423
3.86388
3.86355
3.86323
3.86293
3.86264
3.86237
3.86211
3.86186
3.86163
3.86141
3.8612
3.861
3.8608
3.86062
3.86044
3.86026
3.8601
3.85994
3.85978
3.85963
3.85949
3.85935
3.85922
3.8591
3.85899
3.85888
3.85878
3.85869
3.85861
3.85854
3.85848
3.85842
3.85837
3.85833
3.8583
3.85827
3.85825
3.85823
3.85822
3.85821
3.85821
3.85821
3.8582
3.8582
3.8582
3.8582
3.87119
3.8712
3.87122
3.87124
3.87127
3.87132
3.87136
3.87142
3.87149
3.87156
3.87164
3.87172
3.87181
3.87191
3.87201
3.87212
3.87223
3.87235
3.87247
3.8726
3.87272
3.87285
3.87299
3.87312
3.87325
3.87339
3.87352
3.87365
3.87378
3.87391
3.87403
3.87414
3.87424
3.87434
3.87442
3.8745
3.87456
3.87461
3.87464
3.87465
3.87465
3.87463
3.8746
3.87454
3.87446
3.87437
3.87425
3.87412
3.87396
3.87379
3.87359
3.87338
3.87314
3.87289
3.87262
3.87233
3.87202
3.8717
3.87136
3.87101
3.87065
3.87028
3.8699
3.86952
3.86913
3.86874
3.86834
3.86795
3.86756
3.86718
3.8668
3.86643
3.86608
3.86573
3.8654
3.86508
3.86477
3.86448
3.8642
3.86393
3.86368
3.86344
3.86321
3.86299
3.86278
3.86258
3.86238
3.8622
3.86202
3.86185
3.86168
3.86152
3.86137
3.86123
3.86109
3.86095
3.86083
3.86071
3.8606
3.86049
3.86039
3.86031
3.86023
3.86015
3.86009
3.86003
3.85998
3.85994
3.8599
3.85987
3.85985
3.85983
3.85981
3.8598
3.85979
3.85979
3.85978
3.85978
3.85978
3.85978
3.8726
3.87261
3.87263
3.87265
3.87268
3.87272
3.87277
3.87282
3.87288
3.87294
3.87302
3.8731
3.87318
3.87327
3.87337
3.87347
3.87357
3.87368
3.87379
3.87391
3.87403
3.87415
3.87427
3.87439
3.87451
3.87464
3.87476
3.87488
3.87499
3.8751
3.87521
3.87531
3.8754
3.87548
3.87556
3.87562
3.87567
3.87571
3.87573
3.87574
3.87573
3.87571
3.87566
3.87561
3.87553
3.87543
3.87532
3.87519
3.87503
3.87486
3.87468
3.87447
3.87424
3.874
3.87374
3.87347
3.87317
3.87287
3.87255
3.87222
3.87188
3.87153
3.87117
3.87081
3.87044
3.87007
3.8697
3.86933
3.86896
3.8686
3.86824
3.86789
3.86755
3.86722
3.8669
3.86659
3.8663
3.86601
3.86574
3.86548
3.86523
3.865
3.86477
3.86455
3.86434
3.86415
3.86396
3.86377
3.8636
3.86343
3.86326
3.86311
3.86296
3.86281
3.86268
3.86255
3.86242
3.8623
3.8622
3.86209
3.862
3.86191
3.86183
3.86176
3.86169
3.86163
3.86158
3.86154
3.8615
3.86146
3.86144
3.86141
3.8614
3.86138
3.86137
3.86136
3.86136
3.86135
3.86135
3.86135
3.87401
3.87402
3.87403
3.87405
3.87408
3.87412
3.87416
3.87421
3.87426
3.87433
3.87439
3.87447
3.87455
3.87463
3.87472
3.87481
3.87491
3.87501
3.87511
3.87522
3.87533
3.87544
3.87555
3.87566
3.87577
3.87588
3.87599
3.8761
3.8762
3.8763
3.8764
3.87648
3.87656
3.87664
3.8767
3.87675
3.87679
3.87682
3.87684
3.87684
3.87682
3.87679
3.87675
3.87669
3.87661
3.87651
3.8764
3.87627
3.87612
3.87596
3.87578
3.87558
3.87536
3.87513
3.87488
3.87462
3.87434
3.87405
3.87375
3.87344
3.87312
3.87279
3.87245
3.8721
3.87176
3.87141
3.87106
3.8707
3.87036
3.87001
3.86967
3.86934
3.86902
3.8687
3.86839
3.8681
3.86781
3.86754
3.86727
3.86702
3.86678
3.86654
3.86632
3.86611
3.8659
3.86571
3.86552
3.86534
3.86517
3.865
3.86484
3.86468
3.86454
3.86439
3.86426
3.86413
3.86401
3.8639
3.86379
3.86369
3.86359
3.86351
3.86343
3.86335
3.86329
3.86323
3.86317
3.86313
3.86309
3.86305
3.86302
3.863
3.86298
3.86296
3.86295
3.86294
3.86293
3.86292
3.86292
3.86292
3.87541
3.87541
3.87543
3.87545
3.87547
3.87551
3.87555
3.87559
3.87564
3.8757
3.87576
3.87583
3.8759
3.87598
3.87606
3.87615
3.87624
3.87633
3.87643
3.87653
3.87662
3.87673
3.87683
3.87693
3.87703
3.87713
3.87723
3.87733
3.87742
3.87751
3.87759
3.87767
3.87774
3.8778
3.87785
3.87789
3.87793
3.87795
3.87796
3.87795
3.87793
3.8779
3.87785
3.87779
3.87771
3.87761
3.8775
3.87737
3.87723
3.87707
3.87689
3.8767
3.8765
3.87627
3.87604
3.87579
3.87552
3.87525
3.87496
3.87467
3.87436
3.87405
3.87373
3.8734
3.87307
3.87274
3.87241
3.87208
3.87175
3.87142
3.8711
3.87078
3.87047
3.87017
3.86988
3.86959
3.86932
3.86905
3.86879
3.86855
3.86831
3.86808
3.86787
3.86766
3.86745
3.86726
3.86708
3.8669
3.86673
3.86656
3.8664
3.86625
3.86611
3.86597
3.86584
3.86571
3.86559
3.86548
3.86537
3.86527
3.86518
3.86509
3.86501
3.86494
3.86488
3.86482
3.86476
3.86471
3.86467
3.86464
3.8646
3.86458
3.86455
3.86453
3.86452
3.86451
3.8645
3.86449
3.86449
3.86448
3.8768
3.8768
3.87682
3.87683
3.87686
3.87689
3.87693
3.87697
3.87702
3.87707
3.87713
3.87719
3.87726
3.87733
3.87741
3.87748
3.87757
3.87765
3.87774
3.87783
3.87792
3.87801
3.87811
3.8782
3.87829
3.87838
3.87847
3.87856
3.87864
3.87872
3.87879
3.87886
3.87892
3.87897
3.87901
3.87905
3.87907
3.87909
3.87909
3.87908
3.87905
3.87902
3.87897
3.8789
3.87882
3.87873
3.87862
3.87849
3.87835
3.8782
3.87803
3.87784
3.87765
3.87743
3.87721
3.87697
3.87672
3.87646
3.87618
3.8759
3.87561
3.87532
3.87501
3.8747
3.87439
3.87408
3.87376
3.87345
3.87314
3.87283
3.87252
3.87222
3.87192
3.87163
3.87135
3.87108
3.87081
3.87055
3.8703
3.87007
3.86983
3.86961
3.8694
3.86919
3.869
3.86881
3.86863
3.86845
3.86828
3.86812
3.86797
3.86782
3.86767
3.86754
3.86741
3.86728
3.86717
3.86705
3.86695
3.86685
3.86676
3.86667
3.8666
3.86652
3.86646
3.8664
3.86634
3.86629
3.86625
3.86621
3.86618
3.86615
3.86613
3.86611
3.86609
3.86608
3.86606
3.86606
3.86605
3.86605
3.87818
3.87819
3.8782
3.87822
3.87824
3.87827
3.8783
3.87834
3.87838
3.87843
3.87849
3.87855
3.87861
3.87867
3.87874
3.87882
3.87889
3.87897
3.87905
3.87913
3.87922
3.8793
3.87938
3.87947
3.87955
3.87963
3.87971
3.87979
3.87986
3.87993
3.88
3.88005
3.88011
3.88015
3.88019
3.88021
3.88023
3.88024
3.88023
3.88022
3.88019
3.88015
3.8801
3.88003
3.87995
3.87986
3.87975
3.87963
3.87949
3.87934
3.87918
3.879
3.87881
3.8786
3.87839
3.87816
3.87792
3.87767
3.87741
3.87715
3.87687
3.87659
3.8763
3.87601
3.87571
3.87542
3.87512
3.87482
3.87452
3.87422
3.87393
3.87364
3.87336
3.87308
3.87281
3.87255
3.8723
3.87205
3.87181
3.87157
3.87135
3.87113
3.87093
3.87073
3.87053
3.87035
3.87017
3.87
3.86983
3.86967
3.86952
3.86937
3.86923
3.8691
3.86897
3.86885
3.86873
3.86862
3.86852
3.86842
3.86833
3.86825
3.86817
3.8681
3.86803
3.86797
3.86792
3.86787
3.86782
3.86778
3.86775
3.86772
3.86769
3.86767
3.86765
3.86764
3.86763
3.86762
3.86761
3.86761
3.87956
3.87956
3.87958
3.87959
3.87961
3.87964
3.87967
3.87971
3.87975
3.87979
3.87984
3.8799
3.87995
3.88001
3.88008
3.88014
3.88021
3.88029
3.88036
3.88043
3.88051
3.88059
3.88066
3.88074
3.88081
3.88089
3.88096
3.88103
3.88109
3.88115
3.88121
3.88126
3.8813
3.88134
3.88137
3.88139
3.8814
3.8814
3.88139
3.88137
3.88134
3.8813
3.88124
3.88117
3.88109
3.881
3.88089
3.88078
3.88064
3.8805
3.88034
3.88017
3.87998
3.87979
3.87958
3.87936
3.87914
3.8789
3.87865
3.8784
3.87814
3.87787
3.8776
3.87732
3.87704
3.87675
3.87647
3.87619
3.8759
3.87562
3.87534
3.87507
3.8748
3.87453
3.87427
3.87402
3.87377
3.87353
3.8733
3.87308
3.87286
3.87265
3.87244
3.87225
3.87206
3.87188
3.8717
3.87153
3.87137
3.87122
3.87107
3.87092
3.87079
3.87065
3.87053
3.87041
3.8703
3.87019
3.87009
3.86999
3.8699
3.86982
3.86974
3.86967
3.8696
3.86954
3.86949
3.86944
3.86939
3.86935
3.86932
3.86929
3.86926
3.86924
3.86922
3.8692
3.86919
3.86918
3.86917
3.86917
3.88093
3.88094
3.88095
3.88096
3.88098
3.881
3.88103
3.88107
3.8811
3.88115
3.88119
3.88124
3.88129
3.88135
3.88141
3.88147
3.88153
3.8816
3.88167
3.88174
3.8818
3.88187
3.88194
3.88201
3.88208
3.88214
3.88221
3.88227
3.88232
3.88238
3.88242
3.88247
3.8825
3.88253
3.88256
3.88257
3.88257
3.88257
3.88256
3.88253
3.8825
3.88245
3.8824
3.88233
3.88225
3.88216
3.88205
3.88194
3.88181
3.88167
3.88151
3.88135
3.88117
3.88098
3.88079
3.88058
3.88036
3.88013
3.8799
3.87966
3.87941
3.87915
3.87889
3.87863
3.87836
3.87809
3.87782
3.87755
3.87728
3.87701
3.87675
3.87649
3.87623
3.87597
3.87572
3.87548
3.87524
3.87501
3.87479
3.87457
3.87436
3.87415
3.87395
3.87376
3.87358
3.8734
3.87323
3.87307
3.87291
3.87275
3.87261
3.87247
3.87233
3.8722
3.87208