/*--------------------------------*- C++ -*----------------------------------*\
| =========                 |                                                 |
| \\      /  F ield         | OpenFOAM: The Open Source CFD Toolbox           |
|  \\    /   O peration     | Version:  2406                                  |
|   \\  /    A nd           | Website:  www.openfoam.com                      |
|    \\/     M anipulation  |                                                 |
\*---------------------------------------------------------------------------*/
FoamFile
{
    version     2.0;
    format      ascii;
    arch        "LSB;label=32;scalar=64";
    class       volScalarField;
    location    "7.35";
    object      C_0;
}
// * * * * * * * * * * * * * * * * * * * * * * * * * * * * * * * * * * * * * //

dimensions      [1 -3 0 0 0 0 0];

internalField   nonuniform List<scalar> 
14400
(
0.234132
0.23303
0.231111
0.228793
0.226505
0.224612
0.223387
0.223
0.223517
0.224903
0.227014
0.229591
0.232249
0.234484
0.235712
0.235394
0.233292
0.229775
0.225492
0.221116
0.21724
0.214357
0.212869
0.213116
0.215396
0.219987
0.227159
0.237189
0.250364
0.266992
0.287403
0.311948
0.340988
0.374872
0.413864
0.457941
0.505695
0.545017
0.571585
0.592247
0.610073
0.62533
0.638224
0.648912
0.657517
0.664132
0.668827
0.67165
0.672634
0.671793
0.669128
0.664621
0.658241
0.649939
0.639644
0.627265
0.612683
0.595744
0.576251
0.553947
0.52347
0.480218
0.432536
0.388894
0.350401
0.317
0.288378
0.264157
0.243959
0.227424
0.214224
0.204058
0.196657
0.191785
0.189238
0.188855
0.190517
0.194147
0.199705
0.207171
0.216532
0.227754
0.240753
0.255338
0.271107
0.287134
0.300525
0.307177
0.306195
0.298442
0.287489
0.276165
0.265422
0.255718
0.247298
0.240272
0.234651
0.23037
0.227302
0.225271
0.224066
0.22347
0.223284
0.223376
0.223713
0.224373
0.225535
0.227436
0.23034
0.2345
0.240145
0.247457
0.256571
0.267552
0.280384
0.294929
0.310836
0.327262
0.341703
0.349477
0.241429
0.240032
0.237669
0.234889
0.2322
0.230004
0.228589
0.228128
0.228692
0.230247
0.232652
0.235647
0.238838
0.241673
0.243442
0.243355
0.240881
0.236709
0.231736
0.22675
0.222383
0.219126
0.217372
0.217448
0.219642
0.224223
0.231456
0.241611
0.254973
0.271849
0.292566
0.317475
0.346934
0.381274
0.420717
0.465103
0.512683
0.549908
0.574769
0.595082
0.612641
0.627693
0.640429
0.650995
0.659507
0.666052
0.670698
0.67349
0.674458
0.673618
0.670969
0.666495
0.660164
0.651931
0.641728
0.629468
0.615039
0.598298
0.579059
0.557091
0.528593
0.48722
0.439143
0.395017
0.35604
0.32218
0.293136
0.268536
0.248004
0.231179
0.217731
0.207363
0.199806
0.194825
0.192221
0.191836
0.193555
0.197303
0.203042
0.210754
0.220429
0.232038
0.245502
0.260638
0.277059
0.293829
0.307457
0.313641
0.313404
0.305976
0.294631
0.282823
0.271637
0.261567
0.252866
0.245647
0.239921
0.235618
0.232605
0.230689
0.229637
0.229196
0.229128
0.229264
0.229555
0.230098
0.231109
0.232867
0.235665
0.239781
0.245457
0.252884
0.262197
0.273466
0.286673
0.301683
0.318151
0.335202
0.349378
0.355775
0.25654
0.254426
0.25106
0.247291
0.243767
0.240951
0.239148
0.238539
0.239194
0.241083
0.244072
0.24791
0.252196
0.256321
0.25937
0.259983
0.256499
0.250813
0.244368
0.238136
0.23278
0.228777
0.226492
0.226227
0.228248
0.232807
0.240158
0.250561
0.264295
0.281663
0.302992
0.328627
0.35892
0.394183
0.434557
0.479541
0.525616
0.558407
0.581039
0.600672
0.617717
0.632374
0.644803
0.655133
0.663463
0.669873
0.674422
0.677152
0.678092
0.677253
0.674635
0.670223
0.663991
0.655892
0.645869
0.633841
0.619709
0.603347
0.584597
0.563258
0.537708
0.50013
0.45216
0.407301
0.367405
0.332635
0.302751
0.277396
0.256198
0.238796
0.224861
0.214093
0.206229
0.201038
0.198327
0.197944
0.19978
0.203764
0.209862
0.218061
0.228357
0.240728
0.255101
0.271296
0.28889
0.306768
0.320225
0.325719
0.326334
0.320757
0.308931
0.296213
0.28417
0.273385
0.264136
0.256542
0.250616
0.246284
0.2434
0.241744
0.241033
0.240945
0.241149
0.241386
0.241566
0.241837
0.242504
0.243934
0.246492
0.250499
0.256222
0.263867
0.27357
0.285398
0.299329
0.315205
0.332599
0.350285
0.362901
0.367548
0.280482
0.276882
0.271726
0.266327
0.261492
0.257724
0.255334
0.254497
0.255281
0.25766
0.26151
0.266602
0.27256
0.278777
0.284181
0.286613
0.280768
0.272367
0.263569
0.255445
0.24862
0.243512
0.240439
0.239664
0.241424
0.245948
0.253471
0.264242
0.278532
0.296636
0.318875
0.345589
0.377118
0.413738
0.455522
0.501595
0.54204
0.56896
0.590159
0.608851
0.625179
0.639281
0.651277
0.661269
0.66934
0.675555
0.679965
0.682606
0.683503
0.682666
0.680094
0.675774
0.669682
0.661779
0.652013
0.640318
0.626609
0.610786
0.592725
0.572285
0.549275
0.517411
0.471771
0.425946
0.384678
0.348553
0.317416
0.290936
0.268745
0.250486
0.235829
0.224476
0.216165
0.210673
0.207814
0.207445
0.209461
0.213801
0.220435
0.229356
0.240567
0.254053
0.269751
0.287467
0.306665
0.325595
0.337373
0.342289
0.343547
0.34086
0.33018
0.316402
0.30319
0.29139
0.281348
0.273213
0.26701
0.262668
0.260025
0.258826
0.258721
0.259274
0.259987
0.26042
0.260377
0.260131
0.260167
0.261013
0.263138
0.266932
0.272694
0.28064
0.290906
0.303547
0.318515
0.335594
0.354116
0.371423
0.380333
0.383697
0.31441
0.307988
0.30002
0.292295
0.285668
0.280624
0.277456
0.276317
0.277264
0.280271
0.285225
0.291915
0.300015
0.308976
0.317508
0.320168
0.313239
0.301243
0.28938
0.278834
0.270126
0.263595
0.259498
0.258054
0.259469
0.263944
0.271694
0.282953
0.29798
0.317058
0.340498
0.368625
0.401738
0.439991
0.482948
0.527645
0.559523
0.581943
0.601783
0.619395
0.634869
0.648294
0.659756
0.669327
0.677072
0.683041
0.687276
0.689805
0.690648
0.689813
0.6873
0.683098
0.677184
0.669528
0.660087
0.648808
0.635624
0.620461
0.603231
0.583845
0.562216
0.536356
0.497814
0.451021
0.408048
0.370184
0.337411
0.309447
0.285944
0.266552
0.250945
0.238827
0.229941
0.224068
0.22103
0.220693
0.222961
0.227778
0.235121
0.24499
0.257392
0.272317
0.289704
0.309335
0.330447
0.348792
0.357765
0.36245
0.36427
0.363398
0.357142
0.343283
0.328885
0.315855
0.304807
0.295987
0.289448
0.285138
0.282896
0.282428
0.283303
0.284937
0.286561
0.287379
0.286884
0.285712
0.28468
0.284575
0.286003
0.289432
0.295195
0.30351
0.314491
0.32816
0.344404
0.362858
0.382173
0.39516
0.400563
0.403205
0.354182
0.346918
0.335768
0.325281
0.316508
0.309926
0.30582
0.30432
0.305461
0.30921
0.315452
0.323938
0.334301
0.345677
0.353647
0.353893
0.349664
0.336407
0.321608
0.308417
0.297549
0.289336
0.284008
0.281755
0.282748
0.287167
0.295203
0.307072
0.323017
0.343305
0.368223
0.398059
0.43306
0.473211
0.517117
0.552899
0.576911
0.597252
0.615637
0.632076
0.646605
0.659271
0.670124
0.679212
0.686579
0.692263
0.696292
0.69869
0.69947
0.698639
0.696196
0.692132
0.686429
0.679063
0.67
0.659201
0.646619
0.632202
0.615895
0.597648
0.577423
0.555198
0.52546
0.481922
0.437642
0.397832
0.363092
0.333302
0.308173
0.287377
0.270595
0.257538
0.247953
0.241625
0.238385
0.238105
0.240698
0.246117
0.254343
0.265377
0.279227
0.295872
0.315208
0.33685
0.359224
0.373912
0.380963
0.385475
0.387681
0.387716
0.385569
0.376506
0.3614
0.347044
0.334819
0.325201
0.31828
0.314067
0.312429
0.313044
0.315392
0.318772
0.321971
0.323612
0.322151
0.319392
0.316647
0.315102
0.31549
0.318361
0.324067
0.332803
0.344621
0.359467
0.377028
0.396344
0.411954
0.4193
0.423296
0.425355
0.390958
0.387791
0.377648
0.365026
0.354093
0.345827
0.340695
0.338801
0.340165
0.344741
0.352393
0.362645
0.374718
0.385527
0.388237
0.387096
0.385028
0.376606
0.360062
0.344341
0.331176
0.321094
0.314364
0.311178
0.31169
0.316055
0.324442
0.337048
0.354095
0.37582
0.402456
0.43419
0.471076
0.512293
0.550201
0.5758
0.595944
0.614517
0.631437
0.646668
0.660206
0.672061
0.682257
0.690818
0.697771
0.703138
0.706941
0.709193
0.709903
0.709078
0.706714
0.702805
0.697337
0.690293
0.681649
0.671378
0.65945
0.645833
0.630499
0.613428
0.594615
0.574081
0.551229
0.518141
0.473659
0.431858
0.394877
0.362947
0.335888
0.313418
0.295238
0.281068
0.270659
0.263804
0.260339
0.260145
0.263142
0.269288
0.278568
0.290982
0.30652
0.325122
0.346572
0.370048
0.390406
0.400298
0.406497
0.410806
0.413264
0.413992
0.413197
0.409917
0.399879
0.384963
0.371567
0.361142
0.353793
0.349742
0.348938
0.351034
0.355384
0.361377
0.366933
0.370293
0.366859
0.361763
0.356472
0.352962
0.351917
0.354015
0.359599
0.368806
0.381524
0.397535
0.415731
0.431944
0.440486
0.444876
0.447968
0.449563
0.424902
0.424653
0.420826
0.410564
0.398284
0.388368
0.382254
0.379985
0.38159
0.387003
0.396118
0.407573
0.418783
0.422898
0.422318
0.421188
0.419401
0.416032
0.404143
0.386702
0.371311
0.359254
0.35099
0.34678
0.346772
0.3511
0.359913
0.373385
0.391715
0.415086
0.443617
0.477211
0.515215
0.553018
0.579048
0.598366
0.616546
0.633434
0.648925
0.662954
0.675487
0.686511
0.696023
0.704032
0.710547
0.715579
0.71914
0.721236
0.721873
0.721054
0.718777
0.715035
0.709821
0.703123
0.694925
0.685213
0.673969
0.66118
0.64684
0.63095
0.613528
0.594616
0.574278
0.55047
0.515323
0.472438
0.43316
0.398857
0.369596
0.345193
0.325394
0.309934
0.298575
0.291118
0.287406
0.287324
0.290802
0.297802
0.308309
0.322311
0.339755
0.360467
0.383872
0.407604
0.421236
0.428341
0.433922
0.437988
0.440576
0.441793
0.44182
0.440905
0.437484
0.428502
0.414771
0.403914
0.396067
0.392211
0.392454
0.396402
0.402841
0.411882
0.417705
0.419494
0.417914
0.412087
0.403828
0.398188
0.395343
0.396503
0.401908
0.411632
0.425101
0.441603
0.455913
0.464214
0.468371
0.47175
0.474135
0.475367
0.459089
0.459029
0.45897
0.455711
0.447888
0.437023
0.430396
0.42784
0.429673
0.435616
0.445774
0.454319
0.458117
0.457631
0.456937
0.455938
0.454544
0.452717
0.447973
0.434701
0.418075
0.404163
0.394299
0.389027
0.388492
0.392817
0.402138
0.416593
0.43636
0.461528
0.491975
0.526638
0.561789
0.586721
0.604766
0.622059
0.638439
0.65375
0.667876
0.680736
0.692279
0.702471
0.711294
0.71874
0.724806
0.729492
0.732802
0.734738
0.7353
0.734489
0.732303
0.728739
0.723791
0.717452
0.709717
0.700578
0.690032
0.67808
0.66473
0.650002
0.633932
0.616576
0.598017
0.578368
0.554043
0.518469
0.478065
0.441467
0.409826
0.383262
0.361637
0.344713
0.332276
0.324138
0.320149
0.320203
0.324236
0.332213
0.344107
0.359887
0.379406
0.402254
0.426872
0.443665
0.451642
0.45786
0.462861
0.466647
0.469257
0.470786
0.471383
0.471258
0.470682
0.468393
0.462142
0.452793
0.444487
0.440912
0.442188
0.448
0.454357
0.45839
0.460134
0.460243
0.460797
0.459425
0.455785
0.449768
0.445122
0.445462
0.45056
0.460603
0.473609
0.483909
0.49038
0.493866
0.497027
0.499619
0.501454
0.502404
0.493335
0.493397
0.493584
0.494038
0.492703
0.488714
0.48371
0.48106
0.483039
0.487906
0.492103
0.493952
0.493152
0.492512
0.491861
0.491083
0.490119
0.488966
0.487679
0.48278
0.47073
0.455914
0.444541
0.438314
0.437303
0.441679
0.45159
0.467081
0.48832
0.515164
0.546645
0.576535
0.59877
0.615166
0.631192
0.646665
0.661402
0.67525
0.688091
0.699836
0.710421
0.7198
0.727942
0.734827
0.740443
0.744782
0.747839
0.749613
0.7501
0.749299
0.747208
0.743826
0.73915
0.733178
0.725911
0.71735
0.707502
0.696377
0.683998
0.670397
0.655622
0.63974
0.622844
0.60505
0.58651
0.562754
0.528693
0.49099
0.457044
0.428176
0.40457
0.38602
0.372377
0.363479
0.359181
0.359384
0.364033
0.373092
0.386494
0.40417
0.425678
0.449597
0.467847
0.476934
0.48322
0.488594
0.493017
0.496482
0.499021
0.500709
0.501668
0.502063
0.502107
0.502057
0.501645
0.498776
0.495376
0.49328
0.493635
0.495234
0.496498
0.495842
0.495286
0.495407
0.496175
0.497669
0.498973
0.498461
0.497898
0.49887
0.502983
0.509051
0.514915
0.518596
0.521197
0.523835
0.526252
0.528244
0.529658
0.530392
0.527519
0.52764
0.527925
0.528462
0.52938
0.530334
0.529552
0.528911
0.529475
0.530404
0.529777
0.528706
0.527966
0.527405
0.526911
0.526413
0.525884
0.525347
0.524874
0.524597
0.521287
0.513174
0.501244
0.494723
0.493387
0.497877
0.508463
0.524798
0.546949
0.57392
0.596937
0.615002
0.629444
0.643912
0.658169
0.672008
0.685252
0.697756
0.709402
0.720097
0.729769
0.738366
0.745847
0.752185
0.757358
0.761353
0.764161
0.765774
0.766187
0.765398
0.763405
0.760207
0.755805
0.7502
0.743399
0.73541
0.726247
0.71593
0.704489
0.691966
0.678418
0.66392
0.648567
0.632478
0.6158
0.598698
0.576826
0.546369
0.51136
0.48032
0.454761
0.434458
0.419506
0.409782
0.405138
0.405483
0.410777
0.420988
0.435882
0.45535
0.477706
0.495358
0.504663
0.510472
0.515709
0.52028
0.524131
0.527243
0.529635
0.531363
0.532516
0.533219
0.533627
0.533913
0.534249
0.534833
0.535082
0.534525
0.533736
0.532246
0.530831
0.530014
0.529701
0.529925
0.530701
0.53206
0.534011
0.536717
0.539403
0.541613
0.544218
0.546477
0.548032
0.549913
0.551972
0.554026
0.555901
0.557446
0.558543
0.559112
0.561583
0.561719
0.562012
0.562502
0.563222
0.564146
0.565191
0.56581
0.565504
0.564632
0.563805
0.563112
0.562599
0.562232
0.561965
0.561773
0.561659
0.561662
0.561869
0.562424
0.563546
0.563366
0.560518
0.556828
0.555542
0.56021
0.571498
0.587592
0.605402
0.621724
0.634972
0.647323
0.660045
0.672868
0.685566
0.697946
0.709843
0.721121
0.731664
0.741379
0.750193
0.758047
0.764896
0.770706
0.775451
0.779113
0.781677
0.783134
0.783477
0.782702
0.780807
0.777792
0.773661
0.768419
0.762076
0.754644
0.746145
0.736605
0.726061
0.71456
0.702165
0.688954
0.675025
0.660496
0.645509
0.630231
0.614853
0.596179
0.57099
0.53932
0.512565
0.490454
0.474186
0.463627
0.458601
0.459039
0.464913
0.476278
0.492162
0.51227
0.526972
0.535072
0.539936
0.544581
0.548865
0.552687
0.555983
0.558724
0.560915
0.56259
0.563813
0.564671
0.56527
0.565718
0.566108
0.566479
0.566681
0.566529
0.565837
0.564955
0.564161
0.563681
0.563577
0.563891
0.564647
0.565857
0.56752
0.569613
0.57194
0.574273
0.576166
0.57781
0.579393
0.58105
0.58275
0.584397
0.585881
0.587096
0.587956
0.588402
0.595512
0.59564
0.595903
0.596312
0.59686
0.597502
0.598127
0.598502
0.598458
0.598111
0.5977
0.597339
0.597087
0.596956
0.596945
0.597057
0.597316
0.597774
0.598518
0.599679
0.601441
0.604051
0.607484
0.609562
0.612593
0.618471
0.62738
0.637984
0.648484
0.657993
0.668331
0.679265
0.690546
0.70195
0.713281
0.724365
0.735055
0.74522
0.754753
0.763563
0.771576
0.778732
0.784983
0.790291
0.794628
0.797969
0.8003
0.801608
0.801884
0.801125
0.799328
0.796494
0.792628
0.78774
0.78184
0.774947
0.767085
0.758285
0.748589
0.738048
0.726727
0.714707
0.702083
0.688972
0.675511
0.66186
0.648206
0.634773
0.620189
0.600813
0.577091
0.553585
0.536495
0.525274
0.519836
0.520232
0.526261
0.538392
0.552778
0.562822
0.568244
0.57176
0.575428
0.579051
0.582483
0.585619
0.588389
0.590755
0.59271
0.594269
0.595474
0.596383
0.597062
0.597581
0.597987
0.598293
0.59844
0.598359
0.598024
0.597575
0.597179
0.596973
0.597036
0.597416
0.598136
0.599202
0.600598
0.602272
0.604108
0.605953
0.607643
0.609196
0.61068
0.612146
0.613581
0.614932
0.616129
0.6171
0.617784
0.618138
0.629313
0.629425
0.62965
0.629982
0.630405
0.630874
0.631313
0.631614
0.631713
0.631655
0.631543
0.631458
0.631455
0.631562
0.6318
0.632193
0.632774
0.6336
0.63475
0.636333
0.638487
0.641372
0.645134
0.649938
0.655611
0.661727
0.668233
0.67528
0.683171
0.691811
0.701096
0.71086
0.720923
0.731105
0.741241
0.75118
0.76079
0.769952
0.778565
0.786544
0.793817
0.800323
0.806013
0.810849
0.814798
0.817837
0.819947
0.821113
0.821328
0.820586
0.818885
0.816227
0.812619
0.808071
0.802597
0.796218
0.788962
0.780862
0.771962
0.762316
0.75199
0.741062
0.729628
0.717798
0.705702
0.693491
0.681337
0.669442
0.65804
0.647209
0.633877
0.61903
0.604424
0.593211
0.587359
0.587436
0.591786
0.597285
0.602039
0.603976
0.605885
0.608294
0.610964
0.613712
0.616398
0.618917
0.621199
0.623199
0.624899
0.626303
0.627433
0.628323
0.629017
0.629555
0.629968
0.630264
0.630428
0.630443
0.630323
0.630144
0.630004
0.629995
0.63018
0.630601
0.63128
0.632218
0.633397
0.634772
0.636266
0.637787
0.639255
0.640651
0.641986
0.643272
0.644495
0.645621
0.646602
0.647391
0.647943
0.648227
0.663001
0.663098
0.663288
0.663562
0.663903
0.664277
0.664636
0.664928
0.665126
0.665252
0.665357
0.665496
0.665711
0.666036
0.666502
0.667139
0.667988
0.669101
0.670548
0.672415
0.674803
0.677815
0.681539
0.686025
0.691194
0.696892
0.703069
0.709774
0.71709
0.724985
0.73338
0.742158
0.751181
0.760307
0.769398
0.778326
0.786972
0.795232
0.803012
0.810232
0.816824
0.822729
0.827898
0.832293
0.83588
0.838634
0.840536
0.841571
0.841729
0.841005
0.839398
0.836911
0.83355
0.829327
0.824259
0.818368
0.811682
0.804239
0.796081
0.787265
0.777853
0.767925
0.757569
0.74689
0.736009
0.725064
0.714209
0.703618
0.693485
0.684016
0.675462
0.667603
0.659003
0.651342
0.646079
0.643697
0.643202
0.64251
0.641713
0.641997
0.643025
0.644566
0.646423
0.648436
0.650478
0.652453
0.65429
0.655942
0.657385
0.658612
0.65963
0.66046
0.661126
0.661655
0.662065
0.662367
0.662565
0.662662
0.662682
0.662674
0.6627
0.662821
0.663087
0.663528
0.664163
0.664993
0.666
0.667151
0.668396
0.669676
0.670941
0.672166
0.673342
0.674461
0.675507
0.676454
0.677269
0.677918
0.678369
0.678601
0.696592
0.696677
0.696841
0.697077
0.697369
0.697694
0.698025
0.698334
0.698612
0.698871
0.69914
0.699456
0.699856
0.700371
0.701032
0.701875
0.702937
0.704269
0.705926
0.707978
0.710494
0.713545
0.717184
0.721428
0.726246
0.731573
0.737376
0.743658
0.750429
0.757658
0.765282
0.77321
0.781335
0.789543
0.797718
0.805752
0.813541
0.820991
0.828018
0.834549
0.840518
0.84587
0.850559
0.854544
0.857794
0.860283
0.861992
0.862904
0.863012
0.862308
0.860793
0.858468
0.855343
0.851429
0.846744
0.841311
0.835161
0.828329
0.82086
0.812808
0.804234
0.795214
0.785831
0.776184
0.766381
0.756547
0.746816
0.737337
0.728267
0.719768
0.711991
0.705022
0.699008
0.693877
0.689444
0.685646
0.682626
0.680648
0.679549
0.679273
0.679654
0.680523
0.681726
0.68313
0.684626
0.686127
0.687565
0.688895
0.690087
0.691128
0.692016
0.692761
0.693374
0.693872
0.694269
0.694576
0.694802
0.694959
0.69507
0.69517
0.695301
0.695505
0.695817
0.696262
0.696853
0.697589
0.698459
0.699438
0.700491
0.701579
0.702667
0.703731
0.704754
0.705722
0.706618
0.707419
0.708103
0.708642
0.709015
0.709206
0.7301
0.730175
0.730323
0.730536
0.730802
0.731107
0.731435
0.731773
0.732117
0.732478
0.732874
0.733334
0.733886
0.734558
0.735382
0.73639
0.737619
0.73911
0.740911
0.743074
0.745651
0.748689
0.752221
0.756259
0.760788
0.765778
0.771205
0.777054
0.783309
0.789936
0.796879
0.804065
0.811407
0.818811
0.826181
0.833423
0.840448
0.847173
0.853522
0.859427
0.864829
0.869676
0.873922
0.87753
0.880469
0.882713
0.884243
0.885044
0.885106
0.884423
0.882996
0.880827
0.877924
0.874301
0.869977
0.864973
0.859321
0.853056
0.846222
0.838871
0.831062
0.822866
0.81436
0.805633
0.796786
0.787926
0.779171
0.770646
0.76248
0.754797
0.74771
0.741303
0.735642
0.730713
0.726461
0.72287
0.719994
0.717906
0.716561
0.715892
0.715794
0.716145
0.716827
0.717733
0.718771
0.719863
0.720949
0.721985
0.72294
0.723797
0.724547
0.725192
0.725737
0.726191
0.726564
0.726866
0.727107
0.727301
0.727468
0.727634
0.727828
0.72808
0.728414
0.72885
0.729396
0.730053
0.73081
0.731651
0.73255
0.733481
0.734417
0.735336
0.736221
0.737055
0.737822
0.738504
0.73908
0.739532
0.739843
0.740002
0.763532
0.763602
0.76374
0.76394
0.764196
0.764497
0.764835
0.765205
0.765607
0.766048
0.766546
0.76712
0.767794
0.768594
0.769548
0.770685
0.772037
0.773641
0.775534
0.777756
0.780347
0.783338
0.786753
0.790599
0.79487
0.799547
0.804611
0.810043
0.815817
0.821897
0.828234
0.834765
0.841418
0.848113
0.854771
0.861311
0.867655
0.87373
0.879468
0.884809
0.889696
0.894081
0.897923
0.901185
0.903838
0.905857
0.907224
0.907922
0.907944
0.907283
0.90594
0.903918
0.901226
0.897876
0.893888
0.889284
0.884093
0.878352
0.872102
0.865392
0.858279
0.850826
0.843108
0.835204
0.827202
0.819199
0.811296
0.803597
0.796209
0.78923
0.782751
0.77684
0.771543
0.766872
0.762817
0.759378
0.756575
0.754422
0.752895
0.751941
0.751484
0.751435
0.751704
0.752205
0.75286
0.753604
0.754383
0.755156
0.755892
0.756572
0.757183
0.757722
0.75819
0.75859
0.75893
0.759216
0.759459
0.759671
0.759868
0.76007
0.760297
0.760572
0.760911
0.761328
0.761829
0.762415
0.763078
0.763805
0.764579
0.765378
0.766183
0.766976
0.767738
0.768456
0.769113
0.769693
0.770181
0.770562
0.770824
0.770957
0.796893
0.796961
0.797094
0.79729
0.797543
0.79785
0.798204
0.798605
0.799056
0.799564
0.800141
0.800805
0.801577
0.802477
0.803531
0.804764
0.806204
0.807881
0.809827
0.812071
0.814642
0.817564
0.820853
0.824515
0.828544
0.832928
0.837651
0.84269
0.848019
0.853602
0.859395
0.865343
0.871385
0.877453
0.88348
0.889395
0.895132
0.900624
0.905813
0.910643
0.915064
0.91903
0.922503
0.92545
0.927842
0.929655
0.930871
0.931477
0.931464
0.930826
0.929563
0.92768
0.925185
0.92209
0.918414
0.91418
0.909417
0.904157
0.898441
0.892316
0.885833
0.879053
0.872042
0.864871
0.857621
0.850373
0.843216
0.836238
0.829527
0.823165
0.817223
0.811761
0.806817
0.802413
0.798557
0.795252
0.792504
0.790314
0.788657
0.787493
0.786766
0.786409
0.78635
0.786522
0.78686
0.78731
0.787824
0.788364
0.788901
0.789415
0.789892
0.790325
0.790711
0.791051
0.791349
0.79161
0.791843
0.792056
0.792264
0.79248
0.79272
0.792999
0.793329
0.793721
0.794178
0.7947
0.795282
0.795913
0.796581
0.79727
0.797963
0.798645
0.799301
0.799917
0.80048
0.800975
0.801389
0.801712
0.801933
0.802046
0.830187
0.830254
0.830386
0.830582
0.830839
0.831154
0.831526
0.831956
0.832448
0.833009
0.833649
0.834384
0.83523
0.836207
0.837334
0.838636
0.840134
0.841854
0.843821
0.846058
0.848587
0.851424
0.854581
0.858062
0.861862
0.865971
0.870373
0.875047
0.879967
0.885098
0.890401
0.895827
0.901324
0.906835
0.9123
0.917658
0.922851
0.927822
0.932518
0.936887
0.940886
0.944472
0.94761
0.95027
0.952423
0.954049
0.955129
0.955652
0.955608
0.954993
0.953807
0.952054
0.949742
0.946885
0.943499
0.939607
0.935236
0.930418
0.92519
0.919597
0.913686
0.907512
0.901135
0.894619
0.888036
0.881456
0.874956
0.868612
0.862496
0.856678
0.851217
0.846163
0.841552
0.837409
0.833745
0.830567
0.827878
0.82567
0.823925
0.822609
0.821679
0.821083
0.820765
0.820672
0.82075
0.820952
0.821238
0.821574
0.821933
0.822295
0.822645
0.822974
0.823277
0.823554
0.823804
0.824032
0.824244
0.824448
0.824651
0.824866
0.825103
0.825374
0.825687
0.826048
0.826461
0.826925
0.827436
0.827985
0.828563
0.829156
0.829753
0.83034
0.830904
0.831433
0.831914
0.832337
0.83269
0.832964
0.833151
0.833246
0.863415
0.863481
0.863615
0.863813
0.864075
0.864401
0.864791
0.865246
0.865771
0.866374
0.867063
0.867851
0.868753
0.869785
0.870964
0.87231
0.873842
0.87558
0.877545
0.879753
0.882222
0.884964
0.887986
0.89129
0.894872
0.898721
0.902824
0.907159
0.911703
0.916422
0.921282
0.926241
0.931251
0.936263
0.941226
0.946086
0.950793
0.955296
0.959548
0.963502
0.967119
0.970362
0.973197
0.975595
0.977532
0.978988
0.979945
0.980393
0.980323
0.979731
0.978618
0.976987
0.974846
0.972208
0.96909
0.965513
0.961502
0.957088
0.952306
0.947195
0.941801
0.936173
0.930366
0.924436
0.918446
0.91246
0.906542
0.900757
0.895168
0.889833
0.884804
0.880122
0.875821
0.871924
0.868446
0.865394
0.86277
0.860565
0.858763
0.857339
0.856257
0.855478
0.854957
0.85465
0.854514
0.85451
0.854602
0.854761
0.854962
0.855186
0.855418
0.855649
0.855871
0.856082
0.856282
0.856471
0.856655
0.856838
0.857027
0.857229
0.857454
0.857707
0.857996
0.858324
0.858694
0.859104
0.859551
0.860029
0.860528
0.86104
0.861554
0.862058
0.862542
0.862995
0.863407
0.863768
0.864069
0.864302
0.864461
0.864542
0.896575
0.896643
0.896778
0.89698
0.897248
0.897584
0.897989
0.898466
0.899018
0.899652
0.900378
0.901205
0.902146
0.903215
0.904427
0.905798
0.907344
0.90908
0.911024
0.913188
0.915585
0.918224
0.921109
0.92424
0.927613
0.931219
0.935042
0.939064
0.943262
0.947607
0.952066
0.956602
0.961175
0.96574
0.970253
0.974668
0.978939
0.983022
0.986874
0.990455
0.993728
0.99666
0.99922
1.00138
1.00312
1.00442
1.00527
1.00565
1.00556
1.00499
1.00395
1.00243
1.00045
0.998012
0.995141
0.991853
0.988172
0.984126
0.979749
0.975077
0.970151
0.965015
0.959719
0.954313
0.948853
0.943395
0.937994
0.932707
0.927587
0.922684
0.918042
0.913699
0.909685
0.90602
0.902721
0.899795
0.897242
0.895056
0.893225
0.891726
0.890534
0.889615
0.888935
0.888457
0.888147
0.887971
0.8879
0.887907
0.887969
0.888069
0.888194
0.888331
0.888476
0.888622
0.888769
0.888916
0.889066
0.889222
0.889389
0.889571
0.889775
0.890005
0.890265
0.890558
0.890886
0.891246
0.891636
0.89205
0.892481
0.892922
0.893364
0.893797
0.894212
0.894599
0.894951
0.895259
0.895516
0.895714
0.895849
0.895918
0.929668
0.929736
0.929874
0.930079
0.930354
0.930699
0.931117
0.931609
0.932182
0.932839
0.933591
0.934444
0.935411
0.936503
0.937732
0.939111
0.940654
0.942374
0.944282
0.94639
0.948707
0.951237
0.953985
0.956949
0.960123
0.963498
0.96706
0.970793
0.974674
0.978676
0.982772
0.986927
0.991106
0.99527
0.99938
1.00339
1.00727
1.01098
1.01447
1.01772
1.02068
1.02333
1.02564
1.02759
1.02915
1.03032
1.03106
1.03138
1.03127
1.03073
1.02975
1.02834
1.0265
1.02425
1.02161
1.01858
1.01521
1.0115
1.00749
1.00321
0.998709
0.994017
0.98918
0.984245
0.979259
0.974272
0.969332
0.964489
0.959788
0.955273
0.950982
0.946948
0.943198
0.939752
0.936624
0.933821
0.931346
0.929194
0.927353
0.925808
0.924536
0.923513
0.92271
0.922097
0.921646
0.921329
0.92112
0.920996
0.920938
0.920928
0.920955
0.921007
0.921078
0.921162
0.921256
0.921359
0.921472
0.921596
0.921735
0.921892
0.92207
0.922272
0.922501
0.922759
0.923045
0.923359
0.923696
0.924054
0.924425
0.924804
0.925182
0.925553
0.925908
0.926239
0.92654
0.926802
0.927021
0.927189
0.927304
0.927363
0.962692
0.962762
0.962901
0.96311
0.96339
0.963742
0.964169
0.964673
0.96526
0.965933
0.966701
0.967571
0.968552
0.969653
0.970886
0.972261
0.973788
0.975478
0.977341
0.979384
0.981614
0.984034
0.986646
0.989447
0.992431
0.995589
0.998909
1.00237
1.00596
1.00965
1.01342
1.01723
1.02105
1.02485
1.0286
1.03226
1.03578
1.03915
1.04232
1.04526
1.04794
1.05034
1.05242
1.05418
1.05558
1.05662
1.05728
1.05755
1.05742
1.0569
1.05598
1.05467
1.05297
1.05089
1.04845
1.04567
1.04257
1.03917
1.03549
1.03158
1.02746
1.02316
1.01874
1.01423
1.00967
1.0051
1.00057
0.996128
0.991804
0.987638
0.983665
0.979914
0.976407
0.973165
0.970201
0.967521
0.965128
0.963019
0.961186
0.959615
0.958291
0.957191
0.956294
0.955575
0.955011
0.954578
0.954254
0.954019
0.953857
0.953752
0.953691
0.953666
0.953667
0.953691
0.953733
0.953791
0.953866
0.953956
0.954064
0.954191
0.95434
0.954512
0.954709
0.954931
0.955177
0.955447
0.955737
0.956043
0.956361
0.956685
0.957008
0.957325
0.957627
0.95791
0.958166
0.958389
0.958575
0.958718
0.958816
0.958865
0.995647
0.995718
0.995858
0.99607
0.996353
0.99671
0.997143
0.997655
0.99825
0.998933
0.999709
1.00059
1.00157
1.00267
1.0039
1.00526
1.00676
1.00841
1.01022
1.01219
1.01433
1.01664
1.01912
1.02176
1.02457
1.02752
1.03061
1.03383
1.03715
1.04056
1.04402
1.04752
1.05102
1.05449
1.05791
1.06124
1.06445
1.06751
1.07039
1.07306
1.07549
1.07766
1.07954
1.08112
1.08238
1.08331
1.08388
1.08411
1.08397
1.08347
1.0826
1.08138
1.07981
1.07789
1.07564
1.07308
1.07023
1.06711
1.06374
1.06015
1.05637
1.05244
1.04839
1.04426
1.04008
1.03589
1.03173
1.02765
1.02366
1.01981
1.01613
1.01263
1.00935
1.0063
1.00349
1.00093
0.998625
0.996568
0.994756
0.993178
0.99182
0.990667
0.9897
0.988899
0.988245
0.987717
0.987299
0.986971
0.986719
0.98653
0.986392
0.986296
0.986235
0.986202
0.986194
0.986208
0.986243
0.986298
0.986373
0.986469
0.986587
0.986727
0.986891
0.987078
0.987286
0.987515
0.987761
0.988022
0.988292
0.988567
0.988842
0.98911
0.989368
0.989607
0.989825
0.990014
0.990172
0.990293
0.990376
0.990418
1.02853
1.0286
1.02874
1.02896
1.02924
1.0296
1.03004
1.03055
1.03115
1.03184
1.03262
1.03349
1.03447
1.03557
1.03678
1.03811
1.03958
1.04118
1.04293
1.04483
1.04688
1.04907
1.05142
1.05392
1.05655
1.05931
1.06219
1.06518
1.06826
1.0714
1.07459
1.0778
1.08101
1.08419
1.08731
1.09035
1.09328
1.09606
1.09867
1.10109
1.1033
1.10526
1.10696
1.10839
1.10952
1.11034
1.11085
1.11103
1.11088
1.1104
1.10959
1.10845
1.10699
1.10522
1.10315
1.10079
1.09817
1.0953
1.0922
1.08891
1.08544
1.08184
1.07812
1.07433
1.0705
1.06665
1.06283
1.05906
1.05538
1.05182
1.0484
1.04514
1.04207
1.0392
1.03654
1.03409
1.03187
1.02987
1.02809
1.02652
1.02514
1.02396
1.02294
1.02208
1.02135
1.02075
1.02025
1.01985
1.01952
1.01926
1.01905
1.01889
1.01877
1.01869
1.01863
1.0186
1.0186
1.01862
1.01866
1.01872
1.01881
1.01892
1.01905
1.0192
1.01938
1.01957
1.01977
1.01999
1.02022
1.02045
1.02068
1.02091
1.02112
1.02133
1.02151
1.02167
1.0218
1.02191
1.02198
1.02201
1.06135
1.06142
1.06156
1.06177
1.06206
1.06242
1.06286
1.06337
1.06397
1.06465
1.06543
1.0663
1.06727
1.06834
1.06953
1.07083
1.07226
1.07382
1.0755
1.07732
1.07927
1.08136
1.08358
1.08593
1.0884
1.09098
1.09367
1.09645
1.09929
1.1022
1.10514
1.10809
1.11103
1.11395
1.1168
1.11957
1.12224
1.12477
1.12715
1.12935
1.13135
1.13312
1.13466
1.13594
1.13696
1.13769
1.13813
1.13828
1.13812
1.13766
1.1369
1.13584
1.13448
1.13285
1.13093
1.12876
1.12635
1.12371
1.12086
1.11784
1.11466
1.11135
1.10794
1.10445
1.10093
1.09739
1.09387
1.09039
1.08699
1.08368
1.0805
1.07746
1.07458
1.07188
1.06936
1.06703
1.0649
1.06296
1.06122
1.05966
1.05828
1.05708
1.05602
1.05511
1.05434
1.05367
1.05311
1.05264
1.05225
1.05193
1.05166
1.05145
1.05128
1.05114
1.05105
1.05098
1.05093
1.05092
1.05093
1.05096
1.05101
1.05109
1.05119
1.05131
1.05145
1.0516
1.05177
1.05195
1.05214
1.05233
1.05253
1.05271
1.0529
1.05307
1.05322
1.05336
1.05347
1.05355
1.05361
1.05364
1.09409
1.09416
1.0943
1.09451
1.0948
1.09516
1.09559
1.09611
1.0967
1.09738
1.09814
1.099
1.09995
1.10101
1.10217
1.10344
1.10482
1.10632
1.10793
1.10967
1.11153
1.11351
1.11561
1.11782
1.12014
1.12256
1.12506
1.12764
1.13027
1.13296
1.13567
1.13838
1.14109
1.14376
1.14637
1.1489
1.15134
1.15364
1.15581
1.1578
1.15962
1.16122
1.16261
1.16377
1.16468
1.16533
1.16571
1.16583
1.16566
1.16523
1.16451
1.16352
1.16226
1.16075
1.15898
1.15698
1.15475
1.15232
1.14971
1.14692
1.144
1.14096
1.13782
1.13461
1.13137
1.12811
1.12486
1.12164
1.11849
1.11543
1.11246
1.10963
1.10693
1.10438
1.10199
1.09977
1.09773
1.09586
1.09416
1.09263
1.09126
1.09004
1.08896
1.08802
1.0872