/*--------------------------------*- C++ -*----------------------------------*\
| =========                 |                                                 |
| \\      /  F ield         | OpenFOAM: The Open Source CFD Toolbox           |
|  \\    /   O peration     | Version:  2406                                  |
|   \\  /    A nd           | Website:  www.openfoam.com                      |
|    \\/     M anipulation  |                                                 |
\*---------------------------------------------------------------------------*/
FoamFile
{
    version     2.0;
    format      ascii;
    arch        "LSB;label=32;scalar=64";
    class       volScalarField;
    location    "7.35";
    object      D;
}
// * * * * * * * * * * * * * * * * * * * * * * * * * * * * * * * * * * * * * //

dimensions      [0 2 -1 0 0 0 0];

internalField   nonuniform List<scalar> 
14400
(
6.78919e-05
6.7809e-05
6.76815e-05
6.75493e-05
6.74364e-05
6.73526e-05
6.72994e-05
6.72771e-05
6.72879e-05
6.73374e-05
6.74336e-05
6.75826e-05
6.77789e-05
6.7988e-05
6.81264e-05
6.80705e-05
6.77506e-05
6.72698e-05
6.67341e-05
6.61914e-05
6.56484e-05
6.50972e-05
6.45311e-05
6.39518e-05
6.337e-05
6.28022e-05
6.22669e-05
6.17814e-05
6.13607e-05
6.1018e-05
6.07674e-05
6.06284e-05
6.06338e-05
6.08493e-05
6.14316e-05
6.28803e-05
6.7922e-05
0.000109617
0.00013824
0.00013824
0.00013824
0.00013824
0.00013824
0.00013824
0.00013824
0.00013824
0.00013824
0.00013824
0.00013824
0.00013824
0.00013824
0.00013824
0.00013824
0.00013824
0.00013824
0.00013824
0.00013824
0.00013824
0.00013824
0.000138212
9.23269e-05
6.69687e-05
6.30044e-05
6.1825e-05
6.14174e-05
6.13725e-05
6.15594e-05
6.19266e-05
6.2451e-05
6.3119e-05
6.39142e-05
6.48073e-05
6.57481e-05
6.6664e-05
6.74714e-05
6.80943e-05
6.84852e-05
6.86355e-05
6.85764e-05
6.8372e-05
6.81102e-05
6.78963e-05
6.7861e-05
6.8207e-05
6.94029e-05
7.3336e-05
9.38739e-05
0.000138127
0.000107116
7.38817e-05
6.85874e-05
6.68457e-05
6.60744e-05
6.57322e-05
6.5628e-05
6.56705e-05
6.58052e-05
6.59945e-05
6.62086e-05
6.64211e-05
6.66063e-05
6.67385e-05
6.67933e-05
6.6753e-05
6.66123e-05
6.63817e-05
6.60831e-05
6.57427e-05
6.53873e-05
6.50427e-05
6.4734e-05
6.44881e-05
6.43366e-05
6.43233e-05
6.45201e-05
6.50722e-05
6.63571e-05
6.98292e-05
8.48508e-05
0.000137809
6.77318e-05
6.75913e-05
6.73891e-05
6.71905e-05
6.70274e-05
6.69098e-05
6.68376e-05
6.68097e-05
6.68278e-05
6.6898e-05
6.70303e-05
6.72355e-05
6.75164e-05
6.78464e-05
6.81287e-05
6.81606e-05
6.77457e-05
6.71373e-05
6.65081e-05
6.59123e-05
6.53477e-05
6.47975e-05
6.42486e-05
6.36972e-05
6.31494e-05
6.26178e-05
6.21181e-05
6.1666e-05
6.12757e-05
6.09609e-05
6.0737e-05
6.06255e-05
6.06632e-05
6.09242e-05
6.15855e-05
6.32157e-05
6.89369e-05
0.000121715
0.00013824
0.00013824
0.00013824
0.00013824
0.00013824
0.00013824
0.00013824
0.00013824
0.00013824
0.00013824
0.00013824
0.00013824
0.00013824
0.00013824
0.00013824
0.00013824
0.00013824
0.00013824
0.00013824
0.00013824
0.00013824
0.000138238
0.00010396
6.78856e-05
6.32346e-05
6.19192e-05
6.14506e-05
6.13645e-05
6.15157e-05
6.18462e-05
6.23289e-05
6.29469e-05
6.36821e-05
6.45054e-05
6.53701e-05
6.62112e-05
6.69544e-05
6.75326e-05
6.79033e-05
6.80591e-05
6.8029e-05
6.78726e-05
6.7672e-05
6.75277e-05
6.75689e-05
6.80062e-05
6.93594e-05
7.39793e-05
0.000102883
0.000138226
0.000120241
7.49903e-05
6.88215e-05
6.68468e-05
6.59644e-05
6.55527e-05
6.53977e-05
6.53993e-05
6.55008e-05
6.56644e-05
6.58614e-05
6.60666e-05
6.62543e-05
6.63965e-05
6.64637e-05
6.64316e-05
6.62926e-05
6.60608e-05
6.57639e-05
6.54326e-05
6.50949e-05
6.47755e-05
6.44981e-05
6.42879e-05
6.41762e-05
6.42082e-05
6.4462e-05
6.51029e-05
6.65966e-05
7.11131e-05
9.86126e-05
0.000138219
6.76263e-05
6.73274e-05
6.69501e-05
6.66137e-05
6.63547e-05
6.61756e-05
6.60698e-05
6.60317e-05
6.60616e-05
6.61665e-05
6.63613e-05
6.66682e-05
6.71135e-05
6.77093e-05
6.8383e-05
6.87627e-05
6.79658e-05
6.6998e-05
6.61511e-05
6.54436e-05
6.48345e-05
6.42826e-05
6.37602e-05
6.32541e-05
6.27626e-05
6.22921e-05
6.18536e-05
6.14599e-05
6.11245e-05
6.08615e-05
6.06885e-05
6.06314e-05
6.07364e-05
6.10992e-05
6.19669e-05
6.42211e-05
7.29446e-05
0.000136332
0.00013824
0.00013824
0.00013824
0.00013824
0.00013824
0.00013824
0.00013824
0.00013824
0.00013824
0.00013824
0.00013824
0.00013824
0.00013824
0.00013824
0.00013824
0.00013824
0.00013824
0.00013824
0.00013824
0.00013824
0.00013824
0.00013824
0.000123423
6.96575e-05
6.37879e-05
6.21492e-05
6.15377e-05
6.13627e-05
6.14423e-05
6.17029e-05
6.21087e-05
6.26373e-05
6.32674e-05
6.39704e-05
6.47055e-05
6.54195e-05
6.60534e-05
6.65545e-05
6.68897e-05
6.70543e-05
6.70739e-05
6.70003e-05
6.69068e-05
6.68871e-05
6.70712e-05
6.76891e-05
6.93498e-05
7.50674e-05
0.000118499
0.00013824
0.000135687
7.8729e-05
6.96508e-05
6.69706e-05
6.5821e-05
6.52665e-05
6.50158e-05
6.49452e-05
6.49902e-05
6.51118e-05
6.5283e-05
6.54802e-05
6.56782e-05
6.58451e-05
6.59407e-05
6.59256e-05
6.57849e-05
6.55424e-05
6.52401e-05
6.49178e-05
6.46052e-05
6.43256e-05
6.41001e-05
6.39517e-05
6.3912e-05
6.40306e-05
6.44003e-05
6.52312e-05
6.71624e-05
7.34108e-05
0.000122051
0.00013824
6.81052e-05
6.73416e-05
6.65951e-05
6.60245e-05
6.5623e-05
6.53597e-05
6.52093e-05
6.51573e-05
6.52006e-05
6.53482e-05
6.56234e-05
6.60701e-05
6.67673e-05
6.78591e-05
6.96027e-05
7.21406e-05
6.90524e-05
6.7087e-05
6.58123e-05
6.49198e-05
6.42389e-05
6.36754e-05
6.31778e-05
6.27198e-05
6.22909e-05
6.18907e-05
6.15251e-05
6.12036e-05
6.09385e-05
6.07451e-05
6.06443e-05
6.06695e-05
6.08832e-05
6.14273e-05
6.27396e-05
6.72215e-05
0.000104768
0.000138239
0.00013824
0.00013824
0.00013824
0.00013824
0.00013824
0.00013824
0.00013824
0.00013824
0.00013824
0.00013824
0.00013824
0.00013824
0.00013824
0.00013824
0.00013824
0.00013824
0.00013824
0.00013824
0.00013824
0.00013824
0.00013824
0.00013824
0.000137757
7.81323e-05
6.53072e-05
6.26393e-05
6.17224e-05
6.13939e-05
6.13643e-05
6.15267e-05
6.18305e-05
6.22457e-05
6.27471e-05
6.3307e-05
6.38912e-05
6.44588e-05
6.4967e-05
6.5379e-05
6.56725e-05
6.58468e-05
6.59241e-05
6.59486e-05
6.59853e-05
6.61247e-05
6.65086e-05
6.74265e-05
6.97382e-05
7.7687e-05
0.000134375
0.00013824
0.000138238
0.000109441
7.26583e-05
6.74846e-05
6.5782e-05
6.49935e-05
6.46051e-05
6.44398e-05
6.44161e-05
6.44909e-05
6.46379e-05
6.48361e-05
6.50619e-05
6.528e-05
6.54322e-05
6.54471e-05
6.52896e-05
6.50094e-05
6.4678e-05
6.43495e-05
6.40554e-05
6.38162e-05
6.36498e-05
6.35781e-05
6.36351e-05
6.38824e-05
6.44468e-05
6.56614e-05
6.8855e-05
8.38294e-05
0.000137893
0.00013824
7.1273e-05
6.82702e-05
6.66127e-05
6.56287e-05
6.50169e-05
6.46412e-05
6.44342e-05
6.4364e-05
6.44218e-05
6.462e-05
6.49966e-05
6.56344e-05
6.67275e-05
6.88395e-05
7.45538e-05
0.000102828
7.33184e-05
6.78008e-05
6.56597e-05
6.44752e-05
6.36851e-05
6.30908e-05
6.26053e-05
6.21862e-05
6.18135e-05
6.14802e-05
6.11875e-05
6.09422e-05
6.07558e-05
6.06456e-05
6.06382e-05
6.07799e-05
6.11639e-05
6.20188e-05
6.41151e-05
7.1798e-05
0.000134975
0.00013824
0.00013824
0.00013824
0.00013824
0.00013824
0.00013824
0.00013824
0.00013824
0.00013824
0.00013824
0.00013824
0.00013824
0.00013824
0.00013824
0.00013824
0.00013824
0.00013824
0.00013824
0.00013824
0.00013824
0.00013824
0.00013824
0.00013824
0.00013824
0.000117177
6.89605e-05
6.35772e-05
6.20713e-05
6.14989e-05
6.13172e-05
6.13557e-05
6.15408e-05
6.18319e-05
6.21997e-05
6.26171e-05
6.30555e-05
6.34847e-05
6.38756e-05
6.42049e-05
6.44601e-05
6.46443e-05
6.4778e-05
6.49003e-05
6.50725e-05
6.53903e-05
6.6032e-05
6.74582e-05
7.18428e-05
0.000101205
0.000138229
0.00013824
0.00013824
0.000136749
7.89197e-05
6.8801e-05
6.60618e-05
6.48886e-05
6.43016e-05
6.4016e-05
6.39145e-05
6.39436e-05
6.40767e-05
6.42958e-05
6.4583e-05
6.49054e-05
6.51795e-05
6.52588e-05
6.50383e-05
6.4654e-05
6.42403e-05
6.38718e-05
6.35751e-05
6.33653e-05
6.32569e-05
6.32719e-05
6.34525e-05
6.38894e-05
6.47915e-05
6.68118e-05
7.3407e-05
0.000126206
0.00013824
0.00013824
9.65109e-05
7.23916e-05
6.75129e-05
6.56558e-05
6.46926e-05
6.41507e-05
6.38657e-05
6.37704e-05
6.38458e-05
6.41108e-05
6.46323e-05
6.55716e-05
6.74267e-05
7.26624e-05
0.00010702
0.000138199
9.43414e-05
7.01078e-05
6.58974e-05
6.42355e-05
6.3275e-05
6.26171e-05
6.21209e-05
6.17231e-05
6.13927e-05
6.1116e-05
6.089e-05
6.07197e-05
6.06171e-05
6.06039e-05
6.07181e-05
6.10332e-05
6.17214e-05
6.33273e-05
6.87945e-05
0.000116829
0.00013824
0.00013824
0.00013824
0.00013824
0.00013824
0.00013824
0.00013824
0.00013824
0.00013824
0.00013824
0.00013824
0.00013824
0.00013824
0.00013824
0.00013824
0.00013824
0.00013824
0.00013824
0.00013824
0.00013824
0.00013824
0.00013824
0.00013824
0.00013824
0.00013824
0.000138039
8.15465e-05
6.56559e-05
6.27421e-05
6.17512e-05
6.13517e-05
6.12349e-05
6.12864e-05
6.14498e-05
6.16891e-05
6.19767e-05
6.22879e-05
6.26003e-05
6.28946e-05
6.31573e-05
6.33835e-05
6.35796e-05
6.37662e-05
6.39818e-05
6.42908e-05
6.48085e-05
6.57839e-05
6.79509e-05
7.4979e-05
0.000130281
0.00013824
0.00013824
0.00013824
0.00013824
0.000126192
7.39269e-05
6.72778e-05
6.52029e-05
6.42624e-05
6.38025e-05
6.36031e-05
6.35867e-05
6.37238e-05
6.40003e-05
6.44147e-05
6.49697e-05
6.55653e-05
6.58593e-05
6.53873e-05
6.47092e-05
6.40888e-05
6.36138e-05
6.32754e-05
6.30748e-05
6.30217e-05
6.3141e-05
6.34951e-05
6.42587e-05
6.59271e-05
7.09619e-05
0.00010529
0.000138237
0.00013824
0.00013824
0.0001382
9.73095e-05
7.12847e-05
6.6584e-05
6.48562e-05
6.40149e-05
6.36047e-05
6.34709e-05
6.35718e-05
6.39421e-05
6.472e-05
6.62696e-05
7.02022e-05
8.98068e-05
0.000138141
0.00013824
0.000133633
7.46758e-05
6.68743e-05
6.43759e-05
6.3112e-05
6.23264e-05
6.17827e-05
6.13816e-05
6.10757e-05
6.08429e-05
6.06759e-05
6.05791e-05
6.05682e-05
6.06744e-05
6.09603e-05
6.15637e-05
6.28936e-05
6.69499e-05
9.41483e-05
0.000138228
0.00013824
0.00013824
0.00013824
0.00013824
0.00013824
0.00013824
0.00013824
0.00013824
0.00013824
0.00013824
0.00013824
0.00013824
0.00013824
0.00013824
0.00013824
0.00013824
0.00013824
0.00013824
0.00013824
0.00013824
0.00013824
0.00013824
0.00013824
0.00013824
0.00013824
0.00013824
0.000130137
7.0724e-05
6.41492e-05
6.23081e-05
6.15506e-05
6.12205e-05
6.11144e-05
6.11442e-05
6.12613e-05
6.1434e-05
6.16387e-05
6.18575e-05
6.20775e-05
6.22917e-05
6.25005e-05
6.27136e-05
6.29543e-05
6.32656e-05
6.37258e-05
6.44996e-05
6.60484e-05
7.0617e-05
0.000102287
0.000138234
0.00013824
0.00013824
0.00013824
0.00013824
0.00013824
0.000113126
7.23674e-05
6.65729e-05
6.47508e-05
6.39744e-05
6.36173e-05
6.35439e-05
6.37185e-05
6.41309e-05
6.48258e-05
6.60267e-05
6.78733e-05
6.96706e-05
6.74423e-05
6.56859e-05
6.44731e-05
6.37439e-05
6.32821e-05
6.30558e-05
6.30623e-05
6.33369e-05
6.39876e-05
6.54889e-05
6.97221e-05
9.21338e-05
0.000138196
0.00013824
0.00013824
0.00013824
0.00013824
0.000138179
9.27196e-05
7.05531e-05
6.60585e-05
6.44743e-05
6.38167e-05
6.36133e-05
6.37601e-05
6.43359e-05
6.57448e-05
6.92488e-05
8.25563e-05
0.000137751
0.00013824
0.00013824
0.00013824
0.000117605
7.1468e-05
6.54261e-05
6.33752e-05
6.23081e-05
6.16496e-05
6.12095e-05
6.09067e-05
6.07045e-05
6.05909e-05
6.05719e-05
6.06723e-05
6.09457e-05
6.15195e-05
6.27225e-05
6.59264e-05
8.16846e-05
0.000138055
0.00013824
0.00013824
0.00013824
0.00013824
0.00013824
0.00013824
0.00013824
0.00013824
0.00013824
0.00013824
0.00013824
0.00013824
0.00013824
0.00013824
0.00013824
0.00013824
0.00013824
0.00013824
0.00013824
0.00013824
0.00013824
0.00013824
0.00013824
0.00013824
0.00013824
0.00013824
0.00013824
0.00013824
0.000113245
6.89987e-05
6.36723e-05
6.20846e-05
6.13975e-05
6.10794e-05
6.09571e-05
6.09517e-05
6.10192e-05
6.11333e-05
6.12775e-05
6.1442e-05
6.1624e-05
6.18277e-05
6.20675e-05
6.23727e-05
6.27994e-05
6.3459e-05
6.46166e-05
6.7166e-05
7.63224e-05
0.000136322
0.00013824
0.00013824
0.00013824
0.00013824
0.00013824
0.00013824
0.000138239
0.000110258
7.2173e-05
6.6531e-05
6.49701e-05
6.42285e-05
6.40431e-05
6.43503e-05
6.51506e-05
6.66113e-05
7.08265e-05
8.08353e-05
0.000103193
7.79631e-05
7.00916e-05
6.61112e-05
6.46795e-05
6.38409e-05
6.35071e-05
6.36036e-05
6.42214e-05
6.55794e-05
6.99949e-05
9.12278e-05
0.000138153
0.00013824
0.00013824
0.00013824
0.00013824
0.00013824
0.00013824
0.000138185
9.77158e-05
7.12604e-05
6.63328e-05
6.50055e-05
6.46348e-05
6.48931e-05
6.60016e-05
7.02457e-05
8.69219e-05
0.000137721
0.00013824
0.00013824
0.00013824
0.00013824
0.000138235
0.000100744
6.95333e-05
6.45369e-05
6.27409e-05
6.18194e-05
6.12781e-05
6.09486e-05
6.07638e-05
6.0704e-05
6.07814e-05
6.10473e-05
6.1613e-05
6.28509e-05
6.60474e-05
7.89345e-05
0.000137751
0.00013824
0.00013824
0.00013824
0.00013824
0.00013824
0.00013824
0.00013824
0.00013824
0.00013824
0.00013824
0.00013824
0.00013824
0.00013824
0.00013824
0.00013824
0.00013824
0.00013824
0.00013824
0.00013824
0.00013824
0.00013824
0.00013824
0.00013824
0.00013824
0.00013824
0.00013824
0.00013824
0.00013824
0.00013824
0.000138235
9.91404e-05
6.79715e-05
6.34059e-05
6.19328e-05
6.12663e-05
6.0942e-05
6.07975e-05
6.07589e-05
6.07899e-05
6.08714e-05
6.09943e-05
6.11579e-05
6.13709e-05
6.16545e-05
6.20508e-05
6.26505e-05
6.36571e-05
6.56942e-05
7.21115e-05
0.000124862
0.00013824
0.00013824
0.00013824
0.00013824
0.00013824
0.00013824
0.00013824
0.00013824
0.000138239
0.0001203
7.37978e-05
6.9051e-05
6.63684e-05
6.57753e-05
6.66878e-05
6.95334e-05
7.42313e-05
0.000114514
0.000137745
0.000138236
0.000137247
0.000108574
7.2911e-05
6.85557e-05
6.57548e-05
6.50173e-05
6.53379e-05
6.74339e-05
7.17686e-05
0.000103797
0.000138192
0.00013824
0.00013824
0.00013824
0.00013824
0.00013824
0.00013824
0.00013824
0.00013824
0.000138227
0.000116858
7.42123e-05
6.99945e-05
6.88275e-05
6.96525e-05
7.28363e-05
0.000107901
0.000138115
0.00013824
0.00013824
0.00013824
0.00013824
0.00013824
0.00013824
0.000138217
9.44541e-05
6.8923e-05
6.41884e-05
6.2535e-05
6.17473e-05
6.1336e-05
6.1152e-05
6.11608e-05
6.13935e-05
6.20022e-05
6.32919e-05
6.72779e-05
8.46052e-05
0.000137837
0.00013824
0.00013824
0.00013824
0.00013824
0.00013824
0.00013824
0.00013824
0.00013824
0.00013824
0.00013824
0.00013824
0.00013824
0.00013824
0.00013824
0.00013824
0.00013824
0.00013824
0.00013824
0.00013824
0.00013824
0.00013824
0.00013824
0.00013824
0.00013824
0.00013824
0.00013824
0.00013824
0.00013824
0.00013824
0.00013824
0.00013824
0.00013822
9.30959e-05
6.76506e-05
6.33187e-05
6.18607e-05
6.11966e-05
6.08604e-05
6.06937e-05
6.06356e-05
6.06582e-05
6.07486e-05
6.09072e-05
6.1149e-05
6.15084e-05
6.20554e-05
6.29784e-05
6.48164e-05
7.02887e-05
0.000109411
0.000138239
0.00013824
0.00013824
0.00013824
0.00013824
0.00013824
0.00013824
0.00013824
0.00013824
0.00013824
0.00013824
0.000133932
0.000101631
7.54509e-05
7.2316e-05
7.76148e-05
0.000106421
0.000134909
0.00013824
0.00013824
0.00013824
0.00013824
0.000138239
0.000132023
9.88867e-05
7.34239e-05
7.08182e-05
7.19226e-05
8.81194e-05
0.000126162
0.000138237
0.00013824
0.00013824
0.00013824
0.00013824
0.00013824
0.00013824
0.00013824
0.00013824
0.00013824
0.00013824
0.00013824
0.000135424
0.000113767
9.95968e-05
0.000110099
0.000132442
0.000138239
0.00013824
0.00013824
0.00013824
0.00013824
0.00013824
0.00013824
0.00013824
0.00013824
0.000138219
0.000100924
6.97821e-05
6.46809e-05
6.31292e-05
6.24747e-05
6.22545e-05
6.24045e-05
6.3e-05
6.48793e-05
6.93756e-05
0.000101584
0.000138152
0.00013824
0.00013824
0.00013824
0.00013824
0.00013824
0.00013824
0.00013824
0.00013824
0.00013824
0.00013824
0.00013824
0.00013824
0.00013824
0.00013824
0.00013824
0.00013824
0.00013824
0.00013824
0.00013824
0.00013824
0.00013824
0.00013824
0.00013824
0.00013824
0.00013824
0.00013824
0.00013824
0.00013824
0.00013824
0.00013824
0.00013824
0.00013824
0.00013824
0.000138215
9.53117e-05
6.81222e-05
6.34546e-05
6.19674e-05
6.12821e-05
6.09116e-05
6.07321e-05
6.06872e-05
6.07497e-05
6.09193e-05
6.12244e-05
6.17335e-05
6.25767e-05
6.43145e-05
6.94232e-05
0.000101373
0.000138236
0.00013824
0.00013824
0.00013824
0.00013824
0.00013824
0.00013824
0.00013824
0.00013824
0.00013824
0.00013824
0.00013824
0.00013824
0.000138235
0.000136471
0.000131968
0.000137289
0.000138238
0.00013824
0.00013824
0.00013824
0.00013824
0.00013824
0.00013824
0.00013824
0.000138232
0.000135043
0.000126042
0.000131874
0.000138167
0.00013824
0.00013824
0.00013824
0.00013824
0.00013824
0.00013824
0.00013824
0.00013824
0.00013824
0.00013824
0.00013824
0.00013824
0.00013824
0.00013824
0.00013824
0.000138232
0.000138239
0.00013824
0.00013824
0.00013824
0.00013824
0.00013824
0.00013824
0.00013824
0.00013824
0.00013824
0.00013824
0.00013824
0.000138236
0.000120571
7.36755e-05
6.82766e-05
6.63928e-05
6.59137e-05
6.67782e-05
6.88015e-05
8.10743e-05
0.000125677
0.000138238
0.00013824
0.00013824
0.00013824
0.00013824
0.00013824
0.00013824
0.00013824
0.00013824
0.00013824
0.00013824
0.00013824
0.00013824
0.00013824
0.00013824
0.00013824
0.00013824
0.00013824
0.00013824
0.00013824
0.00013824
0.00013824
0.00013824
0.00013824
0.00013824
0.00013824
0.00013824
0.00013824
0.00013824
0.00013824
0.00013824
0.00013824
0.00013824
0.00013824
0.00013824
0.00013824
0.00013823
0.000106403
6.93593e-05
6.41766e-05
6.25162e-05
6.16511e-05
6.12402e-05
6.1094e-05
6.11276e-05
6.13349e-05
6.17843e-05
6.26837e-05
6.42982e-05
6.96316e-05
0.000103586
0.000138234
0.00013824
0.00013824
0.00013824
0.00013824
0.00013824
0.00013824
0.00013824
0.00013824
0.00013824
0.00013824
0.00013824
0.00013824
0.00013824
0.00013824
0.00013824
0.00013824
0.00013824
0.00013824
0.00013824
0.00013824
0.00013824
0.00013824
0.00013824
0.00013824
0.00013824
0.00013824
0.00013824
0.00013824
0.00013824
0.00013824
0.00013824
0.00013824
0.00013824
0.00013824
0.00013824
0.00013824
0.00013824
0.00013824
0.00013824
0.00013824
0.00013824
0.00013824
0.00013824
0.00013824
0.00013824
0.00013824
0.00013824
0.00013824
0.00013824
0.00013824
0.00013824
0.00013824
0.00013824
0.00013824
0.00013824
0.00013824
0.00013824
0.00013824
0.00013824
0.00013824
0.000136665
0.000114515
9.29527e-05
8.86652e-05
0.000100834
0.00012345
0.000138066
0.00013824
0.00013824
0.00013824
0.00013824
0.00013824
0.00013824
0.00013824
0.00013824
0.00013824
0.00013824
0.00013824
0.00013824
0.00013824
0.00013824
0.00013824
0.00013824
0.00013824
0.00013824
0.00013824
0.00013824
0.00013824
0.00013824
0.00013824
0.00013824
0.00013824
0.00013824
0.00013824
0.00013824
0.00013824
0.00013824
0.00013824
0.00013824
0.00013824
0.00013824
0.00013824
0.00013824
0.00013824
0.00013824
0.000138239
0.000124832
7.38283e-05
6.71194e-05
6.38036e-05
6.26996e-05
6.23358e-05
6.23228e-05
6.2639e-05
6.3492e-05
6.62705e-05
7.1145e-05
0.000116925
0.000138238
0.00013824
0.00013824
0.00013824
0.00013824
0.00013824
0.00013824
0.00013824
0.00013824
0.00013824
0.00013824
0.00013824
0.00013824
0.00013824
0.00013824
0.00013824
0.00013824
0.00013824
0.00013824
0.00013824
0.00013824
0.00013824
0.00013824
0.00013824
0.00013824
0.00013824
0.00013824
0.00013824
0.00013824
0.00013824
0.00013824
0.00013824
0.00013824
0.00013824
0.00013824
0.00013824
0.00013824
0.00013824
0.00013824
0.00013824
0.00013824
0.00013824
0.00013824
0.00013824
0.00013824
0.00013824
0.00013824
0.00013824
0.00013824
0.00013824
0.00013824
0.00013824
0.00013824
0.00013824
0.00013824
0.00013824
0.00013824
0.00013824
0.00013824
0.00013824
0.00013824
0.00013824
0.00013824
0.00013824
0.000138221
0.000138194
0.000138237
0.00013824
0.00013824
0.00013824
0.00013824
0.00013824
0.00013824
0.00013824
0.00013824
0.00013824
0.00013824
0.00013824
0.00013824
0.00013824
0.00013824
0.00013824
0.00013824
0.00013824
0.00013824
0.00013824
0.00013824
0.00013824
0.00013824
0.00013824
0.00013824
0.00013824
0.00013824
0.00013824
0.00013824
0.00013824
0.00013824
0.00013824
0.00013824
0.00013824
0.00013824
0.00013824
0.00013824
0.00013824
0.00013824
0.00013824
0.00013824
0.00013824
0.00013824
0.000137121
0.000109065
7.28364e-05
6.81636e-05
6.69576e-05
6.67433e-05
6.75886e-05
6.99629e-05
9.37428e-05
0.00013278
0.00013824
0.00013824
0.00013824
0.00013824
0.00013824
0.00013824
0.00013824
0.00013824
0.00013824
0.00013824
0.00013824
0.00013824
0.00013824
0.00013824
0.00013824
0.00013824
0.00013824
0.00013824
0.00013824
0.00013824
0.00013824
0.00013824
0.00013824
0.00013824
0.00013824
0.00013824
0.00013824
0.00013824
0.00013824
0.00013824
0.00013824
0.00013824
0.00013824
0.00013824
0.00013824
0.00013824
0.00013824
0.00013824
0.00013824
0.00013824
0.00013824
0.00013824
0.00013824
0.00013824
0.00013824
0.00013824
0.00013824
0.00013824
0.00013824
0.00013824
0.00013824
0.00013824
0.00013824
0.00013824
0.00013824
0.00013824
0.00013824
0.00013824
0.00013824
0.00013824
0.00013824
0.00013824
0.00013824
0.00013824
0.00013824
0.00013824
0.00013824
0.00013824
0.00013824
0.00013824
0.00013824
0.00013824
0.00013824
0.00013824
0.00013824
0.00013824
0.00013824
0.00013824
0.00013824
0.00013824
0.00013824
0.00013824
0.00013824
0.00013824
0.00013824
0.00013824
0.00013824
0.00013824
0.00013824
0.00013824
0.00013824
0.00013824
0.00013824
0.00013824
0.00013824
0.00013824
0.00013824
0.00013824
0.00013824
0.00013824
0.00013824
0.00013824
0.00013824
0.00013824
0.00013824
0.00013824
0.00013824
0.00013824
0.00013824
0.00013824
0.00013824
0.00013824
0.000136775
0.000120732
0.000105348
0.000101448
0.000111877
0.000130915
0.000138227
0.00013824
0.00013824
0.00013824
0.00013824
0.00013824
0.00013824
0.00013824
0.00013824
0.00013824
0.00013824
0.00013824
0.00013824
0.00013824
0.00013824
0.00013824
0.00013824
0.00013824
0.00013824
0.00013824
0.00013824
0.00013824
0.00013824
0.00013824
0.00013824
0.00013824
0.00013824
0.00013824
0.00013824
0.00013824
0.00013824
0.00013824
0.00013824
0.00013824
0.00013824
0.00013824
0.00013824
0.00013824
0.00013824
0.00013824
0.00013824
0.00013824
0.00013824
0.00013824
0.00013824
0.00013824
0.00013824
0.00013824
0.00013824
0.00013824
0.00013824
0.00013824
0.00013824
0.00013824
0.00013824
0.00013824
0.00013824
0.00013824
0.00013824
0.00013824
0.00013824
0.00013824
0.00013824
0.00013824
0.00013824
0.00013824
0.00013824
0.00013824
0.00013824
0.00013824
0.00013824
0.00013824
0.00013824
0.00013824
0.00013824
0.00013824
0.00013824
0.00013824
0.00013824
0.00013824
0.00013824
0.00013824
0.00013824
0.00013824
0.00013824
0.00013824
0.00013824
0.00013824
0.00013824
0.00013824
0.00013824
0.00013824
0.00013824
0.00013824
0.00013824
0.00013824
0.00013824
0.00013824
0.00013824
0.00013824
0.00013824
0.00013824
0.00013824
0.00013824
0.00013824
0.00013824
0.00013824
0.00013824
0.00013824
0.00013824
0.00013824
0.00013824
0.00013824
0.00013824
0.00013824
0.00013824
0.000138239
0.000138237
0.00013824
0.00013824
0.00013824
0.00013824
0.00013824
0.00013824
0.00013824
0.00013824
0.00013824
0.00013824
0.00013824
0.00013824
0.00013824
0.00013824
0.00013824
0.00013824
0.00013824
0.00013824
0.00013824
0.00013824
0.00013824
0.00013824
0.00013824
0.00013824
0.00013824
0.00013824
0.00013824
0.00013824
0.00013824
0.00013824
0.00013824
0.00013824
0.00013824
0.00013824
0.00013824
0.00013824
0.00013824
0.00013824
0.00013824
0.00013824
0.00013824
0.00013824
0.00013824
0.00013824
0.00013824
0.00013824
0.00013824
0.00013824
0.00013824
0.00013824
0.00013824
0.00013824
0.00013824
0.00013824
0.00013824
0.00013824
0.00013824
0.00013824
0.00013824
0.00013824
0.00013824
0.00013824
0.00013824
0.00013824
0.00013824
0.00013824
0.00013824
0.00013824
0.00013824
0.00013824
0.00013824
0.00013824
0.00013824
0.00013824
0.00013824
0.00013824
0.00013824
0.00013824
0.00013824
0.00013824
0.00013824
0.00013824
0.00013824
0.00013824
0.00013824
0.00013824
0.00013824
0.00013824
0.00013824
0.00013824
0.00013824
0.00013824
0.00013824
0.00013824
0.00013824
0.00013824
0.00013824
0.00013824
0.00013824
0.00013824
0.00013824
0.00013824
0.00013824
0.00013824
0.00013824
0.00013824
0.00013824
0.00013824
0.00013824
0.00013824
0.00013824
0.00013824
0.00013824
0.00013824
0.00013824
0.00013824
0.00013824
0.00013824
0.00013824
0.00013824
0.00013824
0.00013824
0.00013824
0.00013824
0.00013824
0.00013824
0.00013824
0.00013824
0.00013824
0.00013824
0.00013824
0.00013824
0.00013824
0.00013824
0.00013824
0.00013824
0.00013824
0.00013824
0.00013824
0.00013824
0.00013824
0.00013824
0.00013824
0.00013824
0.00013824
0.00013824
0.00013824
0.00013824
0.00013824
0.00013824
0.00013824
0.00013824
0.00013824
0.00013824
0.00013824
0.00013824
0.00013824
0.00013824
0.00013824
0.00013824
0.00013824
0.00013824
0.00013824
0.00013824
0.00013824
0.00013824
0.00013824
0.00013824
0.00013824
0.00013824
0.00013824
0.00013824
0.00013824
0.00013824
0.00013824
0.00013824
0.00013824
0.00013824
0.00013824
0.00013824
0.00013824
0.00013824
0.00013824
0.00013824
0.00013824
0.00013824
0.00013824
0.00013824
0.00013824
0.00013824
0.00013824
0.00013824
0.00013824
0.00013824
0.00013824
0.00013824
0.00013824
0.00013824
0.00013824
0.00013824
0.00013824
0.00013824
0.00013824
0.00013824
0.00013824
0.00013824
0.00013824
0.00013824
0.00013824
0.00013824
0.00013824
0.00013824
0.00013824
0.00013824
0.00013824
0.00013824
0.00013824
0.00013824
0.00013824
0.00013824
0.00013824
0.00013824
0.00013824
0.00013824
0.00013824
0.00013824
0.00013824
0.00013824
0.00013824
0.00013824
0.00013824
0.00013824
0.00013824
0.00013824
0.00013824
0.00013824
0.00013824
0.00013824
0.00013824
0.00013824
0.00013824
0.00013824
0.00013824
0.00013824
0.00013824
0.00013824
0.00013824
0.00013824
0.00013824
0.00013824
0.00013824
0.00013824
0.00013824
0.00013824
0.00013824
0.00013824
0.00013824
0.00013824
0.00013824
0.00013824
0.00013824
0.00013824
0.00013824
0.00013824
0.00013824
0.00013824
0.00013824
0.00013824
0.00013824
0.00013824
0.00013824
0.00013824
0.00013824
0.00013824
0.00013824
0.00013824
0.00013824
0.00013824
0.00013824
0.00013824
0.00013824
0.00013824
0.00013824
0.00013824
0.00013824
0.00013824
0.00013824
0.00013824
0.00013824
0.00013824
0.00013824
0.00013824
0.00013824
0.00013824
0.00013824
0.00013824
0.00013824
0.00013824
0.00013824
0.00013824
0.00013824
0.00013824
0.00013824
0.00013824
0.00013824
0.00013824
0.00013824
0.00013824
0.00013824
0.00013824
0.00013824
0.00013824
0.00013824
0.00013824
0.00013824
0.00013824
0.00013824
0.00013824
0.00013824
0.00013824
0.00013824
0.00013824
0.00013824
0.00013824
0.00013824
0.00013824
0.00013824
0.00013824
0.00013824
0.00013824
0.00013824
0.00013824
0.00013824
0.00013824
0.00013824
0.00013824
0.00013824
0.00013824
0.00013824
0.00013824
0.00013824
0.00013824
0.00013824
0.00013824
0.00013824
0.00013824
0.00013824
0.00013824
0.00013824
0.00013824
0.00013824
0.00013824
0.00013824
0.00013824
0.00013824
0.00013824
0.00013824
0.00013824
0.00013824
0.00013824
0.00013824
0.00013824
0.00013824
0.00013824
0.00013824
0.00013824
0.00013824
0.00013824
0.00013824
0.00013824
0.00013824
0.00013824
0.00013824
0.00013824
0.00013824
0.00013824
0.00013824
0.00013824
0.00013824
0.00013824
0.00013824
0.00013824
0.00013824
0.00013824
0.00013824
0.00013824
0.00013824
0.00013824
0.00013824
0.00013824
0.00013824
0.00013824
0.00013824
0.00013824
0.00013824
0.00013824
0.00013824
0.00013824
0.00013824
0.00013824
0.00013824
0.00013824
0.00013824
0.00013824
0.00013824
0.00013824
0.00013824
0.00013824
0.00013824
0.00013824
0.00013824
0.00013824
0.00013824
0.00013824
0.00013824
0.00013824
0.00013824
0.00013824
0.00013824
0.00013824
0.00013824
0.00013824
0.00013824
0.00013824
0.00013824
0.00013824
0.00013824
0.00013824
0.00013824
0.00013824
0.00013824
0.00013824
0.00013824
0.00013824
0.00013824
0.00013824
0.00013824
0.00013824
0.00013824
0.00013824
0.00013824
0.00013824
0.00013824
0.00013824
0.00013824
0.00013824
0.00013824
0.00013824
0.00013824
0.00013824
0.00013824
0.00013824
0.00013824
0.00013824
0.00013824
0.00013824
0.00013824
0.00013824
0.00013824
0.00013824
0.00013824
0.00013824
0.00013824
0.00013824
0.00013824
0.00013824
0.00013824
0.00013824
0.00013824
0.00013824
0.00013824
0.00013824
0.00013824
0.00013824
0.00013824
0.00013824
0.00013824
0.00013824
0.00013824
0.00013824
0.00013824
0.00013824
0.00013824
0.00013824
0.00013824
0.00013824
0.00013824
0.00013824
0.00013824
0.00013824
0.00013824
0.00013824
0.00013824
0.00013824
0.00013824
0.00013824
0.00013824
0.00013824
0.00013824
0.00013824
0.00013824
0.00013824
0.00013824
0.00013824
0.00013824
0.00013824
0.00013824
0.00013824
0.00013824
0.00013824
0.00013824
0.00013824
0.00013824
0.00013824
0.00013824
0.00013824
0.00013824
0.00013824
0.00013824
0.00013824
0.00013824
0.00013824
0.00013824
0.00013824
0.00013824
0.00013824
0.00013824
0.00013824
0.00013824
0.00013824
0.00013824
0.00013824
0.00013824
0.00013824
0.00013824
0.00013824
0.00013824
0.00013824
0.00013824
0.00013824
0.00013824
0.00013824
0.00013824
0.00013824
0.00013824
0.00013824
0.00013824
0.00013824
0.00013824
0.00013824
0.00013824
0.00013824
0.00013824
0.00013824
0.00013824
0.00013824
0.00013824
0.00013824
0.00013824
0.00013824
0.00013824
0.00013824
0.00013824
0.00013824
0.00013824
0.00013824
0.00013824
0.00013824
0.00013824
0.00013824
0.00013824
0.00013824
0.00013824
0.00013824
0.00013824
0.00013824
0.00013824
0.00013824
0.00013824
0.00013824
0.00013824
0.00013824
0.00013824
0.00013824
0.00013824
0.00013824
0.00013824
0.00013824
0.00013824
0.00013824
0.00013824
0.00013824
0.00013824
0.00013824
0.00013824
0.00013824
0.00013824
0.00013824
0.00013824
0.00013824
0.00013824
0.00013824
0.00013824
0.00013824
0.00013824
0.00013824
0.00013824
0.00013824
0.00013824
0.00013824
0.00013824
0.00013824
0.00013824
0.00013824
0.00013824
0.00013824
0.00013824
0.00013824
0.00013824
0.00013824
0.00013824
0.00013824
0.00013824
0.00013824
0.00013824
0.00013824
0.00013824
0.00013824
0.00013824
0.00013824
0.00013824
0.00013824
0.00013824
0.00013824
0.00013824
0.00013824
0.00013824
0.00013824
0.00013824
0.00013824
0.00013824
0.00013824
0.00013824
0.00013824
0.00013824
0.00013824
0.00013824
0.00013824
0.00013824
0.00013824
0.00013824
0.00013824
0.00013824
0.00013824
0.00013824
0.00013824
0.00013824
0.00013824
0.00013824
0.00013824
0.00013824
0.00013824
0.00013824
0.00013824
0.00013824
0.00013824
0.00013824
0.00013824
0.00013824
0.00013824
0.00013824
0.00013824
0.00013824
0.00013824
0.00013824
0.00013824
0.00013824
0.00013824
0.00013824
0.00013824
0.00013824
0.00013824
0.00013824
0.00013824
0.00013824
0.00013824
0.00013824
0.00013824
0.00013824
0.00013824