/*--------------------------------*- C++ -*----------------------------------*\
| =========                 |                                                 |
| \\      /  F ield         | OpenFOAM: The Open Source CFD Toolbox           |
|  \\    /   O peration     | Version:  2406                                  |
|   \\  /    A nd           | Website:  www.openfoam.com                      |
|    \\/     M anipulation  |                                                 |
\*---------------------------------------------------------------------------*/
FoamFile
{
    version     2.0;
    format      ascii;
    arch        "LSB;label=32;scalar=64";
    class       volScalarField;
    location    "6.4";
    object      C;
}
// * * * * * * * * * * * * * * * * * * * * * * * * * * * * * * * * * * * * * //

dimensions      [1 -3 0 0 0 0 0];

internalField   nonuniform List<scalar> 
14400
(
0.254885
0.253475
0.251051
0.248178
0.245409
0.2432
0.241885
0.241672
0.24265
0.244785
0.247919
0.251751
0.255819
0.259483
0.261947
0.26239
0.26036
0.256443
0.251579
0.246676
0.242493
0.23963
0.238561
0.239674
0.243302
0.24975
0.259314
0.272296
0.289016
0.309815
0.335055
0.365117
0.40037
0.441113
0.487358
0.537788
0.581667
0.611824
0.634287
0.6538
0.670665
0.685115
0.69733
0.70745
0.715584
0.721815
0.726206
0.7288
0.729626
0.728696
0.726008
0.721547
0.715282
0.707166
0.697134
0.6851
0.670956
0.654559
0.635734
0.614252
0.589762
0.553958
0.504149
0.454137
0.408774
0.368857
0.334296
0.304759
0.279855
0.259195
0.242422
0.229212
0.219285
0.212402
0.208363
0.20701
0.208218
0.211898
0.21799
0.226451
0.237242
0.250306
0.265534
0.282711
0.30139
0.32044
0.3354
0.34207
0.341272
0.33234
0.318938
0.305096
0.292011
0.280237
0.270054
0.26158
0.254822
0.249697
0.246053
0.243674
0.242304
0.241668
0.241516
0.241674
0.242093
0.242867
0.244216
0.246432
0.249831
0.254716
0.261354
0.269963
0.2807
0.293652
0.308814
0.326038
0.344926
0.364388
0.379831
0.386829
0.263671
0.261852
0.258841
0.255382
0.252121
0.249549
0.248009
0.247711
0.248743
0.251077
0.254561
0.258907
0.263655
0.268138
0.271426
0.272324
0.269744
0.264916
0.259151
0.253487
0.248707
0.245396
0.244011
0.244919
0.248441
0.25487
0.264498
0.277621
0.294555
0.315637
0.34123
0.371704
0.407418
0.448634
0.495288
0.545868
0.587285
0.615167
0.637236
0.656447
0.67308
0.68735
0.699425
0.709436
0.717487
0.723656
0.728003
0.730569
0.731382
0.730453
0.727782
0.723352
0.717133
0.709082
0.699135
0.687212
0.673207
0.656989
0.638391
0.617202
0.593151
0.559905
0.51232
0.461598
0.415558
0.375076
0.340025
0.31006
0.284784
0.263808
0.246772
0.233352
0.223268
0.21628
0.212192
0.210844
0.212115
0.215919
0.222198
0.230911
0.242024
0.255484
0.271186
0.288912
0.30819
0.327806
0.342586
0.348675
0.348533
0.340699
0.327086
0.312725
0.299143
0.286965
0.276481
0.26781
0.260956
0.255834
0.252282
0.25007
0.248912
0.248489
0.248498
0.248714
0.249068
0.249678
0.250814
0.252821
0.256058
0.260853
0.267489
0.276191
0.287118
0.300359
0.315903
0.333588
0.352953
0.372707
0.387203
0.392947
0.28181
0.278969
0.274629
0.269922
0.265648
0.262343
0.260352
0.259882
0.261019
0.263741
0.267913
0.27327
0.279382
0.285574
0.290758
0.293028
0.288889
0.281985
0.274337
0.267146
0.261186
0.256998
0.254991
0.255497
0.258811
0.265207
0.274964
0.28837
0.305733
0.327386
0.353683
0.384984
0.421616
0.46376
0.51103
0.560576
0.596897
0.621734
0.643043
0.661673
0.677858
0.69178
0.703583
0.713383
0.721271
0.727318
0.731579
0.734091
0.734879
0.733954
0.731313
0.726944
0.720817
0.712893
0.703113
0.691404
0.677671
0.661798
0.643638
0.623009
0.599683
0.570488
0.527416
0.4761
0.429059
0.387563
0.351571
0.320761
0.294746
0.273138
0.255575
0.241736
0.231339
0.224145
0.219959
0.218624
0.220024
0.224076
0.230727
0.239943
0.251695
0.26594
0.282577
0.301377
0.321776
0.342114
0.355653
0.360993
0.361566
0.356483
0.343315
0.327983
0.313449
0.300493
0.289427
0.280372
0.273337
0.268233
0.264887
0.263039
0.262348
0.262405
0.262785
0.263137
0.263339
0.263568
0.264224
0.265771
0.268653
0.27325
0.27987
0.288748
0.300046
0.313849
0.330142
0.348724
0.368957
0.388643
0.400091
0.40441
0.310426
0.305406
0.298703
0.291979
0.286148
0.28174
0.279078
0.27835
0.279637
0.282921
0.288085
0.294904
0.303
0.311759
0.320057
0.324972
0.317935
0.307609
0.29711
0.287687
0.280022
0.274567
0.271659
0.271582
0.274596
0.280951
0.290908
0.304741
0.322752
0.345262
0.372614
0.405143
0.443138
0.486694
0.535016
0.579009
0.608516
0.6313
0.651528
0.669344
0.6849
0.698329
0.709744
0.719241
0.726896
0.732768
0.736904
0.739338
0.740089
0.739169
0.736574
0.732293
0.7263
0.718559
0.70902
0.697619
0.684277
0.668895
0.651354
0.631512
0.609192
0.583778
0.5475
0.497388
0.449355
0.406477
0.369119
0.33706
0.309942
0.287387
0.269037
0.254571
0.243707
0.236207
0.231877
0.230567
0.232163
0.236589
0.243798
0.253763
0.266462
0.281859
0.29986
0.320221
0.342209
0.362403
0.373093
0.377922
0.379094
0.376626
0.366711
0.350681
0.334965
0.32095
0.309061
0.299458
0.292171
0.287123
0.28413
0.282902
0.283024
0.283946
0.285026
0.28564
0.285545
0.285055
0.284847
0.285595
0.287873
0.292129
0.298698
0.30782
0.319651
0.334258
0.351605
0.371422
0.392674
0.409296
0.41675
0.420163
0.350384
0.341341
0.331116
0.321637
0.31376
0.307926
0.304393
0.303328
0.304806
0.308802
0.315207
0.32383
0.334305
0.345947
0.35683
0.359448
0.354507
0.341029
0.327216
0.315094
0.305332
0.298293
0.294247
0.29343
0.296066
0.302381
0.312613
0.327025
0.345904
0.369556
0.398298
0.432417
0.472062
0.516853
0.564031
0.59821
0.622181
0.643423
0.662426
0.679276
0.694068
0.70689
0.717825
0.726942
0.734303
0.739953
0.743932
0.746266
0.746972
0.746058
0.743522
0.739353
0.733531
0.726023
0.716789
0.705777
0.692922
0.678149
0.661371
0.642491
0.621407
0.598042
0.56922
0.526042
0.476734
0.432075
0.392953
0.359254
0.330673
0.306857
0.287458
0.272156
0.260671
0.252767
0.248254
0.246982
0.248846
0.253774
0.261726
0.27268
0.286618
0.303499
0.323203
0.345371
0.368712
0.385997
0.39396
0.398508
0.400154
0.399052
0.394042
0.380385
0.363695
0.348492
0.335609
0.325314
0.317724
0.312791
0.310338
0.310058
0.311469
0.313831
0.316183
0.317286
0.316635
0.314838
0.313199
0.312683
0.314039
0.317775
0.324238
0.333658
0.346158
0.361741
0.380288
0.40113
0.421044
0.431531
0.436674
0.439328
0.389932
0.384267
0.371137
0.358706
0.348536
0.341068
0.336511
0.335043
0.336751
0.341586
0.349401
0.360019
0.372894
0.386461
0.392872
0.392427
0.390609
0.380531
0.364183
0.349323
0.337269
0.328431
0.323059
0.321372
0.323569
0.329856
0.34045
0.355595
0.375558
0.400626
0.431071
0.46708
0.508583
0.554135
0.591338
0.616633
0.638168
0.657784
0.675475
0.691267
0.705205
0.717339
0.727722
0.736401
0.743419
0.74881
0.752604
0.754821
0.755474
0.754569
0.752103
0.748068
0.742446
0.735213
0.726336
0.715776
0.703485
0.68941
0.673492
0.655673
0.635904
0.614155
0.590349
0.557584
0.510494
0.464498
0.4234
0.387718
0.357328
0.331939
0.311228
0.294881
0.282622
0.274217
0.269477
0.26826
0.270464
0.276025
0.284904
0.297082
0.312533
0.331191
0.352844
0.376753
0.399287
0.411214
0.417748
0.421996
0.423961
0.423783
0.421742
0.414687
0.399215
0.383191
0.369295
0.358192
0.350265
0.345521
0.343815
0.344862
0.348172
0.352759
0.357403
0.359395
0.357739
0.353588
0.349753
0.347387
0.347458
0.350477
0.356768
0.366522
0.379803
0.396424
0.416109
0.436951
0.449312
0.455083
0.459082
0.461147
0.424688
0.423778
0.416713
0.402606
0.390378
0.381288
0.375606
0.373674
0.375666
0.381449
0.390687
0.403248
0.41754
0.425749
0.426938
0.426427
0.425141
0.420937
0.407118
0.390285
0.376026
0.365296
0.358463
0.355806
0.357522
0.363806
0.374855
0.390884
0.412139
0.438861
0.471223
0.509094
0.55136
0.589255
0.61542
0.636486
0.656074
0.674071
0.690423
0.705112
0.718145
0.72954
0.739323
0.747521
0.754161
0.759265
0.762854
0.764941
0.765535
0.764639
0.762253
0.758369
0.752973
0.746047
0.737567
0.727507
0.715833
0.702512
0.687512
0.670806
0.652379
0.632238
0.610423
0.586047
0.550606
0.504073
0.460858
0.422891
0.390363
0.363099
0.340817
0.323217
0.310028
0.301022
0.296015
0.294869
0.297486
0.303808
0.313796
0.327421
0.34463
0.365293
0.388977
0.413906
0.430183
0.438029
0.443817
0.447769
0.449913
0.450372
0.449364
0.447147
0.439478
0.424659
0.410203
0.39821
0.389969
0.385496
0.38471
0.387386
0.393223
0.400574
0.408799
0.411837
0.408989
0.401156
0.394615
0.389801
0.388294
0.390425
0.396485
0.406575
0.420695
0.438003
0.457718
0.470028
0.475899
0.480318
0.483426
0.48503
0.459122
0.458975
0.457916
0.451353
0.438659
0.428519
0.421669
0.419203
0.421566
0.428409
0.438583
0.452031
0.459739
0.461616
0.461607
0.461203
0.460323
0.458943
0.452949
0.437527
0.421761
0.409237
0.400855
0.397164
0.398377
0.404696
0.4163
0.433352
0.456063
0.484579
0.518835
0.557456
0.59339
0.61895
0.638881
0.657818
0.67557
0.692003
0.707033
0.720614
0.732723
0.743353
0.752508
0.760199
0.766438
0.771236
0.774605
0.776553
0.777084
0.776201
0.773902
0.770181
0.765029
0.758434
0.75038
0.74085
0.729827
0.717294
0.70324
0.687661
0.670568
0.651995
0.632001
0.610679
0.585728
0.549481
0.505387
0.465149
0.430254
0.400853
0.376762
0.357704
0.343431
0.333724
0.328406
0.327342
0.330444
0.337653
0.348921
0.364187
0.383321
0.406013
0.431055
0.450579
0.46012
0.466637
0.471722
0.475349
0.47755
0.478428
0.478158
0.476981
0.475114
0.468617
0.457457
0.444926
0.436692
0.432577
0.432755
0.436873
0.445248
0.45222
0.455929
0.45718
0.45641
0.453174
0.446556
0.439261
0.436325
0.437494
0.443278
0.453499
0.468138
0.483653
0.494085
0.49926
0.503451
0.506865
0.509274
0.510518
0.493704
0.493718
0.493813
0.49351
0.489069
0.481584
0.473889
0.470929
0.473693
0.481557
0.49011
0.495499
0.496705
0.496712
0.496671
0.496456
0.496003
0.495309
0.494409
0.48818
0.474075
0.46046
0.450521
0.445833
0.446545
0.452955
0.465225
0.483374
0.507569
0.53768
0.572729
0.604022
0.627257
0.645561
0.663332
0.680336
0.696384
0.711337
0.725094
0.737589
0.748779
0.75864
0.767158
0.77433
0.780156
0.784637
0.787778
0.789581
0.790048
0.789179
0.786972
0.783424
0.778529
0.772279
0.764668
0.755687
0.74533
0.733597
0.720491
0.706028
0.690239
0.673173
0.654909
0.635554
0.61526
0.590702
0.55569
0.514575
0.477392
0.445709
0.419636
0.398935
0.383428
0.372923
0.367246
0.36627
0.369915
0.378125
0.390815
0.407852
0.428833
0.452691
0.47369
0.484627
0.491163
0.496678
0.501086
0.504355
0.50651
0.507632
0.50786
0.50739
0.506472
0.505403
0.501603
0.495515
0.488914
0.485264
0.486215
0.489631
0.492705
0.494273
0.493763
0.493714
0.494575
0.495813
0.494817
0.492481
0.489937
0.490236
0.495705
0.504869
0.514077
0.521227
0.524997
0.528557
0.53178
0.534419
0.536285
0.53725
0.528272
0.52838
0.528651
0.529196
0.530129
0.528821
0.526654
0.525674
0.527158
0.530028
0.532319
0.532059
0.531857
0.531853
0.531911
0.531945
0.531922
0.531862
0.531838
0.531933
0.527488
0.518057
0.507164
0.501929
0.502167
0.508741
0.521818
0.540902
0.565985
0.595884
0.62082
0.640158
0.656481
0.672701
0.688551
0.70381
0.718295
0.731866
0.744417
0.755868
0.766165
0.775269
0.783155
0.789807
0.795217
0.799378
0.802288
0.803945
0.804347
0.803495
0.801384
0.798015
0.793383
0.787487
0.780325
0.771899
0.762211
0.751272
0.7391
0.725723
0.711185
0.69555
0.678906
0.661369
0.643091
0.624259
0.601447
0.569815
0.531764
0.498013
0.469982
0.447495
0.43063
0.419244
0.413161
0.412263
0.416481
0.425771
0.439944
0.458709
0.480644
0.500772
0.511887
0.517875
0.523228
0.527826
0.531587
0.534475
0.536503
0.537729
0.53826
0.538246
0.537878
0.537385
0.537029
0.53624
0.533986
0.532158
0.531693
0.531662
0.53035
0.529194
0.528715
0.528831
0.529612
0.531016
0.533188
0.535356
0.536445
0.538364
0.542089
0.546617
0.550063
0.552624
0.555425
0.558191
0.560694
0.562744
0.564196
0.564948
0.562731
0.562881
0.563214
0.563794
0.564707
0.566045
0.567535
0.56826
0.568492
0.5679
0.5672
0.566873
0.56681
0.566934
0.567174
0.567491
0.56788
0.56838
0.56908
0.570133
0.571771
0.570918
0.567869
0.564234
0.564118
0.57095
0.584907
0.603795
0.624135
0.642475
0.657248
0.671385
0.685802
0.70021
0.714363
0.728056
0.741119
0.753417
0.764838
0.775302
0.784743
0.793115
0.800385
0.806528
0.811527
0.81537
0.818051
0.819563
0.819903
0.819068
0.817056
0.813867
0.809501
0.80396
0.797248
0.789372
0.780343
0.770181
0.758913
0.746578
0.733228
0.718936
0.703795
0.687925
0.671475
0.654625
0.637589
0.617877
0.591291
0.55732
0.52812
0.503788
0.485546
0.473261
0.46673
0.465865
0.470594
0.480943
0.49634
0.515915
0.53243
0.542079
0.547047
0.551753
0.556048
0.559811
0.562961
0.565457
0.567297
0.568521
0.569204
0.569455
0.569409
0.569211
0.568996
0.568814
0.568668
0.568083
0.566783
0.565294
0.56413
0.56336
0.563072
0.563284
0.564024
0.565298
0.567127
0.569463
0.572307
0.57513
0.577408
0.579339
0.581416
0.583618
0.585889
0.588087
0.590059
0.59167
0.592808
0.593397
0.597041
0.597198
0.597529
0.598059
0.59881
0.599758
0.600743
0.601476
0.601697
0.601599
0.60144
0.601422
0.601578
0.601897
0.602362
0.602965
0.603726
0.604696
0.605968
0.607686
0.610059
0.613376
0.616884
0.61936
0.623492
0.631067
0.641925
0.654431
0.666663
0.677821
0.6898
0.702328
0.715134
0.727973
0.740633
0.752931
0.764711
0.775842
0.786219
0.795757
0.80439
0.812064
0.818742
0.824391
0.828992
0.832526
0.834983
0.836353
0.836633
0.835817
0.833905
0.830896
0.826795
0.821605
0.815334
0.807996
0.799609
0.790197
0.779794
0.768446
0.756213
0.74317
0.729414
0.715062
0.700259
0.685176
0.670018
0.655023
0.63925
0.61841
0.593
0.567334
0.548229
0.535225
0.528215
0.527283
0.532163
0.543036
0.557881
0.568793
0.575314
0.578811
0.582458
0.586042
0.589399
0.59241
0.59499
0.597093
0.598708
0.599853
0.600581
0.600963
0.60109
0.601055
0.600932
0.60075
0.600477
0.599964
0.599156
0.598259
0.597515
0.597045
0.596929
0.597207
0.597904
0.599025
0.600559
0.602458
0.604631
0.606839
0.608872
0.610759
0.612642
0.614544
0.616427
0.618208
0.619787
0.621067
0.621969
0.622434
0.631193
0.631342
0.631644
0.632104
0.632714
0.633433
0.634161
0.634761
0.635139
0.635358
0.63554
0.635797
0.636182
0.636716
0.63741
0.638282
0.639363
0.640711
0.642411
0.644585
0.64739
0.651012
0.655622
0.661483
0.668232
0.675497
0.683259
0.69164
0.700958
0.711059
0.721802
0.732995
0.744431
0.755915
0.767267
0.778325
0.78895
0.799021
0.808439
0.817119
0.824995
0.832011
0.838126
0.843305
0.847522
0.850759
0.853
0.854235
0.854457
0.853662
0.851849
0.849019
0.845177
0.840329
0.834488
0.827671
0.819899
0.811202
0.80162
0.791201
0.780008
0.768119
0.755628
0.74265
0.729323
0.715804
0.702282
0.688971
0.676119
0.663913
0.649321
0.632955
0.616608
0.603634
0.596151
0.594974
0.598649
0.604045
0.608991
0.611382
0.613108
0.61538
0.617932
0.620556
0.623098
0.625439
0.627496
0.629219
0.630586
0.631605
0.632302
0.632726
0.632935
0.632986
0.632927
0.632777
0.632526
0.632137
0.631619
0.631072
0.630625
0.630376
0.630391
0.630712
0.63136
0.632337
0.633626
0.63518
0.63692
0.638722
0.640482
0.642182
0.64385
0.645488
0.647067
0.648531
0.649812
0.650843
0.651566
0.651938
0.665197
0.665332
0.665601
0.665999
0.666511
0.6671
0.667708
0.668267
0.66874
0.669152
0.669565
0.670044
0.670636
0.671374
0.672282
0.673389
0.674734
0.676373
0.678381
0.680854
0.683906
0.687658
0.692217
0.697648
0.703832
0.710611
0.717939
0.725863
0.734455
0.743654
0.753355
0.763417
0.773681
0.78399
0.794194
0.804152
0.813742
0.822855
0.831396
0.839286
0.846458
0.85286
0.858445
0.863179
0.867034
0.869988
0.872024
0.87313
0.873299
0.872526
0.870811
0.868154
0.864563
0.860047
0.854619
0.848299
0.841113
0.833094
0.824282
0.814729
0.804499
0.793668
0.782329
0.770589
0.758576
0.746436
0.734334
0.722459
0.711016
0.700227
0.690343
0.681277
0.671434
0.662475
0.655974
0.652617
0.651583
0.650861
0.649655
0.649592
0.650351
0.651671
0.653332
0.655154
0.656997
0.658751
0.660336
0.6617
0.662815
0.663676
0.664297
0.664705
0.664936
0.665028
0.665011
0.664905
0.664714
0.664441
0.66411
0.663783
0.663538
0.663442
0.663548
0.663891
0.664488
0.665339
0.666427
0.667715
0.669146
0.670646
0.672153
0.673636
0.675088
0.676492
0.677822
0.679037
0.680089
0.680928
0.681513
0.681813
0.699066
0.699188
0.699429
0.699781
0.700229
0.700748
0.701302
0.70186
0.702403
0.702946
0.703523
0.704177
0.704946
0.705861
0.706954
0.708257
0.709811
0.711666
0.713885
0.716542
0.71972
0.723498
0.727938
0.733062
0.738825
0.745158
0.752024
0.75942
0.767344
0.775747
0.784548
0.793635
0.802886
0.812171
0.821365
0.830349
0.839013
0.84726
0.855003
0.862169
0.868694
0.874524
0.879616
0.883933
0.887447
0.890134
0.891977
0.892963
0.893083
0.892333
0.890713
0.888224
0.884875
0.880675
0.875641
0.869794
0.863162
0.855778
0.847685
0.838935
0.829591
0.819727
0.80943
0.798801
0.787957
0.777029
0.766161
0.755515
0.74526
0.73557
0.726615
0.718515
0.711424
0.705321
0.700024
0.69547
0.691777
0.689217
0.687647
0.68698
0.687033
0.687621
0.68857
0.689732
0.690986
0.692232
0.693397
0.694429
0.695297
0.695988
0.696505
0.696861
0.697077
0.697178
0.697185
0.697116
0.696984
0.696802
0.696598
0.696414
0.6963
0.696306
0.696469
0.696816
0.69736
0.698103
0.699028
0.700108
0.701303
0.702563
0.703847
0.705124
0.706372
0.70757
0.708693
0.709707
0.710577
0.711266
0.711745
0.71199
0.732814
0.732925
0.733145
0.733466
0.733876
0.734359
0.734895
0.735466
0.736066
0.736705
0.737406
0.738196
0.739108
0.740172
0.741417
0.742876
0.744587
0.746594
0.74895
0.751711
0.754936
0.758677
0.762973
0.767837
0.773248
0.779172
0.785579
0.792448
0.799752
0.807444
0.815453
0.823691
0.832056
0.840443
0.848747
0.856864
0.8647
0.872168
0.879188
0.885693
0.891623
0.896927
0.901561
0.905491
0.908686
0.911124
0.912786
0.91366
0.913737
0.913011
0.911483
0.909155
0.906036
0.902138
0.897477
0.892075
0.885961
0.87917
0.871745
0.863735
0.855203
0.846218
0.836862
0.827229
0.817423
0.80756
0.797767
0.788179
0.778937
0.770179
0.762033
0.754602
0.74797
0.742144
0.737079
0.732759
0.729233
0.726574
0.724738
0.723647
0.723182
0.723208
0.723594
0.724219
0.724981
0.725794
0.72659
0.727322
0.727956
0.728475
0.728873
0.729156
0.729333
0.729422
0.729436
0.729392
0.729303
0.729186
0.729066
0.728974
0.728944
0.729012
0.729205
0.729543
0.730036
0.730684
0.731474
0.732387
0.733393
0.734458
0.735549
0.736639
0.737705
0.738724
0.739672
0.740522
0.741245
0.741815
0.74221
0.742411
0.76645
0.766554
0.76676
0.767062
0.767452
0.767919
0.768452
0.769043
0.769691
0.770403
0.771197
0.772094
0.77312
0.774301
0.775665
0.777242
0.779066
0.781175
0.78361
0.786416
0.789634
0.793301
0.797442
0.802064
0.807158
0.812703
0.818673
0.825041
0.831773
0.838824
0.84613
0.853618
0.861204
0.8688
0.876315
0.883661
0.890756
0.897522
0.903889
0.909793
0.915179
0.919999
0.924212
0.927783
0.930683
0.93289
0.934385
0.935155
0.935192
0.934491
0.933052
0.930878
0.927978
0.924364
0.920053
0.915068
0.909438
0.903197
0.896388
0.889058
0.881267
0.87308
0.864572
0.855829
0.846945
0.838021
0.829167
0.820499
0.812131
0.804175
0.796735
0.789892
0.783708
0.778207
0.773388
0.769254
0.765821
0.763107
0.761082
0.759688
0.758839
0.758436
0.758379
0.75857
0.758925
0.759372
0.759849
0.760313
0.760731
0.761082
0.761357
0.761555
0.761679
0.761739
0.761746
0.761711
0.761648
0.761574
0.761506
0.76147
0.761491
0.761593
0.761796
0.762115
0.762557
0.763121
0.763799
0.764574
0.765424
0.766325
0.767251
0.768179
0.769085
0.769949
0.770749
0.771462
0.772066
0.772541
0.772867
0.773034
0.799982
0.800081
0.800279
0.80057
0.80095
0.801412
0.801951
0.802563
0.80325
0.80402
0.804885
0.805863
0.806977
0.808247
0.809699
0.81136
0.81326
0.815428
0.8179
0.820708
0.823883
0.827451
0.831428
0.835819
0.840618
0.845808
0.851368
0.857269
0.863477
0.869947
0.876625
0.883448
0.890343
0.897236
0.90405
0.91071
0.917141
0.923277
0.929052
0.934411
0.939301
0.943679
0.947504
0.950745
0.953373
0.955366
0.956708
0.957384
0.957386
0.95671
0.955355
0.953327
0.950633
0.947286
0.943303
0.938707
0.933526
0.927794
0.921551
0.914844
0.907727
0.900262
0.892518
0.884571
0.876506
0.868412
0.860383
0.852518
0.844911
0.837657
0.830838
0.824523
0.818763
0.813589
0.809013
0.805046
0.801692
0.798951
0.796797
0.795184
0.79405
0.793319
0.792914
0.792757
0.792779
0.792918
0.793122
0.79335
0.793572
0.793766
0.793919
0.794027
0.794089
0.79411
0.794097
0.794059
0.794006
0.793953
0.793915
0.79391
0.793957
0.794072
0.794271
0.794564
0.794956
0.795445
0.796026
0.796685
0.797405
0.798168
0.798953
0.799739
0.800507
0.801238
0.801913
0.802512
0.803018
0.803413
0.803685
0.803824
0.833414
0.833511
0.833703
0.833989
0.834366
0.834829
0.835376
0.836008
0.836727
0.83754
0.838459
0.839498
0.840676
0.842011
0.843525
0.845241
0.847184
0.84938
0.851854
0.854634
0.85774
0.861192
0.865
0.869166
0.873686
0.878544
0.883721
0.88919
0.894918
0.900862
0.906976
0.913204
0.919484
0.925752
0.931941
0.937986
0.943823
0.94939
0.954632
0.959496
0.963936
0.96791
0.971381
0.97432
0.976698
0.978496
0.979696
0.980286
0.980257
0.979606
0.978333
0.976442
0.973941
0.970843
0.967165
0.96293
0.958164
0.952901
0.947177
0.941039
0.934535
0.927723
0.920665
0.913432
0.906096
0.898737
0.891436
0.884277
0.87734
0.870704
0.864437
0.858598
0.853233
0.848371
0.844031
0.840223
0.836951
0.834206
0.831969
0.830202
0.828857
0.827877
0.8272
0.826766
0.826516
0.826399
0.82637
0.826394
0.82644
0.826489
0.826527
0.826545
0.826541
0.826515
0.826473
0.82642
0.826365
0.826318
0.826292
0.826299
0.826353
0.826467
0.826652
0.826914
0.827257
0.827679
0.828174
0.828734
0.829344
0.829989
0.830652
0.831318
0.831967
0.832584
0.833152
0.833655
0.834079
0.83441
0.834637
0.834752
0.866749
0.866844
0.867035
0.867319
0.867694
0.868161
0.868717
0.869366
0.870109
0.870955
0.871913
0.872996
0.874218
0.875596
0.877148
0.878895
0.880856
0.883052
0.885504
0.888232
0.891252
0.894576
0.898213
0.902161
0.906415
0.910962
0.915783
0.920853
0.926141
0.931609
0.937214
0.942908
0.948637
0.954346
0.959976
0.965471
0.970773
0.97583
0.98059
0.985007
0.989037
0.992644
0.995792
0.998454
1.0006
1.00222
1.00329
1.00381
1.00375
1.00313
1.00193
1.00017
0.997846
0.99498
0.991586
0.987684
0.983301
0.978467
0.973219
0.967598
0.961651
0.955429
0.94899
0.942394
0.935709
0.929003
0.922347
0.915813
0.909469
0.903381
0.897608
0.892201
0.887199
0.882631
0.878517
0.874866
0.871681
0.868955
0.866671
0.864798
0.8633
0.862132
0.861245
0.86059
0.86012
0.859791
0.859567
0.859414
0.859306
0.859224
0.859153
0.859085
0.859013
0.858938
0.85886
0.858784
0.858716
0.858663
0.858634
0.85864
0.85869
0.858792
0.858955
0.859183
0.859478
0.859838
0.860259
0.860732
0.861247
0.861791
0.862351
0.862912
0.863459
0.863978
0.864456
0.864879
0.865233
0.86551
0.865699
0.865796
0.899988
0.900083
0.900273
0.900556
0.900933
0.901403
0.901967
0.902628
0.90339
0.904258
0.905243
0.906353
0.907603
0.909006
0.910578
0.912334
0.914292
0.916468
0.918878
0.921538
0.924459
0.927649
0.931113
0.93485
0.938851
0.943106
0.947596
0.952298
0.957183
0.962217
0.967363
0.972576
0.977811
0.983018
0.988147
0.993147
0.99797
1.00257
1.00689
1.0109
1.01456
1.01783
1.02069
1.0231
1.02504
1.0265
1.02745
1.02789
1.02782
1.02721
1.02609
1.02445
1.0223
1.01965
1.01651
1.01292
1.00889
1.00445
0.999635
0.994485
0.989042
0.983353
0.97747
0.971447
0.965343
0.95922
0.953137
0.947158
0.941341
0.935743
0.930414
0.925398
0.92073
0.916438
0.912538
0.909042
0.905952
0.903263
0.90096
0.89902
0.897413
0.896105
0.895057
0.894228
0.893581
0.89308
0.892692
0.892389
0.892147
0.891948
0.891778
0.891627
0.891489
0.891362
0.891245
0.89114
0.891051
0.890983
0.890943
0.890937
0.890973
0.891057
0.891194
0.891386
0.891634
0.891938
0.892291
0.892689
0.893121
0.893578
0.894048
0.894519
0.894979
0.895415
0.895815
0.896169
0.896466
0.896697
0.896855
0.896936
0.933133
0.933228
0.933416
0.9337
0.934077
0.93455
0.93512
0.93579
0.936563
0.937446
0.938446
0.939572
0.940836
0.942248
0.943822
0.945571
0.947509
0.949649
0.952004
0.954583
0.957396
0.960449
0.963742
0.967273
0.971035
0.975015
0.979197
0.983559
0.988076
0.992715
0.997444
1.00222
1.00701
1.01177
1.01645
1.021
1.02539
1.02957
1.03351
1.03715
1.04047
1.04344
1.04603
1.04821
1.04997
1.05127
1.05212
1.0525
1.0524
1.05183
1.05077
1.04924
1.04724
1.04479
1.0419
1.03859
1.03488
1.0308
1.02639
1.02166
1.01668
1.01147
1.00609
1.00058
0.994998
0.989395
0.983824
0.978341
0.972995
0.967836
0.962908
0.958247
0.953887
0.949851
0.946156
0.942812
0.939824
0.937185
0.934886
0.932908
0.931228
0.929819
0.928648
0.927685
0.926898
0.926256
0.925732
0.925302
0.924944
0.924642
0.924383
0.924156
0.923955
0.923776
0.923617
0.923479
0.923364
0.923275
0.923217
0.923193
0.923209
0.923269
0.923376
0.923532
0.923736
0.923986
0.92428
0.924611
0.924971
0.925352
0.925744
0.926138
0.926522
0.926886
0.927221
0.927517
0.927765
0.927957
0.928089
0.928156
0.966183
0.966277
0.966466
0.966749
0.967127
0.967601
0.968174
0.968848
0.969627
0.970516
0.971522
0.972654
0.973919
0.975328
0.976892
0.97862
0.980525
0.982617
0.984904
0.987394
0.990095
0.993007
0.996132
0.999465
1.003
1.00672
1.01062
1.01467
1.01884
1.02312
1.02747
1.03186
1.03625
1.0406
1.04487
1.04902
1.05302
1.05683
1.06041
1.06372
1.06674
1.06944
1.07178
1.07375
1.07533
1.07651
1.07726
1.07758
1.07747
1.07692
1.07593
1.0745
1.07265
1.07038
1.06771
1.06466
1.06125
1.0575
1.05344
1.04911
1.04454
1.03976
1.03483
1.02979
1.02467
1.01954
1.01442
1.00939
1.00446
0.999699
0.995132
0.990796
0.986719
0.982922
0.979422
0.976228
0.973344
0.970768
0.96849
0.966498
0.964773
0.963293
0.962033
0.960967
0.960069
0.959314
0.958679
0.958142
0.957686
0.957295
0.956956
0.956659
0.956399
0.95617
0.955969
0.955796
0.955652
0.955537
0.955456
0.955409
0.955402
0.955435
0.95551
0.955629
0.955791
0.955993
0.956232
0.956503
0.956799
0.957114
0.957439
0.957766
0.958085
0.958388
0.958666
0.958912
0.959118
0.959278
0.959388
0.959443
0.99914
0.999233
0.999421
0.999703
1.00008
1.00055
1.00113
1.0018
1.00258
1.00347
1.00447
1.0056
1.00686
1.00825
1.0098
1.01149
1.01335
1.01539
1.0176
1.02
1.02258
1.02535
1.02831
1.03146
1.03477
1.03826
1.04189
1.04565
1.04951
1.05346
1.05747
1.0615
1.06552
1.0695
1.07341
1.0772
1.08085
1.08432
1.08757
1.09059
1.09333
1.09578
1.0979
1.09969
1.10111
1.10216
1.10283
1.1031
1.10297
1.10244
1.10151
1.10019
1.09847
1.09637
1.09391
1.09109
1.08795
1.0845
1.08077
1.07679
1.0726
1.06822
1.06369
1.05906
1.05437
1.04965
1.04495
1.04031
1.03577
1.03136
1.02713
1.02309
1.01927
1.0157
1.01238
1.00933
1.00656
1.00405
1.00181
0.999822
0.998073
0.996547
0.995223
0.99408
0.993097
0.992252
0.991527
0.990902
0.990363
0.989894
0.989485
0.989127
0.988812
0.988535
0.988293
0.988085
0.987909
0.987767
0.987659
0.987587
0.987553
0.987557
0.987601
0.987684
0.987805
0.987962
0.988152
0.988369
0.98861
0.988867
0.989133
0.989401
0.989664
0.989914
0.990144
0.990347
0.990517
0.99065
0.99074
0.990786
1.032
1.0321
1.03228
1.03256
1.03294
1.03341
1.03398
1.03465
1.03542
1.03631
1.0373
1.03842
1.03966
1.04103
1.04254
1.0442
1.04601
1.04798
1.05011
1.05241
1.05488
1.05751
1.06031
1.06327
1.06639
1.06964
1.07302
1.07652
1.0801
1.08375
1.08744
1.09114
1.09483
1.09848
1.10205
1.10552
1.10885
1.11201
1.11498
1.11772
1.12022
1.12244
1.12436
1.12598
1.12726
1.1282
1.12879
1.12902
1.12888
1.12837
1.1275
1.12626
1.12467
1.12272
1.12045
1.11785
1.11496
1.11178
1.10835
1.10469
1.10084
1.09681
1.09266
1.08841
1.08409
1.07975
1.07542
1.07114
1.06694
1.06286
1.05892
1.05515
1.05158
1.04821
1.04507
1.04217
1.0395
1.03707
1.03487
1.03291
1.03115
1.0296
1.02823
1.02703
1.02599
1.02507
1.02427
1.02358
1.02297
1.02243
1.02196
1.02155
1.02119
1.02086
1.02058
1.02034
1.02013
1.01996
1.01983
1.01973
1.01967
1.01964
1.01965
1.0197
1.01978
1.0199
1.02004
1.02021
1.0204
1.02061
1.02082
1.02104
1.02126
1.02146
1.02165
1.02181
1.02195
1.02206
1.02214
1.02218
1.06477
1.06486
1.06505
1.06533
1.0657
1.06616
1.06673
1.06739
1.06816
1.06903
1.07001
1.07111
1.07233
1.07367
1.07515
1.07676
1.07851
1.08041
1.08246
1.08466
1.087
1.0895
1.09215
1.09494
1.09786
1.1009
1.10405
1.1073
1.11061
1.11399
1.11739
1.1208
1.12419
1.12754
1.13081
1.13398
1.13702
1.13991
1.14261
1.14511
1.14738
1.14939
1.15114
1.1526
1.15376
1.1546
1.15512
1.1553
1.15516
1.15467
1.15385
1.15269
1.15121
1.14941
1.14731
1.14491
1.14224
1.13932
1.13616
1.13279
1.12925
1.12555
1.12172
1.11781
1.11384
1.10984
1.10584
1.10189
1.098
1.09421
1.09055
1.08703
1.08368
1.08051
1.07753
1.07476
1.0722
1.06985
1.06771
1.06577
1.06403
1.06246
1.06107
1.05984
1.05874
1.05777
1.05692
1.05617
1.0555
1.05491
1.05439
1.05393
1.05352
1.05315
1.05284
1.05256
1.05232
1.05212
1.05196
1.05183
1.05174
1.05169
1.05167
1.05168
1.05173
1.05181
1.05191
1.05204
1.05218
1.05234
1.05251
1.05269
1.05286
1.05302
1.05317
1.05331
1.05342
1.05351
1.05357
1.0536
1.09745
1.09754
1.09772
1.098
1.09836
1.09882
1.09938
1.10003
1.10078
1.10164
1.10261
1.10368
1.10487
1.10618
1.10761
1.10917
1.11087
1.11269
1.11465
1.11675
1.11898
1.12135
1.12385
1.12647
1.12921
1.13205
1.13499
1.138
1.14108
1.1442
1.14734
1.15048
1.1536
1.15667
1.15967
1.16257
1.16535
1.16798
1.17045
1.17272
1.17479
1.17662
1.1782
1.17952
1.18056
1.18132
1.18177
1.18192
1.18177
1.1813
1.18053
1.17945
1.17808
1.17641
1.17446
1.17225
1.16978
1.16708
1.16417
1.16107
1.15781
1.1544
1.15088
1.14727
1.14361
1.13992
1.13623
1.13257
1.12896
1.12544
1.12203
1.11874
1.11559
1.1126
1.10979
1.10715
1.1047
1.10243
1.10035
1.09845
1.09672
1.09516
1.09376
1.0925
1.09137
1.09036
1.08947
1.08867
1.08795
1.08732
1.08675
1.08625
1.0858
1.0854
1.08505
1.08474
1.08447
1.08424
1.08405
1.0839
1.08378
1.0837
1.08365
1.08363
1.08364
1.08369
1.08375
1.08384
1.08395
1.08407
1.0842
1.08433
1.08447
1.0846
1.08472
1.08482
1.08492
1.08499
1.08503
1.08506
1.13004
1.13012
1.1303
1.13057
1.13093
1.13138
1.13193
1.13257
1.13331
1.13415
1.13509
1.13614
1.1373
1.13857
1.13995
1.14146
1.14309
1.14484
1.14671
1.14871
1.15083
1.15307
1.15542
1.15789
1.16045
1.16311
1.16584
1.16865
1.1715
1.17438
1.17728
1.18018
1.18305
1.18587
1.18862
1.19128
1.19382
1.19623
1.19848
1.20055
1.20243
1.20409
1.20553
1.20672
1.20766
1.20833
1.20873
1.20885
1.20869
1.20825
1.20752
1.20651
1.20523
1.20368
1.20188
1.19983
1.19756
1.19506
1.19238
1.18952
1.18651
1.18336
1.18012
1.17679
1.17341
1.16999
1.16658
1.16319
1.15984
1.15657
1.15338
1.1503
1.14735
1.14453
1.14186
1.13935
1.13701
1.13482
1.1328
1.13095
1.12925
1.1277
1.1263
1.12502
1.12388
1.12284
1.12191
1.12108
1.12033
1.11966
1.11905
1.11851
1.11803
1.1176
1.11722
1.11688
1.11658
1.11633
1.11611
1.11593
1.11578
1.11567
1.1156
1.11555
1.11553
1.11554
1.11557
1.11563
1.1157