/*--------------------------------*- C++ -*----------------------------------*\
| =========                 |                                                 |
| \\      /  F ield         | OpenFOAM: The Open Source CFD Toolbox           |
|  \\    /   O peration     | Version:  2406                                  |
|   \\  /    A nd           | Website:  www.openfoam.com                      |
|    \\/     M anipulation  |                                                 |
\*---------------------------------------------------------------------------*/
FoamFile
{
    version     2.0;
    format      ascii;
    arch        "LSB;label=32;scalar=64";
    class       volScalarField;
    location    "5.65";
    object      C_0_0;
}
// * * * * * * * * * * * * * * * * * * * * * * * * * * * * * * * * * * * * * //

dimensions      [1 -3 0 0 0 0 0];

internalField   nonuniform List<scalar> 
14400
(
0.283863
0.281926
0.278679
0.274925
0.2714
0.268682
0.267183
0.267158
0.268723
0.271853
0.276383
0.28198
0.288102
0.293944
0.298389
0.300077
0.297896
0.293019
0.286938
0.280922
0.275935
0.272692
0.271734
0.27349
0.278323
0.286569
0.298551
0.314602
0.335072
0.36033
0.39076
0.426734
0.468552
0.516228
0.568609
0.617747
0.652206
0.676459
0.69763
0.716064
0.732022
0.745706
0.757275
0.766854
0.77454
0.780406
0.78451
0.786889
0.787569
0.786561
0.783861
0.779456
0.773314
0.765392
0.755629
0.743947
0.730244
0.714391
0.696227
0.675547
0.652094
0.624699
0.583331
0.527845
0.475607
0.428902
0.388043
0.352836
0.322925
0.297914
0.277416
0.26108
0.248598
0.239709
0.234198
0.231893
0.232664
0.236414
0.243075
0.252597
0.264932
0.280009
0.297698
0.317739
0.339584
0.361794
0.377785
0.384036
0.383431
0.373929
0.358119
0.341404
0.325578
0.311388
0.299172
0.289067
0.281072
0.275083
0.270911
0.268287
0.266885
0.266343
0.266321
0.266566
0.266998
0.267744
0.269101
0.271452
0.275201
0.28072
0.28833
0.298283
0.310755
0.325834
0.343493
0.36353
0.385401
0.407586
0.423226
0.429253
0.294403
0.291831
0.287754
0.283227
0.279081
0.275917
0.274145
0.274015
0.275636
0.27899
0.283923
0.290126
0.297096
0.304055
0.309819
0.312559
0.309348
0.303086
0.295788
0.28882
0.283124
0.279368
0.278054
0.279585
0.284306
0.292542
0.304608
0.320833
0.341561
0.367158
0.398003
0.434461
0.476822
0.5251
0.578044
0.624255
0.655729
0.679534
0.700367
0.71854
0.734295
0.747821
0.759266
0.768748
0.776359
0.782169
0.786234
0.788589
0.789258
0.788252
0.785568
0.781191
0.775094
0.767232
0.757549
0.745968
0.732393
0.716702
0.698742
0.678321
0.655192
0.628871
0.590287
0.536332
0.483661
0.436305
0.39485
0.359129
0.328781
0.303401
0.2826
0.266025
0.253366
0.244361
0.238794
0.236496
0.237335
0.241218
0.248079
0.257873
0.270555
0.286062
0.304268
0.324902
0.347332
0.36975
0.384785
0.390507
0.390381
0.382904
0.367365
0.350001
0.333601
0.318961
0.306416
0.2961
0.288014
0.282052
0.27802
0.275632
0.274529
0.274296
0.274515
0.27485
0.275181
0.27568
0.276725
0.278777
0.282291
0.287672
0.295257
0.305303
0.317984
0.333385
0.351475
0.372032
0.394398
0.416304
0.429865
0.435015
0.316148
0.311952
0.306021
0.299883
0.294485
0.290435
0.288126
0.287786
0.289517
0.293304
0.299013
0.30638
0.314976
0.324124
0.332671
0.338304
0.332329
0.323094
0.313375
0.304568
0.297508
0.292764
0.290762
0.291856
0.296362
0.304583
0.316821
0.333395
0.354642
0.380917
0.412585
0.449983
0.493327
0.542381
0.594868
0.635221
0.662614
0.68558
0.705764
0.723435
0.738798
0.752016
0.763219
0.772512
0.779977
0.785679
0.789667
0.791973
0.792621
0.79162
0.788967
0.784648
0.778637
0.770894
0.761366
0.749983
0.736658
0.721282
0.703718
0.683803
0.661331
0.636065
0.602627
0.553559
0.499747
0.451109
0.408517
0.3718
0.340589
0.314477
0.293073
0.276019
0.263006
0.253768
0.248091
0.245805
0.246782
0.25093
0.258191
0.268524
0.281893
0.298246
0.317464
0.339271
0.362898
0.385061
0.397523
0.402672
0.403139
0.398561
0.385045
0.366956
0.349619
0.334154
0.320974
0.310247
0.301984
0.296086
0.292353
0.290471
0.290022
0.290484
0.291262
0.291816
0.291903
0.291828
0.292174
0.293573
0.296584
0.301671
0.309195
0.319419
0.33251
0.34854
0.367447
0.388961
0.412195
0.43186
0.441631
0.445888
0.350007
0.342519
0.333501
0.324899
0.317652
0.312311
0.309222
0.308581
0.31047
0.314875
0.321678
0.330648
0.341431
0.353441
0.365241
0.370145
0.36523
0.352332
0.339359
0.328047
0.319103
0.312973
0.309995
0.310467
0.314668
0.322879
0.335385
0.352489
0.374516
0.401807
0.4347
0.473471
0.518206
0.568131
0.615826
0.648296
0.672668
0.694407
0.713674
0.730637
0.745445
0.758226
0.769083
0.778104
0.785359
0.790904
0.79478
0.797017
0.797634
0.79664
0.794033
0.789798
0.783912
0.776341
0.767038
0.755941
0.742975
0.728048
0.711048
0.69184
0.670264
0.646119
0.617848
0.576669
0.523151
0.473234
0.429152
0.391022
0.358548
0.331349
0.309041
0.29127
0.277724
0.268137
0.262295
0.260027
0.26121
0.265757
0.273613
0.284745
0.299127
0.316709
0.337358
0.360713
0.38561
0.405399
0.414753
0.419517
0.420554
0.418039
0.409487
0.391984
0.373649
0.357069
0.34298
0.331655
0.323139
0.317357
0.314114
0.313069
0.31373
0.31543
0.317276
0.318287
0.317866
0.316704
0.315807
0.3161
0.31828
0.322883
0.330296
0.340776
0.354463
0.371393
0.391393
0.413882
0.436774
0.45082
0.457603
0.461018
0.389999
0.382101
0.36965
0.358089
0.34857
0.34162
0.33756
0.336549
0.338642
0.343819
0.351961
0.362797
0.375917
0.390352
0.40083
0.402236
0.400403
0.388957
0.373118
0.359091
0.347957
0.340154
0.335971
0.335663
0.339488
0.347704
0.360582
0.378402
0.401471
0.430109
0.464595
0.505073
0.551213
0.600516
0.637168
0.662748
0.685352
0.705705
0.723887
0.739994
0.754121
0.766358
0.776783
0.785462
0.792452
0.797797
0.801531
0.80368
0.804259
0.803275
0.800724
0.796597
0.790873
0.783521
0.774503
0.763767
0.751253
0.736887
0.720584
0.702247
0.681767
0.659034
0.633966
0.601684
0.553906
0.502852
0.456999
0.417081
0.382961
0.354324
0.330813
0.312084
0.297825
0.287772
0.281709
0.279468
0.280927
0.286004
0.294647
0.306828
0.322525
0.341682
0.364098
0.38909
0.413968
0.428406
0.435724
0.440088
0.441515
0.440152
0.436119
0.424515
0.405676
0.387818
0.372585
0.360508
0.351667
0.34606
0.343532
0.343722
0.346063
0.349785
0.35354
0.355532
0.35403
0.350944
0.348027
0.346649
0.347604
0.3515
0.358743
0.369552
0.383993
0.402053
0.423319
0.446394
0.463226
0.471569
0.476857
0.479564
0.426935
0.423656
0.412759
0.398962
0.387138
0.378407
0.373268
0.371852
0.374193
0.380259
0.389918
0.40264
0.417519
0.431044
0.435522
0.435642
0.434799
0.429527
0.413867
0.397579
0.384189
0.374546
0.368985
0.367769
0.371158
0.37941
0.392773
0.411495
0.435854
0.466136
0.50252
0.544847
0.591603
0.630209
0.656844
0.6795
0.700288
0.719175
0.736176
0.751329
0.764687
0.776303
0.786228
0.79451
0.80119
0.8063
0.809868
0.811913
0.812447
0.811474
0.808993
0.804994
0.79946
0.792368
0.783684
0.773372
0.761382
0.747664
0.732155
0.714795
0.695522
0.674285
0.651064
0.62555
0.589686
0.539729
0.492315
0.450342
0.414218
0.383799
0.358791
0.338864
0.323712
0.313074
0.306733
0.304525
0.30633
0.312067
0.321685
0.335148
0.352425
0.373439
0.397875
0.424345
0.443939
0.453284
0.459608
0.463596
0.465265
0.464748
0.462299
0.457148
0.444609
0.426245
0.409824
0.396956
0.387716
0.382331
0.38076
0.382607
0.387195
0.393901
0.400563
0.404542
0.400877
0.394907
0.389015
0.385404
0.384708
0.38766
0.394682
0.405894
0.42114
0.440356
0.462044
0.479278
0.488649
0.494557
0.498692
0.500817
0.461445
0.461136
0.457109
0.44631
0.433055
0.42258
0.416404
0.41461
0.417222
0.424204
0.435483
0.449501
0.463059
0.469023
0.469812
0.470011
0.469557
0.468383
0.460635
0.443446
0.427957
0.416444
0.409392
0.407161
0.410059
0.418387
0.432365
0.452163
0.478005
0.510122
0.548389
0.591293
0.629043
0.655738
0.67761
0.698122
0.717123
0.73453
0.750311
0.764461
0.776995
0.787938
0.797317
0.805161
0.811496
0.816346
0.819728
0.821657
0.822141
0.821183
0.81878
0.814926
0.809607
0.802805
0.794496
0.784652
0.773242
0.760229
0.745579
0.729257
0.71124
0.691518
0.670114
0.64709
0.621085
0.583451
0.535358
0.491189
0.452753
0.420237
0.393454
0.372095
0.355872
0.344529
0.337853
0.335683
0.337901
0.344428
0.355199
0.370143
0.389176
0.412103
0.438026
0.461337
0.473233
0.480403
0.485828
0.489422
0.491201
0.491276
0.489856
0.487249
0.482089
0.470902
0.454213
0.440976
0.431233
0.426066
0.425674
0.429537
0.436367
0.446286
0.452117
0.454023
0.452592
0.447209
0.438061
0.432206
0.429483
0.431288
0.43807
0.449793
0.465503
0.485021
0.500147
0.50909
0.514738
0.519318
0.522536
0.524195
0.496264
0.49618
0.496082
0.492778
0.484828
0.473421
0.46673
0.464686
0.467536
0.475057
0.487507
0.497742
0.50311
0.504012
0.504681
0.505034
0.505007
0.504587
0.503432
0.495359
0.479046
0.466054
0.457519
0.454198
0.45654
0.465002
0.479756
0.500757
0.528096
0.561916
0.600803
0.634777
0.659766
0.68016
0.699736
0.718255
0.735551
0.751513
0.766077
0.779209
0.790895
0.801136
0.80994
0.81732
0.823289
0.827859
0.831042
0.832846
0.833277
0.832335
0.830019
0.826322
0.821236
0.814748
0.806842
0.7975
0.786703
0.774433
0.760673
0.745415
0.728661
0.710435
0.690784
0.669796
0.647602
0.621606
0.58452
0.539607
0.498903
0.464093
0.435326
0.412324
0.394861
0.382697
0.375627
0.373496
0.376191
0.383629
0.395725
0.412296
0.43309
0.45754
0.482458
0.496136
0.503311
0.509269
0.513877
0.517065
0.518842
0.519298
0.518602
0.517
0.514815
0.511026
0.502937
0.491651
0.481409
0.476471
0.477272
0.483095
0.489321
0.493236
0.4946
0.494574
0.495314
0.494519
0.491264
0.485753
0.480986
0.481696
0.488176
0.500386
0.514605
0.525759
0.532705
0.537546
0.541896
0.545441
0.54794
0.549231
0.531168
0.531233
0.531434
0.531923
0.53082
0.527037
0.522536
0.520556
0.523493
0.529495
0.534964
0.537964
0.538491
0.539185
0.539868
0.540436
0.540849
0.541124
0.541342
0.540989
0.534912
0.522816
0.513363
0.509025
0.510703
0.51939
0.535152
0.557323
0.58547
0.619364
0.647355
0.668861
0.687287
0.705401
0.722918
0.739612
0.755311
0.769894
0.783276
0.795402
0.80624
0.815771
0.823988
0.83089
0.836479
0.840759
0.843735
0.845409
0.845785
0.844861
0.842637
0.839108
0.834268
0.828109
0.820624
0.811803
0.801638
0.790125
0.777265
0.763068
0.747557
0.730775
0.712792
0.693709
0.673671
0.652869
0.628253
0.594068
0.552613
0.515665
0.484915
0.460105
0.441266
0.42818
0.420655
0.418556
0.421767
0.430211
0.443788
0.461998
0.484088
0.508188
0.522091
0.52878
0.53459
0.539483
0.543345
0.546118
0.547805
0.548472
0.548252
0.547336
0.545973
0.544461
0.542748
0.5385
0.533703
0.530451
0.530025
0.531181
0.532037
0.530934
0.530281
0.530328
0.531087
0.532582
0.534468
0.534439
0.534364
0.53616
0.541214
0.548156
0.554759
0.558971
0.56276
0.566492
0.569858
0.57261
0.574553
0.575558
0.566006
0.566152
0.566493
0.567129
0.568208
0.569608
0.569406
0.569466
0.570904
0.572749
0.573004
0.573155
0.573663
0.574371
0.575168
0.575992
0.57683
0.577719
0.578761
0.580128
0.581709
0.579436
0.575096
0.570698
0.57174
0.580785
0.597684
0.620237
0.644387
0.665701
0.682681
0.698828
0.71512
0.731239
0.746923
0.761962
0.776189
0.789476
0.80173
0.812884
0.822891
0.83172
0.839351
0.845773
0.850978
0.854964
0.857729
0.859271
0.859592
0.858689
0.85656
0.853204
0.848618
0.842798
0.835742
0.827449
0.817921
0.807165
0.795195
0.782034
0.767722
0.752316
0.735898
0.718578
0.700504
0.681863
0.662885
0.641145
0.611847
0.574517
0.542544
0.515845
0.495606
0.481539
0.473493
0.471407
0.475117
0.484524
0.499652
0.518828
0.539118
0.55137
0.557057
0.562181
0.566786
0.570728
0.573904
0.576258
0.577786
0.578533
0.578597
0.578119
0.57728
0.576286
0.575347
0.574698
0.573933
0.572467
0.57082
0.568654
0.56684
0.56574
0.565251
0.565369
0.566106
0.567483
0.569537
0.572434
0.575762
0.578713
0.581872
0.584522
0.586997
0.589864
0.592873
0.595802
0.598436
0.600586
0.602105
0.60289
0.600699
0.600875
0.601256
0.601891
0.602828
0.604066
0.605525
0.606755
0.607237
0.607334
0.607559
0.607982
0.608633
0.609468
0.610443
0.611535
0.612757
0.614163
0.615856
0.618001
0.620839
0.624723
0.627453
0.629976
0.635119
0.644488
0.657728
0.672782
0.687481
0.700543
0.714353
0.728651
0.743126
0.757511
0.771574
0.785125
0.798005
0.810091
0.821285
0.831513
0.84072
0.848866
0.855923
0.861871
0.866696
0.870389
0.872944
0.874356
0.874622
0.873741
0.871711
0.868531
0.864201
0.858722
0.852096
0.844329
0.835432
0.825419
0.814314
0.802152
0.788982
0.774871
0.759905
0.744201
0.727904
0.711193
0.694287
0.677446
0.659658
0.636205
0.607362
0.57919
0.558038
0.543048
0.534393
0.532304
0.536351
0.546067
0.56204
0.575486
0.584303
0.588282
0.592253
0.596102
0.599644
0.602738
0.605284
0.607225
0.608547
0.609278
0.609483
0.609264
0.608743
0.608057
0.607328
0.606628
0.605853
0.604835
0.603427
0.601962
0.600733
0.599935
0.599613
0.599791
0.600484
0.601706
0.603462
0.605742
0.608373
0.611099
0.613544
0.615862
0.618184
0.620613
0.623066
0.625409
0.627496
0.629193
0.630389
0.631008
0.635215
0.635395
0.635767
0.636349
0.637148
0.638132
0.639208
0.640173
0.640858
0.641372
0.641915
0.642583
0.643418
0.644424
0.645599
0.646949
0.648502
0.650319
0.652498
0.65518
0.658557
0.662867
0.668367
0.675316
0.683046
0.691583
0.700841
0.71066
0.72149
0.733191
0.745538
0.758294
0.771223
0.784104
0.796738
0.808957
0.820617
0.831598
0.841805
0.851162
0.859609
0.867102
0.873605
0.879093
0.883547
0.886953
0.889302
0.890586
0.8908
0.889943
0.888012
0.885009
0.880934
0.875792
0.869591
0.862341
0.854058
0.844764
0.834491
0.823279
0.811184
0.798278
0.784651
0.770418
0.755717
0.740719
0.725622
0.710661
0.696108
0.682103
0.665167
0.64611
0.626877
0.611423
0.602079
0.599966
0.603834
0.61046
0.616601
0.620526
0.622399
0.624849
0.62757
0.63033
0.63295
0.635295
0.637269
0.638811
0.639901
0.640548
0.640795
0.640708
0.640371
0.63987
0.639279
0.638634
0.637905
0.637042
0.636037
0.635032
0.634196
0.633654
0.633476
0.633697
0.634335
0.635395
0.636865
0.638699
0.640787
0.642975
0.645111
0.647196
0.649265
0.651338
0.653368
0.655271
0.656948
0.658301
0.659252
0.659743
0.66955
0.669722
0.670068
0.670591
0.671282
0.672107
0.673001
0.67387
0.674651
0.675381
0.676147
0.677016
0.67803
0.679213
0.680581
0.682158
0.683982
0.686113
0.688636
0.691666
0.69534
0.699815
0.705226
0.711642
0.718902
0.726833
0.735395
0.744624
0.754581
0.765192
0.776313
0.787766
0.799369
0.810942
0.822318
0.833349
0.843906
0.853879
0.863175
0.871721
0.879454
0.886327
0.892302
0.897349
0.901445
0.904575
0.906724
0.907885
0.90805
0.907218
0.905386
0.902557
0.898733
0.893922
0.888135
0.881385
0.873695
0.865089
0.855605
0.845289
0.834198
0.822406
0.810004
0.797101
0.783829
0.770342
0.756821
0.743469
0.730513
0.718199
0.706814
0.695928
0.684099
0.673339
0.665415
0.661235
0.660158
0.660244
0.659213
0.659044
0.65979
0.661143
0.662847
0.664698
0.666532
0.668225
0.669684
0.670851
0.671696
0.672218
0.67244
0.672404
0.672163
0.671774
0.671285
0.670723
0.670091
0.66939
0.668645
0.667936
0.667362
0.667011
0.66694
0.667185
0.667763
0.668675
0.669902
0.671403
0.673101
0.674905
0.67673
0.678545
0.680341
0.682106
0.683799
0.68536
0.686721
0.687813
0.688576
0.688969
0.703714
0.703874
0.704193
0.704666
0.705281
0.706012
0.706819
0.707655
0.708495
0.709354
0.710276
0.711304
0.712475
0.713816
0.715355
0.717121
0.719156
0.721514
0.724269
0.727506
0.731325
0.735825
0.741081
0.747119
0.753877
0.761276
0.769274
0.77786
0.787018
0.796685
0.806754
0.817089
0.827545
0.837977
0.848243
0.858215
0.86778
0.876836
0.885297
0.893091
0.900159
0.90645
0.911926
0.916555
0.920311
0.923176
0.925135
0.926178
0.926299
0.925492
0.923758
0.921099
0.91752
0.913029
0.90764
0.901371
0.894246
0.886293
0.877553
0.868072
0.857912
0.847144
0.835856
0.824153
0.812155
0.800001
0.787851
0.77588
0.764276
0.753237
0.742961
0.733597
0.725394
0.718276
0.712088
0.706796
0.70247
0.699366
0.697507
0.696643
0.696573
0.697085
0.697978
0.699082
0.700256
0.701387
0.702391
0.703211
0.703814
0.704188
0.704344
0.704304
0.704103
0.703778
0.703362
0.70288
0.702348
0.701783
0.701217
0.700703
0.700307
0.700086
0.700088
0.70034
0.700857
0.701639
0.702667
0.703908
0.70531
0.706812
0.708358
0.709913
0.71145
0.712944
0.71436
0.71565
0.716764
0.717652
0.71827
0.718587
0.737718
0.737867
0.738163
0.738599
0.739165
0.739842
0.740607
0.741436
0.742319
0.743265
0.744298
0.745449
0.746748
0.748222
0.7499
0.751815
0.754006
0.75652
0.759418
0.762764
0.766629
0.771077
0.776155
0.781874
0.78821
0.79512
0.802567
0.810522
0.818946
0.827777
0.836928
0.84629
0.855747
0.865176
0.874461
0.88349
0.892162
0.900387
0.908085
0.915189
0.92164
0.927389
0.932398
0.936633
0.940068
0.942683
0.944462
0.945395
0.945473
0.944694
0.943055
0.94056
0.937217
0.933034
0.928027
0.922215
0.915623
0.908285
0.90024
0.891536
0.882233
0.872402
0.862125
0.851499
0.840635
0.829657
0.818703
0.807923
0.797474
0.787514
0.778195
0.769649
0.761994
0.755238
0.749347
0.744312
0.740175
0.737011
0.734808
0.733445
0.732776
0.732645
0.732898
0.733397
0.734022
0.734676
0.735283
0.73579
0.73616
0.736377
0.736442
0.736365
0.736168
0.735873
0.735506
0.735087
0.734637
0.734177
0.733736
0.733354
0.733075
0.732941
0.732985
0.73323
0.733688
0.734355
0.735219
0.736253
0.737419
0.738675
0.739979
0.741298
0.742602
0.743862
0.745046
0.746116
0.747034
0.74776
0.748264
0.748523
0.771573
0.771713
0.771992
0.772402
0.772938
0.773585
0.774331
0.775164
0.77608
0.777088
0.778202
0.779447
0.780845
0.782424
0.78421
0.786233
0.788531
0.791144
0.794118
0.797503
0.80135
0.805701
0.810586
0.816013
0.821969
0.828426
0.835353
0.842714
0.850466
0.85855
0.86689
0.875398
0.883975
0.89252
0.900934
0.909121
0.916992
0.924465
0.931469
0.937939
0.943821
0.949069
0.953643
0.95751
0.960645
0.963025
0.964637
0.965466
0.965506
0.964754
0.963208
0.960872
0.957753
0.953863
0.949217
0.943837
0.937748
0.930984
0.923585
0.915599
0.907083
0.898106
0.888743
0.879084
0.869229
0.859288
0.849382
0.839636
0.830182
0.821148
0.812657
0.804812
0.797693
0.791335
0.785744
0.780928
0.776906
0.773694
0.771268
0.769552
0.768442
0.767822
0.767573
0.767585
0.767759
0.768012
0.768277
0.768504
0.768658
0.768719
0.768681
0.768548
0.768329
0.768041
0.767701
0.767327
0.766936
0.766551
0.766196
0.765901
0.765698
0.765616
0.765681
0.765909
0.766308
0.766876
0.767601
0.768465
0.769438
0.770489
0.771586
0.772698
0.773797
0.774857
0.775846
0.776736
0.777494
0.778092
0.778505
0.778716
0.805288
0.805422
0.805688
0.806082
0.806598
0.807229
0.807968
0.808808
0.809751
0.810803
0.811977
0.81329
0.814763
0.816418
0.818281
0.820378
0.822742
0.825405
0.828406
0.831781
0.835566
0.839792
0.844476
0.849623
0.855226
0.861262
0.867704
0.874516
0.881655
0.889067
0.896686
0.904435
0.912234
0.919995
0.927634
0.935068
0.942219
0.949013
0.955385
0.961277
0.966638
0.971423
0.975594
0.97912
0.981975
0.984138
0.985592
0.986326
0.986333
0.985607
0.984151
0.981966
0.979061
0.975447
0.971142
0.966167
0.960548
0.954318
0.947517
0.940191
0.932396
0.924194
0.915657
0.906865
0.897909
0.888886
0.879899
0.871057
0.862468
0.854241
0.846472
0.839248
0.832632
0.826664
0.821367
0.816751
0.812827
0.809592
0.807019
0.805053
0.803618
0.802627
0.801987
0.801611
0.801417
0.801336
0.801309
0.80129
0.801248
0.80116
0.801017
0.800815
0.80056
0.800261
0.79993
0.799581
0.799231
0.798895
0.798597
0.798357
0.798199
0.798145
0.798214
0.798416
0.798758
0.799238
0.799846
0.800567
0.801379
0.802257
0.803176
0.80411
0.805033
0.805921
0.806747
0.807486
0.808114
0.808607
0.808948
0.809121
0.838869
0.838998
0.839256
0.839639
0.840143
0.840766
0.841502
0.84235
0.843313
0.844397
0.845612
0.846973
0.848497
0.850205
0.852117
0.854257
0.856653
0.85933
0.86232
0.865648
0.869343
0.873423
0.877901
0.882779
0.888049
0.893693
0.899684
0.905991
0.912572
0.919377
0.92635
0.933424
0.940529
0.947593
0.95454
0.961299
0.967801
0.973982
0.979782
0.985147
0.99003
0.99439
0.998191
1.0014
1.004
1.00596
1.00727
1.00791
1.00789
1.00719
1.00582
1.00378
1.00108
0.997724
0.993738
0.989141
0.983958
0.978223
0.971973
0.965254
0.958115
0.950617
0.942825
0.934811
0.926657
0.918447
0.910271
0.902223
0.894394
0.886874
0.879744
0.873074
0.866921
0.861324
0.856306
0.851883
0.848059
0.844827
0.842162
0.840023
0.838351
0.83708
0.836137
0.835454
0.834962
0.834605
0.834331
0.834101
0.833883
0.833657
0.83341
0.833136
0.832835
0.832513
0.832177
0.831838
0.831509
0.831203
0.830938
0.83073
0.830596
0.830553
0.830613
0.830784
0.831072
0.831472
0.831978
0.832578
0.833253
0.833985
0.834753
0.835533
0.836305
0.837046
0.837734
0.838348
0.838868
0.839276
0.839557
0.8397
0.872321
0.872447
0.872698
0.873074
0.873571
0.874188
0.874924
0.875778
0.876754
0.877859
0.879101
0.880493
0.882049
0.883787
0.885724
0.887882
0.890281
0.892944
0.895893
0.89915
0.902733
0.906656
0.910927
0.915544
0.920498
0.925775
0.931349
0.937191
0.943263
0.949521
0.955912
0.962382
0.968867
0.975306
0.981634
0.987787
0.993706
0.999332
1.00461
1.0095
1.01395
1.01792
1.02138
1.0243
1.02666
1.02843
1.02961
1.03017
1.03012
1.02945
1.02816
1.02626
1.02374
1.02063
1.01695
1.0127
1.00792
1.00264
0.9969
0.990734
0.984194
0.977334
0.970213
0.962898
0.95546
0.947973
0.940517
0.93317
0.926012
0.919118
0.912555
0.906385
0.900655
0.895403
0.890652
0.886416
0.8827
0.879494
0.876781
0.874525
0.872684
0.871203
0.870029
0.869104
0.868374
0.867791
0.867311
0.866899
0.866528
0.866176
0.86583
0.865483
0.865132
0.864778
0.864427
0.864085
0.863763
0.863471
0.863222
0.863028
0.862903
0.862857
0.8629
0.863037
0.863271
0.8636
0.864017
0.864512
0.865071
0.865678
0.866316
0.866965
0.867607
0.868223
0.868795
0.869304
0.869735
0.870072
0.870304
0.870422
0.905646
0.90577
0.906017
0.906387
0.906879
0.907492
0.908226
0.909083
0.910067
0.911184
0.91244
0.913848
0.91542
0.917169
0.919111
0.921264
0.923645
0.926271
0.929159
0.932326
0.935784
0.939543
0.943605
0.947969
0.952626
0.957559
0.962747
0.968162
0.97377
0.97953
0.985397
0.991322
0.997252
1.00313
1.0089
1.01451
1.0199
1.02503
1.02984
1.03429
1.03834
1.04195
1.0451
1.04776
1.0499
1.0515
1.05255
1.05305
1.05297
1.05233
1.05112
1.04934
1.047
1.04412
1.04071
1.03679
1.03239
1.02753
1.02225
1.01659
1.01059
1.00431
0.997796
0.991108
0.984311
0.977469
0.970653
0.963929
0.957367
0.951029
0.944974
0.939255
0.933913
0.928981
0.924482
0.92043
0.916828
0.91367
0.910941
0.908614
0.906654
0.905022
0.903672
0.902559
0.901639
0.900872
0.900222
0.899657
0.899152
0.898688
0.898252
0.897834
0.89743
0.897041
0.896667
0.896313
0.895987
0.895697
0.895451
0.895259
0.89513
0.895072
0.895092
0.895193
0.895377
0.895641
0.895979
0.896383
0.896841
0.897341
0.897867
0.898403
0.898935
0.899445
0.899918
0.900339
0.900695
0.900973
0.901164
0.901262
0.938847
0.938969
0.939213
0.939579
0.940066
0.940675
0.941406
0.942263
0.943248
0.944368
0.945629
0.94704
0.948612
0.950357
0.952289
0.954419
0.956763
0.959335
0.962147
0.96521
0.968535
0.972125
0.975983
0.980103
0.984476
0.989088
0.993918
0.99894
1.00412
1.00943
1.01482
1.02026
1.02569
1.03106
1.03633
1.04145
1.04637
1.05104
1.05542
1.05948
1.06317
1.06646
1.06932
1.07173
1.07367
1.07512
1.07606
1.07649
1.0764
1.07578
1.07464
1.07298
1.07081
1.06814
1.06498
1.06136
1.05731
1.05283
1.04798
1.04278
1.03728
1.03152
1.02555
1.01943
1.01321
1.00694
1.0007
0.994527
0.988496
0.982656
0.977058
0.971747
0.96676
0.962126
0.957866
0.953993
0.950512
0.947418
0.944699
0.942335
0.940298
0.938557
0.937077
0.93582
0.934752
0.933838
0.933047
0.932354
0.931735
0.931173
0.930655
0.930171
0.929716
0.929287
0.928886
0.928514
0.928176
0.927878
0.927625
0.927426
0.927285
0.927209
0.927202
0.927266
0.927402
0.927606
0.927874
0.928199
0.92857
0.928977
0.929407
0.929847
0.930284
0.930704
0.931093
0.93144
0.931733
0.931962
0.932119
0.932199
0.971927
0.972047
0.972288
0.972649
0.973131
0.973734
0.974461
0.975313
0.976294
0.97741
0.978666
0.980071
0.981632
0.983361
0.985266
0.987361
0.989655
0.992158
0.994882
0.997834
1.00102
1.00444
1.0081
1.01198
1.01609
1.0204
1.0249
1.02956
1.03435
1.03925
1.04421
1.0492
1.05418
1.0591
1.06391
1.06859
1.07308
1.07734
1.08134
1.08503
1.08839
1.09139
1.09399
1.09618
1.09794
1.09924
1.10008
1.10045
1.10034
1.09975
1.09868
1.09713
1.09511
1.09264
1.08972
1.08638
1.08264
1.07852
1.07405
1.06928
1.06422
1.05894
1.05346
1.04785
1.04214
1.03639
1.03066
1.02499
1.01943
1.01404
1.00886
1.00392
0.999253
0.994896
0.990863
0.987165
0.983809
0.980791
0.978102
0.975728
0.973646
0.971832
0.970258
0.968893
0.96771
0.96668
0.965776
0.964977
0.964261
0.963615
0.963023
0.962478
0.961974
0.961506
0.961075
0.96068
0.960325
0.960013
0.959747
0.959534
0.959376
0.959278
0.959242
0.959269
0.959359
0.959508
0.959713
0.959968
0.960263
0.960589
0.960937
0.961294
0.96165
0.961993
0.962311
0.962595
0.962834
0.963022
0.96315
0.963216
1.00489
1.005
1.00524
1.0056
1.00607
1.00667
1.00739
1.00823
1.00921
1.01031
1.01156
1.01294
1.01449
1.01619
1.01806
1.0201
1.02234
1.02476
1.02739
1.03022
1.03327
1.03652
1.03998
1.04364
1.0475
1.05153
1.05571
1.06004
1.06448
1.069
1.07357
1.07816
1.08272
1.08723
1.09164
1.09591
1.10002
1.10391
1.10755
1.11092
1.11398
1.11671
1.11908
1.12107
1.12265
1.12383
1.12458
1.12489
1.12477
1.1242
1.1232
1.12175
1.11988
1.11758
1.11488
1.1118
1.10835
1.10455
1.10044
1.09604
1.0914
1.08654
1.08152
1.07636
1.07112
1.06583
1.06056
1.05534
1.05021
1.04522
1.04041
1.0358
1.03144
1.02734
1.02352
1.02
1.01677
1.01383
1.01119
1.00883
1.00673
1.00487
1.00323
1.00179
1.00052
0.999395
0.998401
0.997515
0.99672
0.996
0.995345
0.994746
0.994195
0.99369
0.993227
0.992808
0.992432
0.992101
0.991818
0.991586
0.991407
0.991284
0.991218
0.991208
0.991255
0.991355
0.991504
0.991696
0.991924
0.992181
0.992457
0.992743
0.993029
0.993306
0.993564
0.993794
0.993988
0.99414
0.994245
0.994298
1.03773
1.03784
1.03808
1.03843
1.0389
1.03948
1.04019
1.04103
1.04199
1.04308
1.0443
1.04567
1.04718
1.04884
1.05067
1.05266
1.05482
1.05717
1.05969
1.0624
1.06531
1.06839
1.07166
1.07511
1.07872
1.08249
1.08639
1.09041
1.09452
1.0987
1.10291
1.10713
1.11133
1.11546
1.1195
1.12341
1.12716
1.13072
1.13405
1.13712
1.13991
1.14239
1.14454
1.14635
1.14778
1.14884
1.14951
1.14978
1.14964
1.1491
1.14815
1.1468
1.14506
1.14293
1.14043
1.13758
1.1344
1.1309
1.12711
1.12306
1.11879
1.11432
1.1097
1.10496
1.10013
1.09527
1.09041
1.08559
1.08085
1.07622
1.07175
1.06745
1.06337
1.05951
1.05589
1.05253
1.04943
1.04659
1.044
1.04167
1.03956
1.03768
1.036
1.03451
1.03317
1.03198
1.03092
1.02996
1.0291
1.02832
1.02761
1.02696
1.02637
1.02583
1.02534
1.02489
1.02449
1.02414
1.02384
1.02358
1.02338
1.02323
1.02314
1.02309
1.0231
1.02315
1.02325
1.02339
1.02356
1.02375
1.02397
1.02419
1.02442
1.02464
1.02484
1.02503
1.02518
1.02531
1.02539
1.02543
1.07045
1.07056
1.07079
1.07114
1.0716
1.07218
1.07287
1.07369
1.07464
1.0757
1.0769
1.07824
1.07972
1.08134
1.08311
1.08504
1.08713
1.08939
1.09181
1.0944
1.09716
1.10008
1.10317
1.10641
1.1098
1.11332
1.11696
1.12069
1.1245
1.12836
1.13225
1.13614
1.13999
1.14379
1.14749
1.15107
1.15451
1.15775
1.16079
1.1636
1.16614
1.1684
1.17036
1.172
1.17329
1.17424
1.17484
1.17506
1.17491
1.17439
1.1735
1.17224
1.17062
1.16865
1.16634
1.1637
1.16076
1.15753
1.15404
1.15031
1.14637
1.14226
1.138
1.13363
1.12919
1.1247
1.12021
1.11576
1.11137
1.10707
1.10291
1.0989
1.09507
1.09143
1.08801
1.0848
1.08183
1.07908
1.07657
1.07427
1.07218
1.0703
1.06859
1.06706
1.06568
1.06444
1.06333
1.06232
1.0614
1.06057
1.05982
1.05913
1.0585
1.05792
1.0574
1.05693
1.05651
1.05613
1.05581
1.05553
1.05531
1.05513
1.055
1.05493
1.05489
1.05491
1.05496
1.05505
1.05516
1.05531
1.05547
1.05564
1.05581
1.05598
1.05615
1.05629
1.05641
1.05651
1.05658
1.05661
1.10306
1.10317
1.1034
1.10373
1.10419
1.10475
1.10543
1.10623
1.10716
1.1082
1.10937
1.11068
1.11211
1.11369
1.1154
1.11726
1.11927
1.12144
1.12375
1.12622
1.12884
1.13161
1.13452
1.13757
1.14075
1.14404
1.14742
1.15089
1.15442
1.158
1.16159
1.16517
1.16872
1.1722
1.1756
1.17889
1.18203
1.185
1.18778
1.19034
1.19266
1.19472
1.1965
1.19798
1.19915
1.20001
1.20053
1.20072
1.20056
1.20006
1.19923
1.19805
1.19654
1.19471
1.19257
1.19013
1.18741
1.18443
1.1812
1.17776
1.17413
1.17034
1.16641
1.16238
1.15828
1.15414
1.14999
1.14586
1.14179
1.1378
1.13391
1.13016
1.12657
1.12314
1.1199
1.11685
1.114
1.11135
1.10891
1.10666
1.1046
1.10272
1.10102
1.09946
1.09806
1.09678
1.09563
1.09457
1.09362
1.09275
1.09195
1.09123
1.09057
1.08996
1.08941
1.08892
1.08847
1.08807
1.08773
1.08743
1.08718
1.08698
1.08682
1.08671
1.08665
1.08662
1.08663
1.08667
1.08675
1.08684
1.08696
1.08708
1.08721
1.08734
1.08746
1.08758
1.08767
1.08775
1.0878
1.08782
1.13556
1.13567
1.13589
1.13622
1.13666
1.13721
1.13788
1.13866
1.13955
1.14057
1.14171
1.14298
1.14437
1.14589
1.14755
1.14934
1.15127
1.15334
1.15554
1.15789
1.16038
1.16299
1.16574
1.1686
1.17158
1.17465
1.17781
1.18103
1.18431
1.18762
1.19093
1.19424
1.1975
1.20071
1.20383
1.20684
1.20972
1.21244
1.21498
1.21732
1.21944
1.22131
1.22293
1.22427
1.22533
1.2261
1.22656
1.22671
1.22655
1.22608
1.22529
1.22419
1.22278
1.22108
1.21909
1.21683
1.21432
1.21156
1.20858
1.20541
1.20206
1.19855
1.19493
1.19121
1.18741
1.18358
1.17974
1.17591
1.17213
1.16841
1.16479
1.16128
1.1579
1.15467
1.1516
1.1487
1.14597
1.14342
1.14105
1.13886
1.13684
1.13498
1.13328
1.13172
1.1303
1.129
1.12782
1.12674
1.12575
1.12485
1.12402
1.12327
1.12258
1.12195
1.12137
1.12085
1.12038
1.11997
1.1196
1.11928
1.119
1.11878
1.11859
1.11845
1.11836
1.1183
1.11827
1.11828
1.11831
1.11836
1.11843
1.11852
1.11861
1.1187
1.11879
1.11888
1.11895
1.119
1.11904
1.11906
1.16794
1.16805
1.16826
1.16859
1.16901
1.16955
1.1702
1.17096
1.17183
1.17282
1.17392
1.17515
1.17649
1.17796
1.17955
1.18127
1.18312
1.1851
1.1872
1.18943
1.19178
1.19425
1.19684
1.19952
1.20231
1.20518
1.20812
1.21112
1.21416
1.21722
1.22029
1.22334
1.22635
1.2293
1.23217
1.23493
1.23757
1.24006
1.24239
1.24452
1.24645
1.24816
1.24963
1.25085
1.25181
1.2525
1.2529
1.25302
1.25286
1.2524
1.25166
1.25063
1.24932
1.24774
1.24589
1.2438
1.24147
1.23892
1.23616
1.23323
1.23013
1.22689
1.22354
1.2201
1.21659
1.21304
1.20947
1.20592
1.2024
1.19894
1.19555
1.19226
1.18908
1.18603
1.18313
1.18037
1.17776
1.17531
1.17302
1.17089
1.16891
1.16709
1.1654
1.16385
1.16242
1.16111
1.15991
1.15881
1.1578
1.15687
1.15602
1.15524
1.15453
1.15387
1.15328
1.15274
1.15225
1.15181
1.15142
1.15108
1.15078
1.15053
1.15032
1.15016
1.15003
1.14994
1.14988
1.14985
1.14985
1.14986
1.1499
1.14995
1.15001
1.15007
1.15013
1.15019
1.15024
1.15028
1.15031
1.15032
1.20022
1.20033
1.20054
1.20085
1.20126
1.20179
1.20242
1.20315