/*--------------------------------*- C++ -*----------------------------------*\
| =========                 |                                                 |
| \\      /  F ield         | OpenFOAM: The Open Source CFD Toolbox           |
|  \\    /   O peration     | Version:  2406                                  |
|   \\  /    A nd           | Website:  www.openfoam.com                      |
|    \\/     M anipulation  |                                                 |
\*---------------------------------------------------------------------------*/
FoamFile
{
    version     2.0;
    format      ascii;
    arch        "LSB;label=32;scalar=64";
    class       volScalarField;
    location    "5.65";
    object      D;
}
// * * * * * * * * * * * * * * * * * * * * * * * * * * * * * * * * * * * * * //

dimensions      [0 2 -1 0 0 0 0];

internalField   nonuniform List<scalar> 
14400
(
6.26471e-05
6.24757e-05
6.22238e-05
6.19702e-05
6.17567e-05
6.15996e-05
6.15043e-05
6.14732e-05
6.15103e-05
6.16236e-05
6.18263e-05
6.21375e-05
6.25782e-05
6.31474e-05
6.37338e-05
6.39285e-05
6.32692e-05
6.23785e-05
6.15904e-05
6.09568e-05
6.04533e-05
6.00482e-05
5.97173e-05
5.94441e-05
5.92192e-05
5.9038e-05
5.89004e-05
5.88104e-05
5.87768e-05
5.88155e-05
5.8955e-05
5.92507e-05
5.98266e-05
6.10415e-05
6.4512e-05
8.37267e-05
0.000138142
0.00013824
0.00013824
0.00013824
0.00013824
0.00013824
0.00013824
0.00013824
0.00013824
0.00013824
0.00013824
0.00013824
0.00013824
0.00013824
0.00013824
0.00013824
0.00013824
0.00013824
0.00013824
0.00013824
0.00013824
0.00013824
0.00013824
0.00013824
0.00013824
0.000129087
6.84973e-05
6.23902e-05
6.06131e-05
5.98326e-05
5.94464e-05
5.92667e-05
5.92136e-05
5.92455e-05
5.93375e-05
5.9472e-05
5.96355e-05
5.98168e-05
6.00062e-05
6.01967e-05
6.03845e-05
6.05705e-05
6.07624e-05
6.09763e-05
6.12407e-05
6.16047e-05
6.2159e-05
6.31029e-05
6.50373e-05
7.11374e-05
0.000121383
0.00013824
0.000133881
7.3852e-05
6.60108e-05
6.35251e-05
6.23728e-05
6.17446e-05
6.13834e-05
6.11806e-05
6.1081e-05
6.10524e-05
6.10727e-05
6.11241e-05
6.11892e-05
6.12489e-05
6.12834e-05
6.12762e-05
6.12213e-05
6.11271e-05
6.10114e-05
6.08942e-05
6.07935e-05
6.0725e-05
6.07047e-05
6.07514e-05
6.08924e-05
6.11735e-05
6.1683e-05
6.26242e-05
6.4624e-05
7.09694e-05
0.000125691
0.00013824
6.29803e-05
6.27039e-05
6.23472e-05
6.20198e-05
6.17599e-05
6.15755e-05
6.14656e-05
6.14289e-05
6.14682e-05
6.15919e-05
6.18167e-05
6.21709e-05
6.2698e-05
6.34533e-05
6.44356e-05
6.51666e-05
6.39408e-05
6.26781e-05
6.17187e-05
6.10071e-05
6.04671e-05
6.00452e-05
5.97072e-05
5.94325e-05
5.92095e-05
5.90325e-05
5.89011e-05
5.88193e-05
5.87963e-05
5.88492e-05
5.90092e-05
5.93375e-05
5.99766e-05
6.13635e-05
6.57802e-05
9.95064e-05
0.000138237
0.00013824
0.00013824
0.00013824
0.00013824
0.00013824
0.00013824
0.00013824
0.00013824
0.00013824
0.00013824
0.00013824
0.00013824
0.00013824
0.00013824
0.00013824
0.00013824
0.00013824
0.00013824
0.00013824
0.00013824
0.00013824
0.00013824
0.00013824
0.00013824
0.000136387
7.16839e-05
6.31083e-05
6.08616e-05
5.99465e-05
5.95045e-05
5.92946e-05
5.92215e-05
5.92383e-05
5.93174e-05
5.94405e-05
5.95938e-05
5.9766e-05
5.99479e-05
6.0133e-05
6.0318e-05
6.05048e-05
6.07014e-05
6.09249e-05
6.12057e-05
6.15969e-05
6.22003e-05
6.3249e-05
6.546e-05
7.24359e-05
0.000130635
0.00013824
0.000138017
8.43403e-05
6.74004e-05
6.38848e-05
6.25126e-05
6.1806e-05
6.14077e-05
6.11851e-05
6.10754e-05
6.10436e-05
6.10672e-05
6.1128e-05
6.1208e-05
6.1286e-05
6.13367e-05
6.13361e-05
6.12747e-05
6.11653e-05
6.10331e-05
6.09029e-05
6.07947e-05
6.07247e-05
6.0709e-05
6.07669e-05
6.0928e-05
6.12443e-05
6.18217e-05
6.29254e-05
6.54699e-05
7.44855e-05
0.000136088
0.00013824
6.40131e-05
6.33212e-05
6.26603e-05
6.21534e-05
6.17914e-05
6.15499e-05
6.14101e-05
6.13624e-05
6.14061e-05
6.15511e-05
6.18211e-05
6.22635e-05
6.29741e-05
6.41698e-05
6.64434e-05
7.14299e-05
6.59408e-05
6.34028e-05
6.20111e-05
6.11255e-05
6.05079e-05
6.00502e-05
5.9697e-05
5.94183e-05
5.91982e-05
5.90291e-05
5.89098e-05
5.88443e-05
5.88431e-05
5.89263e-05
5.9131e-05
5.95343e-05
6.03236e-05
6.21137e-05
6.81877e-05
0.000124869
0.00013824
0.00013824
0.00013824
0.00013824
0.00013824
0.00013824
0.00013824
0.00013824
0.00013824
0.00013824
0.00013824
0.00013824
0.00013824
0.00013824
0.00013824
0.00013824
0.00013824
0.00013824
0.00013824
0.00013824
0.00013824
0.00013824
0.00013824
0.00013824
0.00013824
0.000138229
9.36934e-05
6.53304e-05
6.14304e-05
6.0192e-05
5.96307e-05
5.93584e-05
5.92447e-05
5.9231e-05
5.9285e-05
5.93862e-05
5.952e-05
5.96752e-05
5.98434e-05
6.00188e-05
6.01995e-05
6.03883e-05
6.05948e-05
6.08379e-05
6.11519e-05
6.15991e-05
6.23093e-05
6.36248e-05
6.69372e-05
8.25544e-05
0.00013795
0.00013824
0.00013824
0.000115064
7.03536e-05
6.46612e-05
6.28313e-05
6.19578e-05
6.14798e-05
6.12148e-05
6.10836e-05
6.10457e-05
6.10769e-05
6.11594e-05
6.12748e-05
6.13983e-05
6.14924e-05
6.15106e-05
6.14298e-05
6.12786e-05
6.11039e-05
6.09421e-05
6.08158e-05
6.07414e-05
6.07344e-05
6.08157e-05
6.10198e-05
6.14134e-05
6.2145e-05
6.36629e-05
6.83124e-05
0.000103156
0.000138237
0.00013824
6.79515e-05
6.4872e-05
6.33314e-05
6.24475e-05
6.19018e-05
6.15653e-05
6.1378e-05
6.13133e-05
6.13648e-05
6.15447e-05
6.18893e-05
6.24806e-05
6.35201e-05
6.56491e-05
7.22437e-05
0.000123818
7.23272e-05
6.4958e-05
6.25651e-05
6.1353e-05
6.06023e-05
6.00847e-05
5.9705e-05
5.94177e-05
5.91999e-05
5.90413e-05
5.89395e-05
5.88991e-05
5.89331e-05
5.90674e-05
5.93528e-05
5.99026e-05
6.10437e-05
6.43325e-05
8.49883e-05
0.000138186
0.00013824
0.00013824
0.00013824
0.00013824
0.00013824
0.00013824
0.00013824
0.00013824
0.00013824
0.00013824
0.00013824
0.00013824
0.00013824
0.00013824
0.00013824
0.00013824
0.00013824
0.00013824
0.00013824
0.00013824
0.00013824
0.00013824
0.00013824
0.00013824
0.00013824
0.00013824
0.000125258
6.85413e-05
6.23906e-05
6.06144e-05
5.98512e-05
5.94758e-05
5.92974e-05
5.92368e-05
5.92534e-05
5.9323e-05
5.94298e-05
5.95622e-05
5.97124e-05
5.98759e-05
6.00521e-05
6.02457e-05
6.04684e-05
6.07426e-05
6.11092e-05
6.16467e-05
6.25311e-05
6.42937e-05
6.9739e-05
0.000113241
0.00013824
0.00013824
0.00013824
0.000137607
7.88293e-05
6.64297e-05
6.34949e-05
6.22812e-05
6.16534e-05
6.13131e-05
6.11448e-05
6.10968e-05
6.11429e-05
6.12663e-05
6.1452e-05
6.16759e-05
6.18798e-05
6.19508e-05
6.18126e-05
6.15538e-05
6.12835e-05
6.10567e-05
6.08944e-05
6.08091e-05
6.08153e-05
6.0936e-05
6.1216e-05
6.17536e-05
6.2785e-05
6.50938e-05
7.29794e-05
0.000134536
0.00013824
0.00013824
9.85234e-05
6.97149e-05
6.48116e-05
6.30643e-05
6.21822e-05
6.16895e-05
6.1429e-05
6.13393e-05
6.14041e-05
6.16408e-05
6.21113e-05
6.29711e-05
6.47081e-05
6.98215e-05
0.000106369
0.000138238
0.000113146
6.92028e-05
6.36558e-05
6.17768e-05
6.07989e-05
6.01845e-05
5.97605e-05
5.94557e-05
5.92373e-05
5.90905e-05
5.90119e-05
5.90072e-05
5.90947e-05
5.93125e-05
5.97413e-05
6.05771e-05
6.24711e-05
6.907e-05
0.000130392
0.00013824
0.00013824
0.00013824
0.00013824
0.00013824
0.00013824
0.00013824
0.00013824
0.00013824
0.00013824
0.00013824
0.00013824
0.00013824
0.00013824
0.00013824
0.00013824
0.00013824
0.00013824
0.00013824
0.00013824
0.00013824
0.00013824
0.00013824
0.00013824
0.00013824
0.00013824
0.00013824
0.00013822
8.99411e-05
6.49855e-05
6.14103e-05
6.02338e-05
5.96835e-05
5.94048e-05
5.92763e-05
5.92419e-05
5.92707e-05
5.93439e-05
5.94492e-05
5.95793e-05
5.97306e-05
5.99045e-05
6.01077e-05
6.03555e-05
6.06762e-05
6.11235e-05
6.18079e-05
6.30004e-05
6.56281e-05
7.51075e-05
0.000136554
0.00013824
0.00013824
0.00013824
0.00013824
0.000128337
7.18058e-05
6.50401e-05
6.2975e-05
6.20372e-05
6.15584e-05
6.13248e-05
6.12597e-05
6.13336e-05
6.15332e-05
6.18596e-05
6.23214e-05
6.28622e-05
6.31406e-05
6.27737e-05
6.21862e-05
6.16861e-05
6.13267e-05
6.10939e-05
6.09852e-05
6.10112e-05
6.11986e-05
6.16163e-05
6.24579e-05
6.4307e-05
7.02675e-05
0.000119413
0.00013824
0.00013824
0.00013824
0.000138224
9.71894e-05
6.91297e-05
6.44709e-05
6.28263e-05
6.20412e-05
6.16564e-05
6.15275e-05
6.16158e-05
6.19532e-05
6.26685e-05
6.4121e-05
6.78871e-05
8.71138e-05
0.000138146
0.00013824
0.000138111
8.41548e-05
6.6075e-05
6.25871e-05
6.11899e-05
6.04109e-05
5.99096e-05
5.95705e-05
5.9344e-05
5.92092e-05
5.91609e-05
5.92078e-05
5.93792e-05
5.97426e-05
6.0464e-05
6.20603e-05
6.7318e-05
0.00011254
0.00013824
0.00013824
0.00013824
0.00013824
0.00013824
0.00013824
0.00013824
0.00013824
0.00013824
0.00013824
0.00013824
0.00013824
0.00013824
0.00013824
0.00013824
0.00013824
0.00013824
0.00013824
0.00013824
0.00013824
0.00013824
0.00013824
0.00013824
0.00013824
0.00013824
0.00013824
0.00013824
0.00013824
0.00013824
0.00013411
7.00739e-05
6.29233e-05
6.09216e-05
6.00537e-05
5.96109e-05
5.93815e-05
5.92774e-05
5.92541e-05
5.92872e-05
5.93622e-05
5.94714e-05
5.96123e-05
5.97879e-05
6.00086e-05
6.02951e-05
6.06866e-05
6.12629e-05
6.22132e-05
6.41217e-05
7.00352e-05
0.000118894
0.00013824
0.00013824
0.00013824
0.00013824
0.00013824
0.00013824
0.000115386
7.05252e-05
6.46745e-05
6.28828e-05
6.21115e-05
6.1745e-05
6.16448e-05
6.17756e-05
6.21305e-05
6.27672e-05
6.39239e-05
6.60467e-05
6.78605e-05
6.58224e-05
6.37433e-05
6.2568e-05
6.19144e-05
6.15329e-05
6.13717e-05
6.14323e-05
6.17498e-05
6.24465e-05
6.40897e-05
6.92582e-05
0.000104846
0.000138238
0.00013824
0.00013824
0.00013824
0.00013824
0.000138204
9.25605e-05
6.89186e-05
6.44155e-05
6.2889e-05
6.22471e-05
6.20455e-05
6.21803e-05
6.27277e-05
6.40815e-05
6.75932e-05
8.12746e-05
0.000137842
0.00013824
0.00013824
0.00013824
0.000135178
7.23153e-05
6.43466e-05
6.19951e-05
6.08893e-05
6.02356e-05
5.98258e-05
5.95747e-05
5.94509e-05
5.94461e-05
5.9574e-05
5.9891e-05
6.05446e-05
6.20188e-05
6.66442e-05
9.9185e-05
0.000138237
0.00013824
0.00013824
0.00013824
0.00013824
0.00013824
0.00013824
0.00013824
0.00013824
0.00013824
0.00013824
0.00013824
0.00013824
0.00013824
0.00013824
0.00013824
0.00013824
0.00013824
0.00013824
0.00013824
0.00013824
0.00013824
0.00013824
0.00013824
0.00013824
0.00013824
0.00013824
0.00013824
0.00013824
0.00013824
0.00013824
0.000121048
6.82397e-05
6.24698e-05
6.07657e-05
6e-05
5.96046e-05
5.9399e-05
5.93063e-05
5.92901e-05
5.9331e-05
5.94192e-05
5.95528e-05
5.97374e-05
5.99887e-05
6.03371e-05
6.08423e-05
6.16399e-05
6.31337e-05
6.72181e-05
9.24989e-05
0.000138218
0.00013824
0.00013824
0.00013824
0.00013824
0.00013824
0.00013824
0.00013824
0.000112613
7.06587e-05
6.49939e-05
6.34286e-05
6.26938e-05
6.2494e-05
6.27786e-05
6.35487e-05
6.50659e-05
6.94648e-05
8.48685e-05
0.00011017
8.30583e-05
6.91041e-05
6.47512e-05
6.32861e-05
6.24967e-05
6.21914e-05
6.23371e-05
6.30048e-05
6.44218e-05
6.95893e-05
0.0001032
0.000138236
0.00013824
0.00013824
0.00013824
0.00013824
0.00013824
0.00013824
0.000138207
9.91227e-05
7.00576e-05
6.51543e-05
6.37512e-05
6.33717e-05
6.36223e-05
6.47437e-05
6.9076e-05
8.80203e-05
0.000137872
0.00013824
0.00013824
0.00013824
0.00013824
0.00013824
0.000130011
7.07605e-05
6.4003e-05
6.19677e-05
6.09259e-05
6.03519e-05
6.00344e-05
5.99198e-05
5.99928e-05
6.02727e-05
6.09019e-05
6.23219e-05
6.70124e-05
9.74092e-05
0.000138233
0.00013824
0.00013824
0.00013824
0.00013824
0.00013824
0.00013824
0.00013824
0.00013824
0.00013824
0.00013824
0.00013824
0.00013824
0.00013824
0.00013824
0.00013824
0.00013824
0.00013824
0.00013824
0.00013824
0.00013824
0.00013824
0.00013824
0.00013824
0.00013824
0.00013824
0.00013824
0.00013824
0.00013824
0.00013824
0.00013824
0.00013824
0.00013824
0.000108509
6.75283e-05
6.23518e-05
6.07612e-05
6.00447e-05
5.96728e-05
5.94771e-05
5.9395e-05
5.93949e-05
5.94618e-05
5.95931e-05
5.97986e-05
6.01041e-05
6.05607e-05
6.12719e-05
6.25055e-05
6.5331e-05
7.69531e-05
0.000137585
0.00013824
0.00013824
0.00013824
0.00013824
0.00013824
0.00013824
0.00013824
0.00013824
0.00013824
0.000122918
7.28619e-05
6.791e-05
6.52075e-05
6.45492e-05
6.55387e-05
6.84143e-05
7.40836e-05
0.000119734
0.000138137
0.00013824
0.00013809
0.000117371
7.29231e-05
6.7937e-05
6.50311e-05
6.41207e-05
6.45963e-05
6.71012e-05
7.14423e-05
0.000115507
0.000138238
0.00013824
0.00013824
0.00013824
0.00013824
0.00013824
0.00013824
0.00013824
0.00013824
0.000138234
0.00011962
7.44041e-05
6.91344e-05
6.7978e-05
6.87849e-05
7.22514e-05
0.000111573
0.000138177
0.00013824
0.00013824
0.00013824
0.00013824
0.00013824
0.00013824
0.00013824
0.000130108
7.16042e-05
6.52239e-05
6.25665e-05
6.15101e-05
6.0978e-05
6.08728e-05
6.11559e-05
6.1832e-05
6.34961e-05
6.84439e-05
0.000107442
0.000138236
0.00013824
0.00013824
0.00013824
0.00013824
0.00013824
0.00013824
0.00013824
0.00013824
0.00013824
0.00013824
0.00013824
0.00013824
0.00013824
0.00013824
0.00013824
0.00013824
0.00013824
0.00013824
0.00013824
0.00013824
0.00013824
0.00013824
0.00013824
0.00013824
0.00013824
0.00013824
0.00013824
0.00013824
0.00013824
0.00013824
0.00013824
0.00013824
0.00013824
0.000138239
0.000105179
6.76202e-05
6.24956e-05
6.0945e-05
6.02409e-05
5.98595e-05
5.96746e-05
5.96188e-05
5.96618e-05
5.97989e-05
6.00471e-05
6.04563e-05
6.1136e-05
6.23287e-05
6.47823e-05
7.2979e-05
0.000135746
0.00013824
0.00013824
0.00013824
0.00013824
0.00013824
0.00013824
0.00013824
0.00013824
0.00013824
0.00013824
0.00013824
0.000135247
0.000104193
7.5681e-05
7.15071e-05
7.83813e-05
0.000109538
0.000136525
0.00013824
0.00013824
0.00013824
0.00013824
0.00013824
0.000135678
0.000106592
7.57698e-05
7.06164e-05
7.30455e-05
9.81629e-05
0.000132285
0.00013824
0.00013824
0.00013824
0.00013824
0.00013824
0.00013824
0.00013824
0.00013824
0.00013824
0.00013824
0.00013824
0.00013824
0.000136739
0.000117345
0.000103454
0.000114172
0.000134655
0.00013824
0.00013824
0.00013824
0.00013824
0.00013824
0.00013824
0.00013824
0.00013824
0.00013824
0.00013824
0.000135354
8.56076e-05
6.82913e-05
6.4989e-05
6.32868e-05
6.32126e-05
6.46131e-05
6.71503e-05
7.56665e-05
0.000126183
0.00013824
0.00013824
0.00013824
0.00013824
0.00013824
0.00013824
0.00013824
0.00013824
0.00013824
0.00013824
0.00013824
0.00013824
0.00013824
0.00013824
0.00013824
0.00013824
0.00013824
0.00013824
0.00013824
0.00013824
0.00013824
0.00013824
0.00013824
0.00013824
0.00013824
0.00013824
0.00013824
0.00013824
0.00013824
0.00013824
0.00013824
0.00013824
0.00013824
0.00013824
0.00013824
0.00013824
0.000138239
0.000111809
6.8565e-05
6.31929e-05
6.15343e-05
6.06746e-05
6.02889e-05
6.01407e-05
6.01506e-05
6.03096e-05
6.06484e-05
6.12886e-05
6.2589e-05
6.56458e-05
7.43582e-05
0.000135356
0.00013824
0.00013824
0.00013824
0.00013824
0.00013824
0.00013824
0.00013824
0.00013824
0.00013824
0.00013824
0.00013824
0.00013824
0.00013824
0.000138238
0.00013717
0.000133229
0.000137713
0.000138239
0.00013824
0.00013824
0.00013824
0.00013824
0.00013824
0.00013824
0.00013824
0.000138239
0.00013728
0.000131119
0.000136026
0.000138233
0.00013824
0.00013824
0.00013824
0.00013824
0.00013824
0.00013824
0.00013824
0.00013824
0.00013824
0.00013824
0.00013824
0.00013824
0.00013824
0.00013824
0.00013824
0.000138238
0.00013824
0.00013824
0.00013824
0.00013824
0.00013824
0.00013824
0.00013824
0.00013824
0.00013824
0.00013824
0.00013824
0.00013824
0.00013824
0.000138179
0.000119994
8.6866e-05
7.18878e-05
7.21212e-05
8.62511e-05
0.000116235
0.00013777
0.00013824
0.00013824
0.00013824
0.00013824
0.00013824
0.00013824
0.00013824
0.00013824
0.00013824
0.00013824
0.00013824
0.00013824
0.00013824
0.00013824
0.00013824
0.00013824
0.00013824
0.00013824
0.00013824
0.00013824
0.00013824
0.00013824
0.00013824
0.00013824
0.00013824
0.00013824
0.00013824
0.00013824
0.00013824
0.00013824
0.00013824
0.00013824
0.00013824
0.00013824
0.00013824
0.00013824
0.00013824
0.00013824
0.00013824
0.000126468
7.24793e-05
6.59182e-05
6.26609e-05
6.17367e-05
6.13726e-05
6.13076e-05
6.15401e-05
6.21185e-05
6.34427e-05
6.77635e-05
8.66656e-05
0.000137158
0.00013824
0.00013824
0.00013824
0.00013824
0.00013824
0.00013824
0.00013824
0.00013824
0.00013824
0.00013824
0.00013824
0.00013824
0.00013824
0.00013824
0.00013824
0.00013824
0.00013824
0.00013824
0.00013824
0.00013824
0.00013824
0.00013824
0.00013824
0.00013824
0.00013824
0.00013824
0.00013824
0.00013824
0.00013824
0.00013824
0.00013824
0.00013824
0.00013824
0.00013824
0.00013824
0.00013824
0.00013824
0.00013824
0.00013824
0.00013824
0.00013824
0.00013824
0.00013824
0.00013824
0.00013824
0.00013824
0.00013824
0.00013824
0.00013824
0.00013824
0.00013824
0.00013824
0.00013824
0.00013824
0.00013824
0.00013824
0.00013824
0.00013824
0.00013824
0.00013824
0.00013824
0.00013824
0.000138189
0.000136358
0.000136611
0.000138188
0.00013824
0.00013824
0.00013824
0.00013824
0.00013824
0.00013824
0.00013824
0.00013824
0.00013824
0.00013824
0.00013824
0.00013824
0.00013824
0.00013824
0.00013824
0.00013824
0.00013824
0.00013824
0.00013824
0.00013824
0.00013824
0.00013824
0.00013824
0.00013824
0.00013824
0.00013824
0.00013824
0.00013824
0.00013824
0.00013824
0.00013824
0.00013824
0.00013824
0.00013824
0.00013824
0.00013824
0.00013824
0.00013824
0.00013824
0.00013824
0.00013824
0.00013824
0.000137051
0.000104718
6.98551e-05
6.67964e-05
6.54066e-05
6.4916e-05
6.55962e-05
6.73249e-05
7.18768e-05
0.000114948
0.000138189
0.00013824
0.00013824
0.00013824
0.00013824
0.00013824
0.00013824
0.00013824
0.00013824
0.00013824
0.00013824
0.00013824
0.00013824
0.00013824
0.00013824
0.00013824
0.00013824
0.00013824
0.00013824
0.00013824
0.00013824
0.00013824
0.00013824
0.00013824
0.00013824
0.00013824
0.00013824
0.00013824
0.00013824
0.00013824
0.00013824
0.00013824
0.00013824
0.00013824
0.00013824
0.00013824
0.00013824
0.00013824
0.00013824
0.00013824
0.00013824
0.00013824
0.00013824
0.00013824
0.00013824
0.00013824
0.00013824
0.00013824
0.00013824
0.00013824
0.00013824
0.00013824
0.00013824
0.00013824
0.00013824
0.00013824
0.00013824
0.00013824
0.00013824
0.00013824
0.00013824
0.00013824
0.00013824
0.00013824
0.00013824
0.00013824
0.00013824
0.00013824
0.00013824
0.00013824
0.00013824
0.00013824
0.00013824
0.00013824
0.00013824
0.00013824
0.00013824
0.00013824
0.00013824
0.00013824
0.00013824
0.00013824
0.00013824
0.00013824
0.00013824
0.00013824
0.00013824
0.00013824
0.00013824
0.00013824
0.00013824
0.00013824
0.00013824
0.00013824
0.00013824
0.00013824
0.00013824
0.00013824
0.00013824
0.00013824
0.00013824
0.00013824
0.00013824
0.00013824
0.00013824
0.00013824
0.00013824
0.00013824
0.00013824
0.00013824
0.00013824
0.000138239
0.000134452
0.000113192
9.39963e-05
8.68933e-05
9.44012e-05
0.000115347
0.000136346
0.00013824
0.00013824
0.00013824
0.00013824
0.00013824
0.00013824
0.00013824
0.00013824
0.00013824
0.00013824
0.00013824
0.00013824
0.00013824
0.00013824
0.00013824
0.00013824
0.00013824
0.00013824
0.00013824
0.00013824
0.00013824
0.00013824
0.00013824
0.00013824
0.00013824
0.00013824
0.00013824
0.00013824
0.00013824
0.00013824
0.00013824
0.00013824
0.00013824
0.00013824
0.00013824
0.00013824
0.00013824
0.00013824
0.00013824
0.00013824
0.00013824
0.00013824
0.00013824
0.00013824
0.00013824
0.00013824
0.00013824
0.00013824
0.00013824
0.00013824
0.00013824
0.00013824
0.00013824
0.00013824
0.00013824
0.00013824
0.00013824
0.00013824
0.00013824
0.00013824
0.00013824
0.00013824
0.00013824
0.00013824
0.00013824
0.00013824
0.00013824
0.00013824
0.00013824
0.00013824
0.00013824
0.00013824
0.00013824
0.00013824
0.00013824
0.00013824
0.00013824
0.00013824
0.00013824
0.00013824
0.00013824
0.00013824
0.00013824
0.00013824
0.00013824
0.00013824
0.00013824
0.00013824
0.00013824
0.00013824
0.00013824
0.00013824
0.00013824
0.00013824
0.00013824
0.00013824
0.00013824
0.00013824
0.00013824
0.00013824
0.00013824
0.00013824
0.00013824
0.00013824
0.00013824
0.00013824
0.00013824
0.00013824
0.00013824
0.00013824
0.00013824
0.00013824
0.00013824
0.00013824
0.00013824
0.000138229
0.00013819
0.000138229
0.00013824
0.00013824
0.00013824
0.00013824
0.00013824
0.00013824
0.00013824
0.00013824
0.00013824
0.00013824
0.00013824
0.00013824
0.00013824
0.00013824
0.00013824
0.00013824
0.00013824
0.00013824
0.00013824
0.00013824
0.00013824
0.00013824
0.00013824
0.00013824
0.00013824
0.00013824
0.00013824
0.00013824
0.00013824
0.00013824
0.00013824
0.00013824
0.00013824
0.00013824
0.00013824
0.00013824
0.00013824
0.00013824
0.00013824
0.00013824
0.00013824
0.00013824
0.00013824
0.00013824
0.00013824
0.00013824
0.00013824
0.00013824
0.00013824
0.00013824
0.00013824
0.00013824
0.00013824
0.00013824
0.00013824
0.00013824
0.00013824
0.00013824
0.00013824
0.00013824
0.00013824
0.00013824
0.00013824
0.00013824
0.00013824
0.00013824
0.00013824
0.00013824
0.00013824
0.00013824
0.00013824
0.00013824
0.00013824
0.00013824
0.00013824
0.00013824
0.00013824
0.00013824
0.00013824
0.00013824
0.00013824
0.00013824
0.00013824
0.00013824
0.00013824
0.00013824
0.00013824
0.00013824
0.00013824
0.00013824
0.00013824
0.00013824
0.00013824
0.00013824
0.00013824
0.00013824
0.00013824
0.00013824
0.00013824
0.00013824
0.00013824
0.00013824
0.00013824
0.00013824
0.00013824
0.00013824
0.00013824
0.00013824
0.00013824
0.00013824
0.00013824
0.00013824
0.00013824
0.00013824
0.00013824
0.00013824
0.00013824
0.00013824
0.00013824
0.00013824
0.00013824
0.00013824
0.00013824
0.00013824
0.00013824
0.00013824
0.00013824
0.00013824
0.00013824
0.00013824
0.00013824
0.00013824
0.00013824
0.00013824
0.00013824
0.00013824
0.00013824
0.00013824
0.00013824
0.00013824
0.00013824
0.00013824
0.00013824
0.00013824
0.00013824
0.00013824
0.00013824
0.00013824
0.00013824
0.00013824
0.00013824
0.00013824
0.00013824
0.00013824
0.00013824
0.00013824
0.00013824
0.00013824
0.00013824
0.00013824
0.00013824
0.00013824
0.00013824
0.00013824
0.00013824
0.00013824
0.00013824
0.00013824
0.00013824
0.00013824
0.00013824
0.00013824
0.00013824
0.00013824
0.00013824
0.00013824
0.00013824
0.00013824
0.00013824
0.00013824
0.00013824
0.00013824
0.00013824
0.00013824
0.00013824
0.00013824
0.00013824
0.00013824
0.00013824
0.00013824
0.00013824
0.00013824
0.00013824
0.00013824
0.00013824
0.00013824
0.00013824
0.00013824
0.00013824
0.00013824
0.00013824
0.00013824
0.00013824
0.00013824
0.00013824
0.00013824
0.00013824
0.00013824
0.00013824
0.00013824
0.00013824
0.00013824
0.00013824
0.00013824
0.00013824
0.00013824
0.00013824
0.00013824
0.00013824
0.00013824
0.00013824
0.00013824
0.00013824
0.00013824
0.00013824
0.00013824
0.00013824
0.00013824
0.00013824
0.00013824
0.00013824
0.00013824
0.00013824
0.00013824
0.00013824
0.00013824
0.00013824
0.00013824
0.00013824
0.00013824
0.00013824
0.00013824
0.00013824
0.00013824
0.00013824
0.00013824
0.00013824
0.00013824
0.00013824
0.00013824
0.00013824
0.00013824
0.00013824
0.00013824
0.00013824
0.00013824
0.00013824
0.00013824
0.00013824
0.00013824
0.00013824
0.00013824
0.00013824
0.00013824
0.00013824
0.00013824
0.00013824
0.00013824
0.00013824
0.00013824
0.00013824
0.00013824
0.00013824
0.00013824
0.00013824
0.00013824
0.00013824
0.00013824
0.00013824
0.00013824
0.00013824
0.00013824
0.00013824
0.00013824
0.00013824
0.00013824
0.00013824
0.00013824
0.00013824
0.00013824
0.00013824
0.00013824
0.00013824
0.00013824
0.00013824
0.00013824
0.00013824
0.00013824
0.00013824
0.00013824
0.00013824
0.00013824
0.00013824
0.00013824
0.00013824
0.00013824
0.00013824
0.00013824
0.00013824
0.00013824
0.00013824
0.00013824
0.00013824
0.00013824
0.00013824
0.00013824
0.00013824
0.00013824
0.00013824
0.00013824
0.00013824
0.00013824
0.00013824
0.00013824
0.00013824
0.00013824
0.00013824
0.00013824
0.00013824
0.00013824
0.00013824
0.00013824
0.00013824
0.00013824
0.00013824
0.00013824
0.00013824
0.00013824
0.00013824
0.00013824
0.00013824
0.00013824
0.00013824
0.00013824
0.00013824
0.00013824
0.00013824
0.00013824
0.00013824
0.00013824
0.00013824
0.00013824
0.00013824
0.00013824
0.00013824
0.00013824
0.00013824
0.00013824
0.00013824
0.00013824
0.00013824
0.00013824
0.00013824
0.00013824
0.00013824
0.00013824
0.00013824
0.00013824
0.00013824
0.00013824
0.00013824
0.00013824
0.00013824
0.00013824
0.00013824
0.00013824
0.00013824
0.00013824
0.00013824
0.00013824
0.00013824
0.00013824
0.00013824
0.00013824
0.00013824
0.00013824
0.00013824
0.00013824
0.00013824
0.00013824
0.00013824
0.00013824
0.00013824
0.00013824
0.00013824
0.00013824
0.00013824
0.00013824
0.00013824
0.00013824
0.00013824
0.00013824
0.00013824
0.00013824
0.00013824
0.00013824
0.00013824
0.00013824
0.00013824
0.00013824
0.00013824
0.00013824
0.00013824
0.00013824
0.00013824
0.00013824
0.00013824
0.00013824
0.00013824
0.00013824
0.00013824
0.00013824
0.00013824
0.00013824
0.00013824
0.00013824
0.00013824
0.00013824
0.00013824
0.00013824
0.00013824
0.00013824
0.00013824
0.00013824
0.00013824
0.00013824
0.00013824
0.00013824
0.00013824
0.00013824
0.00013824
0.00013824
0.00013824
0.00013824
0.00013824
0.00013824
0.00013824
0.00013824
0.00013824
0.00013824
0.00013824
0.00013824
0.00013824
0.00013824
0.00013824
0.00013824
0.00013824
0.00013824
0.00013824
0.00013824
0.00013824
0.00013824
0.00013824
0.00013824
0.00013824
0.00013824
0.00013824
0.00013824
0.00013824
0.00013824
0.00013824
0.00013824
0.00013824
0.00013824
0.00013824
0.00013824
0.00013824
0.00013824
0.00013824
0.00013824
0.00013824
0.00013824
0.00013824
0.00013824
0.00013824
0.00013824
0.00013824
0.00013824
0.00013824
0.00013824
0.00013824
0.00013824
0.00013824
0.00013824
0.00013824
0.00013824
0.00013824
0.00013824
0.00013824
0.00013824
0.00013824
0.00013824
0.00013824
0.00013824
0.00013824
0.00013824
0.00013824
0.00013824
0.00013824
0.00013824
0.00013824
0.00013824
0.00013824
0.00013824
0.00013824
0.00013824
0.00013824
0.00013824
0.00013824
0.00013824
0.00013824
0.00013824
0.00013824
0.00013824
0.00013824
0.00013824
0.00013824
0.00013824
0.00013824
0.00013824
0.00013824
0.00013824
0.00013824
0.00013824
0.00013824
0.00013824
0.00013824
0.00013824
0.00013824
0.00013824
0.00013824
0.00013824
0.00013824
0.00013824
0.00013824
0.00013824
0.00013824
0.00013824
0.00013824
0.00013824
0.00013824
0.00013824
0.00013824
0.00013824
0.00013824
0.00013824
0.00013824
0.00013824
0.00013824
0.00013824
0.00013824
0.00013824
0.00013824
0.00013824
0.00013824
0.00013824
0.00013824
0.00013824
0.00013824
0.00013824
0.00013824
0.00013824
0.00013824
0.00013824
0.00013824
0.00013824
0.00013824
0.00013824
0.00013824
0.00013824
0.00013824
0.00013824
0.00013824
0.00013824
0.00013824
0.00013824
0.00013824
0.00013824
0.00013824
0.00013824
0.00013824
0.00013824
0.00013824
0.00013824
0.00013824
0.00013824
0.00013824
0.00013824
0.00013824
0.00013824
0.00013824
0.00013824
0.00013824
0.00013824
0.00013824
0.00013824
0.00013824
0.00013824
0.00013824
0.00013824
0.00013824
0.00013824
0.00013824
0.00013824
0.00013824
0.00013824
0.00013824
0.00013824
0.00013824
0.00013824
0.00013824
0.00013824
0.00013824
0.00013824
0.00013824
0.00013824
0.00013824
0.00013824
0.00013824
0.00013824
0.00013824
0.00013824
0.00013824
0.00013824
0.00013824
0.00013824
0.00013824
0.00013824
0.00013824
0.00013824
0.00013824
0.00013824
0.00013824
0.00013824
0.00013824
0.00013824
0.00013824
0.00013824
0.00013824
0.00013824
0.00013824
0.00013824
0.00013824
0.00013824
0.00013824
0.00013824
0.00013824
0.00013824
0.00013824
0.00013824
0.00013824
0.00013824
0.00013824
0.00013824
0.00013824
0.00013824
0.00013824
0.00013824
0.00013824
0.00013824
0.00013824
0.00013824
0.00013824
0.00013824
0.00013824
0.00013824
0.00013824
0.00013824
0.00013824
0.00013824
0.00013824
0.00013824
0.00013824
0.00013824
0.00013824
0.00013824
0.00013824
0.00013824
0.00013824
0.00013824
0.00013824
0.00013824
0.00013824
0.00013824
0.00013824
0.00013824
0.00013824
0.00013824
0.00013824
0.00013824
0.00013824
0.00013824
0.00013824
0.00013824
0.00013824
0.00013824
0.00013824
0.00013824
0.00013824
0.00013824
0.00013824
0.00013824
0.00013824
0.00013824
0.00013824
0.00013824
0.00013824
0.00013824
0.00013824
0.00013824
0.00013824
0.00013824
0.00013824
0.00013824
0.00013824
0.00013824
0.00013824
0.00013824
0.00013824
0.00013824
0.00013824
0.00013824
0.00013824
0.00013824
0.00013824
0.00013824
0.00013824
0.00013824
0.00013824
0.00013824
0.00013824
0.00013824
0.00013824
0.00013824
0.00013824
0.00013824
0.00013824
0.00013824
0.00013824
0.00013824
0.00013824
0.00013824
0.00013824
0.00013824
0.00013824
0.00013824
0.00013824
0.00013824
0.00013824
0.00013824
0.00013824
0.00013824
0.00013824
0.00013824
0.00013824
0.00013824
0.00013824
0.00013824
0.00013824
0.00013824
0.00013824
0.00013824
0.00013824
0.00013824
0.00013824
0.00013824
0.00013824
0.00013824
0.00013824
0.00013824
0.00013824
0.00013824
0.00013824
0.00013824
0.00013824
0.00013824
0.00013824
0.00013824
0.00013824
0.00013824
0.00013824
0.00013824
0.00013824
0.00013824
0.00013824
0.00013824
0.00013824
0.00013824
0.00013824
0.00013824
0.00013824
0.00013824
0.00013824
0.00013824
0.00013824
0.00013824
0.00013824
0.00013824
0.00013824
0.00013824
0.00013824
0.00013824
0.00013824
0.00013824
0.00013824
0.00013824
0.00013824
0.00013824
0.00013824
0.00013824
0.00013824
0.00013824
0.00013824
0.00013824
0.00013824
0.00013824
0.00013824
0.00013824
0.00013824
0.00013824
0.00013824
0.00013824
0.00013824
0.00013824
0.00013824
0.00013824
0.00013824
0.00013824
0.00013824
0.00013824
0.00013824
0.00013824
0.00013824
0.00013824
0.00013824
0.00013824
0.00013824
0.00013824
0.00013824
0.00013824
0.00013824
0.00013824
0.00013824
0.00013824
0.00013824
0.00013824
0.00013824
0.00013824
0.00013824
0.00013824
0.00013824
0.00013824
0.00013824
0.00013824
0.00013824
0.00013824
0.00013824
0.00013824
0.00013824
0.00013824
0.00013824
0.00013824
0.00013824
0.00013824
0.00013824
0.00013824
0.00013824
0.00013824
0.00013824
0.00013824
0.00013824
0.00013824
0.00013824
0.00013824
0.00013824
0.00013824
0.00013824
0.00013824
0.00013824
0.00013824
0.00013824
0.00013824
0.00013824
0.00013824
0.00013824
0.00013824
0.00013824
0.00013824
0.00013824
0.00013824
0.00013824
0.00013824
0.00013824
0.00013824
0.00013824
0.00013824
0.00013824
0.00013824
0.00013824
0.00013824
0.00013824
0.00013824
0.00013824
0.00013824
0.00013824
0.00013824
0.00013824
0.00013824
0.00013824
0.00013824
0.00013824
0.00013824
0.00013824
0.00013824
0.00013824
0.00013824
0.00013824
0.00013824
0.00013824
0.00013824
0.00013824
0.00013824
0.00013824
0.00013824
0.00013824
0.00013824
0.00013824
0.00013824
0.00013824
0.00013824
0.00013824
0.00013824
0.00013824
0.00013824