/*--------------------------------*- C++ -*----------------------------------*\
| =========                 |                                                 |
| \\      /  F ield         | OpenFOAM: The Open Source CFD Toolbox           |
|  \\    /   O peration     | Version:  2406                                  |
|   \\  /    A nd           | Website:  www.openfoam.com                      |
|    \\/     M anipulation  |                                                 |
\*---------------------------------------------------------------------------*/
FoamFile
{
    version     2.0;
    format      ascii;
    arch        "LSB;label=32;scalar=64";
    class       volScalarField;
    location    "0.9";
    object      C_0;
}
// * * * * * * * * * * * * * * * * * * * * * * * * * * * * * * * * * * * * * //

dimensions      [1 -3 0 0 0 0 0];

internalField   nonuniform List<scalar> 
14400
(
3.48692
3.48575
3.4833
3.4793
3.4732
3.46387
3.4448
3.43094
3.44664
3.46711
3.47773
3.48523
3.49072
3.49476
3.49765
3.49955
3.50053
3.50059
3.49967
3.4976
3.49409
3.48856
3.47985
3.46151
3.44889
3.46609
3.48789
3.49978
3.50871
3.51582
3.52167
3.5266
3.53081
3.53443
3.53756
3.54026
3.5426
3.54459
3.54628
3.54768
3.54882
3.54971
3.55036
3.55077
3.55097
3.55094
3.5507
3.55024
3.54957
3.54869
3.54759
3.54627
3.54472
3.54295
3.54093
3.53866
3.53613
3.53332
3.53022
3.52679
3.52302
3.51886
3.51429
3.50923
3.50363
3.49738
3.49038
3.48245
3.47334
3.46265
3.44977
3.43351
3.40586
3.37771
3.37477
3.37284
3.37131
3.39471
3.41862
3.43144
3.44065
3.44749
3.45262
3.45643
3.45915
3.46093
3.46187
3.46201
3.46137
3.45994
3.45766
3.45442
3.45006
3.44425
3.43644
3.42553
3.40483
3.38848
3.40124
3.41918
3.42749
3.43241
3.43501
3.43575
3.43476
3.43193
3.42678
3.41825
3.40008
3.38704
3.40309
3.42358
3.43432
3.44197
3.44763
3.45189
3.45504
3.45729
3.45873
3.45943
3.48809
3.48703
3.48485
3.4814
3.47643
3.46967
3.46116
3.45178
3.46284
3.47273
3.48085
3.48723
3.49217
3.49591
3.49864
3.50047
3.50145
3.50158
3.50081
3.49904
3.4961
3.49174
3.48568
3.47798
3.46971
3.48215
3.49328
3.50272
3.51054
3.51707
3.5226
3.52732
3.53139
3.53492
3.53798
3.54064
3.54293
3.5449
3.54656
3.54795
3.54907
3.54995
3.55059
3.551
3.55119
3.55116
3.55091
3.55046
3.54979
3.54891
3.54781
3.54649
3.54496
3.54319
3.54118
3.53892
3.53641
3.53362
3.53054
3.52714
3.5234
3.51929
3.51476
3.50978
3.50426
3.49814
3.49131
3.48363
3.4749
3.46486
3.45313
3.43923
3.42272
3.40214
3.39984
3.398
3.39594
3.41204
3.42483
3.43505
3.44302
3.4492
3.45395
3.45752
3.46009
3.46178
3.46266
3.46279
3.46217
3.46079
3.45861
3.45555
3.4515
3.44625
3.43954
3.43107
3.42079
3.40917
3.41755
3.42513
3.43089
3.43472
3.43686
3.43747
3.43662
3.43424
3.43016
3.42417
3.41635
3.4077
3.41905
3.42912
3.43741
3.44395
3.44905
3.45299
3.45595
3.45809
3.45946
3.46014
3.49031
3.48944
3.48768
3.48501
3.48145
3.47721
3.47311
3.47143
3.4746
3.48011
3.48572
3.49068
3.4948
3.49807
3.50054
3.50225
3.50322
3.50346
3.50295
3.50165
3.49954
3.49663
3.49314
3.4899
3.48926
3.49362
3.50036
3.50728
3.51366
3.51933
3.52432
3.52869
3.53252
3.53588
3.53881
3.54137
3.54359
3.5455
3.54712
3.54847
3.54957
3.55042
3.55104
3.55144
3.55162
3.55158
3.55134
3.55088
3.55021
3.54934
3.54825
3.54694
3.54542
3.54366
3.54168
3.53945
3.53696
3.53421
3.53117
3.52782
3.52415
3.52012
3.5157
3.51085
3.5055
3.49961
3.4931
3.48586
3.47778
3.46875
3.45866
3.44756
3.43597
3.42582
3.41981
3.41785
3.41979
3.42586
3.43358
3.4409
3.44718
3.45234
3.45645
3.4596
3.46191
3.46343
3.46422
3.46431
3.46372
3.46244
3.46044
3.45769
3.45413
3.44971
3.44441
3.43842
3.43246
3.4287
3.42962
3.43289
3.43621
3.43874
3.44024
3.44066
3.43999
3.43824
3.43546
3.4319
3.42838
3.4272
3.43071
3.43645
3.44225
3.44736
3.45162
3.45505
3.4577
3.45964
3.4609
3.46152
3.4934
3.49273
3.49142
3.4895
3.48714
3.48463
3.48262
3.48217
3.48401
3.48738
3.49124
3.49497
3.49828
3.50103
3.50319
3.50476
3.50572
3.50609
3.50587
3.50508
3.50377
3.50209
3.50035
3.49923
3.49977
3.50271
3.50726
3.51239
3.51749
3.52228
3.52666
3.5306
3.53412
3.53725
3.54002
3.54245
3.54457
3.5464
3.54795
3.54925
3.55031
3.55113
3.55173
3.5521
3.55227
3.55222
3.55197
3.55151
3.55085
3.54998
3.5489
3.54761
3.5461
3.54437
3.54242
3.54022
3.53778
3.53508
3.53211
3.52884
3.52526
3.52135
3.51707
3.5124
3.50729
3.50171
3.4956
3.48892
3.48162
3.47369
3.4652
3.45637
3.44778
3.44051
3.43573
3.43378
3.43464
3.438
3.44275
3.44778
3.45246
3.45653
3.45989
3.46254
3.46451
3.46581
3.46647
3.46652
3.46596
3.46479
3.46302
3.46063
3.45762
3.45403
3.44998
3.44574
3.44193
3.43954
3.43934
3.44061
3.44231
3.44378
3.44471
3.44494
3.44445
3.44327
3.44154
3.43959
3.43806
3.43801
3.44015
3.44373
3.44776
3.45162
3.45504
3.4579
3.46017
3.46186
3.46297
3.46353
3.49715
3.49667
3.49575
3.49446
3.49296
3.49153
3.49059
3.49062
3.4919
3.49415
3.49688
3.49969
3.50231
3.50459
3.50645
3.50786
3.50881
3.50931
3.50936
3.50902
3.50838
3.5076
3.50695
3.50688
3.50787
3.5102
3.51358
3.51752
3.52162
3.52564
3.52943
3.53293
3.53612
3.53899
3.54156
3.54383
3.54583
3.54756
3.54904
3.55028
3.55128
3.55206
3.55263
3.55298
3.55313
3.55307
3.55281
3.55235
3.55169
3.55083
3.54976
3.54849
3.54701
3.54531
3.54339
3.54125
3.53886
3.53623
3.53333
3.53017
3.52671
3.52294
3.51884
3.51439
3.50956
3.50433
3.49868
3.4926
3.48609
3.4792
3.47207
3.46495
3.45828
3.4527
3.44882
3.44691
3.44698
3.44876
3.45165
3.455
3.45836
3.46142
3.46405
3.46617
3.46777
3.46882
3.46934
3.46933
3.46881
3.46776
3.46622
3.46418
3.46169
3.45882
3.45572
3.45263
3.44997
3.4482
3.4476
3.44791
3.44864
3.44938
3.44986
3.44994
3.44959
3.44884
3.44784
3.44685
3.44627
3.44662
3.44814
3.45057
3.45343
3.45633
3.45901
3.46133
3.46322
3.46465
3.46561
3.46608
3.50138
3.50106
3.50044
3.49962
3.49872
3.49795
3.49757
3.49782
3.49881
3.50044
3.50245
3.5046
3.50667
3.50855
3.51015
3.51143
3.51236
3.51296
3.51324
3.51327
3.51313
3.51296
3.51299
3.51346
3.51464
3.51663
3.51933
3.52248
3.52584
3.52922
3.53249
3.53557
3.53842
3.54103
3.54339
3.5455
3.54736
3.54898
3.55037
3.55153
3.55248
3.55321
3.55374
3.55406
3.55419
3.55412
3.55385
3.55339
3.55273
3.55188
3.55083
3.54958
3.54813
3.54647
3.5446
3.54251
3.54019
3.53763
3.53483
3.53178
3.52846
3.52486
3.52096
3.51675
3.51223
3.50738
3.50219
3.4967
3.49093
3.48495
3.47893
3.47306
3.46769
3.46319
3.45992
3.45806
3.45762
3.45841
3.46007
3.46223
3.46454
3.46675
3.46871
3.47034
3.47156
3.47237
3.47273
3.47267
3.47216
3.47124
3.4699
3.46819
3.46614
3.46385
3.46144
3.45911
3.45711
3.45568
3.45494
3.45478
3.45495
3.45523
3.45541
3.45539
3.45513
3.45468
3.45413
3.45368
3.45357
3.45405
3.45522
3.45698
3.45907
3.46125
3.46333
3.46519
3.46673
3.46791
3.46872
3.46912
3.50594
3.50573
3.50535
3.50486
3.50436
3.50399
3.50392
3.50427
3.5051
3.50635
3.50789
3.50957
3.51124
3.5128
3.51418
3.51534
3.51625
3.51692
3.51739
3.51768
3.5179
3.51815
3.51857
3.51934
3.52058
3.52236
3.52463
3.52724
3.53004
3.53291
3.53573
3.53844
3.54098
3.54333
3.54547
3.54741
3.54912
3.55062
3.55192
3.553
3.55388
3.55456
3.55505
3.55534
3.55545
3.55536
3.55508
3.55462
3.55397
3.55313
3.5521
3.55088
3.54946
3.54784
3.54602
3.54399
3.54175
3.53928
3.53659
3.53366
3.53049
3.52707
3.52338
3.51944
3.51522
3.51075
3.50602
3.50108
3.49596
3.49077
3.48562
3.48069
3.47622
3.47246
3.46961
3.4678
3.46702
3.46717
3.46801
3.46931
3.47081
3.47233
3.47372
3.47489
3.47578
3.47634
3.47656
3.47643
3.47595
3.47512
3.47397
3.47252
3.47084
3.46899
3.46708
3.46526
3.46368
3.46247
3.4617
3.46131
3.46118
3.46117
3.46115
3.46106
3.46087
3.4606
3.46032
3.46017
3.46028
3.46078
3.46172
3.46304
3.46461
3.46627
3.46789
3.46936
3.4706
3.47156
3.47222
3.47256
3.51071
3.51058
3.51036
3.51009
3.50986
3.50974
3.50984
3.51023
3.51095
3.51197
3.5132
3.51454
3.51591
3.51723
3.51843
3.51949
3.52038
3.5211
3.52169
3.52218
3.52264
3.52315
3.52381
3.52473
3.52599
3.52761
3.52957
3.5318
3.53419
3.53664
3.53909
3.54147
3.54372
3.54583
3.54777
3.54953
3.5511
3.55248
3.55367
3.55467
3.55549
3.55611
3.55656
3.55681
3.55689
3.55679
3.5565
3.55604
3.55539
3.55457
3.55356
3.55237
3.55099
3.54941
3.54765
3.54569
3.54353
3.54116
3.53858
3.53579
3.53277
3.52954
3.52607
3.52239
3.51848
3.51437
3.51007
3.50562
3.50108
3.49653
3.49208
3.48786
3.48405
3.4808
3.47826
3.4765
3.47551
3.47523
3.4755
3.47617
3.47706
3.47803
3.47895
3.47973
3.48032
3.48067
3.48075
3.48055
3.48007
3.47932
3.47832
3.4771
3.47569
3.47418
3.47264
3.47117
3.46987
3.46883
3.46807
3.46758
3.46728
3.46711
3.46698
3.46684
3.46668
3.46652
3.4664
3.4664
3.4666
3.46708
3.46784
3.46886
3.47006
3.47134
3.4726
3.47375
3.47474
3.47552
3.47605
3.47632
3.51559
3.51553
3.51542
3.5153
3.51523
3.51526
3.51546
3.51588
3.51652
3.51737
3.51838
3.51949
3.52064
3.52177
3.52283
3.5238
3.52466
3.52542
3.52609
3.52671
3.52732
3.528
3.5288
3.52979
3.53102
3.53252
3.53426
3.53619
3.53826
3.54039
3.54253
3.54461
3.54661
3.5485
3.55024
3.55184
3.55327
3.55453
3.55562
3.55654
3.55728
3.55785
3.55824
3.55847
3.55852
3.5584
3.5581
3.55764
3.557
3.55619
3.5552
3.55404
3.5527
3.55118
3.54948
3.54759
3.54552
3.54325
3.54079
3.53813
3.53528
3.53223
3.52899
3.52555
3.52194
3.51817
3.51426
3.51026
3.50621
3.5022
3.4983
3.49463
3.49131
3.48845
3.48613
3.48441
3.48329
3.48272
3.4826
3.48282
3.48325
3.48378
3.48431
3.48477
3.4851
3.48525
3.48521
3.48495
3.48447
3.48378
3.4829
3.48184
3.48066
3.4794
3.47813
3.47691
3.47582
3.4749
3.47417
3.47364
3.47327
3.473
3.47281
3.47264
3.4725
3.47239
3.47235
3.47242
3.47265
3.47308
3.4737
3.4745
3.47543
3.47642
3.4774
3.47831
3.4791
3.47972
3.48015
3.48037
3.52055
3.52052
3.52049
3.52047
3.5205
3.52062
3.52088
3.52129
3.52187
3.5226
3.52346
3.52441
3.52539
3.52637
3.52733
3.52822
3.52905
3.52982
3.53054
3.53124
3.53195
3.53272
3.53359
3.53461
3.5358
3.53719
3.53875
3.54045
3.54226
3.54413
3.54601
3.54785
3.54962
3.55131
3.55287
3.55431
3.5556
3.55675
3.55774
3.55857
3.55924
3.55976
3.5601
3.56029
3.56031
3.56018
3.55987
3.55941
3.55878
3.55798
3.55702
3.55589
3.5546
3.55313
3.55149
3.54968
3.54769
3.54553
3.54319
3.54067
3.53798
3.53512
3.53209
3.5289
3.52556
3.52211
3.51855
3.51494
3.51131
3.50774
3.5043
3.50106
3.49811
3.49554
3.4934
3.49173
3.49053
3.48976
3.48936
3.48924
3.48933
3.48952
3.48974
3.48994
3.49005
3.49004
3.48988
3.48957
3.48908
3.48844
3.48764
3.48672
3.48571
3.48464
3.48356
3.48253
3.48158
3.48076
3.48009
3.47955
3.47915
3.47884
3.4786
3.47842
3.47828
3.4782
3.4782
3.47829
3.47851
3.47887
3.47938
3.48002
3.48074
3.48151
3.48228
3.48299
3.48361
3.48411
3.48445
3.48462
3.52552
3.52552
3.52554
3.52558
3.52568
3.52585
3.52613
3.52654
3.52707
3.52771
3.52846
3.52928
3.53014
3.53101
3.53187
3.53271
3.53351
3.53427
3.53502
3.53575
3.53652
3.53733
3.53823
3.53924
3.54039
3.54167
3.54309
3.54461
3.54621
3.54786
3.54952
3.55115
3.55273
3.55423
3.55563
3.55692
3.55809
3.55912
3.56001
3.56077
3.56137
3.56182
3.56213
3.56228
3.56227
3.56212
3.56181
3.56134
3.56072
3.55994
3.55901
3.55791
3.55666
3.55525
3.55368
3.55194
3.55005
3.54799
3.54577
3.54339
3.54086
3.53817
3.53535
3.53239
3.52931
3.52614
3.5229
3.51963
3.51636
3.51316
3.51008
3.50719
3.50454
3.5022
3.50021
3.49859
3.49734
3.49643
3.49583
3.49548
3.4953
3.49523
3.49521
3.49518
3.49512
3.49497
3.49472
3.49435
3.49385
3.49324
3.49251
3.49169
3.4908
3.48988
3.48895
3.48805
3.48723
3.48649
3.48586
3.48534
3.48492
3.48459
3.48434
3.48414
3.48401
3.48394
3.48394
3.48403
3.48422
3.48452
3.48493
3.48544
3.48601
3.48661
3.48721
3.48777
3.48826
3.48865
3.48892
3.48906
3.53049
3.53051
3.53055
3.53064
3.53077
3.53098
3.53127
3.53166
3.53214
3.53273
3.53339
3.53411
3.53487
3.53566
3.53645
3.53723
3.53799
3.53874
3.53949
3.54025
3.54103
3.54186
3.54276
3.54375
3.54484
3.54603
3.54732
3.54869
3.55012
3.55158
3.55305
3.5545
3.5559
3.55724
3.5585
3.55965
3.5607
3.56163
3.56243
3.56311
3.56364
3.56404
3.5643
3.56441
3.56439
3.56421
3.5639
3.56343
3.56282
3.56206
3.56115
3.56009
3.55888
3.55753
3.55602
3.55436
3.55256
3.5506
3.5485
3.54626
3.54388
3.54137
3.53874
3.53599
3.53315
3.53024
3.52728
3.5243
3.52135
3.51846
3.51568
3.51307
3.51066
3.50851
3.50664
3.50507
3.5038
3.5028
3.50206
3.50153
3.50115
3.50088
3.50067
3.50048
3.50026
3.5
3.49967
3.49925
3.49875
3.49815
3.49748
3.49673
3.49594
3.49512
3.4943
3.49351
3.49277
3.49211
3.49152
3.49102
3.49061
3.49027
3.49001
3.48981
3.48967
3.4896
3.48959
3.48967
3.48982
3.49007
3.49039
3.49079
3.49124
3.49171
3.49217
3.49261
3.493
3.4933
3.49352
3.49363
3.53544
3.53547
3.53554
3.53564
3.5358
3.53601
3.53631
3.53668
3.53713
3.53766
3.53825
3.5389
3.53959
3.5403
3.54103
3.54176
3.54249
3.54322
3.54396
3.54471
3.5455
3.54632
3.5472
3.54816
3.54918
3.55029
3.55147
3.55271
3.55399
3.5553
3.55661
3.5579
3.55915
3.56034
3.56146
3.5625
3.56344
3.56427
3.56498
3.56558
3.56605
3.5664
3.56661
3.5667
3.56664
3.56645
3.56613
3.56567
3.56506
3.56432
3.56344
3.56242
3.56126
3.55996
3.55852
3.55694
3.55522
3.55337
3.55138
3.54927
3.54704
3.54469
3.54223
3.53969
3.53707
3.53439
3.53167
3.52896
3.52627
3.52364
3.52112
3.51874
3.51653
3.51453
3.51277
3.51125
3.50997
3.50892
3.50809
3.50742
3.5069
3.50648
3.50612
3.50579
3.50546
3.5051
3.5047
3.50425
3.50373
3.50314
3.5025
3.50182
3.5011
3.50036
3.49963
3.49892
3.49825
3.49764
3.49709
3.49662
3.49622
3.49588
3.49562
3.49541
3.49527
3.49518
3.49517
3.49522
3.49534
3.49553
3.49578
3.49609
3.49644
3.49681
3.49717
3.49751
3.49781
3.49805
3.49822
3.49831
3.54037
3.5404
3.54047
3.54059
3.54075
3.54098
3.54126
3.54162
3.54203
3.54252
3.54306
3.54365
3.54427
3.54493
3.5456
3.54629
3.54699
3.54769
3.54841
3.54915
3.54992
3.55072
3.55158
3.55248
3.55345
3.55448
3.55556
3.55668
3.55784
3.55901
3.56018
3.56133
3.56245
3.56351
3.56452
3.56544
3.56628
3.56702
3.56765
3.56818
3.56859
3.56889
3.56906
3.56911
3.56904
3.56883
3.5685
3.56804
3.56745
3.56672
3.56587
3.56489
3.56377
3.56252
3.56115
3.55964
3.55801
3.55626
3.55439
3.5524
3.55031
3.54811
3.54582
3.54346
3.54104
3.53857
3.53607
3.53358
3.53113
3.52873
3.52642
3.52423
3.52219
3.52033
3.51866
3.51718
3.51591
3.51483
3.51393
3.51318
3.51255
3.51201
3.51154
3.51111
3.51068
3.51025
3.50979
3.5093
3.50877
3.50819
3.50758
3.50694
3.50627
3.5056
3.50493
3.50428
3.50367
3.50311
3.5026
3.50215
3.50176
3.50143
3.50116
3.50095
3.5008
3.50071
3.50067
3.5007
3.50078
3.50093
3.50112
3.50136
3.50162
3.50191
3.50219
3.50245
3.50269
3.50287
3.50301
3.50307
3.54525
3.54529
3.54537
3.54549
3.54566
3.54588
3.54615
3.54649
3.54688
3.54732
3.54782
3.54836
3.54893
3.54954
3.55017
3.55081
3.55147
3.55215
3.55284
3.55356
3.5543
3.55508
3.55589
3.55675
3.55766
3.55861
3.5596
3.56062
3.56167
3.56272
3.56377
3.5648
3.5658
3.56675
3.56764
3.56847
3.56921
3.56987
3.57043
3.57089
3.57125
3.5715
3.57163
3.57165
3.57155
3.57134
3.571
3.57054
3.56996
3.56926
3.56843
3.56748
3.56641
3.56522
3.56391
3.56248
3.56093
3.55927
3.55751
3.55564
3.55367
3.55162
3.54949
3.5473
3.54505
3.54277
3.54047
3.53818
3.53592
3.53371
3.53159
3.52957
3.52768
3.52593
3.52434
3.52292
3.52166
3.52057
3.51962
3.51881
3.5181
3.51748
3.51692
3.51641
3.51591
3.51542
3.51492
3.5144
3.51385
3.51328
3.51269
3.51208
3.51145
3.51082
3.51021
3.50961
3.50904
3.50852
3.50804
3.50761
3.50723
3.50691
3.50665
3.50643
3.50628
3.50617
3.50612
3.50612
3.50617
3.50627
3.50641
3.50659
3.50679
3.50701
3.50722
3.50743
3.50761
3.50775
3.50785
3.50791
3.5501
3.55014
3.55022
3.55034
3.55051
3.55072
3.55098
3.5513
3.55166
3.55208
3.55253
3.55303
3.55356
3.55412
3.55471
3.55532
3.55594
3.55659
3.55725
3.55794
3.55865
3.55939
3.56016
3.56097
3.56182
3.5627
3.56361
3.56454
3.56549
3.56644
3.56738
3.5683
3.5692
3.57004
3.57084
3.57157
3.57223
3.57281
3.57331
3.57371
3.57401
3.57422
3.57432
3.57431
3.57419
3.57396
3.57362
3.57317
3.5726
3.57191
3.57111
3.5702
3.56917
3.56803
3.56678
3.56543
3.56396
3.56239
3.56073
3.55897
3.55713
3.55521
3.55322
3.55118
3.5491
3.54698
3.54486
3.54275
3.54066
3.53862
3.53666
3.53478
3.53301
3.53137
3.52986
3.52849
3.52725
3.52616
3.52519
3.52433
3.52357
3.52289
3.52226
3.52169
3.52113
3.5206
3.52006
3.51952
3.51896
3.51839
3.51781
3.51723
3.51663
3.51604
3.51546
3.51491
3.51438
3.51388
3.51343
3.51302
3.51266
3.51234
3.51208
3.51186
3.5117
3.51158
3.51151
3.51148
3.51151
3.51157
3.51167
3.5118
3.51195
3.51211
3.51227
3.51242
3.51256
3.51267
3.51275
3.51279
3.55491
3.55495
3.55503
3.55515
3.55531
3.55551
3.55576
3.55606
3.5564
3.55678
3.55721
3.55767
3.55816
3.55868
3.55923
3.5598
3.56039
3.561
3.56164
3.56229
3.56297
3.56367
3.5644
3.56516
3.56594
3.56676
3.56759
3.56844
3.5693
3.57016
3.57101
3.57184
3.57263
3.57339
3.5741
3.57475
3.57533
3.57585
3.57628
3.57662
3.57688
3.57704
3.57711
3.57708
3.57694
3.5767
3.57636
3.5759
3.57535
3.57468
3.57391
3.57303
3.57205
3.57096
3.56977
3.56848
3.56709
3.56561
3.56404
3.56239
3.56066
3.55887
3.55701
3.55511
3.55317
3.55121
3.54924
3.54728
3.54535
3.54346
3.54164
3.53989
3.53823
3.53667
3.53523
3.53391
3.53271
3.53162
3.53064
3.52975
3.52895
3.52823
3.52756
3.52694
3.52634
3.52577
3.52521
3.52465
3.52408
3.52352
3.52295
3.52238
3.52181
3.52125
3.5207
3.52017
3.51967
3.5192
3.51877
3.51838
3.51803
3.51772
3.51746
3.51724
3.51707
3.51694
3.51685
3.51681
3.5168
3.51683
3.51689
3.51698
3.51709
3.5172
3.51732
3.51744
3.51754
3.51762
3.51768
3.51771
3.55968
3.55972
3.5598
3.55991
3.56006
3.56026
3.5605
3.56077
3.56109
3.56145
3.56184
3.56227
3.56273
3.56322
3.56373
3.56427
3.56482
3.5654
3.566
3.56662
3.56726
3.56792
3.56861
3.56931
3.57004
3.57079
3.57156
3.57234
3.57311
3.57389
3.57465
3.5754
3.57611
3.57679
3.57742
3.57799
3.57851
3.57896
3.57933
3.57963
3.57984
3.57996
3.58
3.57994
3.57979
3.57954
3.57919
3.57875
3.5782
3.57756
3.57681
3.57597
3.57503
3.57399
3.57285
3.57163
3.57031
3.56892
3.56744
3.56588
3.56426
3.56258
3.56085
3.55907
3.55726
3.55544
3.55361
3.55179
3.55
3.54824
3.54653
3.5449
3.54334
3.54187
3.54049
3.53922
3.53804
3.53697
3.53599
3.53509
3.53427
3.53351
3.53281
3.53216
3.53153
3.53094
3.53035
3.52978
3.52921
3.52864
3.52808
3.52753
3.52698
3.52644
3.52592
3.52542
3.52494
3.52449
3.52408
3.5237
3.52336
3.52305
3.52279
3.52257
3.52239
3.52225
3.52215
3.52209
3.52206
3.52206
3.52209
3.52215
3.52222
3.5223
3.52238
3.52246
3.52254
3.5226
3.52264
3.52266
3.56441
3.56445
3.56452
3.56463
3.56478
3.56496
3.56519
3.56545
3.56575
3.56608
3.56645
3.56684
3.56727
3.56773
3.56821
3.56871
3.56923
3.56978
3.57034
3.57092
3.57152
3.57215
3.57279
3.57345
3.57412
3.57482
3.57552
3.57622
3.57693
3.57763
3.57832
3.57899
3.57963
3.58023
3.58079
3.5813
3.58175
3.58214
3.58246
3.58271
3.58288
3.58297
3.58298
3.5829
3.58274
3.58248
3.58213
3.58169
3.58116
3.58053
3.57981
3.579
3.5781
3.57711
3.57603
3.57487
3.57362
3.5723
3.57091
3.56944
3.56792
3.56634
3.56472
3.56306
3.56138
3.55968
3.55797
3.55628
3.5546
3.55296
3.55137
3.54983
3.54836
3.54696
3.54565
3.54442
3.54328
3.54222
3.54125
3.54035
3.53952
3.53874
3.53802
3.53735
3.5367
3.53608
3.53548
3.5349
3.53433
3.53377
3.53321
3.53267
3.53213
3.53162
3.53111
3.53063
3.53017
3.52974
3.52934
3.52898
3.52864
3.52835
3.52809
3.52787
3.52768
3.52753
3.52742
3.52734
3.52729
3.52727
3.52727
3.52729
3.52733
3.52738
3.52744
3.5275
3.52755
3.52759
3.52762
3.52764
3.56911
3.56914
3.56921
3.56932
3.56946
3.56963
3.56984
3.57008
3.57036
3.57067
3.57102
3.57139
3.57179
3.57221
3.57266
3.57313
3.57362
3.57413
3.57466
3.57521
3.57577
3.57635
3.57695
3.57756
3.57819
3.57883
3.57947
3.58011
3.58076
3.58139
3.58201
3.58261
3.58318
3.58371
3.58421
3.58466
3.58505
3.58539
3.58566
3.58587
3.58601
3.58607
3.58605
3.58595
3.58577
3.58551
3.58516
3.58473
3.58421
3.5836
3.5829
3.58213
3.58126
3.58032
3.57929
3.57819
3.57701
3.57576
3.57444
3.57306
3.57163
3.57015
3.56863
3.56708
3.5655
3.56392
3.56232
3.56074
3.55917
3.55764
3.55614
3.55469
3.5533
3.55198
3.55072
3.54954
3.54843
3.5474
3.54644
3.54554
3.5447
3.54392
3.54319
3.5425
3.54184
3.54121
3.5406
3.54001
3.53944
3.53888
3.53833
3.5378
3.53728
3.53677
3.53629
3.53582
3.53538
3.53496
3.53458
3.53422
3.53389
3.5336
3.53334
3.53312
3.53293
3.53277
3.53265
3.53255
3.53248
3.53244
3.53242
3.53242
3.53244
3.53247
3.5325
3.53253
3.53257
3.53259
3.53262
3.53263
3.57377
3.5738
3.57387
3.57396
3.5741
3.57426
3.57446
3.57469
3.57495
3.57524
3.57556
3.5759
3.57627
3.57667
3.57709
3.57753
3.57799
3.57847
3.57896
3.57947
3.58
3.58054
3.5811
3.58167
3.58224
3.58283
3.58342
3.584
3.58459
3.58516
3.58572
3.58625
3.58676
3.58724
3.58767
3.58807
3.58841
3.5887
3.58893
3.5891
3.58921
3.58924
3.5892
3.58908
3.58889
3.58862
3.58828
3.58785
3.58734
3.58675
3.58608
3.58533
3.58451
3.5836
3.58263
3.58158
3.58046
3.57928
3.57804
3.57674
3.57539
3.574
3.57258
3.57112
3.56964
3.56816
3.56667
3.56518
3.56371
3.56227
3.56086
3.5595
3.55818
3.55692
3.55572
3.55458
3.55351
3.5525
3.55156
3.55067
3.54983
3.54905
3.54831
3.54761
3.54695
3.54631
3.5457
3.54511
3.54454
3.54398
3.54344
3.54291
3.5424
3.54191
3.54144
3.54099
3.54056
3.54015
3.53978
3.53943
3.53911
3.53882
3.53857
3.53834
3.53815
3.53798
3.53785
3.53774
3.53766
3.5376
3.53756
3.53754
3.53754
3.53754
3.53755
3.53757
3.53759
3.53761
3.53762
3.53762
3.57839
3.57842
3.57849
3.57858
3.5787
3.57886
3.57904
3.57925
3.5795
3.57977
3.58007
3.58039
3.58074
3.58111
3.5815
3.58191
3.58234
3.58279
3.58325
3.58373
3.58422
3.58472
3.58524
3.58576
3.58629
3.58683
3.58736
3.5879
3.58843
3.58894
3.58944
3.58992
3.59038
3.5908
3.59118
3.59153
3.59183
3.59207
3.59227
3.5924
3.59247
3.59248
3.59242
3.59229
3.59209
3.59182
3.59147
3.59105
3.59055
3.58998
3.58934
3.58862
3.58783
3.58696
3.58603
3.58504
3.58398
3.58286
3.58169
3.58046
3.5792
3.57789
3.57655
3.57518
3.5738
3.5724
3.571
3.56961
3.56823
3.56687
3.56554
3.56425
3.56301
3.5618
3.56066
3.55956
3.55852
3.55754
3.55662
3.55574
3.55492
3.55414
3.5534
3.5527
3.55203
3.55139
3.55078
3.55019
3.54962
3.54906
3.54853
3.54801
3.54751
3.54703
3.54657
3.54613
3.54571
3.54532
3.54495
3.54461
3.5443
3.54401
3.54376
3.54353
3.54333
3.54316
3.54301
3.5429
3.5428
3.54273
3.54268
3.54264
3.54262
3.54261
3.5426
3.54261
3.54261
3.54262
3.54263
3.54263
3.58299
3.58302
3.58308
3.58316
3.58328
3.58342
3.58359
3.58379
3.58402
3.58427
3.58455
3.58485
3.58518
3.58552
3.58589
3.58627
3.58667
3.58709
3.58752
3.58796
3.58842
3.58889
3.58936
3.58984
3.59033
3.59082
3.59131
3.5918
3.59228
3.59274
3.59319
3.59362
3.59402
3.5944
3.59473
3.59503
3.59529
3.5955
3.59566
3.59576
3.5958
3.59579
3.59571
3.59557
3.59536
3.59508
3.59474
3.59432
3.59384
3.59329
3.59266
3.59197
3.59122
3.59039
3.58951
3.58856
3.58756
3.5865
3.58539
3.58423
3.58304
3.58181
3.58054
3.57926
3.57796
3.57664
3.57533
3.57402
3.57272
3.57144
3.57019
3.56897
3.56778
3.56664
3.56554
3.56448
3.56348
3.56253
3.56162
3.56076
3.55995
3.55918
3.55844
3.55775
3.55708
3.55644
3.55583
3.55524
3.55468
3.55413
3.5536
3.55309
3.5526
3.55213
3.55168
3.55125
3.55084
3.55046
3.5501
3.54976
3.54945
3.54917
3.54892
3.54869
3.54849
3.54831
3.54816
3.54803
3.54793
3.54784
3.54778
3.54773
3.54769
3.54767
3.54765
3.54764
3.54764
3.54764
3.54763
3.54764
3.58755
3.58758
3.58763
3.58772
3.58782
3.58796
3.58812
3.58831
3.58852
3.58875
3.58901
3.58929
3.58959
3.58992
3.59026
3.59061
3.59098
3.59137
3.59177
3.59218
3.59261
3.59304
3.59348
3.59392
3.59437
3.59482
3.59527
3.59571
3.59614
3.59656
3.59696
3.59734
3.5977
3.59803
3.59832
3.59858
3.5988
3.59897
3.5991
3.59917
3.5992
3.59916
3.59907
3.59891
3.5987
3.59842
3.59808
3.59767
3.5972
3.59666
3.59606
3.5954
3.59467
3.59388
3.59304
3.59214
3.59119
3.59018
3.58913
3.58804
3.58691
3.58575
3.58456
3.58335
3.58213
3.58089
3.57965
3.57842
3.57719
3.57599
3.5748
3.57364
3.57251
3.57142
3.57037
3.56936
3.56839
3.56746
3.56658
3.56574
3.56494
3.56418
3.56346
3.56276
3.5621
3.56147
3.56086
3.56028
3.55971
3.55917
3.55865
3.55815
3.55767
3.55721
3.55676
3.55634
3.55594
3.55557
3.55521
3.55489
3.55458
3.5543
3.55405
3.55382
3.55362
3.55343
3.55328
3.55314
3.55303
3.55293
3.55286
3.5528
3.55275
3.55271
3.55269
3.55267
3.55266
3.55265
3.55264
3.55264
3.59209
3.59212
3.59217
3.59224
3.59234
3.59247
3.59262
3.59279
3.59299
3.59321
3.59345
3.59371
3.59399
3.59429
3.59461
3.59494
3.59528
3.59564
3.59602
3.5964
3.59679
3.59719
3.59759
3.598
3.59841
3.59882
3.59922
3.59962
3.60001
3.60039
3.60075
3.60109
3.6014
3.60169
3.60195
3.60217
3.60235
3.6025
3.60259
3.60264
3.60264
3.60259
3.60248
3.60232
3.6021
3.60182
3.60148
3.60108
3.60062
3.6001
3.59952
3.59888
3.59818
3.59743
3.59663
3.59577
3.59487
3.59391
3.59292
3.59189
3.59082
3.58972
3.5886
3.58746
3.58631
3.58514
3.58397
3.58281
3.58165
3.58051
3.57938
3.57828
3.57721
3.57617
3.57516
3.57418
3.57325
3.57235
3.5715
3.57068
3.56989
3.56915
3.56843
3.56775
3.56709
3.56647
3.56587
3.56529
3.56473
3.5642
3.56368
3.56319
3.56272
3.56226
3.56183
3.56142
3.56102
3.56066
3.56031
3.55999
3.55968
3.55941
3.55916
3.55893
3.55872
3.55854
3.55837
3.55823
3.55811
3.55801
3.55792
3.55785
3.5578
3.55775
3.55772
3.55769
3.55767
3.55766
3.55765
3.55764
3.5966
3.59663
3.59667
3.59674
3.59684
3.59696
3.59709
3.59726
3.59744
3.59764
3.59787
3.59811
3.59837
3.59865
3.59894
3.59925
3.59957
3.5999
3.60025
3.6006
3.60096
3.60133
3.6017
3.60207
3.60245
3.60282
3.60319
3.60355
3.6039
3.60424
3.60456
3.60486
3.60514
3.60539
3.60561
3.6058
3.60595
3.60606
3.60613
3.60616
3.60614
3.60607
3.60595
3.60578
3.60555
3.60527
3.60494
3.60454
3.6041
3.60359
3.60303
3.60242
3.60175
3.60104
3.60027
3.59945
3.59859
3.59769
3.59675
3.59577
3.59476
3.59372
3.59266
3.59158
3.59049
3.58939
3.58829
3.58719
3.58609
3.58501
3.58394
3.58289
3.58187
3.58088
3.57991
3.57897
3.57807
3.57721
3.57637
3.57558
3.57481
3.57408
3.57338
3.5727
3.57206
3.57144
3.57085
3.57028
3.56973
3.5692
3.56869
3.56821
3.56774
3.5673
3.56687
3.56647
3.56608
3.56572
3.56538
3.56506
3.56476
3.56449
3.56424
3.56401
3.5638
3.56361
3.56345
3.5633
3.56318
3.56307
3.56297
3.56289
3.56283
3.56278
3.56273
3.5627
3.56268
3.56266
3.56265
3.56264
3.60109
3.60111
3.60115
3.60122
3.60131
3.60142
3.60155
3.6017
3.60187
3.60206
3.60227
3.60249
3.60273
3.60299
3.60326
3.60355
3.60384
3.60415
3.60447
3.60479
3.60513
3.60546
3.6058
3.60614
3.60649
3.60682
3.60716
3.60748
3.6078
3.6081
3.60838
3.60865
3.60889
3.60911
3.6093
3.60946
3.60958
3.60967
3.60972
3.60973
3.60969
3.6096
3.60947
3.60929
3.60906
3.60878
3.60845
3.60807
3.60763
3.60714
3.6066
3.60601
3.60537
3.60469
3.60395
3.60318
3.60236
3.6015
3.60061
3.59968
3.59872
3.59774
3.59674
3.59572
3.59469
3.59365
3.5926
3.59156
3.59052
3.58949
3.58848
3.58748
3.58651
3.58556
3.58463
3.58373
3.58286
3.58202
3.58122
3.58044
3.5797
3.57898
3.57829
3.57763
3.577
3.57639
3.5758
3.57524
3.5747
3.57418
3.57369
3.57321
3.57275
3.57231
3.57189
3.5715
3.57112
3.57076
3.57043
3.57011
3.56982
3.56955
3.5693
3.56907
3.56886
3.56867
3.5685
3.56835
3.56822
3.56811
3.56801
3.56792
3.56785
3.56779
3.56774
3.56771
3.56768
3.56766
3.56764
3.56764
3.60555
3.60557
3.60561
3.60567
3.60576
3.60586
3.60598
3.60612
3.60628
3.60645
3.60664
3.60685
3.60708
3.60732
3.60757
3.60783
3.6081
3.60839
3.60868
3.60898
3.60929
3.60959
3.60991
3.61022
3.61053
3.61083
3.61113
3.61143
3.61171
3.61198
3.61223
3.61246
3.61268
3.61286
3.61302
3.61316
3.61325
3.61332
3.61335
3.61333
3.61328
3.61318
3.61304
3.61286
3.61263
3.61235
3.61202
3.61164
3.61122
3.61074
3.61022
3.60965
3.60904
3.60838
3.60768
3.60694
3.60616
3.60535
3.6045
3.60362
3.60271
3.60178
3.60083
3.59987
3.59889
3.5979
3.59691
3.59593
3.59494
3.59396
3.593
3.59205
3.59112
3.59021
3.58932
3.58846
3.58762
3.58681
3.58603
3.58528
3.58455
3.58385
3.58318
3.58253
3.58191
3.58131
3.58074
3.58018
3.57965
3.57914
3.57865
3.57818
3.57774
3.5773
3.57689
3.5765
3.57613
3.57578
3.57545
3.57514
3.57485
3.57458
3.57434
3.57411
3.5739
3.57371
3.57354
3.57339
3.57325
3.57313
3.57303
3.57294
3.57286
3.5728
3.57274
3.5727
3.57267
3.57264
3.57263
3.57262
3.60999
3.61001
3.61005
3.61011
3.61018
3.61028
3.61039
3.61052
3.61067
3.61083
3.61101
3.6112
3.61141
3.61163
3.61186
3.6121
3.61236
3.61262
3.61289
3.61316
3.61344
3.61372
3.61401
3.61429
3.61457
3.61485
3.61512
3.61538
3.61563
3.61587
3.61609
3.6163
3.61648
3.61664
3.61678
3.61688
3.61696
3.617
3.61701
3.61698
3.61692
3.61681
3.61666
3.61647
3.61623
3.61596
3.61563
3.61526
3.61485
3.61439
3.61389
3.61334
3.61275
3.61212
3.61145
3.61075
3.61
3.60923
3.60842
3.60758
3.60672
3.60584
3.60494
3.60403
3.6031
3.60216
3.60123
3.60029
3.59935
3.59842
3.5975
3.5966
3.59571
3.59484
3.59399
3.59316
3.59235
3.59157
3.59081
3.59008
3.58937
3.58869
3.58804
3.58741
3.5868
3.58621
3.58565
3.58511
3.58458
3.58408
3.5836
3.58314
3.5827
3.58228
3.58188
3.58149
3.58113
3.58078
3.58046
3.58015
3.57987
3.5796
3.57935
3.57913
3.57892
3.57873
3.57855
3.5784
3.57826
3.57814
3.57803
3.57794
3.57786
3.57779
3.57773
3.57768
3.57765
3.57762
3.57761
3.5776
3.61442
3.61443
3.61447
3.61452
3.61459
3.61468
3.61478
3.6149
3.61504
3.61519
3.61536
3.61553
3.61572
3.61593
3.61614
3.61637
3.6166
3.61684
3.61708
3.61734
3.61759
3.61785
3.61811
3.61836
3.61862
3.61887
3.61911
3.61935
3.61957
3.61978
3.61997
3.62015
3.62031
3.62044
3.62056
3.62064
3.62069
3.62072
3.62071
3.62067
3.62059
3.62047
3.62032
3.62012
3.61989
3.61961
3.61929
3.61893
3.61853
3.61808
3.6176
3.61707
3.61651
3.6159
3.61526
3.61459
3.61388
3.61314
3.61237
3.61157
3.61076
3.60992
3.60906
3.6082
3.60732
3.60643
3.60554
3.60465
3.60376
3.60287
3.602
3.60113
3.60028
3.59945
3.59863
3.59783
3.59706
3.5963
3.59557
3.59486
3.59417
3.59351
3.59287
3.59226
3.59166
3.59109
3.59054
3.59
3.58949
3.589
3.58853
3.58808
3.58765
3.58723
3.58684
3.58646
3.5861
3.58576
3.58544
3.58514
3.58486
3.5846
3.58435
3.58413
3.58392
3.58373
3.58355
3.5834
3.58325
3.58313
3.58302
3.58292
3.58284
3.58277
3.58271
3.58266
3.58262
3.58259
3.58257
3.58256
3.61882
3.61884
3.61887
3.61892
3.61898
3.61907
3.61916
3.61927
3.6194
3.61954
3.61969
3.61985
3.62003
3.62022
3.62041
3.62062
3.62083
3.62105
3.62128
3.62151
3.62174
3.62197
3.62221
3.62244
3.62267
3.62289
3.62311
3.62332
3.62352
3.6237
3.62387
3.62403
3.62416
3.62427
3.62436
3.62443
3.62446
3.62447
3.62445
3.62439
3.6243
3.62418
3.62401
3.62382
3.62358
3.6233
3.62299
3.62264
3.62225
3.62181
3.62135
3.62084
3.62029
3.61972
3.6191
3.61846
3.61778
3.61708
3.61634
3.61559
3.61481
3.61401
3.6132
3.61238
3.61154
3.6107
3.60985
3.609
3.60815
3.60731
3.60647
3.60565
3.60484
3.60404
3.60325
3.60249
3.60174
3.60101
3.6003
3.59962
3.59895
3.59831
3.59768
3.59708
3.5965
3.59594
3.5954