/*--------------------------------*- C++ -*----------------------------------*\
| =========                 |                                                 |
| \\      /  F ield         | OpenFOAM: The Open Source CFD Toolbox           |
|  \\    /   O peration     | Version:  2406                                  |
|   \\  /    A nd           | Website:  www.openfoam.com                      |
|    \\/     M anipulation  |                                                 |
\*---------------------------------------------------------------------------*/
FoamFile
{
    version     2.0;
    format      ascii;
    arch        "LSB;label=32;scalar=64";
    class       volScalarField;
    location    "2";
    object      C;
}
// * * * * * * * * * * * * * * * * * * * * * * * * * * * * * * * * * * * * * //

dimensions      [1 -3 0 0 0 0 0];

internalField   nonuniform List<scalar> 
14400
(
1.592
1.586
1.57332
1.54715
1.50699
1.47045
1.44818
1.4433
1.45667
1.48747
1.53257
1.58058
1.61317
1.632
1.64509
1.65319
1.65658
1.6552
1.64856
1.63562
1.60845
1.56901
1.53623
1.51936
1.52143
1.54331
1.58422
1.641
1.70303
1.74807
1.77739
1.80242
1.82407
1.84294
1.85946
1.87396
1.88668
1.89781
1.90747
1.9158
1.92288
1.92878
1.93356
1.93727
1.93993
1.94159
1.94225
1.94194
1.94065
1.93839
1.93516
1.93093
1.92569
1.91943
1.9121
1.90366
1.89407
1.88326
1.87115
1.85766
1.84268
1.82606
1.80763
1.78717
1.76442
1.739
1.71046
1.67815
1.64055
1.58212
1.50271
1.43034
1.37176
1.32909
1.30316
1.29417
1.30198
1.32609
1.36542
1.41769
1.47651
1.5189
1.54282
1.5605
1.57326
1.58182
1.5866
1.58786
1.58566
1.57996
1.57053
1.55689
1.53827
1.5084
1.46256
1.41639
1.38357
1.36718
1.36784
1.38463
1.41431
1.44525
1.46179
1.466
1.46142
1.44454
1.41312
1.38277
1.36531
1.36396
1.37971
1.41192
1.45757
1.50295
1.53253
1.55112
1.56489
1.57467
1.58096
1.58404
1.59801
1.59267
1.5816
1.56316
1.53111
1.49379
1.47011
1.46476
1.47865
1.51088
1.55669
1.59577
1.62035
1.63774
1.65008
1.65788
1.66136
1.66046
1.65486
1.6439
1.62541
1.5937
1.55973
1.54143
1.54307
1.5656
1.60812
1.66619
1.71796
1.75356
1.78164
1.80581
1.82685
1.84528
1.86148
1.87575
1.88828
1.89926
1.90881
1.91705
1.92406
1.9299
1.93463
1.9383
1.94094
1.94258
1.94323
1.94291
1.94162
1.93937
1.93614
1.93194
1.92673
1.92049
1.9132
1.90482
1.89528
1.88455
1.87254
1.85916
1.84431
1.82786
1.80965
1.78947
1.76707
1.74214
1.71422
1.68276
1.64691
1.59891
1.5287
1.45435
1.39436
1.35079
1.32441
1.31537
1.32354
1.34849
1.38913
1.44319
1.49429
1.52688
1.54883
1.5654
1.57747
1.58559
1.59013
1.5913
1.58917
1.5837
1.57472
1.56188
1.54461
1.52143
1.48458
1.43867
1.40475
1.38795
1.38914
1.40728
1.43734
1.4608
1.4715
1.47478
1.47108
1.45998
1.43607
1.40536
1.38653
1.38463
1.40074
1.43401
1.47934
1.51577
1.53872
1.55593
1.56888
1.57816
1.58417
1.58711
1.60935
1.60507
1.59644
1.5835
1.5649
1.53767
1.51216
1.50614
1.52079
1.55478
1.58946
1.6145
1.63355
1.64854
1.65961
1.66691
1.67052
1.67042
1.66651
1.6586
1.64665
1.62884
1.60368
1.58372
1.58476
1.60822
1.65231
1.69902
1.73522
1.76425
1.78981
1.81233
1.83223
1.84985
1.86545
1.87925
1.89143
1.90213
1.91147
1.91953
1.9264
1.93213
1.93677
1.94037
1.94296
1.94456
1.94518
1.94485
1.94356
1.94132
1.93812
1.93394
1.92878
1.92261
1.9154
1.90711
1.8977
1.88712
1.87528
1.86213
1.84755
1.83143
1.81364
1.79399
1.77228
1.74824
1.72154
1.69177
1.65839
1.62067
1.56877
1.49912
1.43852
1.3936
1.36652
1.35739
1.36609
1.39229
1.43351
1.48267
1.51782
1.54135
1.5602
1.57482
1.58562
1.59295
1.59704
1.59804
1.59601
1.59096
1.58277
1.57129
1.55629
1.5376
1.51416
1.4809
1.44538
1.42799
1.42999
1.45022
1.47019
1.48164
1.48841
1.49055
1.48791
1.48065
1.46871
1.44817
1.42723
1.42446
1.44112
1.47591
1.50861
1.53166
1.55013
1.56501
1.57653
1.58494
1.59043
1.59314
1.62498
1.6218
1.61558
1.60672
1.59617
1.58359
1.56865
1.56327
1.57732
1.59982
1.619
1.63578
1.6508
1.66327
1.67291
1.67961
1.68337
1.6842
1.68214
1.67735
1.67026
1.6619
1.65156
1.64092
1.64231
1.66564
1.69825
1.72766
1.75376
1.77841
1.80101
1.82148
1.8399
1.85643
1.87121
1.88438
1.89607
1.90638
1.9154
1.92321
1.92987
1.93544
1.93995
1.94345
1.94596
1.9475
1.94809
1.94774
1.94645
1.94422
1.94106
1.93694
1.93185
1.92577
1.91868
1.91053
1.9013
1.89093
1.87936
1.86651
1.85232
1.83668
1.81947
1.80057
1.7798
1.75699
1.73193
1.70439
1.67416
1.64116
1.60568
1.55852
1.50217
1.45613
1.42852
1.41926
1.42817
1.45541
1.49158
1.52153
1.54218
1.56049
1.57582
1.58805
1.59725
1.60354
1.60702
1.60779
1.60589
1.60134
1.59412
1.58422
1.57167
1.5567
1.53992
1.52161
1.4989
1.48292
1.48387
1.49364
1.50044
1.50608
1.50993
1.51111
1.50935
1.50492
1.49868
1.49129
1.48083
1.47907
1.49422
1.51625
1.53404
1.55043
1.5651
1.57746
1.5873
1.59462
1.59947
1.60187
1.64379
1.64158
1.63737
1.63164
1.6253
1.61984
1.61654
1.61608
1.62418
1.63439
1.6463
1.65881
1.67059
1.68084
1.68913
1.69526
1.69916
1.70087
1.70052
1.6984
1.69512
1.69171
1.68989
1.69086
1.69666
1.71309
1.73206
1.7525
1.77376
1.79461
1.81435
1.83267
1.84947
1.86476
1.87857
1.89099
1.90207
1.9119
1.92054
1.92803
1.93444
1.9398
1.94415
1.94752
1.94993
1.9514
1.95194
1.95156
1.95028
1.94807
1.94495
1.9409
1.9359
1.92994
1.923
1.91505
1.90604
1.89594
1.8847
1.87225
1.85854
1.84349
1.82701
1.80901
1.78937
1.768
1.7448
1.71969
1.6927
1.66402
1.63417
1.60413
1.56888
1.533
1.50701
1.49767
1.50448
1.52143
1.53957
1.55412
1.56887
1.58259
1.59453
1.60431
1.61179
1.61693
1.61973
1.62022
1.61843
1.61439
1.60814
1.59979
1.58949
1.57761
1.56483
1.55231
1.54148
1.53188
1.52889
1.52816
1.52987
1.53231
1.53413
1.5346
1.53348
1.53098
1.52787
1.52545
1.52545
1.52765
1.53646
1.54664
1.55861
1.57091
1.5824
1.59241
1.60059
1.60679
1.61094
1.61301
1.6648
1.66336
1.66066
1.65716
1.65357
1.65086
1.65019
1.65243
1.65696
1.6641
1.673
1.68257
1.69191
1.70037
1.70751
1.71313
1.71715
1.7196
1.72064
1.72063
1.72011
1.71994
1.7213
1.72557
1.73385
1.74527
1.75985
1.77653
1.79418
1.81191
1.82909
1.84538
1.86056
1.87455
1.88734
1.89892
1.90934
1.91862
1.92681
1.93394
1.94005
1.94517
1.94933
1.95254
1.95484
1.95622
1.95671
1.9563
1.95502
1.95284
1.94977
1.9458
1.94091
1.9351
1.92834
1.92061
1.91187
1.90209
1.89123
1.87926
1.86611
1.85173
1.83607
1.81907
1.80068
1.78084
1.75956
1.73688
1.71293
1.68804
1.66275
1.63797
1.61498
1.59356
1.57568
1.56642
1.56629
1.57049
1.57725
1.58648
1.59659
1.60647
1.61539
1.62288
1.62868
1.63265
1.63474
1.63492
1.63321
1.62964
1.62429
1.61729
1.60888
1.59942
1.58949
1.57989
1.57156
1.56523
1.56079
1.55879
1.55857
1.55914
1.55969
1.55969
1.55896
1.55768
1.55635
1.55581
1.55702
1.56066
1.56624
1.57388
1.58284
1.59221
1.60118
1.60919
1.61587
1.62101
1.62448
1.62623
1.68726
1.68638
1.68477
1.68278
1.68093
1.67985
1.68019
1.68238
1.68637
1.69206
1.69901
1.70657
1.71413
1.72119
1.72742
1.73262
1.7367
1.73972
1.74184
1.74335
1.74474
1.74663
1.74981
1.75505
1.76286
1.7731
1.78553
1.79957
1.81453
1.82975
1.84475
1.85918
1.87283
1.88556
1.8973
1.90803
1.91774
1.92644
1.93414
1.94088
1.94666
1.95151
1.95545
1.95849
1.96065
1.96194
1.96236
1.96193
1.96064
1.9585
1.95549
1.95161
1.94686
1.94121
1.93465
1.92717
1.91873
1.90932
1.89889
1.88743
1.8749
1.86126
1.84648
1.83053
1.81342
1.79513
1.77573
1.75533
1.73412
1.71244
1.69083
1.66999
1.65085
1.63443
1.6217
1.61316
1.60903
1.60911
1.61245
1.61794
1.62453
1.63132
1.63767
1.64313
1.64739
1.65027
1.65166
1.65152
1.64984
1.64667
1.64208
1.63622
1.62931
1.62169
1.61381
1.60622
1.59949
1.59406
1.59008
1.58765
1.58646
1.58601
1.5858
1.5855
1.585
1.58441
1.58405
1.58442
1.58603
1.58918
1.59382
1.59979
1.60667
1.6139
1.62092
1.62729
1.63268
1.63688
1.63975
1.6412
1.71061
1.71012
1.70925
1.70827
1.70752
1.70742
1.70834
1.71054
1.71406
1.71878
1.72442
1.73057
1.73684
1.74285
1.74836
1.75321
1.75732
1.76075
1.76362
1.76621
1.76886
1.77204
1.77625
1.78196
1.78945
1.79873
1.8096
1.82171
1.8346
1.84781
1.86097
1.87377
1.88601
1.89755
1.90828
1.91815
1.92715
1.93524
1.94245
1.94876
1.95419
1.95876
1.96246
1.96532
1.96733
1.96852
1.96888
1.96841
1.96712
1.96501
1.96207
1.9583
1.95369
1.94822
1.94189
1.93468
1.92657
1.91755
1.90759
1.89668
1.88479
1.87192
1.85804
1.84317
1.82732
1.81054
1.79291
1.77458
1.75577
1.7368
1.71812
1.7003
1.68402
1.66996
1.65874
1.65073
1.64604
1.64448
1.64548
1.64832
1.65225
1.65661
1.66086
1.66458
1.66748
1.66937
1.67011
1.66965
1.66798
1.66511
1.66113
1.65618
1.65046
1.64423
1.63784
1.63167
1.62611
1.62144
1.61782
1.61527
1.61363
1.61263
1.61199
1.61151
1.61113
1.6109
1.61103
1.6118
1.61348
1.61623
1.62005
1.62479
1.63016
1.6358
1.64132
1.64637
1.6507
1.65409
1.65642
1.65761
1.73445
1.73422
1.73386
1.73353
1.73347
1.73395
1.73521
1.73739
1.74054
1.74457
1.7493
1.75446
1.75979
1.76502
1.76997
1.77452
1.77863
1.78231
1.78571
1.789
1.79246
1.79641
1.80118
1.80708
1.81426
1.82276
1.83244
1.84307
1.85434
1.86593
1.87754
1.88893
1.89991
1.91033
1.92011
1.92916
1.93745
1.94495
1.95164
1.95752
1.9626
1.96686
1.97032
1.97298
1.97485
1.97593
1.97621
1.97572
1.97443
1.97236
1.96949
1.96584
1.96137
1.9561
1.95001
1.94309
1.93533
1.92672
1.91725
1.9069
1.89567
1.88357
1.8706
1.85678
1.84216
1.82679
1.81079
1.79431
1.77757
1.76086
1.74455
1.72908
1.71495
1.70265
1.69257
1.68498
1.67993
1.67729
1.67667
1.6776
1.67955
1.68202
1.68457
1.68684
1.68859
1.6896
1.68977
1.68901
1.6873
1.68466
1.68117
1.67693
1.67211
1.66693
1.66164
1.65652
1.65184
1.64779
1.64449
1.64197
1.64015
1.63889
1.63802
1.63744
1.6371
1.63704
1.63737
1.63826
1.63985
1.64222
1.64536
1.64915
1.65339
1.65782
1.66217
1.66618
1.66963
1.67236
1.67425
1.67521
1.75852
1.75846
1.75842
1.75851
1.75888
1.75971
1.76114
1.76328
1.76614
1.76967
1.77375
1.77819
1.78283
1.78747
1.79199
1.79629
1.80034
1.80418
1.80789
1.81162
1.81557
1.81995
1.825
1.8309
1.83776
1.8456
1.85433
1.86379
1.87377
1.88402
1.89433
1.9045
1.91436
1.92378
1.93266
1.94093
1.94854
1.95545
1.96164
1.9671
1.97181
1.97577
1.97898
1.98144
1.98316
1.98412
1.98434
1.9838
1.98252
1.98049
1.97771
1.97417
1.96987
1.9648
1.95896
1.95234
1.94494
1.93675
1.92777
1.918
1.90743
1.8961
1.88401
1.8712
1.85773
1.84368
1.82915
1.81431
1.79934
1.78452
1.77013
1.75652
1.74407
1.7331
1.72392
1.71668
1.71143
1.70805
1.70631
1.70587
1.70634
1.70734
1.70854
1.70964
1.71042
1.71069
1.71035
1.70931
1.70754
1.70507
1.70194
1.69825
1.69412
1.68973
1.68527
1.68094
1.67692
1.67337
1.67038
1.66797
1.66612
1.66475
1.66377
1.66312
1.66278
1.66277
1.66316
1.66402
1.66544
1.66745
1.67001
1.67305
1.67642
1.67992
1.68336
1.68655
1.6893
1.69148
1.69299
1.69377
1.78263
1.78269
1.78286
1.7832
1.78383
1.78486
1.78637
1.78844
1.79107
1.79423
1.79782
1.80174
1.80585
1.81004
1.81421
1.8183
1.82227
1.82617
1.83005
1.83403
1.83824
1.84283
1.84797
1.85376
1.86029
1.86755
1.87549
1.884
1.89291
1.90206
1.91126
1.92037
1.92924
1.93775
1.94582
1.95336
1.96033
1.96668
1.97238
1.97741
1.98177
1.98543
1.98839
1.99065
1.99221
1.99306
1.99321
1.99264
1.99137
1.98938
1.98668
1.98326
1.97913
1.97427
1.96869
1.96238
1.95534
1.94757
1.93908
1.92988
1.91997
1.90938
1.89813
1.88628
1.87389
1.86103
1.84783
1.83442
1.82098
1.80773
1.79492
1.78282
1.77169
1.76179
1.75331
1.74639
1.74104
1.73719
1.73466
1.73322
1.73258
1.73247
1.73261
1.73277
1.73275
1.7324
1.73162
1.73033
1.7285
1.72613
1.72327
1.72
1.7164
1.71261
1.70878
1.70504
1.70155
1.6984
1.69568
1.69342
1.6916
1.69021
1.68918
1.6885
1.68814
1.68812
1.68846
1.68923
1.69044
1.6921
1.6942
1.69664
1.69931
1.70209
1.70481
1.70734
1.70953
1.71127
1.71248
1.7131
1.80669
1.80682
1.80711
1.80761
1.80839
1.80952
1.81105
1.81304
1.81548
1.81834
1.82157
1.82509
1.8288
1.83264
1.83652
1.84041
1.84429
1.84817
1.85212
1.8562
1.86052
1.86517
1.87027
1.87589
1.88207
1.88882
1.89609
1.90379
1.91182
1.92003
1.92829
1.93648
1.94448
1.95218
1.9595
1.96637
1.97273
1.97855
1.98378
1.98841
1.99241
1.99578
1.9985
2.00056
2.00197
2.00271
2.00278
2.00219
2.00092
1.99898
1.99637
1.99307
1.98911
1.98446
1.97914
1.97314
1.96646
1.95912
1.95111
1.94246
1.93319
1.92331
1.91286
1.90191
1.8905
1.87873
1.86671
1.85455
1.84243
1.83051
1.81901
1.80813
1.79808
1.78904
1.78116
1.77453
1.76916
1.765
1.76193
1.75976
1.75831
1.75734
1.75666
1.75607
1.75541
1.75455
1.7534
1.75189
1.74998
1.74769
1.74503
1.74206
1.73887
1.73554
1.73218
1.7289
1.72582
1.72301
1.72053
1.71841
1.71667
1.71529
1.71426
1.71355
1.71315
1.71308
1.71336
1.71398
1.71498
1.71634
1.71803
1.71998
1.72211
1.72431
1.72647
1.72847
1.7302
1.73159
1.73255
1.73304
1.83062
1.83079
1.83115
1.83174
1.83259
1.83376
1.83529
1.83718
1.83946
1.84208
1.84503
1.84823
1.85164
1.85518
1.85883
1.86253
1.86629
1.87012
1.87405
1.87814
1.88246
1.88707
1.89205
1.89745
1.90329
1.90957
1.91625
1.92327
1.93054
1.93795
1.9454
1.95279
1.96001
1.96698
1.97363
1.97988
1.98568
1.991
1.99579
2.00003
2.0037
2.00678
2.00926
2.01114
2.01239
2.01302
2.01303
2.0124
2.01114
2.00925
2.00673
2.00356
1.99976
1.99533
1.99026
1.98457
1.97825
1.97132
1.96379
1.95568
1.947
1.9378
1.92811
1.91798
1.90748
1.89669
1.88571
1.87466
1.86367
1.85288
1.84248
1.83261
1.82345
1.81513
1.80776
1.8014
1.79607
1.79172
1.78828
1.7856
1.78354
1.78193
1.78062
1.77944
1.77827
1.77699
1.77554
1.77383
1.77186
1.76961
1.76709
1.76436
1.76147
1.75848
1.75549
1.75258
1.74982
1.74728
1.74501
1.74303
1.74138
1.74004
1.73901
1.73828
1.73785
1.73771
1.73789
1.73837
1.73916
1.74025
1.74159
1.74314
1.74483
1.74657
1.74827
1.74985
1.75123
1.75233
1.75309
1.75348
1.85437
1.85456
1.85497
1.8556
1.85649
1.85766
1.85914
1.86095
1.86308
1.86551
1.86823
1.87118
1.87433
1.87763
1.88107
1.8846
1.88823
1.89196
1.89582
1.89985
1.9041
1.90861
1.91342
1.91857
1.92407
1.92992
1.93608
1.9425
1.94911
1.95583
1.96257
1.96926
1.9758
1.98212
1.98815
1.99383
1.99912
2.00397
2.00835
2.01222
2.01557
2.01838
2.02064
2.02232
2.02343
2.02396
2.0239
2.02325
2.022
2.02016
2.01772
2.01469
2.01106
2.00683
2.00202
1.99662
1.99066
1.98413
1.97705
1.96945
1.96135
1.95278
1.94379
1.93442
1.92475
1.91484
1.90479
1.8947
1.88469
1.87488
1.8654
1.8564
1.84798
1.84027
1.83334
1.82724
1.82199
1.81755
1.81385
1.81082
1.80832
1.80623
1.80443
1.8028
1.80123
1.79962
1.79791
1.79605
1.79401
1.79178
1.78938
1.78682
1.78416
1.78144
1.77873
1.7761
1.7736
1.77128
1.76918
1.76734
1.76577
1.76447
1.76345
1.76271
1.76224
1.76204
1.76211
1.76245
1.76305
1.7639
1.76495
1.76616
1.76749
1.76886
1.7702
1.77145
1.77253
1.7734
1.77401
1.77432
1.87793
1.87813
1.87855
1.8792
1.88009
1.88124
1.88268
1.88439
1.88639
1.88866
1.89118
1.89393
1.89686
1.89996
1.9032
1.90657
1.91005
1.91367
1.91742
1.92135
1.92548
1.92983
1.93445
1.93934
1.94451
1.94995
1.95564
1.96153
1.96756
1.97368
1.9798
1.98587
1.9918
1.99754
2.00302
2.00819
2.013
2.01742
2.02141
2.02494
2.02799
2.03054
2.03258
2.03409
2.03506
2.03549
2.03537
2.03469
2.03346
2.03167
2.02931
2.0264
2.02294
2.01892
2.01436
2.00925
2.00362
1.99748
1.99083
1.98372
1.97616
1.96818
1.95984
1.95117
1.94225
1.93313
1.92391
1.91467
1.90551
1.89654
1.88786
1.87959
1.87181
1.86463
1.85809
1.85224
1.84709
1.84262
1.83878
1.83549
1.83268
1.83024
1.82808
1.8261
1.82422
1.82235
1.82044
1.81846
1.81636
1.81414
1.81181
1.80938
1.80689
1.80438
1.8019
1.79948
1.79719
1.79505
1.7931
1.79138
1.78988
1.78863
1.78762
1.78686
1.78635
1.78609
1.78606
1.78627
1.7867
1.78733
1.78814
1.78908
1.79011
1.79118
1.79223
1.79321
1.79406
1.79474
1.79521
1.79546
1.90128
1.90149
1.90191
1.90255
1.90343
1.90455
1.90592
1.90755
1.90944
1.91156
1.91392
1.91648
1.91923
1.92214
1.92521
1.92842
1.93175
1.93523
1.93886
1.94265
1.94662
1.9508
1.95519
1.95982
1.96467
1.96974
1.975
1.98042
1.98594
1.99152
1.9971
2.00261
2.008
2.01321
2.01819
2.02289
2.02727
2.03129
2.03492
2.03813
2.0409
2.04321
2.04504
2.04639
2.04723
2.04756
2.04739
2.04669
2.04547
2.04373
2.04146
2.03868
2.03537
2.03156
2.02723
2.02241
2.0171
2.01132
2.00509
1.99843
1.99138
1.98395
1.97621
1.96818
1.95994
1.95153
1.94305
1.93456
1.92614
1.9179
1.90991
1.90227
1.89506
1.88833
1.88215
1.87655
1.87152
1.86706
1.86314
1.8597
1.85667
1.85398
1.85155
1.84931
1.84719
1.84512
1.84306
1.84096
1.83882
1.83661
1.83433
1.83201
1.82966
1.82731
1.82499
1.82275
1.82062
1.81863
1.81681
1.81518
1.81375
1.81254
1.81154
1.81077
1.81022
1.80989
1.80978
1.80986
1.81014
1.81059
1.81119
1.81191
1.81269
1.81352
1.81433
1.81509
1.81575
1.81628
1.81665
1.81684
1.92442
1.92463
1.92504
1.92567
1.92652
1.9276
1.92891
1.93046
1.93223
1.93423
1.93644
1.93884
1.94143
1.94418
1.94708
1.95013
1.95332
1.95665
1.96012
1.96376
1.96756
1.97154
1.97571
1.98008
1.98462
1.98934
1.99421
1.9992
2.00426
2.00936
2.01445
2.01947
2.02438
2.02912
2.03365
2.03792
2.0419
2.04556
2.04885
2.05177
2.05427
2.05636
2.058
2.05918
2.0599
2.06015
2.05992
2.05921
2.058
2.05631
2.05413
2.05147
2.04832
2.0447
2.0406
2.03605
2.03105
2.02562
2.01978
2.01355
2.00696
2.00005
1.99285
1.98541
1.97778
1.97002
1.96219
1.95436
1.94661
1.939
1.93162
1.92453
1.91781
1.91149
1.90564
1.90026
1.89538
1.89097
1.88702
1.88349
1.88031
1.87745
1.87483
1.8724
1.8701
1.86788
1.8657
1.86353
1.86134
1.85914
1.85691
1.85466
1.85241
1.85019
1.84801
1.84591
1.84391
1.84204
1.84032
1.83877
1.8374
1.83623
1.83524
1.83446
1.83388
1.83349
1.83329
1.83327
1.83341
1.83371
1.83413
1.83465
1.83524
1.83586
1.83648
1.83706
1.83757
1.83798
1.83826
1.83841
1.94736
1.94756
1.94796
1.94857
1.94939
1.95042
1.95167
1.95313
1.95481
1.95669
1.95877
1.96103
1.96346
1.96606
1.96881
1.9717
1.97474
1.97791
1.98123
1.9847
1.98832
1.9921
1.99604
2.00014
2.0044
2.00879
2.0133
2.0179
2.02255
2.02722
2.03187
2.03645
2.04092
2.04523
2.04935
2.05324
2.05686
2.06018
2.06317
2.06581
2.06807
2.06994
2.0714
2.07244
2.07305
2.07322
2.07294
2.07221
2.07103
2.06939
2.06729
2.06474
2.06174
2.0583
2.05443
2.05013
2.04542
2.04032
2.03485
2.02902
2.02287
2.01643
2.00974
2.00283
1.99576
1.98857
1.98133
1.97409
1.96692
1.95988
1.95303
1.94643
1.94014
1.9342
1.92864
1.92349
1.91876
1.91443
1.91049
1.90691
1.90365
1.90067
1.89792
1.89536
1.89293
1.8906
1.88833
1.8861
1.88389
1.88169
1.87949
1.87731
1.87515
1.87302
1.87095
1.86897
1.86707
1.8653
1.86367
1.86219
1.86087
1.85972
1.85874
1.85795
1.85733
1.85689
1.85662
1.8565
1.85653
1.8567
1.85697
1.85733
1.85776
1.85821
1.85867
1.85911
1.85949
1.8598
1.86002
1.86013
1.97009
1.97028
1.97067
1.97126
1.97204
1.97303
1.97421
1.9756
1.97718
1.97895
1.98091
1.98304
1.98533
1.98779
1.99039
1.99313
1.99601
1.99903
2.00219
2.00548
2.00892
2.01249
2.01621
2.02006
2.02403
2.02812
2.03229
2.03654
2.04082
2.0451
2.04935
2.05354
2.05761
2.06154
2.06529
2.06883
2.07212
2.07513
2.07784
2.08022
2.08226
2.08394
2.08523
2.08614
2.08664
2.08674
2.08641
2.08567
2.0845
2.08291
2.0809
2.07846
2.07561
2.07235
2.06868
2.06463
2.0602
2.0554
2.05027
2.04482
2.03907
2.03307
2.02683
2.02041
2.01385
2.00718
2.00046
1.99375
1.9871
1.98056
1.97418
1.96802
1.96212
1.95652
1.95124
1.94631
1.94173
1.93749
1.9336
1.93001
1.92671
1.92367
1.92083
1.91818
1.91566
1.91325
1.91093
1.90866
1.90643
1.90424
1.90207
1.89994
1.89784
1.8958
1.89382
1.89192
1.89012
1.88843
1.88686
1.88543
1.88416
1.88303
1.88206
1.88126
1.88061
1.88012
1.87979
1.87959
1.87952
1.87957
1.87972
1.87995
1.88024
1.88056
1.88089
1.8812
1.88148
1.88171
1.88187
1.88196
1.99263
1.99281
1.99318
1.99374
1.99449
1.99543
1.99655
1.99786
1.99936
2.00103
2.00287
2.00488
2.00705
2.00936
2.01182
2.01442
2.01715
2.02002
2.02301
2.02613
2.02938
2.03275
2.03624
2.03985
2.04356
2.04735
2.05122
2.05514
2.05908
2.06301
2.06691
2.07073
2.07445
2.07803
2.08145
2.08466
2.08765
2.09038
2.09283
2.09498
2.09681
2.09831
2.09945
2.10023
2.10064
2.10067
2.1003
2.09955
2.0984
2.09686
2.09493
2.0926
2.08988
2.08679
2.08332
2.0795
2.07533
2.07082
2.06601
2.0609
2.05553
2.04993
2.04412
2.03814
2.03203
2.02584
2.0196
2.01336
2.00717
2.00108
1.99512
1.98936
1.98381
1.97851
1.97349
1.96877
1.96435
1.96022
1.95639
1.95283
1.94952
1.94644
1.94356
1.94085
1.93828
1.93583
1.93346
1.93117
1.92893
1.92675
1.92462
1.92253
1.92049
1.91851
1.9166
1.91478
1.91305
1.91142
1.90991
1.90853
1.90729
1.90619
1.90522
1.90441
1.90374
1.90321
1.90281
1.90254
1.90239
1.90235
1.90239
1.90251
1.90268
1.90289
1.90311
1.90333
1.90353
1.90369
1.90381
1.90387
2.01498
2.01516
2.01551
2.01604
2.01675
2.01764
2.0187
2.01994
2.02135
2.02293
2.02467
2.02656
2.02861
2.0308
2.03312
2.03558
2.03816
2.04087
2.0437
2.04665
2.04971
2.05288
2.05616
2.05953
2.06299
2.06652
2.0701
2.07372
2.07735
2.08096
2.08453
2.08803
2.09143
2.09469
2.0978
2.10072
2.10343
2.10591
2.10812
2.11006
2.1117
2.11303
2.11403
2.1147
2.11502
2.11498
2.11459
2.11383
2.1127
2.11121
2.10934
2.10712
2.10454
2.1016
2.09833
2.09471
2.09079
2.08655
2.08203
2.07725
2.07223
2.06699
2.06157
2.056
2.05031
2.04453
2.03872
2.03291
2.02714
2.02145
2.01588
2.01047
2.00524
2.00023
1.99545
1.99093
1.98666
1.98266
1.9789
1.97539
1.9721
1.96902
1.96613
1.96339
1.96079
1.95831
1.95592
1.95362
1.95139
1.94922
1.94711
1.94506
1.94307
1.94115
1.9393
1.93754
1.93587
1.9343
1.93284
1.9315
1.93028
1.92919
1.92824
1.92741
1.92672
1.92615
1.92571
1.92538
1.92516
1.92503
1.92499
1.92502
1.92509
1.92521
1.92534
1.92548
1.92561
1.92572
1.9258
1.92584
2.03715
2.03732
2.03766
2.03816
2.03884
2.03968
2.04068
2.04185
2.04318
2.04467
2.04631
2.0481
2.05003
2.05209
2.05429
2.05661
2.05905
2.0616
2.06427
2.06705
2.06993
2.07291
2.07598
2.07913
2.08235
2.08563
2.08895
2.09229
2.09563
2.09895
2.10223
2.10543
2.10853
2.11151
2.11434
2.117
2.11945
2.12169
2.12369
2.12543
2.1269
2.12807
2.12895
2.12951
2.12975
2.12966
2.12923
2.12847
2.12736
2.12591
2.12413
2.122
2.11954
2.11676
2.11366
2.11025
2.10655
2.10257
2.09833
2.09384
2.08914
2.08424
2.07917
2.07397
2.06866
2.06327
2.05785
2.05242
2.04703
2.04171
2.03648
2.03139
2.02646
2.02171
2.01716
2.01283
2.00872
2.00484
2.00118
1.99773
1.99448
1.99142
1.98853
1.98579
1.98318
1.98069
1.9783
1.976
1.97378
1.97163
1.96955
1.96753
1.96559
1.96372
1.96192
1.96021
1.95859
1.95706
1.95565
1.95434
1.95315
1.95207
1.95112
1.95029
1.94957
1.94898
1.94849
1.94811
1.94783
1.94764
1.94752
1.94747
1.94746
1.9475
1.94756
1.94764
1.94771
1.94778
1.94783
1.94785
2.05916
2.05932
2.05963
2.06011
2.06075
2.06155
2.0625
2.0636
2.06486
2.06626
2.0678
2.06949
2.07131
2.07325
2.07532
2.07751
2.07981
2.08222
2.08474
2.08735
2.09005
2.09285
2.09572
2.09866
2.10166
2.1047
2.10777
2.11086
2.11394
2.11699
2.11999
2.12292
2.12576
2.12848
2.13105
2.13346
2.13569
2.13772
2.13952
2.14108
2.14238
2.14342
2.14418
2.14464
2.14481
2.14467
2.14422
2.14345
2.14236
2.14096
2.13924
2.13721
2.13487
2.13223
2.1293
2.12608
2.12259
2.11884
2.11486
2.11065
2.10624
2.10166
2.09692
2.09205
2.08708
2.08205
2.07698
2.0719
2.06685
2.06186
2.05695
2.05215
2.04749
2.04298
2.03865
2.03451
2.03055
2.0268
2.02323
2.01986
2.01667
2.01364
2.01077
2.00805
2.00545
2.00297
2.00059
1.9983
1.9961
1.99397
1.99192
1.98994
1.98803
1.9862
1.98445
1.98278
1.98121
1.97972
1.97834
1.97706
1.97589
1.97483
1.97388
1.97304
1.97231
1.97169
1.97117
1.97075
1.97041
1.97016
1.96998
1.96986
1.9698
1.96977
1.96977
1.96979
1.96982
1.96985
1.96987
1.96989
2.081
2.08115
2.08145
2.0819
2.08251
2.08326
2.08416
2.0852
2.08638
2.0877
2.08916
2.09075
2.09246
2.09429
2.09624
2.0983
2.10047
2.10274
2.1051
2.10755
2.11009
2.1127
2.11539
2.11813
2.12091
2.12374
2.12658
2.12943
2.13227
2.13508
2.13783
2.14051
2.1431
2.14558
2.14793
2.15012
2.15214
2.15396
2.15558
2.15698
2.15814
2.15905
2.1597
2.16008
2.16018
2.15999
2.15951
2.15875
2.15768
2.15633
2.15467
2.15273
2.1505
2.148
2.14522
2.14218
2.13889
2.13536
2.13161
2.12766
2.12352
2.11922
2.11478
2.11022
2.10558
2.10086
2.09611
2.09136
2.08662
2.08192
2.0773
2.07278
2.06836
2.06409
2.05996
2.05599
2.05219
2.04856
2.0451
2.04181
2.03868
2.03571
2.03288
2.03018
2.02761
2.02514
2.02278
2.02052
2.01833
2.01623
2.01421
2.01227
2.0104
2.00861
2.0069
2.00527
2.00373
2.00228
2.00093
1.99968
1.99852
1.99747
1.99653
1.99568
1.99494
1.99429
1.99375
1.99329
1.99291
1.99261
1.99238
1.99221
1.99209
1.99201
1.99196
1.99194
1.99193
1.99193
1.99193
1.99193
2.10269
2.10283
2.10312
2.10355
2.10411
2.10482
2.10567
2.10665
2.10777
2.10901
2.11038
2.11188
2.11349
2.11521
2.11705
2.11899
2.12102
2.12315
2.12537
2.12767
2.13005
2.13249
2.13499
2.13755
2.14014
2.14276
2.14539
2.14802
2.15063
2.15321
2.15574
2.15819
2.16056
2.16282
2.16495
2.16694
2.16877
2.17042
2.17187
2.17312
2.17414
2.17494
2.17549
2.17579
2.17583
2.1756
2.17511
2.17434
2.1733
2.17198
2.17039
2.16854
2.16641
2.16403
2.1614
2.15852
2.15542
2.1521
2.14857
2.14485
2.14097
2.13693
2.13276
2.12849
2.12413
2.11971
2.11526
2.11079
2.10634
2.10192
2.09756
2.09328
2.0891
2.08504
2.0811
2.07731
2.07365
2.07015
2.0668
2.0636
2.06055
2.05763
2.05485
2.05219
2.04965
2.04722
2.04488
2.04264
2.04049
2.03842
2.03643
2.03452
2.03269
2.03093
2.02926
2.02767
2.02616
2.02475
2.02342
2.02219
2.02105
2.02001
2.01907
2.01822
2.01747
2.01681
2.01623
2.01574
2.01533
2.015
2.01472
2.01451
2.01434
2.01422
2.01413
2.01407
2.01403
2.014
2.01399
2.01398
2.12424
2.12437
2.12464
2.12504
2.12558
2.12625
2.12705
2.12797
2.12902
2.13019
2.13148
2.13289
2.1344
2.13603
2.13775
2.13957
2.14149
2.14348
2.14556
2.14772
2.14994
2.15222
2.15455
2.15693
2.15933
2.16176
2.16419
2.16662
2.16903
2.1714
2.17372
2.17596
2.17813
2.18019
2.18212
2.18393
2.18558
2.18706
2.18837
2.18948
2.19038
2.19107
2.19153
2.19175
2.19174
2.19148
2.19097
2.1902
2.18918
2.18791
2.18638
2.18461
2.18258
2.18032
2.17782
2.1751
2.17217
2.16903
2.16571
2.16221
2.15856
2.15477
2.15085
2.14684
2.14275
2.1386
2.13441
2.13021
2.12602
2.12185
2.11774
2.11369
2.10973
2.10586
2.10211
2.09847
2.09497
2.09159
2.08835
2.08525
2.08227
2.07942
2.0767
2.07409
2.07159
2.06919
2.06689
2.06468
2.06256
2.06053
2.05857
2.05669
2.0549
2.05318
2.05154
2.04998
2.04851
2.04712
2.04582
2.04461
2.04349
2.04246
2.04152
2.04067
2.0399
2.03923
2.03864
2.03812
2.03768
2.03731
2.037
2.03675
2.03655
2.03639
2.03627
2.03618
2.03611
2.03607
2.03604
2.03603
2.14565
2.14578
2.14603
2.14641
2.14691
2.14754
2.14829
2.14916
2.15015
2.15125
2.15247
2.15379
2.15521
2.15674
2.15836
2.16007
2.16186
2.16373
2.16568
2.16769
2.16977
2.17189
2.17407
2.17627
2.17851
2.18075
2.183
2.18524
2.18746
2.18964
2.19176
2.19382
2.19579
2.19767
2.19943
2.20106
2.20256
2.20389
2.20506
2.20604
2.20683
2.20742
2.2078
2.20796
2.2079
2.20761
2.20708
2.20632
2.20532
2.20409
2.20262
2.20092
2.19899
2.19684
2.19447
2.19189
2.18912
2.18616
2.18303
2.17973
2.17629
2.17272
2.16904
2.16527
2.16142
2.15752
2.15358
2.14962
2.14567
2.14174
2.13785
2.13401
2.13025
2.12657
2.12299
2.11951
2.11615
2.1129
2.10977
2.10676
2.10386
2.10109
2.09842
2.09587
2.09342
2.09106
2.0888
2.08663
2.08455
2.08255
2.08063
2.07879
2.07702
2.07534
2.07373
2.07221
2.07077
2.0694
2.06813
2.06693
2.06583
2.06481
2.06387
2.06302
2.06225
2.06157
2.06096
2.06042
2.05996
2.05956
2.05923
2.05895
2.05871
2.05853
2.05838
2.05826
2.05817
2.05811
2.05807
2.05805
2.16693
2.16705
2.16729
2.16765
2.16812
2.16872
2.16942
2.17024
2.17117
2.1722
2.17334
2.17458
2.17592
2.17735
2.17887
2.18047
2.18215
2.18391
2.18573
2.18761
2.18954
2.19152
2.19354
2.19559
2.19766
2.19974
2.20182
2.20389
2.20593
2.20793
2.20987
2.21176
2.21356
2.21527
2.21687
2.21834
2.21969
2.22089
2.22192
2.22279
2.22348
2.22399
2.22429
2.2244
2.22429
2.22397
2.22343
2.22268
2.2217
2.22051
2.21909
2.21746
2.21562
2.21357
2.21132
2.20888
2.20626
2.20346
2.2005
2.1974
2.19415
2.19079
2.18733
2.18377
2.18015
2.17647
2.17276
2.16903
2.1653
2.16158
2.1579
2.15427
2.15069
2.14719
2.14377
2.14044
2.13721
2.13408
2.13106
2.12815
2.12534
2.12264
2.12004
2.11755
2.11515
2.11284
2.11063
2.1085
2.10646
2.10449
2.10261
2.1008
2.09907
2.09742
2.09585
2.09436
2.09294
2.0916
2.09035
2.08917
2.08808
2.08707
2.08614
2.08529
2.08452
2.08383
2.08321
2.08266
2.08217
2.08176
2.0814
2.08109
2.08083
2.08062
2.08045
2.08031
2.08021
2.08013
2.08009
2.08006
2.1881
2.18821
2.18843
2.18877
2.18922
2.18977
2.19044
2.1912
2.19208
2.19305
2.19412
2.19528
2.19654
2.19788
2.1993
2.2008
2.20237
2.20401
2.20571
2.20747
2.20927
2.21111
2.21299
2.21489
2.21681
2.21873
2.22065
2.22256
2.22443
2.22627
2.22805
2.22977
2.23142
2.23297
2.23442
2.23576
2.23697
2.23804
2.23896
2.23973
2.24032
2.24075
2.24099
2.24104
2.24089
2.24055
2.24
2.23925
2.2383
2.23714
2.23578
2.23421
2.23245
2.2305
2.22837
2.22605
2.22357
2.22092
2.21813
2.21519
2.21213
2.20896
2.2057
2.20235
2.19893
2.19546
2.19196
2.18844
2.18491
2.18139
2.1779
2.17445
2.17106
2.16772
2.16445
2.16127
2.15817
2.15516
2.15225
2.14943
2.14671
2.14409
2.14156
2.13913
2.13679
2.13453
2.13236
2.13028
2.12828
2.12635
2.12451
2.12274
2.12105
2.11943
2.11789
2.11642
2.11503
2.11372
2.11249
2.11133
2.11025
2.10925
2.10833
2.10748
2.10671
2.10601
2.10538
2.10482
2.10432
2.10389
2.10351
2.10318
2.10291
2.10268
2.10249
2.10233
2.10222
2.10213
2.10207
2.10205
2.20915
2.20925
2.20946
2.20978
2.2102
2.21072
2.21134
2.21207
2.21288
2.2138
2.2148
2.21589
2.21707
2.21832
2.21965
2.22106
2.22252
2.22406
2.22564
2.22728
2.22896
2.23067
2.23241
2.23418
2.23595
2.23773
2.2395
2.24125
2.24298
2.24466
2.24629
2.24787
2.24936
2.25077
2.25209
2.25329
2.25438
2.25534
2.25616
2.25683
2.25734
2.25769
2.25787
2.25787
2.25769
2.25733
2.25677
2.25603
2.2551
2.25397
2.25266
2.25116
2.24948
2.24762
2.24559
2.24339
2.24103
2.23853
2.23589
2.23311
2.23022
2.22723
2.22415
2.22099
2.21776
2.21449
2.21118
2.20785
2.20451
2.20118
2.19787
2.19459
2.19136
2.18818
2.18506
2.18201
2.17904
2.17615
2.17334
2.17062
2.16799
2.16544
2.16299
2.16062
2.15833
2.15613
2.15402
2.15198
2.15002
2.14814
2.14633
2.1446
2.14294
2.14136
2.13985
2.13841
2.13705
2.13576
2.13455
2.13341
2.13235
2.13136
2.13044
2.1296
2.12883
2.12812
2.12749
2.12692
2.12641
2.12596
2.12557
2.12523
2.12493
2.12469
2.12448
2.12432
2.12419
2.12409
2.12403
2.124
2.23009
2.23019
2.23039
2.23069
2.23108
2.23157
2.23215
2.23283
2.2336
2.23445
2.23539
2.23641
2.23751
2.23869
2.23993
2.24124
2.24261
2.24404
2.24552
2.24704
2.24861
2.2502
2.25182
2.25345
2.25509
2.25673
2.25836
2.25998
2.26156
2.2631
2.2646
2.26603
2.2674
2.26868
2.26986
2.27095
2.27193
2.27278
2.2735
2.27408
2.27452
2.2748
2.27493
2.27488
2.27467
2.27429
2.27373
2.273
2.27209
2.271
2.26973
2.26829
2.26668
2.26491
2.26297
2.26089
2.25865
2.25628
2.25377
2.25115
2.24842
2.24559
2.24268
2.23969
2.23664
2.23354
2.23041
2.22726
2.2241
2.22094
2.2178
2.21469
2.21161
2.20857
2.20559
2.20268
2.19982
2.19705
2.19434
2.19172
2.18917
2.18671
2.18432
2.18202
2.1798
2.17765