/*--------------------------------*- C++ -*----------------------------------*\
| =========                 |                                                 |
| \\      /  F ield         | OpenFOAM: The Open Source CFD Toolbox           |
|  \\    /   O peration     | Version:  2406                                  |
|   \\  /    A nd           | Website:  www.openfoam.com                      |
|    \\/     M anipulation  |                                                 |
\*---------------------------------------------------------------------------*/
FoamFile
{
    version     2.0;
    format      ascii;
    arch        "LSB;label=32;scalar=64";
    class       volScalarField;
    location    "2";
    object      C_0;
}
// * * * * * * * * * * * * * * * * * * * * * * * * * * * * * * * * * * * * * //

dimensions      [1 -3 0 0 0 0 0];

internalField   nonuniform List<scalar> 
14400
(
1.59926
1.59327
1.58064
1.55469
1.51459
1.47783
1.45541
1.45048
1.46389
1.49483
1.54013
1.58802
1.62036
1.63914
1.6522
1.66028
1.66368
1.66231
1.65571
1.64283
1.61592
1.57654
1.54355
1.52651
1.52851
1.55041
1.59143
1.64835
1.71011
1.75478
1.784
1.80895
1.83052
1.84932
1.86579
1.88023
1.8929
1.90398
1.91361
1.92191
1.92895
1.93483
1.93958
1.94327
1.94592
1.94756
1.94821
1.94789
1.9466
1.94433
1.9411
1.93687
1.93164
1.92538
1.91806
1.90964
1.90007
1.88928
1.8772
1.86374
1.84878
1.8322
1.81381
1.7934
1.7707
1.74535
1.71687
1.68464
1.64724
1.58915
1.50991
1.43749
1.37878
1.33599
1.30999
1.301
1.30889
1.33315
1.37265
1.42503
1.48374
1.52588
1.54967
1.56728
1.58
1.58853
1.5933
1.59454
1.59235
1.58666
1.57724
1.56364
1.54507
1.51541
1.46966
1.42333
1.39042
1.374
1.37472
1.39162
1.4215
1.45245
1.46885
1.47304
1.46848
1.45173
1.42029
1.38976
1.37217
1.37078
1.38654
1.41883
1.46464
1.50992
1.5393
1.55784
1.57157
1.58133
1.5876
1.59067
1.60524
1.59992
1.5889
1.57058
1.53865
1.5012
1.47739
1.47198
1.48591
1.51828
1.56419
1.60309
1.62752
1.64486
1.65717
1.66496
1.66844
1.66755
1.66198
1.65108
1.63274
1.6012
1.56708
1.54862
1.55019
1.57274
1.61535
1.67345
1.72491
1.76026
1.78824
1.81233
1.83329
1.85166
1.8678
1.88201
1.8945
1.90543
1.91495
1.92315
1.93013
1.93594
1.94065
1.9443
1.94693
1.94855
1.94919
1.94886
1.94756
1.94531
1.94208
1.93788
1.93267
1.92645
1.91917
1.91079
1.90128
1.89056
1.87858
1.86523
1.85041
1.834
1.81583
1.79569
1.77335
1.74847
1.72062
1.68924
1.65347
1.60583
1.53611
1.46166
1.4015
1.35777
1.33131
1.32228
1.33053
1.35565
1.39648
1.45067
1.50144
1.53377
1.55565
1.57217
1.5842
1.59229
1.59682
1.59797
1.59585
1.59039
1.58143
1.56861
1.55139
1.52833
1.49161
1.44564
1.41165
1.39483
1.39608
1.41431
1.44449
1.46788
1.47852
1.48179
1.4781
1.46706
1.44321
1.41238
1.39346
1.3915
1.40763
1.44095
1.48635
1.52264
1.54548
1.56264
1.57555
1.58481
1.5908
1.59374
1.61655
1.61227
1.60368
1.59078
1.57234
1.54521
1.51952
1.51345
1.52814
1.56229
1.59683
1.62168
1.64067
1.65563
1.66667
1.67395
1.67756
1.67748
1.67358
1.66572
1.65382
1.63619
1.61115
1.59099
1.59196
1.61544
1.65966
1.70609
1.742
1.77092
1.79639
1.81883
1.83866
1.85621
1.87175
1.8855
1.89764
1.9083
1.9176
1.92562
1.93246
1.93816
1.94278
1.94636
1.94893
1.95052
1.95113
1.95079
1.94949
1.94725
1.94405
1.93988
1.93472
1.92856
1.92136
1.91309
1.90369
1.89313
1.88132
1.86819
1.85364
1.83756
1.8198
1.8002
1.77854
1.75455
1.72792
1.69822
1.66491
1.62729
1.57577
1.5066
1.44585
1.40074
1.37355
1.36443
1.37322
1.39964
1.44106
1.48986
1.52471
1.54818
1.56699
1.58156
1.59233
1.59963
1.6037
1.60469
1.60267
1.59762
1.58946
1.578
1.56304
1.54439
1.5211
1.48795
1.4524
1.43496
1.43703
1.45732
1.47726
1.48862
1.49536
1.4975
1.49486
1.48762
1.47577
1.45527
1.43427
1.43143
1.44812
1.48293
1.51553
1.53843
1.55685
1.57169
1.58318
1.59156
1.59704
1.59974
1.63212
1.62895
1.62275
1.61392
1.60339
1.59095
1.57604
1.57068
1.5847
1.60714
1.62614
1.64288
1.65786
1.67031
1.67992
1.68661
1.69037
1.6912
1.68916
1.68439
1.67733
1.66901
1.65882
1.6482
1.6496
1.67287
1.70533
1.73447
1.76048
1.78503
1.80755
1.82795
1.84631
1.86277
1.87749
1.89061
1.90226
1.91253
1.92151
1.92929
1.93592
1.94146
1.94596
1.94943
1.95193
1.95345
1.95403
1.95367
1.95238
1.95015
1.94698
1.94286
1.93778
1.93171
1.92463
1.9165
1.90728
1.89693
1.88538
1.87256
1.8584
1.84279
1.82562
1.80676
1.78604
1.76328
1.73828
1.7108
1.68064
1.64771
1.61233
1.56553
1.50967
1.4634
1.43572
1.42646
1.43545
1.46294
1.49875
1.5284
1.549
1.56726
1.58255
1.59475
1.60392
1.61019
1.61366
1.61442
1.61252
1.60798
1.60077
1.59089
1.57838
1.56344
1.54669
1.5285
1.50587
1.48994
1.49087
1.50061
1.50733
1.51297
1.51682
1.51799
1.51623
1.5118
1.50556
1.49825
1.48782
1.48607
1.50117
1.52311
1.54079
1.55714
1.57178
1.5841
1.59392
1.60122
1.60605
1.60845
1.65087
1.64866
1.64446
1.63875
1.63243
1.62697
1.62375
1.62333
1.63136
1.64147
1.65336
1.66584
1.67759
1.68782
1.69609
1.70221
1.7061
1.70781
1.70747
1.70537
1.7021
1.6987
1.69688
1.69794
1.70375
1.72006
1.73886
1.75923
1.78041
1.80118
1.82085
1.8391
1.85584
1.87107
1.88484
1.8972
1.90825
1.91804
1.92663
1.9341
1.94048
1.94581
1.95014
1.95349
1.95588
1.95734
1.95787
1.95749
1.95619
1.95398
1.95086
1.94681
1.94182
1.93587
1.92894
1.921
1.912
1.90192
1.8907
1.87829
1.86461
1.84959
1.83314
1.81518
1.79559
1.77426
1.75111
1.72606
1.69913
1.67051
1.64073
1.61076
1.57588
1.54027
1.51437
1.50503
1.51175
1.52855
1.54641
1.56091
1.57562
1.5893
1.60121
1.61096
1.61842
1.62354
1.62633
1.62681
1.62502
1.62099
1.61476
1.60642
1.59614
1.58429
1.57153
1.55903
1.54825
1.53872
1.53571
1.53495
1.53667
1.53911
1.54094
1.54141
1.54028
1.53779
1.53466
1.53223
1.53225
1.53448
1.54322
1.55334
1.56529
1.57757
1.58903
1.59902
1.60718
1.61336
1.6175
1.61957
1.67181
1.67037
1.66768
1.66419
1.6606
1.6579
1.65723
1.65944
1.66397
1.6711
1.67997
1.68953
1.69885
1.70728
1.71441
1.72002
1.72403
1.72647
1.72752
1.72751
1.72699
1.72682
1.72818
1.73243
1.74066
1.75204
1.76656
1.78317
1.80076
1.81842
1.83555
1.85177
1.86689
1.88084
1.89357
1.90511
1.91549
1.92474
1.93289
1.93999
1.94607
1.95117
1.9553
1.9585
1.96077
1.96215
1.96262
1.96221
1.96092
1.95874
1.95567
1.9517
1.94682
1.94101
1.93426
1.92654
1.91782
1.90806
1.89722
1.88527
1.87215
1.8578
1.84218
1.82522
1.80686
1.78707
1.76584
1.74321
1.71932
1.69448
1.66925
1.64453
1.6216
1.60041
1.58268
1.57346
1.57323
1.57725
1.58398
1.59318
1.60326
1.61312
1.62201
1.62948
1.63526
1.63922
1.6413
1.64148
1.63976
1.6362
1.63086
1.62388
1.61548
1.60604
1.59613
1.58655
1.57823
1.5719
1.56749
1.5655
1.56529
1.56587
1.56642
1.56642
1.56569
1.5644
1.56307
1.56252
1.56371
1.56733
1.5729
1.58052
1.58946
1.59881
1.60776
1.61575
1.62241
1.62754
1.631
1.63275
1.6942
1.69332
1.69171
1.68973
1.68788
1.6868
1.68714
1.68932
1.69329
1.69898
1.70591
1.71345
1.72099
1.72804
1.73425
1.73943
1.74351
1.74652
1.74864
1.75015
1.75153
1.75342
1.75658
1.7618
1.76958
1.77977
1.79216
1.80615
1.82104
1.83621
1.85115
1.86553
1.87913
1.89181
1.9035
1.91419
1.92386
1.93253
1.9402
1.9469
1.95266
1.95749
1.9614
1.96443
1.96657
1.96785
1.96826
1.96782
1.96653
1.96438
1.96137
1.9575
1.95274
1.9471
1.94056
1.93309
1.92466
1.91527
1.90486
1.89342
1.88091
1.8673
1.85255
1.83665
1.81957
1.80133
1.78197
1.76161
1.74045
1.71883
1.69726
1.67647
1.65739
1.64101
1.62832
1.6198
1.61569
1.61577
1.61909
1.62456
1.63113
1.6379
1.64424
1.64968
1.65392
1.65679
1.65817
1.65803
1.65635
1.65318
1.6486
1.64275
1.63586
1.62825
1.62038
1.61281
1.60609
1.60067
1.59671
1.59429
1.59311
1.59266
1.59245
1.59215
1.59165
1.59106
1.5907
1.59106
1.59265
1.59579
1.60041
1.60637
1.61324
1.62045
1.62745
1.6338
1.63918
1.64337
1.64623
1.64767
1.71747
1.71698
1.71612
1.71514
1.71439
1.71428
1.7152
1.71739
1.7209
1.72561
1.73123
1.73737
1.74362
1.74963
1.75512
1.75996
1.76406
1.76748
1.77035
1.77293
1.77557
1.77873
1.78293
1.78861
1.79608
1.80532
1.81615
1.82821
1.84105
1.85421
1.86732
1.88008
1.89227
1.90376
1.91445
1.92428
1.93324
1.94131
1.94848
1.95476
1.96017
1.96471
1.9684
1.97123
1.97324
1.97441
1.97476
1.97428
1.97299
1.97088
1.96794
1.96417
1.95956
1.9541
1.94778
1.94058
1.93248
1.92348
1.91354
1.90265
1.89078
1.87793
1.86409
1.84925
1.83344
1.81669
1.7991
1.78081
1.76204
1.74312
1.72448
1.70671
1.69047
1.67645
1.66526
1.65727
1.6526
1.65104
1.65203
1.65486
1.65878
1.66313
1.66736
1.67107
1.67396
1.67584
1.67658
1.67611
1.67444
1.67157
1.66761
1.66266
1.65695
1.65073
1.64435
1.6382
1.63265
1.62799
1.62438
1.62183
1.6202
1.61921
1.61857
1.6181
1.61771
1.61748
1.6176
1.61836
1.62003
1.62277
1.62658
1.6313
1.63667
1.64229
1.64779
1.65283
1.65715
1.66054
1.66286
1.66404
1.74124
1.74101
1.74064
1.74031
1.74026
1.74073
1.74198
1.74416
1.7473
1.75133
1.75604
1.76119
1.7665
1.77172
1.77666
1.7812
1.78529
1.78897
1.79236
1.79564
1.79909
1.80302
1.80778
1.81365
1.8208
1.82927
1.83891
1.8495
1.86073
1.87227
1.88384
1.89518
1.90612
1.91651
1.92624
1.93526
1.94351
1.95098
1.95764
1.9635
1.96855
1.97279
1.97623
1.97888
1.98073
1.98179
1.98207
1.98157
1.98028
1.9782
1.97534
1.97168
1.96722
1.96196
1.95587
1.94897
1.94122
1.93262
1.92316
1.91284
1.90164
1.88956
1.87662
1.86283
1.84823
1.8329
1.81694
1.8005
1.78379
1.76712
1.75085
1.73542
1.72133
1.70905
1.699
1.69143
1.6864
1.68375
1.68314
1.68407
1.68601
1.68846
1.691
1.69327
1.69501
1.69602
1.69618
1.69541
1.69371
1.69107
1.68758
1.68335
1.67854
1.67337
1.66809
1.66299
1.65831
1.65427
1.65098
1.64847
1.64665
1.64539
1.64453
1.64395
1.6436
1.64354
1.64387
1.64475
1.64633
1.6487
1.65182
1.6556
1.65983
1.66425
1.66859
1.67259
1.67604
1.67876
1.68064
1.6816
1.76523
1.76517
1.76513
1.76522
1.76559
1.76641
1.76784
1.76997
1.77283
1.77635
1.78041
1.78485
1.78947
1.7941
1.7986
1.80289
1.80694
1.81076
1.81447
1.81818
1.82212
1.82649
1.83151
1.83739
1.84423
1.85203
1.86073
1.87015
1.88009
1.8903
1.90057
1.9107
1.92052
1.9299
1.93875
1.94699
1.95457
1.96145
1.96761
1.97304
1.97773
1.98167
1.98487
1.98731
1.98901
1.98996
1.99017
1.98963
1.98835
1.98631
1.98353
1.97999
1.97569
1.97063
1.9648
1.95819
1.9508
1.94263
1.93366
1.92391
1.91337
1.90205
1.88999
1.87721
1.86377
1.84974
1.83525
1.82044
1.80551
1.79072
1.77636
1.76279
1.75037
1.73943
1.73027
1.72305
1.71781
1.71444
1.7127
1.71226
1.71272
1.71372
1.71491
1.71601
1.71678
1.71705
1.7167
1.71566
1.7139
1.71143
1.7083
1.70462
1.7005
1.69612
1.69167
1.68734
1.68333
1.67979
1.6768
1.6744
1.67255
1.67118
1.67021
1.66956
1.66922
1.66921
1.66959
1.67045
1.67186
1.67386
1.67642
1.67945
1.6828
1.6863
1.68973
1.6929
1.69565
1.69783
1.69934
1.70011
1.78927
1.78933
1.78949
1.78983
1.79046
1.79148
1.793
1.79506
1.79768
1.80083
1.80441
1.80832
1.81242
1.8166
1.82076
1.82483
1.8288
1.83268
1.83655
1.84052
1.84471
1.84929
1.8544
1.86017
1.86668
1.87391
1.88182
1.89029
1.89917
1.90828
1.91745
1.92652
1.93536
1.94384
1.95187
1.95938
1.96632
1.97264
1.97832
1.98333
1.98766
1.9913
1.99425
1.99649
1.99804
1.99888
1.99901
1.99844
1.99716
1.99517
1.99247
1.98906
1.98492
1.98007
1.9745
1.9682
1.96117
1.95342
1.94494
1.93576
1.92587
1.9153
1.90408
1.89225
1.87988
1.86705
1.85388
1.8405
1.82709
1.81388
1.80109
1.78902
1.77791
1.76804
1.75958
1.75268
1.74734
1.7435
1.74098
1.73953
1.7389
1.73878
1.73892
1.73907
1.73905
1.7387
1.73792
1.73663
1.7348
1.73243
1.72958
1.72631
1.72272
1.71894
1.71511
1.71138
1.70789
1.70476
1.70204
1.69978
1.69797
1.69658
1.69555
1.69487
1.69451
1.69448
1.69483
1.69559
1.69679
1.69845
1.70054
1.70297
1.70564
1.70841
1.71113
1.71364
1.71583
1.71756
1.71877
1.71939
1.81325
1.81338
1.81367
1.81417
1.81494
1.81607
1.8176
1.81958
1.82201
1.82486
1.82808
1.83159
1.8353
1.83912
1.843
1.84687
1.85074
1.85461
1.85855
1.86262
1.86692
1.87155
1.87663
1.88223
1.88839
1.89511
1.90235
1.91002
1.91802
1.9262
1.93443
1.94258
1.95055
1.95822
1.96551
1.97235
1.97868
1.98447
1.98968
1.99429
1.99828
2.00162
2.00433
2.00638
2.00777
2.0085
2.00856
2.00796
2.00669
2.00475
2.00213
1.99884
1.99488
1.99023
1.98492
1.97893
1.97226
1.96493
1.95694
1.94831
1.93905
1.92919
1.91877
1.90783
1.89645
1.88471
1.87271
1.86058
1.84848
1.8366
1.82512
1.81426
1.80423
1.79522
1.78736
1.78074
1.77538
1.77123
1.76816
1.76601
1.76455
1.76359
1.7629
1.76231
1.76165
1.76079
1.75964
1.75813
1.75623
1.75393
1.75128
1.74832
1.74513
1.7418
1.73845
1.73518
1.7321
1.7293
1.72682
1.72471
1.72297
1.7216
1.72056
1.71985
1.71946
1.71939
1.71966
1.72028
1.72127
1.72263
1.72431
1.72625
1.72837
1.73057
1.73272
1.73472
1.73645
1.73783
1.73879
1.73928
1.8371
1.83727
1.83763
1.83822
1.83907
1.84024
1.84176
1.84365
1.84591
1.84853
1.85147
1.85467
1.85806
1.8616
1.86523
1.86892
1.87267
1.87649
1.8804
1.88448
1.88878
1.89338
1.89834
1.90372
1.90954
1.91579
1.92245
1.92944
1.93667
1.94406
1.95148
1.95884
1.96603
1.97297
1.97959
1.98581
1.99159
1.99689
2.00166
2.00588
2.00953
2.01259
2.01506
2.01692
2.01816
2.01878
2.01878
2.01815
2.01688
2.01499
2.01246
2.0093
2.0055
2.00107
1.99601
1.99033
1.98402
1.9771
1.96958
1.96148
1.95283
1.94364
1.93397
1.92386
1.91339
1.90262
1.89166
1.88064
1.86967
1.85891
1.84853
1.83869
1.82954
1.82124
1.81388
1.80754
1.80222
1.79788
1.79444
1.79177
1.78972
1.78811
1.7868
1.78562
1.78445
1.78317
1.78172
1.78002
1.77804
1.77579
1.77328
1.77056
1.76767
1.76469
1.7617
1.75879
1.75604
1.7535
1.75123
1.74927
1.74761
1.74628
1.74525
1.74452
1.74408
1.74395
1.74412
1.7446
1.74539
1.74647
1.74781
1.74935
1.75104
1.75277
1.75447
1.75605
1.75742
1.75852
1.75928
1.75967
1.86078
1.86097
1.86138
1.862
1.86289
1.86406
1.86554
1.86734
1.86946
1.87189
1.87459
1.87754
1.88068
1.88398
1.8874
1.89092
1.89453
1.89825
1.9021
1.90612
1.91035
1.91484
1.91964
1.92477
1.93025
1.93607
1.94221
1.9486
1.95518
1.96188
1.9686
1.97525
1.98177
1.98806
1.99407
1.99973
2.00499
2.00982
2.01418
2.01803
2.02136
2.02416
2.0264
2.02807
2.02917
2.02969
2.02962
2.02896
2.02771
2.02587
2.02343
2.02039
2.01676
2.01254
2.00774
2.00235
1.99639
1.98987
1.98281
1.97522
1.96713
1.95858
1.94961
1.94026
1.93061
1.92072
1.91069
1.90063
1.89064
1.88085
1.87139
1.86241
1.85401
1.84631
1.8394
1.83332
1.82807
1.82364
1.81995
1.81692
1.81443
1.81234
1.81055
1.80892
1.80734
1.80574
1.80404
1.80218
1.80014
1.79791
1.79551
1.79295
1.7903
1.78758
1.78488
1.78225
1.77975
1.77744
1.77535
1.77351
1.77194
1.77065
1.76963
1.76888
1.76841
1.76821
1.76828
1.76862
1.76922
1.77006
1.77111
1.77232
1.77364
1.77501
1.77635
1.77759
1.77867
1.77953
1.78014
1.78045
1.88426
1.88447
1.88489
1.88553
1.88642
1.88757
1.889
1.89071
1.8927
1.89497
1.89748
1.90021
1.90314
1.90623
1.90946
1.91282
1.91629
1.91989
1.92364
1.92755
1.93166
1.936
1.9406
1.94547
1.95062
1.95604
1.96171
1.96757
1.97358
1.97967
1.98577
1.99181
1.99772
2.00343
2.00889
2.01403
2.01883
2.02322
2.02719
2.03071
2.03374
2.03628
2.0383
2.0398
2.04076
2.04118
2.04105
2.04037
2.03913
2.03734
2.03499
2.03208
2.02861
2.0246
2.02004
2.01494
2.00932
2.00318
1.99655
1.98945
1.9819
1.97394
1.96561
1.95697
1.94806
1.93897
1.92976
1.92054
1.9114
1.90245
1.89379
1.88553
1.87778
1.87061
1.86409
1.85825
1.85311
1.84865
1.84481
1.84153
1.83873
1.83629
1.83413
1.83216
1.83027
1.82841
1.82651
1.82452
1.82242
1.82021
1.81788
1.81546
1.81297
1.81047
1.80799
1.80558
1.80328
1.80115
1.79921
1.79748
1.79599
1.79474
1.79373
1.79298
1.79246
1.7922
1.79217
1.79238
1.7928
1.79343
1.79424
1.79517
1.7962
1.79727
1.79831
1.79929
1.80014
1.80081
1.80129
1.80153
1.90754
1.90775
1.90817
1.90881
1.90969
1.9108
1.91217
1.9138
1.91567
1.91779
1.92014
1.92269
1.92544
1.92834
1.9314
1.93459
1.93792
1.94139
1.945
1.94878
1.95273
1.9569
1.96128
1.96588
1.97072
1.97577
1.98101
1.9864
1.9919
1.99746
2.00301
2.0085
2.01387
2.01906
2.02402
2.0287
2.03305
2.03706
2.04067
2.04386
2.04661
2.04891
2.05073
2.05206
2.05289
2.05322
2.05303
2.05233
2.05111
2.04937
2.0471
2.04431
2.04101
2.0372
2.03288
2.02806
2.02276
2.01699
2.01077
2.00413
1.99708
1.98967
1.98194
1.97393
1.9657
1.95732
1.94885
1.94037
1.93198
1.92375
1.91578
1.90816
1.90096
1.89425
1.88808
1.88249
1.87747
1.87303
1.86911
1.86567
1.86265
1.85996
1.85754
1.8553
1.85318
1.85112
1.84906
1.84697
1.84482
1.84262
1.84034
1.83802
1.83567
1.83333
1.83102
1.82878
1.82666
1.82467
1.82285
1.82122
1.8198
1.81858
1.81759
1.81682
1.81627
1.81594
1.81582
1.81591
1.81619
1.81664
1.81723
1.81794
1.81873
1.81955
1.82036
1.82111
1.82177
1.8223
1.82267
1.82286
1.93061
1.93082
1.93123
1.93186
1.93271
1.93378
1.93509
1.93663
1.9384
1.94039
1.94259
1.94499
1.94757
1.95031
1.9532
1.95624
1.95941
1.96273
1.9662
1.96982
1.97361
1.97758
1.98173
1.98607
1.9906
1.9953
2.00015
2.00512
2.01017
2.01525
2.02031
2.02531
2.03019
2.03491
2.03942
2.04368
2.04764
2.05128
2.05456
2.05745
2.05995
2.06202
2.06364
2.06482
2.06553
2.06577
2.06553
2.06481
2.06361
2.06191
2.05973
2.05707
2.05392
2.0503
2.04621
2.04166
2.03667
2.03125
2.02542
2.0192
2.01262
2.00572
1.99854
1.99111
1.9835
1.97575
1.96794
1.96013
1.95239
1.9448
1.93743
1.93036
1.92365
1.91735
1.91151
1.90614
1.90127
1.89687
1.89293
1.8894
1.88623
1.88337
1.88076
1.87833
1.87603
1.87382
1.87164
1.86947
1.86729
1.86509
1.86286
1.86062
1.85837
1.85615
1.85398
1.85188
1.84989
1.84802
1.8463
1.84475
1.84339
1.84221
1.84123
1.84045
1.83986
1.83947
1.83927
1.83925
1.8394
1.83969
1.84011
1.84063
1.84122
1.84183
1.84245
1.84303
1.84353
1.84394
1.84423
1.84437
1.95348
1.95368
1.95408
1.95469
1.9555
1.95653
1.95778
1.95924
1.96091
1.96278
1.96485
1.9671
1.96953
1.97212
1.97486
1.97774
1.98077
1.98393
1.98724
1.99069
1.9943
1.99807
2.00199
2.00608
2.01031
2.01469
2.01918
2.02376
2.02839
2.03305
2.03767
2.04223
2.04668
2.05098
2.05508
2.05895
2.06255
2.06585
2.06883
2.07145
2.0737
2.07556
2.07701
2.07804
2.07864
2.0788
2.07852
2.07778
2.07659
2.07495
2.07285
2.0703
2.06731
2.06387
2.06
2.05571
2.05101
2.04591
2.04045
2.03463
2.02849
2.02206
2.01538
2.00849
2.00143
1.99426
1.98703
1.9798
1.97265
1.96562
1.95878
1.9522
1.94592
1.94
1.93445
1.92931
1.92458
1.92026
1.91633
1.91276
1.90951
1.90653
1.90379
1.90123
1.8988
1.89647
1.89421
1.89198
1.88978
1.88758
1.88539
1.88321
1.88105
1.87892
1.87686
1.87487
1.87299
1.87122
1.86959
1.8681
1.86679
1.86564
1.86467
1.86387
1.86326
1.86281
1.86254
1.86242
1.86246
1.86262
1.86289
1.86325
1.86367
1.86412
1.86458
1.86502
1.8654
1.86571
1.86592
1.86603
1.97614
1.97633
1.97672
1.9773
1.97808
1.97907
1.98025
1.98163
1.9832
1.98497
1.98692
1.98904
1.99133
1.99378
1.99637
1.9991
2.00198
2.00498
2.00813
2.01141
2.01483
2.0184
2.0221
2.02593
2.02989
2.03396
2.03812
2.04234
2.0466
2.05087
2.0551
2.05927
2.06333
2.06724
2.07097
2.07449
2.07776
2.08076
2.08345
2.08582
2.08785
2.08951
2.0908
2.09169
2.09219
2.09228
2.09195
2.0912
2.09003
2.08844
2.08642
2.08398
2.08113
2.07787
2.07421
2.07016
2.06574
2.06095
2.05582
2.05038
2.04465
2.03865
2.03243
2.02602
2.01947
2.01281
2.00611
1.99941
1.99277
1.98625
1.97988
1.97374
1.96785
1.96226
1.95699
1.95206
1.94749
1.94327
1.93938
1.9358
1.93251
1.92947
1.92664
1.92398
1.92147
1.91907
1.91674
1.91448
1.91226
1.91006
1.9079
1.90577
1.90368
1.90164
1.89966
1.89777
1.89597
1.89428
1.89272
1.89129
1.89001
1.88889
1.88793
1.88712
1.88648
1.88599
1.88565
1.88545
1.88538
1.88543
1.88558
1.88581
1.88609
1.88641
1.88674
1.88705
1.88733
1.88756
1.88772
1.88781
1.99861
1.99879
1.99916
1.99972
2.00046
2.0014
2.00252
2.00382
2.00531
2.00698
2.00882
2.01082
2.01298
2.01529
2.01774
2.02033
2.02305
2.0259
2.02888
2.03199
2.03523
2.03859
2.04206
2.04566
2.04935
2.05313
2.05699
2.06089
2.06481
2.06873
2.0726
2.07641
2.08011
2.08368
2.08708
2.09027
2.09324
2.09596
2.0984
2.10054
2.10236
2.10384
2.10497
2.10575
2.10615
2.10617
2.1058
2.10504
2.10389
2.10235
2.10041
2.09808
2.09537
2.09228
2.08881
2.08499
2.08082
2.07633
2.07152
2.06642
2.06106
2.05547
2.04967
2.0437
2.0376
2.03142
2.02519
2.01897
2.01279
2.00671
2.00077
1.99501
1.98948
1.98419
1.97918
1.97447
1.97005
1.96593
1.96211
1.95855
1.95526
1.95218
1.94931
1.9466
1.94403
1.94158
1.93922
1.93693
1.9347
1.93252
1.93039
1.9283
1.92627
1.92429
1.92239
1.92056
1.91884
1.91721
1.91571
1.91433
1.91309
1.91198
1.91102
1.91021
1.90954
1.90901
1.90861
1.90835
1.90819
1.90815
1.90819
1.90831
1.90848
1.90868
1.90891
1.90912
1.90932
1.90948
1.9096
1.90966
2.02089
2.02106
2.02142
2.02195
2.02266
2.02354
2.0246
2.02584
2.02724
2.02881
2.03055
2.03243
2.03447
2.03665
2.03897
2.04142
2.04399
2.04669
2.04951
2.05244
2.05549
2.05865
2.06192
2.06528
2.06872
2.07224
2.07581
2.07941
2.08302
2.08662
2.09017
2.09365
2.09703
2.10029
2.10338
2.10629
2.10898
2.11144
2.11364
2.11557
2.1172
2.11852
2.11951
2.12017
2.12048
2.12044
2.12004
2.11927
2.11814
2.11665
2.11479
2.11256
2.10998
2.10705
2.10377
2.10017
2.09624
2.09201
2.0875
2.08273
2.07771
2.07248
2.06707
2.06151
2.05583
2.05007
2.04427
2.03847
2.03271
2.02703
2.02147
2.01607
2.01085
2.00585
2.00108
1.99657
1.99231
1.98831
1.98456
1.98106
1.97778
1.9747
1.97181
1.96908
1.96648
1.964
1.96162
1.95932
1.95709
1.95493
1.95282
1.95078
1.94879
1.94687
1.94503
1.94327
1.9416
1.94003
1.93857
1.93723
1.93602
1.93493
1.93398
1.93315
1.93246
1.93189
1.93145
1.93112
1.9309
1.93077
1.93073
1.93075
1.93083
1.93094
1.93108
1.93121
1.93134
1.93145
1.93153
1.93157
2.04299
2.04316
2.0435
2.044
2.04467
2.04551
2.04651
2.04768
2.049
2.05049
2.05212
2.0539
2.05582
2.05788
2.06007
2.06238
2.06481
2.06736
2.07002
2.07278
2.07565
2.07862
2.08168
2.08481
2.08802
2.09129
2.09459
2.09792
2.10125
2.10455
2.10781
2.111
2.11409
2.11705
2.11987
2.12251
2.12495
2.12718
2.12917
2.1309
2.13235
2.13352
2.13438
2.13494
2.13517
2.13507
2.13464
2.13387
2.13276
2.13131
2.12952
2.1274
2.12494
2.12216
2.11906
2.11566
2.11196
2.10798
2.10375
2.09927
2.09457
2.08968
2.08463
2.07943
2.07413
2.06876
2.06334
2.05793
2.05254
2.04723
2.04201
2.03693
2.03201
2.02727
2.02273
2.01841
2.01431
2.01043
2.00677
2.00333
2.00009
1.99703
1.99415
1.99141
1.98881
1.98632
1.98394
1.98164
1.97942
1.97728
1.9752
1.97319
1.97125
1.96938
1.96758
1.96587
1.96426
1.96273
1.96132
1.96001
1.95882
1.95775
1.9568
1.95597
1.95525
1.95466
1.95417
1.95379
1.95351
1.95332
1.9532
1.95314
1.95314
1.95318
1.95324
1.95331
1.95339
1.95345
1.9535
1.95353
2.06493
2.06509
2.06541
2.06588
2.06652
2.06731
2.06826
2.06936
2.07061
2.07201
2.07355
2.07522
2.07704
2.07898
2.08104
2.08322
2.08551
2.08791
2.09041
2.09302
2.09571
2.09849
2.10135
2.10428
2.10727
2.1103
2.11336
2.11643
2.1195
2.12253
2.12552
2.12844
2.13126
2.13396
2.13653
2.13893
2.14114
2.14316
2.14495
2.1465
2.14779
2.14882
2.14957
2.15003
2.15019
2.15004
2.14958
2.14881
2.14772
2.14632
2.1446
2.14257
2.14023
2.13759
2.13466
2.13144
2.12796
2.12421
2.12023
2.11603
2.11163
2.10705
2.10232
2.09746
2.0925
2.08748
2.08242
2.07735
2.07231
2.06733
2.06243
2.05764
2.05298
2.04849
2.04416
2.04003
2.03608
2.03233
2.02877
2.02541
2.02222
2.0192
2.01634
2.01361
2.01102
2.00854
2.00617
2.00388
2.00168
1.99956
1.99751
1.99553
1.99363
1.9918
1.99005
1.98839
1.98682
1.98533
1.98395
1.98268
1.98151
1.98045
1.9795
1.97866
1.97793
1.97731
1.97679
1.97637
1.97603
1.97578
1.9756
1.97548
1.97542
1.97539
1.97539
1.97541
1.97544
1.97547
1.97549
1.9755
2.0867
2.08685
2.08716
2.08761
2.08821
2.08895
2.08985
2.09089
2.09207
2.09338
2.09483
2.09642
2.09812
2.09995
2.10189
2.10394
2.1061
2.10836
2.11071
2.11316
2.11568
2.11829
2.12096
2.12369
2.12646
2.12928
2.13211
2.13495
2.13777
2.14056
2.1433
2.14597
2.14855
2.15102
2.15335
2.15553
2.15754
2.15935
2.16096
2.16235
2.1635
2.1644
2.16504
2.16541
2.16551
2.16532
2.16484
2.16406
2.163
2.16164
2.15999
2.15804
2.15581
2.15331
2.15053
2.14749
2.14421
2.14068
2.13694
2.13299
2.12886
2.12457
2.12014
2.11559
2.11095
2.10624
2.1015
2.09675
2.09202
2.08734
2.08272
2.07821
2.0738
2.06953
2.06541
2.06145
2.05766
2.05404
2.05058
2.0473
2.04418
2.04121
2.03838
2.03569
2.03312
2.03066
2.0283
2.02604
2.02386
2.02176
2.01975
2.0178
2.01594
2.01415
2.01244
2.01082
2.00928
2.00783
2.00648
2.00523
2.00408
2.00303
2.00208
2.00124
2.0005
1.99985
1.99931
1.99885
1.99847
1.99817
1.99794
1.99777
1.99765
1.99757
1.99752
1.9975
1.99749
1.99749
1.99749
1.99749
2.10833
2.10847
2.10875
2.10918
2.10975
2.11045
2.11129
2.11227
2.11338
2.11463
2.11599
2.11748
2.11909
2.12081
2.12263
2.12456
2.12659
2.12871
2.13092
2.13322
2.13558
2.13801
2.14051
2.14305
2.14563
2.14823
2.15085
2.15347
2.15607
2.15864
2.16116
2.1636
2.16596
2.1682
2.17033
2.1723
2.17412
2.17576
2.1772
2.17844
2.17946
2.18024
2.18078
2.18108
2.18111
2.18088
2.18038
2.17961
2.17857
2.17725
2.17566
2.1738
2.17168
2.1693
2.16667
2.1638
2.16069
2.15737
2.15385
2.15014
2.14626
2.14223
2.13807
2.1338
2.12945
2.12504
2.12059
2.11613
2.11169
2.10728
2.10293
2.09866
2.09449
2.09043
2.0865
2.08271
2.07906
2.07557
2.07223
2.06903
2.06598
2.06307
2.06029
2.05764
2.0551
2.05267
2.05034
2.04811
2.04596
2.04389
2.0419
2.04
2.03817
2.03641
2.03474
2.03316
2.03165
2.03024
2.02891
2.02768
2.02655
2.02551
2.02457
2.02372
2.02297
2.02231
2.02173
2.02124
2.02083
2.0205
2.02022
2.02001
2.01984
2.01972
2.01963
2.01957
2.01953
2.0195
2.01949
2.01948
2.12981
2.12994
2.13021
2.13061
2.13115
2.13181
2.13261
2.13353
2.13457
2.13574
2.13703
2.13843
2.13994
2.14155
2.14327
2.14508
2.14699
2.14898
2.15105
2.1532
2.15541
2.15768
2.16
2.16237
2.16476
2.16718
2.1696
2.17202
2.17441
2.17677
2.17908
2.18132
2.18347
2.18552
2.18744
2.18924
2.19088
2.19235
2.19365
2.19475
2.19564
2.19632
2.19678
2.197
2.19698
2.19671
2.1962
2.19543
2.19441
2.19313
2.1916
2.18982
2.1878
2.18554
2.18304
2.18033
2.1774
2.17426
2.17095
2.16745
2.1638
2.16002
2.15611
2.1521
2.14802
2.14387
2.13969
2.1355
2.13131
2.12716
2.12305
2.11901
2.11505
2.11119
2.10745
2.10382
2.10032
2.09695
2.09372
2.09062
2.08765
2.0848
2.08208
2.07947
2.07698
2.07459
2.07229
2.07009
2.06797
2.06594
2.06398
2.06211
2.06031
2.0586
2.05696
2.05541
2.05394
2.05255
2.05125
2.05004
2.04892
2.04789
2.04695
2.0461
2.04534
2.04467
2.04408
2.04356
2.04312
2.04275
2.04244
2.04219
2.04199
2.04183
2.04171
2.04162
2.04155
2.04151
2.04148
2.04147
2.15115
2.15128
2.15153
2.15191
2.15241
2.15304
2.15379
2.15466
2.15564
2.15674
2.15795
2.15926
2.16068
2.1622
2.16381
2.16551
2.1673
2.16917
2.1711
2.17311
2.17518
2.17729
2.17946
2.18165
2.18388
2.18611
2.18835
2.19058
2.19279
2.19495
2.19707
2.19912
2.20108
2.20295
2.2047
2.20632
2.2078
2.20913
2.21029
2.21126
2.21205
2.21263
2.213
2.21316
2.21309
2.21279
2.21227
2.2115
2.2105
2.20926
2.20779
2.20609
2.20416
2.20201
2.19964
2.19707
2.1943
2.19134
2.18821
2.18492
2.18149
2.17792
2.17425
2.17048
2.16664
2.16274
2.15881
2.15486
2.15091
2.14699
2.14311
2.13928
2.13552
2.13185
2.12827
2.1248
2.12144
2.1182
2.11507
2.11207
2.10918
2.10641
2.10375
2.1012
2.09875
2.0964
2.09415
2.09198
2.0899
2.0879
2.08598
2.08414
2.08238
2.0807
2.0791
2.07758
2.07613
2.07477
2.0735
2.07231
2.0712
2.07018
2.06925
2.0684
2.06763
2.06695
2.06634
2.06581
2.06534
2.06495
2.06461
2.06433
2.0641
2.06391
2.06376
2.06364
2.06356
2.06349
2.06346
2.06344
2.17237
2.17249
2.17273
2.17308
2.17356
2.17415
2.17485
2.17567
2.17659
2.17762
2.17876
2.17999
2.18133
2.18275
2.18426
2.18586
2.18753
2.18928
2.19109
2.19296
2.19489
2.19686
2.19887
2.20091
2.20297
2.20505
2.20711
2.20917
2.2112
2.21319
2.21513
2.217
2.21879
2.22049
2.22208
2.22355
2.22488
2.22607
2.2271
2.22797
2.22865
2.22915
2.22945
2.22954
2.22943
2.22911
2.22857
2.22781
2.22683
2.22563
2.22422
2.22259
2.22074
2.2187
2.21645
2.21401
2.21139
2.20859
2.20564
2.20254
2.1993
2.19594
2.19248
2.18893
2.18531
2.18164
2.17794
2.17421
2.17049
2.16678
2.1631
2.15947
2.1559
2.15241
2.149
2.14567
2.14245
2.13933
2.13631
2.1334
2.1306
2.1279
2.12531
2.12282
2.12042
2.11812
2.11591
2.11379
2.11174
2.10978
2.1079
2.1061
2.10437
2.10273
2.10116
2.09966
2.09825
2.09691
2.09566
2.09449
2.0934
2.09239
2.09146
2.09061
2.08984
2.08915
2.08853
2.08798
2.0875
2.08708
2.08672
2.08641
2.08616
2.08594
2.08577
2.08564
2.08553
2.08546
2.08541
2.08539
2.19347
2.19358
2.19381
2.19414
2.19459
2.19514
2.1958
2.19657
2.19743
2.1984
2.19947
2.20063
2.20188
2.20321
2.20463
2.20612
2.20769
2.20932
2.21101
2.21276
2.21456
2.21639
2.21826
2.22015
2.22206
2.22398
2.22589
2.22778
2.22965
2.23147
2.23325
2.23496
2.2366
2.23814
2.23958
2.24091
2.24211
2.24318
2.24409
2.24485
2.24544
2.24586
2.24609
2.24613
2.24598
2.24564
2.24509
2.24433
2.24338
2.24222
2.24085
2.23929
2.23753
2.23558
2.23344
2.23113
2.22865
2.226
2.22321
2.22028
2.21723
2.21406
2.2108
2.20745
2.20404
2.20058
2.19708
2.19357
2.19004
2.18654
2.18305
2.17961
2.17621
2.17288
2.16962
2.16644
2.16335
2.16035
2.15744
2.15463
2.15191
2.14929
2.14677
2.14434
2.142
2.13975
2.13759
2.13551
2.13351
2.13159
2.12974
2.12798
2.12629
2.12467
2.12313
2.12167
2.12028
2.11897
2.11774
2.11659
2.11551
2.11451
2.11359
2.11274
2.11197
2.11127
2.11064
2.11008
2.10959
2.10915
2.10877
2.10845
2.10817
2.10794
2.10775
2.1076
2.10748
2.10739
2.10734
2.10731
2.21446
2.21456
2.21477
2.21509
2.2155
2.21602
2.21664
2.21736
2.21818
2.21909
2.22008
2.22117
2.22234
2.22359
2.22492
2.22631
2.22778
2.2293
2.23088
2.23251
2.23418
2.23589
2.23762
2.23938
2.24115
2.24292
2.24468
2.24642
2.24814
2.24981
2.25144
2.253
2.25449
2.25589
2.2572
2.2584
2.25947
2.26042
2.26124
2.2619
2.26241
2.26275
2.26292
2.26292
2.26273
2.26237
2.26181
2.26106
2.26013
2.259
2.25769
2.25619
2.25451
2.25265
2.25062
2.24842
2.24607
2.24356
2.24092
2.23815
2.23527
2.23228
2.2292
2.22604
2.22282
2.21955
2.21625
2.21292
2.20959
2.20627
2.20296
2.19969
2.19646
2.19329
2.19017
2.18713
2.18416
2.18128
2.17847
2.17576
2.17313
2.17059
2.16814
2.16577
2.16349
2.1613
2.15918
2.15715
2.15519
2.15331
2.15151
2.14978
2.14812
2.14654
2.14503
2.1436
2.14224
2.14095
2.13974
2.13861
2.13754
2.13656
2.13564
2.1348
2.13403
2.13333
2.13269
2.13212
2.13162
2.13117
2.13077
2.13043
2.13014
2.12989
2.12969
2.12952
2.12939
2.1293
2.12924
2.12921
2.23534
2.23543
2.23563
2.23593
2.23632
2.23681
2.23739
2.23806
2.23883
2.23968
2.24061
2.24163
2.24273
2.24389
2.24513
2.24644
2.24781
2.24923
2.2507
2.25222
2.25377
2.25536
2.25697
2.25859
2.26023
2.26186
2.26348
2.26509
2.26666
2.2682
2.26968
2.27111
2.27247
2.27374
2.27492
2.276
2.27697
2.27781
2.27853
2.2791
2.27953
2.27981
2.27993
2.27988
2.27967
2.27928
2.27872
2.27798
2.27707
2.27598
2.27471
2.27327
2.27166
2.26989
2.26795
2.26587
2.26363
2.26126
2.25876
2.25614
2.25341
2.25059
2.24768
2.24469
2.24165
2.23856
2.23543
2.23228
2.22913
2.22598
2.22284
2.21973
2.21665
2.21363
2.21065
2.20774
2.20489
2.20212
2.19942
2.1968
2.19426
2.19179
2.18942
2.18712
2.1849
2.18276
2.18069
2.17871
2.1768
2.17496
2.17319