/*--------------------------------*- C++ -*----------------------------------*\
| =========                 |                                                 |
| \\      /  F ield         | OpenFOAM: The Open Source CFD Toolbox           |
|  \\    /   O peration     | Version:  2406                                  |
|   \\  /    A nd           | Website:  www.openfoam.com                      |
|    \\/     M anipulation  |                                                 |
\*---------------------------------------------------------------------------*/
FoamFile
{
    version     2.0;
    format      ascii;
    arch        "LSB;label=32;scalar=64";
    class       volScalarField;
    location    "2";
    object      C_0_0;
}
// * * * * * * * * * * * * * * * * * * * * * * * * * * * * * * * * * * * * * //

dimensions      [1 -3 0 0 0 0 0];

internalField   nonuniform List<scalar> 
14400
(
1.60656
1.60059
1.588
1.56227
1.52222
1.48525
1.46269
1.4577
1.47115
1.50223
1.54773
1.59551
1.62759
1.64632
1.65935
1.66741
1.67081
1.66946
1.6629
1.65008
1.62342
1.58411
1.5509
1.53369
1.53562
1.55754
1.59867
1.65574
1.71723
1.76153
1.79065
1.81551
1.83701
1.85574
1.87215
1.88654
1.89916
1.9102
1.91979
1.92805
1.93506
1.94091
1.94564
1.94931
1.95194
1.95356
1.95421
1.95387
1.95257
1.95031
1.94707
1.94285
1.93763
1.93138
1.92407
1.91566
1.9061
1.89533
1.88328
1.86984
1.85492
1.83837
1.82003
1.79967
1.77702
1.75173
1.72332
1.69117
1.65397
1.59621
1.51716
1.44468
1.38584
1.34293
1.31686
1.30788
1.31585
1.34025
1.37992
1.43244
1.49101
1.53289
1.55655
1.57411
1.58679
1.59528
1.60003
1.60127
1.59908
1.5934
1.584
1.57043
1.5519
1.52246
1.47681
1.43032
1.39732
1.38088
1.38165
1.39867
1.42872
1.45969
1.47595
1.48012
1.47558
1.45897
1.42752
1.3968
1.37909
1.37764
1.39342
1.4258
1.47175
1.51694
1.5461
1.56459
1.57829
1.58802
1.59427
1.59734
1.61252
1.60722
1.59623
1.57803
1.54624
1.50866
1.4847
1.47925
1.49322
1.52571
1.57172
1.61045
1.63473
1.65203
1.6643
1.67207
1.67555
1.67468
1.66915
1.6583
1.6401
1.60872
1.57447
1.55585
1.55735
1.57991
1.62262
1.68075
1.73189
1.76699
1.79488
1.81888
1.83977
1.85807
1.87415
1.88831
1.90075
1.91164
1.92112
1.92929
1.93623
1.94202
1.94671
1.95034
1.95294
1.95455
1.95518
1.95484
1.95354
1.95128
1.94805
1.94385
1.93865
1.93243
1.92517
1.91681
1.90731
1.89662
1.88465
1.87133
1.85655
1.84017
1.82204
1.80195
1.77966
1.75484
1.72706
1.69575
1.66007
1.61278
1.54355
1.46901
1.40868
1.3648
1.33825
1.32922
1.33757
1.36286
1.40388
1.45819
1.50862
1.54069
1.56251
1.57898
1.59097
1.59904
1.60354
1.60469
1.60256
1.59712
1.58817
1.57539
1.55822
1.53527
1.49869
1.45265
1.41861
1.40177
1.40307
1.42139
1.45168
1.47501
1.48559
1.48884
1.48516
1.47418
1.45039
1.41945
1.40044
1.39843
1.41457
1.44794
1.49339
1.52956
1.55227
1.56939
1.58226
1.5915
1.59746
1.6004
1.62378
1.61953
1.61096
1.5981
1.57982
1.55278
1.52692
1.5208
1.53553
1.56984
1.60423
1.6289
1.64784
1.66275
1.67377
1.68103
1.68464
1.68457
1.6807
1.67288
1.66103
1.64359
1.61866
1.59829
1.5992
1.62269
1.66705
1.7132
1.74881
1.77763
1.803
1.82537
1.84512
1.86261
1.87809
1.89179
1.90388
1.9145
1.92376
1.93175
1.93856
1.94423
1.94883
1.95239
1.95494
1.95651
1.95712
1.95676
1.95546
1.95322
1.95001
1.94585
1.9407
1.93454
1.92735
1.91909
1.90972
1.89917
1.88739
1.87428
1.85977
1.84372
1.826
1.80645
1.78483
1.76091
1.73433
1.7047
1.67147
1.63394
1.58281
1.51415
1.45323
1.40791
1.38062
1.3715
1.38039
1.40703
1.44866
1.49709
1.53165
1.55506
1.57381
1.58834
1.59907
1.60635
1.6104
1.61139
1.60937
1.60433
1.59618
1.58475
1.56983
1.55123
1.52808
1.49503
1.45947
1.442
1.44415
1.46447
1.48437
1.49563
1.50236
1.50449
1.50186
1.49463
1.48287
1.4624
1.44137
1.43845
1.45518
1.49
1.52249
1.54525
1.56361
1.57841
1.58987
1.59823
1.60369
1.60639
1.63931
1.63615
1.62996
1.62115
1.61065
1.59835
1.58347
1.57813
1.59211
1.61449
1.63333
1.65003
1.66497
1.67738
1.68697
1.69365
1.69741
1.69825
1.69622
1.69148
1.68444
1.67615
1.66612
1.65551
1.65693
1.68014
1.71244
1.74131
1.76723
1.7917
1.81413
1.83446
1.85275
1.86915
1.88382
1.89689
1.90849
1.91871
1.92766
1.93541
1.94201
1.94753
1.95199
1.95545
1.95793
1.95944
1.96001
1.95964
1.95834
1.95611
1.95294
1.94882
1.94374
1.93768
1.93061
1.9225
1.9133
1.90296
1.89144
1.87865
1.86452
1.84894
1.83181
1.81299
1.79232
1.76961
1.74467
1.71725
1.68716
1.6543
1.61901
1.5726
1.51722
1.47072
1.44295
1.43369
1.44275
1.4705
1.50597
1.53531
1.55587
1.57408
1.58933
1.60149
1.61063
1.61688
1.62034
1.62109
1.61919
1.61466
1.60746
1.59761
1.58512
1.57021
1.5535
1.53542
1.51288
1.497
1.49792
1.50761
1.51426
1.5199
1.52374
1.52491
1.52316
1.51873
1.51249
1.50524
1.49486
1.49312
1.50816
1.53001
1.54758
1.5639
1.5785
1.59079
1.60058
1.60787
1.61268
1.61508
1.65799
1.65579
1.6516
1.6459
1.63959
1.63415
1.63101
1.63062
1.63859
1.6486
1.66046
1.67291
1.68463
1.69483
1.70309
1.70919
1.71308
1.71479
1.71446
1.71237
1.70911
1.70573
1.70392
1.70506
1.71088
1.72706
1.7457
1.76599
1.7871
1.80779
1.82738
1.84557
1.86225
1.87742
1.89114
1.90346
1.91446
1.92421
1.93277
1.9402
1.94655
1.95186
1.95617
1.9595
1.96187
1.96331
1.96383
1.96344
1.96214
1.95993
1.95681
1.95276
1.94777
1.94183
1.93491
1.92698
1.91801
1.90794
1.89675
1.88436
1.8707
1.85572
1.83931
1.82138
1.80184
1.78057
1.75747
1.73248
1.70561
1.67705
1.64733
1.61744
1.58293
1.54758
1.52175
1.51243
1.51905
1.53571
1.55328
1.56774
1.58241
1.59606
1.60793
1.61766
1.62509
1.63019
1.63297
1.63345
1.63166
1.62763
1.62141
1.61309
1.60283
1.591
1.57828
1.56579
1.55506
1.54561
1.54255
1.54178
1.54351
1.54596
1.54779
1.54825
1.54712
1.54463
1.5415
1.53906
1.53908
1.54135
1.55001
1.56009
1.57201
1.58427
1.5957
1.60566
1.6138
1.61997
1.62409
1.62616
1.67886
1.67742
1.67475
1.67126
1.66767
1.66498
1.6643
1.6665
1.67102
1.67813
1.68699
1.69652
1.70582
1.71423
1.72134
1.72694
1.73094
1.73339
1.73444
1.73443
1.73391
1.73375
1.73509
1.73932
1.7475
1.75884
1.7733
1.78986
1.80738
1.82498
1.84204
1.8582
1.87327
1.88716
1.89985
1.91134
1.92168
1.93089
1.93901
1.94608
1.95213
1.9572
1.96131
1.96449
1.96675
1.96811
1.96857
1.96815
1.96685
1.96467
1.9616
1.95763
1.95276
1.94696
1.94022
1.93251
1.9238
1.91406
1.90325
1.89132
1.87823
1.86391
1.84832
1.8314
1.81308
1.79334
1.77216
1.74958
1.72574
1.70096
1.67579
1.65113
1.62826
1.60729
1.58972
1.58053
1.58021
1.58405
1.59076
1.59993
1.60998
1.61981
1.62867
1.63612
1.64188
1.64583
1.6479
1.64807
1.64636
1.6428
1.63747
1.6305
1.62212
1.6127
1.6028
1.59324
1.58494
1.57862
1.57423
1.57226
1.57205
1.57264
1.57319
1.57319
1.57245
1.57116
1.56983
1.56927
1.57044
1.57403
1.57959
1.5872
1.59612
1.60545
1.61438
1.62235
1.629
1.63411
1.63756
1.6393
1.70118
1.7003
1.6987
1.69672
1.69487
1.69379
1.69412
1.69629
1.70025
1.70593
1.71284
1.72037
1.72789
1.73492
1.74112
1.74629
1.75036
1.75337
1.75548
1.75699
1.75837
1.76024
1.76339
1.76859
1.77633
1.78648
1.79882
1.81276
1.82759
1.8427
1.85759
1.87192
1.88546
1.89809
1.90975
1.92039
1.93002
1.93865
1.94629
1.95297
1.9587
1.9635
1.96739
1.9704
1.97253
1.97379
1.9742
1.97375
1.97245
1.9703
1.96729
1.96341
1.95867
1.95304
1.9465
1.93904
1.93063
1.92125
1.91087
1.89945
1.88697
1.87339
1.85867
1.8428
1.82576
1.80756
1.78825
1.76793
1.74682
1.72525
1.70373
1.683
1.66396
1.64763
1.63498
1.62649
1.62239
1.62246
1.62577
1.63123
1.63777
1.64453
1.65084
1.65626
1.66049
1.66335
1.66473
1.66458
1.6629
1.65974
1.65516
1.64932
1.64244
1.63485
1.627
1.61943
1.61273
1.60733
1.60337
1.60097
1.5998
1.59935
1.59915
1.59885
1.59834
1.59774
1.59738
1.59773
1.59931
1.60243
1.60704
1.61298
1.61984
1.62703
1.63402
1.64036
1.64572
1.6499
1.65275
1.65419
1.72437
1.72388
1.72302
1.72204
1.72129
1.72118
1.7221
1.72429
1.72778
1.73248
1.73809
1.74422
1.75045
1.75644
1.76192
1.76674
1.77084
1.77425
1.77711
1.77969
1.78232
1.78547
1.78965
1.79531
1.80274
1.81194
1.82273
1.83475
1.84754
1.86065
1.87371
1.88642
1.89856
1.91001
1.92065
1.93045
1.93937
1.9474
1.95454
1.9608
1.96618
1.9707
1.97437
1.97719
1.97917
1.98033
1.98067
1.98019
1.97889
1.97678
1.97384
1.97007
1.96546
1.96001
1.9537
1.94651
1.93843
1.92944
1.91952
1.90865
1.89681
1.88399
1.87017
1.85537
1.83959
1.82288
1.80533
1.78709
1.76836
1.74948
1.73089
1.71316
1.69696
1.68298
1.67182
1.66386
1.6592
1.65764
1.65862
1.66144
1.66535
1.66968
1.6739
1.67759
1.68047
1.68234
1.68308
1.68262
1.68094
1.67808
1.67412
1.66918
1.66348
1.65727
1.65091
1.64476
1.63922
1.63458
1.63098
1.62844
1.62682
1.62583
1.62519
1.62472
1.62433
1.62409
1.62421
1.62496
1.62662
1.62935
1.63314
1.63786
1.64321
1.64882
1.65431
1.65934
1.66364
1.66702
1.66934
1.67052
1.74806
1.74784
1.74747
1.74714
1.74708
1.74756
1.7488
1.75097
1.75411
1.75812
1.76282
1.76796
1.77326
1.77846
1.78339
1.78792
1.792
1.79567
1.79905
1.80232
1.80575
1.80967
1.81441
1.82025
1.82738
1.83581
1.84542
1.85597
1.86715
1.87865
1.89017
1.90147
1.91237
1.92271
1.93241
1.94139
1.94961
1.95704
1.96368
1.96951
1.97454
1.97876
1.98218
1.98481
1.98664
1.9877
1.98797
1.98745
1.98616
1.98408
1.98121
1.97756
1.9731
1.96785
1.96177
1.95487
1.94714
1.93856
1.92912
1.91881
1.90764
1.89558
1.88267
1.86891
1.85435
1.83905
1.82312
1.80672
1.79005
1.77342
1.75719
1.7418
1.72774
1.7155
1.70547
1.69792
1.6929
1.69026
1.68965
1.69057
1.6925
1.69495
1.69748
1.69974
1.70147
1.70247
1.70263
1.70186
1.70015
1.69753
1.69404
1.68982
1.68502
1.67986
1.67459
1.66949
1.66482
1.66079
1.65751
1.655
1.6532
1.65194
1.65108
1.6505
1.65015
1.65009
1.65041
1.65129
1.65286
1.65521
1.65833
1.6621
1.66631
1.67072
1.67505
1.67904
1.68248
1.68519
1.68707
1.68802
1.77198
1.77192
1.77188
1.77197
1.77233
1.77315
1.77458
1.7767
1.77955
1.78306
1.78711
1.79154
1.79615
1.80077
1.80526
1.80954
1.81357
1.81739
1.82108
1.82478
1.8287
1.83306
1.83806
1.84392
1.85073
1.8585
1.86717
1.87655
1.88645
1.89662
1.90685
1.91694
1.92672
1.93607
1.94488
1.95308
1.96063
1.96748
1.97362
1.97902
1.98369
1.98761
1.99079
1.99322
1.9949
1.99584
1.99604
1.99549
1.9942
1.99217
1.98938
1.98584
1.98155
1.97649
1.97067
1.96407
1.9567
1.94854
1.93959
1.92985
1.91933
1.90804
1.896
1.88325
1.86984
1.85585
1.84139
1.82661
1.81172
1.79696
1.78264
1.7691
1.7567
1.7458
1.73666
1.72945
1.72423
1.72087
1.71913
1.71868
1.71914
1.72014
1.72132
1.72241
1.72318
1.72345
1.7231
1.72205
1.72029
1.71782
1.7147
1.71102
1.70691
1.70254
1.6981
1.69378
1.68978
1.68625
1.68327
1.68087
1.67903
1.67766
1.67669
1.67604
1.6757
1.67568
1.67606
1.67691
1.67832
1.68031
1.68286
1.68588
1.68923
1.69271
1.69614
1.6993
1.70204
1.70421
1.70572
1.70649
1.79594
1.796
1.79616
1.79651
1.79713
1.79815
1.79966
1.80171
1.80433
1.80746
1.81104
1.81494
1.81903
1.8232
1.82734
1.8314
1.83536
1.83923
1.84309
1.84704
1.85122
1.85578
1.86088
1.86662
1.8731
1.88031
1.88819
1.89662
1.90547
1.91454
1.92368
1.93271
1.94151
1.94996
1.95796
1.96544
1.97234
1.97864
1.98429
1.98928
1.99359
1.99721
2.00014
2.00237
2.0039
2.00473
2.00486
2.00428
2.00299
2.001
1.9983
1.99489
1.99076
1.98591
1.98034
1.97405
1.96704
1.9593
1.95084
1.94167
1.9318
1.92125
1.91005
1.89825
1.88591
1.87311
1.85997
1.84662
1.83324
1.82006
1.8073
1.79526
1.78418
1.77433
1.7659
1.75901
1.75368
1.74985
1.74733
1.74589
1.74525
1.74513
1.74526
1.74542
1.74539
1.74504
1.74425
1.74296
1.74113
1.73878
1.73593
1.73266
1.72907
1.7253
1.72148
1.71776
1.71428
1.71115
1.70844
1.70618
1.70438
1.70299
1.70197
1.70128
1.70092
1.70089
1.70123
1.70199
1.70319
1.70484
1.70692
1.70934
1.712
1.71477
1.71748
1.71999
1.72216
1.7239
1.7251
1.72571
1.81985
1.81998
1.82026
1.82076
1.82153
1.82265
1.82418
1.82616
1.82858
1.83142
1.83464
1.83814
1.84183
1.84565
1.84951
1.85337
1.85723
1.86109
1.86501
1.86906
1.87335
1.87797
1.88303
1.88861
1.89474
1.90144
1.90865
1.91629
1.92425
1.9324
1.9406
1.94872
1.95665
1.96429
1.97155
1.97836
1.98467
1.99044
1.99562
2.00021
2.00417
2.0075
2.01019
2.01222
2.0136
2.01432
2.01438
2.01377
2.01249
2.01055
2.00793
2.00464
2.00068
1.99604
1.99073
1.98475
1.9781
1.97078
1.9628
1.95419
1.94495
1.93511
1.92471
1.9138
1.90244
1.89072
1.87875
1.86665
1.85458
1.84272
1.83127
1.82044
1.81043
1.80144
1.79359
1.78699
1.78165
1.77751
1.77444
1.77229
1.77083
1.76987
1.76918
1.76859
1.76793
1.76707
1.76592
1.76441
1.76251
1.76022
1.75757
1.75461
1.75142
1.7481
1.74476
1.7415
1.73842
1.73562
1.73315
1.73105
1.72931
1.72794
1.72691
1.7262
1.7258
1.72573
1.72599
1.72662
1.7276
1.72895
1.73062
1.73256
1.73468
1.73687
1.73901
1.741
1.74273
1.74411
1.74507
1.74556
1.84362
1.8438
1.84416
1.84474
1.84559
1.84675
1.84826
1.85015
1.85241
1.85502
1.85795
1.86113
1.86452
1.86805
1.87167
1.87535
1.87909
1.88289
1.8868
1.89086
1.89514
1.89972
1.90467
1.91002
1.91582
1.92205
1.92868
1.93564
1.94285
1.9502
1.95759
1.96492
1.97209
1.979
1.98559
1.99179
1.99754
2.00281
2.00756
2.01176
2.01539
2.01844
2.02089
2.02273
2.02396
2.02457
2.02456
2.02392
2.02266
2.02076
2.01823
2.01507
2.01128
2.00685
2.0018
1.99612
1.98982
1.98292
1.97541
1.96733
1.95869
1.94952
1.93987
1.92978
1.91933
1.90859
1.89765
1.88665
1.8757
1.86497
1.85461
1.84479
1.83567
1.82739
1.82005
1.81372
1.80841
1.80409
1.80065
1.79798
1.79593
1.79433
1.79301
1.79184
1.79066
1.78939
1.78793
1.78624
1.78427
1.78202
1.77951
1.77679
1.7739
1.77093
1.76795
1.76505
1.7623
1.75976
1.7575
1.75554
1.75389
1.75255
1.75152
1.75079
1.75036
1.75023
1.7504
1.75087
1.75166
1.75273
1.75407
1.75561
1.75728
1.75901
1.76071
1.76228
1.76365
1.76474
1.7655
1.76589
1.86723
1.86742
1.86782
1.86845
1.86933
1.8705
1.87197
1.87377
1.87588
1.8783
1.881
1.88393
1.88707
1.89035
1.89376
1.89727
1.90088
1.90459
1.90842
1.91243
1.91664
1.92112
1.92589
1.931
1.93646
1.94226
1.94837
1.95474
1.9613
1.96797
1.97466
1.98129
1.98777
1.99404
2.00002
2.00566
2.0109
2.0157
2.02004
2.02387
2.02719
2.02997
2.03219
2.03385
2.03494
2.03545
2.03537
2.03471
2.03345
2.03161
2.02916
2.02613
2.0225
2.01829
2.01349
2.00811
2.00216
1.99565
1.9886
1.98102
1.97295
1.96442
1.95546
1.94614
1.9365
1.92664
1.91663
1.90659
1.89662
1.88685
1.87742
1.86845
1.86008
1.8524
1.8455
1.83943
1.8342
1.82977
1.82609
1.82307
1.82058
1.8185
1.8167
1.81507
1.8135
1.8119
1.81019
1.80834
1.8063
1.80408
1.80168
1.79913
1.79647
1.79377
1.79107
1.78844
1.78595
1.78364
1.78155
1.77972
1.77815
1.77686
1.77584
1.7751
1.77462
1.77442
1.77449
1.77483
1.77542
1.77626
1.7773
1.77851
1.77983
1.78119
1.78252
1.78376
1.78484
1.7857
1.7863
1.78661
1.89064
1.89084
1.89126
1.8919
1.89279
1.89393
1.89536
1.89706
1.89905
1.90131
1.90381
1.90654
1.90946
1.91254
1.91576
1.9191
1.92256
1.92615
1.92988
1.93378
1.93788
1.9422
1.94678
1.95163
1.95677
1.96217
1.96781
1.97365
1.97964
1.9857
1.99178
1.99779
2.00367
2.00936
2.01479
2.01992
2.02469
2.02907
2.03302
2.03651
2.03953
2.04205
2.04406
2.04554
2.0465
2.04691
2.04677
2.04608
2.04484
2.04304
2.04069
2.03778
2.03432
2.03031
2.02576
2.02067
2.01505
2.00893
2.00231
1.99522
1.98768
1.97974
1.97143
1.9628
1.95391
1.94483
1.93565
1.92645
1.91733
1.90839
1.89976
1.89152
1.88378
1.87663
1.87012
1.8643
1.85917
1.85471
1.85088
1.84761
1.84481
1.84238
1.84022
1.83825
1.83637
1.8345
1.8326
1.83062
1.82853
1.82631
1.82399
1.82157
1.81909
1.81659
1.81411
1.81171
1.80942
1.80729
1.80535
1.80363
1.80213
1.80089
1.79988
1.79913
1.79861
1.79834
1.79832
1.79852
1.79895
1.79957
1.80037
1.80131
1.80233
1.80339
1.80444
1.80541
1.80625
1.80693
1.8074
1.80764
1.91384
1.91405
1.91447
1.91511
1.91598
1.91709
1.91846
1.92008
1.92195
1.92406
1.9264
1.92895
1.93168
1.93458
1.93763
1.94081
1.94413
1.94758
1.95118
1.95494
1.95888
1.96303
1.96739
1.97198
1.9768
1.98183
1.98705
1.99242
1.9979
2.00343
2.00896
2.01443
2.01977
2.02494
2.02987
2.03453
2.03887
2.04285
2.04645
2.04962
2.05236
2.05464
2.05645
2.05777
2.05859
2.05891
2.05872
2.05801
2.05678
2.05504
2.05277
2.04998
2.04668
2.04287
2.03856
2.03375
2.02846
2.0227
2.01649
2.00985
2.00282
1.99543
1.98771
1.97972
1.9715
1.96314
1.95469
1.94623
1.93785
1.92964
1.92169
1.91408
1.9069
1.9002
1.89405
1.88847
1.88346
1.87902
1.87512
1.87169
1.86867
1.86599
1.86357
1.86133
1.85921
1.85715
1.85509
1.85301
1.85087
1.84866
1.84639
1.84408
1.84173
1.83939
1.83708
1.83485
1.83273
1.83074
1.82893
1.8273
1.82588
1.82467
1.82368
1.82291
1.82236
1.82203
1.82191
1.82199
1.82227
1.82271
1.82331
1.82401
1.8248
1.82561
1.82642
1.82717
1.82783
1.82836
1.82872
1.82891
1.93684
1.93705
1.93746
1.93808
1.93893
1.94
1.94131
1.94284
1.9446
1.94659
1.94878
1.95117
1.95374
1.95647
1.95936
1.96238
1.96555
1.96885
1.97231
1.97591
1.97969
1.98364
1.98778
1.99211
1.99662
2.0013
2.00613
2.01108
2.0161
2.02116
2.0262
2.03118
2.03605
2.04074
2.04523
2.04947
2.05341
2.05703
2.06029
2.06318
2.06565
2.06771
2.06933
2.07049
2.07119
2.07143
2.07118
2.07046
2.06924
2.06755
2.06537
2.0627
2.05956
2.05594
2.05185
2.04731
2.04233
2.03691
2.03109
2.02488
2.01832
2.01143
2.00426
1.99685
1.98925
1.98152
1.97372
1.96593
1.95821
1.95063
1.94328
1.93623
1.92953
1.92324
1.91741
1.91206
1.90719
1.90281
1.89887
1.89535
1.89219
1.88933
1.88672
1.8843
1.882
1.87979
1.87761
1.87545
1.87327
1.87107
1.86885
1.86661
1.86437
1.86215
1.85998
1.85789
1.85589
1.85403
1.85232
1.85077
1.84941
1.84823
1.84725
1.84647
1.84589
1.8455
1.84529
1.84527
1.84541
1.84571
1.84612
1.84664
1.84722
1.84784
1.84845
1.84903
1.84954
1.84994
1.85023
1.85037
1.95963
1.95983
1.96023
1.96084
1.96165
1.96268
1.96392
1.96537
1.96704
1.96891
1.97097
1.97322
1.97563
1.97821
1.98094
1.98382
1.98683
1.98998
1.99328
1.99672
2.00032
2.00407
2.00798
2.01205
2.01627
2.02062
2.0251
2.02966
2.03427
2.0389
2.04351
2.04805
2.05248
2.05676
2.06084
2.06469
2.06828
2.07156
2.07452
2.07713
2.07937
2.08121
2.08265
2.08367
2.08426
2.08442
2.08412
2.08338
2.08219
2.08055
2.07845
2.0759
2.0729
2.06947
2.0656
2.06132
2.05662
2.05154
2.04608
2.04027
2.03414
2.02773
2.02106
2.01418
2.00713
1.99997
1.99276
1.98555
1.97841
1.9714
1.96458
1.95801
1.95174
1.94583
1.94029
1.93516
1.93045
1.92614
1.92221
1.91865
1.9154
1.91243
1.90969
1.90713
1.90471
1.90239
1.90013
1.8979
1.8957
1.8935
1.89132
1.88914
1.88698
1.88486
1.8828
1.88082
1.87893
1.87717
1.87554
1.87406
1.87274
1.8716
1.87063
1.86983
1.86922
1.86877
1.8685
1.86838
1.86841
1.86857
1.86884
1.8692
1.86962
1.87007
1.87053
1.87096
1.87134
1.87165
1.87186
1.87198
1.98222
1.98242
1.9828
1.98338
1.98416
1.98514
1.98632
1.98769
1.98927
1.99103
1.99297
1.99509
1.99737
1.9998
2.00239
2.00511
2.00797
2.01097
2.0141
2.01737
2.02078
2.02433
2.02802
2.03183
2.03578
2.03983
2.04397
2.04818
2.05242
2.05667
2.06089
2.06503
2.06907
2.07297
2.07668
2.08018
2.08344
2.08642
2.0891
2.09146
2.09347
2.09512
2.0964
2.09728
2.09777
2.09785
2.09752
2.09676
2.09559
2.09399
2.09198
2.08954
2.08669
2.08343
2.07978
2.07573
2.07131
2.06653
2.06141
2.05598
2.05025
2.04427
2.03806
2.03166
2.02512
2.01848
2.01179
2.00511
1.99848
1.99197
1.98562
1.97948
1.97361
1.96803
1.96277
1.95786
1.95329
1.94908
1.94519
1.94162
1.93834
1.9353
1.93248
1.92983
1.92732
1.92492
1.9226
1.92034
1.91812
1.91593
1.91377
1.91164
1.90956
1.90752
1.90554
1.90365
1.90185
1.90017
1.89861
1.89718
1.89591
1.89479
1.89382
1.89302
1.89237
1.89189
1.89155
1.89135
1.89128
1.89133
1.89147
1.8917
1.89198
1.8923
1.89263
1.89294
1.89322
1.89345
1.89361
1.89369
2.00462
2.00481
2.00518
2.00573
2.00647
2.0074
2.00852
2.00982
2.0113
2.01296
2.0148
2.01679
2.01894
2.02124
2.02369
2.02627
2.02898
2.03182
2.03479
2.03789
2.04111
2.04446
2.04792
2.0515
2.05518
2.05894
2.06278
2.06667
2.07057
2.07447
2.07833
2.08212
2.08581
2.08936
2.09274
2.09592
2.09888
2.10158
2.104
2.10613
2.10793
2.10941
2.11053
2.11129
2.11169
2.1117
2.11133
2.11056
2.10941
2.10786
2.10592
2.1036
2.10088
2.09779
2.09434
2.09052
2.08636
2.08187
2.07706
2.07198
2.06662
2.06104
2.05525
2.04929
2.04321
2.03704
2.03082
2.02461
2.01844
2.01237
2.00645
2.0007
1.99518
1.9899
1.9849
1.9802
1.97579
1.97168
1.96786
1.96432
1.96102
1.95796
1.95508
1.95238
1.94982
1.94737
1.94501
1.94273
1.9405
1.93832
1.93619
1.93411
1.93208
1.93011
1.92821
1.92639
1.92466
1.92304
1.92154
1.92016
1.91892
1.91782
1.91686
1.91605
1.91538
1.91485
1.91445
1.91418
1.91403
1.91398
1.91403
1.91414
1.91431
1.91451
1.91473
1.91495
1.91515
1.91531
1.91543
1.91549
2.02683
2.02701
2.02736
2.02789
2.0286
2.02948
2.03053
2.03176
2.03316
2.03473
2.03646
2.03834
2.04037
2.04254
2.04485
2.04729
2.04985
2.05254
2.05535
2.05828
2.06131
2.06446
2.06771
2.07106
2.07449
2.07799
2.08154
2.08513
2.08873
2.09231
2.09584
2.09931
2.10268
2.10591
2.10899
2.11188
2.11456
2.11701
2.1192
2.12111
2.12273
2.12404
2.12502
2.12567
2.12598
2.12593
2.12552
2.12476
2.12362
2.12212
2.12026
2.11804
2.11545
2.11252
2.10925
2.10565
2.10173
2.09751
2.093
2.08824
2.08323
2.07801
2.07261
2.06705
2.06138
2.05563
2.04984
2.04406
2.03831
2.03264
2.02709
2.0217
2.01649
2.0115
2.00674
2.00224
1.99799
1.994
1.99026
1.98676
1.98348
1.98041
1.97752
1.9748
1.97221
1.96973
1.96735
1.96506
1.96283
1.96067
1.95857
1.95653
1.95454
1.95263
1.95079
1.94903
1.94736
1.9458
1.94434
1.943
1.94179
1.94071
1.93975
1.93893
1.93824
1.93767
1.93723
1.9369
1.93668
1.93655
1.9365
1.93653
1.9366
1.93671
1.93685
1.93698
1.93711
1.93722
1.9373
1.93734
2.04887
2.04903
2.04937
2.04987
2.05054
2.05137
2.05237
2.05354
2.05486
2.05633
2.05796
2.05974
2.06165
2.0637
2.06588
2.06818
2.07061
2.07314
2.07579
2.07855
2.08141
2.08436
2.08741
2.09053
2.09373
2.09698
2.10027
2.10358
2.10689
2.11018
2.11343
2.1166
2.11967
2.12263
2.12543
2.12806
2.13049
2.1327
2.13468
2.13639
2.13784
2.139
2.13985
2.1404
2.14062
2.14052
2.14008
2.13931
2.1382
2.13675
2.13496
2.13283
2.13037
2.12759
2.1245
2.1211
2.1174
2.11343
2.1092
2.10473
2.10004
2.09516
2.09011
2.08493
2.07964
2.07427
2.06887
2.06346
2.05809
2.05278
2.04758
2.04251
2.03759
2.03286
2.02834
2.02402
2.01993
2.01606
2.01241
2.00897
2.00574
2.00269
1.9998
1.99707
1.99447
1.99199
1.98961
1.98732
1.9851
1.98296
1.98089
1.97888
1.97694
1.97507
1.97328
1.97157
1.96996
1.96844
1.96703
1.96572
1.96453
1.96346
1.96251
1.96168
1.96097
1.96037
1.95989
1.95951
1.95923
1.95903
1.95891
1.95886
1.95885
1.95889
1.95895
1.95902
1.9591
1.95916
1.95921
1.95923
2.07073
2.07089
2.07121
2.07169
2.07232
2.07311
2.07405
2.07515
2.07639
2.07779
2.07932
2.08099
2.0828
2.08473
2.08679
2.08896
2.09124
2.09363
2.09613
2.09872
2.1014
2.10417
2.10702
2.10994
2.11291
2.11593
2.11897
2.12203
2.12508
2.12811
2.13108
2.13399
2.1368
2.13949
2.14204
2.14442
2.14663
2.14863
2.15041
2.15195
2.15323
2.15425
2.15499
2.15544
2.15559
2.15544
2.15498
2.1542
2.15311
2.15171
2.14999
2.14795
2.14562
2.14298
2.14005
2.13684
2.13335
2.12962
2.12564
2.12145
2.11705
2.11248
2.10776
2.10291
2.09796
2.09294
2.08789
2.08284
2.0778
2.07283
2.06794
2.06316
2.05851
2.05403
2.04971
2.04558
2.04164
2.0379
2.03435
2.03099
2.0278
2.02479
2.02193
2.01922
2.01663
2.01415
2.01178
2.0095
2.0073
2.00518
2.00314
2.00116
1.99926
1.99744
1.99569
1.99403
1.99246
1.99098
1.9896
1.98832
1.98716
1.9861
1.98515
1.98431
1.98358
1.98296
1.98244
1.98202
1.98169
1.98144
1.98126
1.98114
1.98107
1.98104
1.98104
1.98106
1.98109
1.98112
1.98114
1.98115
2.09244
2.09259
2.09289
2.09334
2.09394
2.09468
2.09558
2.09661
2.09778
2.0991
2.10054
2.10212
2.10382
2.10564
2.10757
2.10962
2.11177
2.11402
2.11636
2.1188
2.12131
2.1239
2.12656
2.12928
2.13205
2.13485
2.13767
2.14049
2.1433
2.14608
2.14881
2.15147
2.15403
2.15649
2.15881
2.16097
2.16297
2.16478
2.16637
2.16775
2.16889
2.16979
2.17042
2.17078
2.17087
2.17067
2.17019
2.16941
2.16834
2.16698
2.16533
2.16339
2.16116
2.15865
2.15588
2.15284
2.14956
2.14604
2.1423
2.13836
2.13424
2.12995
2.12553
2.12098
2.11635
2.11165
2.10692
2.10218
2.09746
2.09278
2.08818
2.08367
2.07927
2.07501
2.0709
2.06695
2.06316
2.05954
2.0561
2.05282
2.0497
2.04674
2.04392
2.04123
2.03866
2.03621
2.03385
2.03159
2.02942
2.02733
2.02531
2.02337
2.02151
2.01972
2.01802
2.0164
2.01486
2.01342
2.01207
2.01082
2.00967
2.00862
2.00767
2.00683
2.00609
2.00545
2.0049
2.00444
2.00407
2.00377
2.00354
2.00336
2.00324
2.00316
2.00312
2.00309
2.00308
2.00308
2.00308
2.00308
2.114
2.11414
2.11442
2.11485
2.11541
2.11611
2.11695
2.11793
2.11904
2.12027
2.12163
2.12312
2.12472
2.12643
2.12825
2.13017
2.13219
2.13431
2.13651
2.13879
2.14115
2.14357
2.14605
2.14858
2.15115
2.15374
2.15635
2.15896
2.16155
2.1641
2.16661
2.16904
2.17138
2.17362
2.17573
2.1777
2.1795
2.18113
2.18256
2.18379
2.1848
2.18558
2.18611
2.1864
2.18643
2.18619
2.18569
2.18491
2.18387
2.18255
2.18096
2.1791
2.17698
2.1746
2.17197
2.1691
2.166
2.16268
2.15916
2.15546
2.15159
2.14756
2.14341
2.13915
2.1348
2.1304
2.12596
2.12151
2.11707
2.11267
2.10833
2.10406
2.0999
2.09585
2.09193
2.08815
2.08451
2.08102
2.07768
2.07449
2.07145
2.06854
2.06577
2.06312
2.06059
2.05816
2.05584
2.0536
2.05146
2.04939
2.04741
2.04551
2.04368
2.04193
2.04026
2.03868
2.03717
2.03576
2.03444
2.03321
2.03208
2.03104
2.0301
2.02925
2.0285
2.02784
2.02727
2.02678
2.02637
2.02603
2.02576
2.02554
2.02538
2.02525
2.02516
2.0251
2.02506
2.02504
2.02502
2.02502
2.13541
2.13554
2.13581
2.13621
2.13674
2.13741
2.1382
2.13912
2.14016
2.14132
2.1426
2.144
2.1455
2.14711
2.14882
2.15063
2.15253
2.15451
2.15657
2.15871
2.16091
2.16317
2.16548
2.16784
2.17022
2.17263
2.17504
2.17745
2.17983
2.18218
2.18447
2.1867
2.18884
2.19088
2.1928
2.19458
2.19621
2.19768
2.19896
2.20005
2.20094
2.20161
2.20206
2.20227
2.20225
2.20198
2.20146
2.20069
2.19966
2.19838
2.19685
2.19508
2.19305
2.19079
2.1883
2.18558
2.18265
2.17953
2.17621
2.17272
2.16908
2.1653
2.1614
2.1574
2.15332
2.14918
2.14501
2.14082
2.13664
2.1325
2.12839
2.12436
2.12041
2.11656
2.11282
2.1092
2.10571
2.10234
2.09911
2.09602
2.09305
2.09021
2.0875
2.0849
2.0824
2.08002
2.07772
2.07552
2.07341
2.07138
2.06943
2.06756
2.06577
2.06405
2.06242
2.06087
2.0594
2.05801
2.05672
2.05551
2.05439
2.05336
2.05242
2.05158
2.05082
2.05014
2.04955
2.04904
2.0486
2.04823
2.04792
2.04767
2.04747
2.04731
2.04718
2.04709
2.04703
2.04698
2.04695
2.04694
2.15669
2.15682
2.15707
2.15744
2.15795
2.15857
2.15931
2.16018
2.16116
2.16225
2.16346
2.16477
2.16618
2.16769
2.1693
2.17099
2.17277
2.17463
2.17656
2.17856
2.18062
2.18272
2.18488
2.18707
2.18928
2.19151
2.19373
2.19595
2.19815
2.2003
2.20241
2.20445
2.2064
2.20826
2.21
2.21161
2.21308
2.2144
2.21555
2.21652
2.21729
2.21787
2.21824
2.21839
2.21831
2.21801
2.21748
2.21671
2.21571
2.21447
2.213
2.2113
2.20937
2.20721
2.20485
2.20228
2.19951
2.19656
2.19343
2.19014
2.18671
2.18316
2.17949
2.17572
2.17189
2.168
2.16407
2.16013
2.15619
2.15227
2.14839
2.14457
2.14082
2.13716
2.13359
2.13012
2.12677
2.12353
2.12041
2.11741
2.11453
2.11176
2.10911
2.10656
2.10412
2.10177
2.09952
2.09736
2.09528
2.09328
2.09137
2.08953
2.08778
2.0861
2.0845
2.08298
2.08154
2.08018
2.0789
2.07771
2.07661
2.07559
2.07466
2.07381
2.07305
2.07236
2.07175
2.07122
2.07076
2.07036
2.07002
2.06974
2.06951
2.06932
2.06917
2.06906
2.06897
2.06891
2.06887
2.06885
2.17784
2.17796
2.1782
2.17855
2.17902
2.17961
2.18031
2.18112
2.18204
2.18307
2.1842
2.18543
2.18676
2.18818
2.18969
2.19127
2.19294
2.19468
2.19648
2.19835
2.20027
2.20223
2.20423
2.20627
2.20832
2.21038
2.21244
2.21448
2.2165
2.21848
2.22041
2.22227
2.22406
2.22574
2.22733
2.22879
2.23011
2.23129
2.23232
2.23317
2.23385
2.23434
2.23463
2.23472
2.23461
2.23428
2.23373
2.23297
2.23199
2.23079
2.22937
2.22774
2.2259
2.22385
2.22161
2.21917
2.21655
2.21376
2.21081
2.20771
2.20448
2.20112
2.19767
2.19412
2.19051
2.18685
2.18315
2.17943
2.17571
2.17201
2.16834
2.16471
2.16115
2.15766
2.15425
2.15094
2.14772
2.1446
2.14159
2.13869
2.13589
2.1332
2.13061
2.12812
2.12573
2.12343
2.12123
2.1191
2.11707
2.11511
2.11323
2.11143
2.10971
2.10806
2.10649
2.105
2.10359
2.10226
2.10101
2.09984
2.09875
2.09774
2.09681
2.09596
2.09519
2.0945
2.09388
2.09333
2.09285
2.09243
2.09207
2.09177
2.09151
2.0913
2.09113
2.09099
2.09089
2.09081
2.09077
2.09074
2.19887
2.19899
2.19921
2.19954
2.19999
2.20054
2.20119
2.20196
2.20282
2.20379
2.20485
2.206
2.20725
2.20858
2.20999
2.21148
2.21303
2.21466
2.21635
2.21809
2.21987
2.2217
2.22356
2.22545
2.22735
2.22925
2.23115
2.23304
2.23489
2.23671
2.23848
2.24018
2.2418
2.24334
2.24477
2.24609
2.24729
2.24834
2.24925
2.25
2.25059
2.251
2.25122
2.25126
2.25111
2.25076
2.2502
2.24945
2.24849
2.24733
2.24596
2.2444
2.24264
2.24069
2.23855
2.23624
2.23376
2.23112
2.22833
2.2254
2.22235
2.21919
2.21593
2.21259
2.20919
2.20573
2.20224
2.19873
2.19521
2.19171
2.18823
2.18479
2.18141
2.17808
2.17483
2.17165
2.16856
2.16557
2.16266
2.15986
2.15715
2.15453
2.15201
2.14959
2.14725
2.145
2.14284
2.14077
2.13877
2.13685
2.13501
2.13325
2.13156
2.12995
2.12841
2.12695
2.12556
2.12426
2.12303
2.12187
2.1208
2.1198
2.11888
2.11803
2.11726
2.11657
2.11594
2.11538
2.11488
2.11445
2.11407
2.11374
2.11347
2.11324
2.11305
2.11289
2.11278
2.11269
2.11263
2.11261
2.21979
2.2199
2.22011
2.22042
2.22084
2.22136
2.22197
2.22269
2.2235
2.22441
2.2254
2.22648
2.22765
2.22889
2.23021
2.2316
2.23306
2.23458
2.23615
2.23777
2.23944
2.24114
2.24286
2.24461
2.24637
2.24813
2.24988
2.25162
2.25333
2.25499
2.25661
2.25816
2.25964
2.26104
2.26234
2.26353
2.2646
2.26554
2.26634
2.267
2.2675
2.26784
2.26801
2.268
2.26781
2.26744
2.26688
2.26613
2.26519
2.26406
2.26275
2.26125
2.25957
2.25771
2.25568
2.25348
2.25113
2.24863
2.24599
2.24323
2.24034
2.23736
2.23428
2.23113
2.22791
2.22465
2.22135
2.21803
2.2147
2.21138
2.20809
2.20482
2.2016
2.19843
2.19532
2.19228
2.18932
2.18644
2.18364
2.18093
2.1783
2.17577
2.17332
2.17096
2.16868
2.16649
2.16438
2.16235
2.16039
2.15852
2.15672
2.15499
2.15334
2.15176
2.15025
2.14882
2.14746
2.14618
2.14497
2.14383
2.14277
2.14179
2.14087
2.14003
2.13926
2.13856
2.13793
2.13736
2.13685
2.1364
2.13601
2.13567
2.13538
2.13513
2.13493
2.13476
2.13463
2.13454
2.13448
2.13444
2.24061
2.24071
2.2409
2.2412
2.24159
2.24207
2.24265
2.24332
2.24408
2.24493
2.24586
2.24688
2.24797
2.24913
2.25037
2.25167
2.25303
2.25444
2.25591
2.25742
2.25897
2.26054
2.26215
2.26376
2.26539
2.26702
2.26863
2.27023
2.2718
2.27332
2.2748
2.27622
2.27757
2.27883
2.28
2.28108
2.28204
2.28287
2.28358
2.28415
2.28458
2.28485
2.28496
2.28491
2.28469
2.2843
2.28374
2.283
2.28208
2.28099
2.27972
2.27828
2.27667
2.2749
2.27296
2.27088
2.26865
2.26628
2.26378
2.26116
2.25844
2.25561
2.25271
2.24973
2.24669
2.2436
2.24048
2.23734
2.23419
2.23104
2.22791
2.2248
2.22173
2.21871
2.21574
2.21283
2.20999
2.20722
2.20453
2.20191
2.19937
2.19691
2.19454
2.19224
2.19003
2.18789
2.18583
2.18385
2.18194
2.18011
2.17834