/*--------------------------------*- C++ -*----------------------------------*\
| =========                 |                                                 |
| \\      /  F ield         | OpenFOAM: The Open Source CFD Toolbox           |
|  \\    /   O peration     | Version:  2406                                  |
|   \\  /    A nd           | Website:  www.openfoam.com                      |
|    \\/     M anipulation  |                                                 |
\*---------------------------------------------------------------------------*/
FoamFile
{
    version     2.0;
    format      ascii;
    arch        "LSB;label=32;scalar=64";
    class       volScalarField;
    location    "2.6";
    object      C_0;
}
// * * * * * * * * * * * * * * * * * * * * * * * * * * * * * * * * * * * * * //

dimensions      [1 -3 0 0 0 0 0];

internalField   nonuniform List<scalar> 
14400
(
0.974422
0.965505
0.94118
0.907458
0.878194
0.85698
0.845391
0.844186
0.853665
0.873718
0.903771
0.942429
0.986175
1.01899
1.03561
1.04444
1.04669
1.04217
1.0288
1.00005
0.965439
0.938251
0.9213
0.915997
0.923202
0.943389
0.976657
1.02271
1.08063
1.14762
1.20466
1.24239
1.27133
1.29665
1.3189
1.33852
1.35583
1.37106
1.38442
1.39606
1.40609
1.41462
1.42172
1.42745
1.43186
1.435
1.43688
1.43753
1.43695
1.43516
1.43214
1.42788
1.42236
1.41556
1.40743
1.39793
1.38698
1.37453
1.36047
1.34469
1.32705
1.30738
1.28546
1.26102
1.23372
1.2031
1.1686
1.11839
1.04632
0.97261
0.907835
0.854004
0.811581
0.780596
0.760931
0.75241
0.754838
0.768004
0.791653
0.825401
0.868477
0.918654
0.964032
0.992649
1.00995
1.0218
1.02883
1.03139
1.02963
1.02346
1.01255
0.996177
0.965881
0.92262
0.882269
0.849798
0.826748
0.813599
0.81026
0.816139
0.830045
0.849752
0.869939
0.879023
0.87003
0.849866
0.830114
0.816174
0.810301
0.813714
0.827032
0.850367
0.883261
0.924176
0.968016
0.99887
1.01606
1.02815
1.03589
1.03967
0.983022
0.975913
0.957777
0.926207
0.895738
0.873472
0.861264
0.859848
0.869549
0.890224
0.921294
0.960979
1.00201
1.02825
1.04268
1.05101
1.05347
1.04993
1.03985
1.01724
0.983636
0.955655
0.937806
0.931909
0.93893
0.959382
0.993302
1.04023
1.09877
1.16419
1.21345
1.24673
1.27495
1.29971
1.32154
1.34084
1.3579
1.37294
1.38615
1.39766
1.4076
1.41605
1.42308
1.42877
1.43314
1.43625
1.43811
1.43875
1.43817
1.43638
1.43337
1.42914
1.42365
1.41689
1.40881
1.39936
1.3885
1.37613
1.36219
1.34655
1.32908
1.30963
1.28798
1.26389
1.23702
1.20697
1.17315
1.12969
1.06492
0.989933
0.924055
0.869323
0.826199
0.794722
0.774785
0.766214
0.768811
0.782354
0.806569
0.841059
0.88493
0.935351
0.975353
0.999144
1.0154
1.02661
1.03329
1.03572
1.03404
1.02819
1.01793
1.0028
0.979144
0.940909
0.899237
0.865828
0.842269
0.829032
0.826066
0.832796
0.848046
0.869579
0.887955
0.893028
0.887987
0.869667
0.848084
0.832779
0.826031
0.829048
0.842432
0.866254
0.900055
0.942248
0.980885
1.00511
1.02108
1.03249
1.03985
1.04346
0.998729
0.993392
0.982655
0.960822
0.929862
0.905935
0.892674
0.890847
0.900981
0.922733
0.955461
0.995545
1.02554
1.04336
1.05583
1.06346
1.06624
1.06415
1.05707
1.04412
1.0193
0.990072
0.970476
0.963416
0.970059
0.991058
1.02627
1.07495
1.13451
1.18782
1.22526
1.25538
1.28204
1.30569
1.32671
1.3454
1.36198
1.37665
1.38956
1.40084
1.41059
1.41889
1.4258
1.43139
1.43569
1.43874
1.44057
1.44119
1.4406
1.43882
1.43584
1.43164
1.42622
1.41953
1.41154
1.40222
1.3915
1.37932
1.3656
1.35023
1.3331
1.31406
1.29294
1.26952
1.24352
1.21461
1.18235
1.14592
1.09455
1.0229
0.956147
0.89988
0.855434
0.823
0.802532
0.793866
0.796796
0.811077
0.836356
0.872175
0.917052
0.963092
0.992567
1.01156
1.02591
1.03596
1.04198
1.04418
1.04262
1.03732
1.02817
1.01499
0.997598
0.970415
0.931209
0.897181
0.872882
0.859494
0.857214
0.865389
0.882259
0.903071
0.913676
0.91607
0.913617
0.903016
0.882225
0.865267
0.857023
0.85931
0.872797
0.897314
0.93165
0.971098
0.998672
1.01667
1.03066
1.04088
1.04755
1.05085
1.01977
1.01602
1.00884
0.998064
0.978303
0.953106
0.938847
0.936339
0.94717
0.96995
1.00381
1.03152
1.04942
1.0633
1.07383
1.08074
1.08391
1.08335
1.07919
1.0718
1.05953
1.03894
1.01819
1.00971
1.01575
1.03759
1.07439
1.12384
1.17295
1.21028
1.24023
1.2675
1.29213
1.31431
1.33422
1.35205
1.36797
1.38212
1.39461
1.40556
1.41503
1.42311
1.42985
1.4353
1.43949
1.44246
1.44424
1.44482
1.44423
1.44247
1.43952
1.43538
1.43004
1.42346
1.41562
1.40648
1.39597
1.38406
1.37066
1.35568
1.33903
1.32059
1.30021
1.27772
1.25293
1.22561
1.1955
1.16236
1.12456
1.07128
1.00399
0.945516
0.899245
0.865435
0.844211
0.835412
0.838827
0.854182
0.880815
0.91816
0.962525
0.9936
1.01293
1.0286
1.04072
1.04933
1.05451
1.05637
1.05496
1.05031
1.04243
1.03136
1.01729
1.00063
0.975178
0.942524
0.917622
0.904003
0.902613
0.912307
0.928512
0.939246
0.942711
0.943956
0.942582
0.938992
0.928211
0.912005
0.902169
0.903507
0.91715
0.942194
0.97486
1.00052
1.01761
1.03223
1.044
1.0528
1.05864
1.06155
1.04457
1.04207
1.0374
1.03127
1.02352
1.01044
0.997601
0.993907
1.00589
1.0273
1.04804
1.06274
1.07545
1.08659
1.09547
1.10175
1.1053
1.10614
1.10453
1.10093
1.09623
1.08875
1.07768
1.06879
1.07401
1.09693
1.13434
1.17249
1.20456
1.23183
1.2579
1.28224
1.30468
1.32518
1.3438
1.36062
1.37574
1.38924
1.40122
1.41174
1.42087
1.42867
1.43519
1.44046
1.44451
1.44738
1.44909
1.44964
1.44904
1.44729
1.44439
1.44033
1.4351
1.42866
1.421
1.41208
1.40186
1.39028
1.37728
1.3628
1.34675
1.32905
1.30958
1.28823
1.26487
1.23939
1.21169
1.18171
1.14958
1.11317
1.06418
1.00509
0.957283
0.921833
0.899736
0.890777
0.894754
0.911504
0.939088
0.976715
1.00442
1.02182
1.03669
1.0492
1.05905
1.06611
1.07037
1.07183
1.07053
1.06652
1.05987
1.05075
1.03945
1.02651
1.01268
0.993538
0.973369
0.959748
0.959006
0.9647
0.970678
0.972462
0.973945
0.974461
0.973743
0.972058
0.970084
0.963996
0.958182
0.95883
0.97234
0.992417
1.01158
1.02564
1.0389
1.05063
1.06032
1.0677
1.07266
1.07514
1.07187
1.0703
1.06744
1.06385
1.06039
1.05776
1.05378
1.05381
1.06208
1.07347
1.08307
1.09311
1.10307
1.11212
1.11971
1.1255
1.12938
1.13141
1.13184
1.13116
1.13016
1.12995
1.13024
1.13085
1.13939
1.15966
1.18483
1.20837
1.23135
1.25459
1.27728
1.2989
1.31916
1.33794
1.35518
1.3709
1.38512
1.39789
1.40927
1.41931
1.42804
1.43551
1.44177
1.44683
1.45072
1.45347
1.45509
1.4556
1.45498
1.45326
1.45042
1.44645
1.44135
1.43509
1.42765
1.41899
1.4091
1.39791
1.38539
1.37149
1.35613
1.33927
1.32083
1.30074
1.27894
1.2554
1.23013
1.20322
1.1749
1.14562
1.11415
1.07404
1.028
0.991231
0.968544
0.959397
0.963566
0.981684
1.00608
1.02634
1.03944
1.05163
1.06282
1.07245
1.08015
1.08571
1.08903
1.09006
1.08882
1.08536
1.07979
1.07231
1.06324
1.05307
1.04253
1.03253
1.02165
1.01222
1.00856
1.00734
1.00599
1.0059
1.00615
1.0062
1.00587
1.00534
1.00516
1.00623
1.00726
1.0107
1.01993
1.03068
1.04072
1.05139
1.06174
1.07108
1.07894
1.08502
1.08914
1.09122
1.10073
1.09981
1.0982
1.09629
1.09471
1.0942
1.09559
1.09878
1.10291
1.1085
1.11563
1.12356
1.13159
1.13912
1.14573
1.15116
1.15532
1.15827
1.16026
1.16172
1.16329
1.16587
1.17055
1.17864
1.18965
1.20402
1.22009
1.23833
1.25788
1.27789
1.29772
1.31691
1.33514
1.35223
1.36809
1.38266
1.39594
1.40794
1.41867
1.42817
1.43647
1.44358
1.44954
1.45436
1.45808
1.46069
1.46222
1.46267
1.46205
1.46035
1.45757
1.45372
1.44876
1.4427
1.4355
1.42715
1.41762
1.40688
1.39489
1.38162
1.36703
1.35107
1.33372
1.31495
1.29475
1.27315
1.25022
1.22614
1.20117
1.17579
1.15063
1.1259
1.09738
1.06907
1.04776
1.03842
1.04033
1.04883
1.05867
1.06574
1.07391
1.08242
1.09051
1.09763
1.1034
1.10756
1.10997
1.11056
1.10932
1.1063
1.10162
1.09547
1.08813
1.08002
1.07168
1.06371
1.05668
1.05085
1.0456
1.04202
1.03997
1.03898
1.03855
1.03832
1.03819
1.03828
1.03892
1.04061
1.04386
1.04879
1.05439
1.06126
1.06914
1.07745
1.08558
1.09301
1.09934
1.10428
1.10767
1.10939
1.13051
1.13003
1.12924
1.12841
1.12796
1.12833
1.12991
1.13273
1.13658
1.1415
1.1474
1.15392
1.1606
1.16704
1.17294
1.1781
1.18246
1.1861
1.18921
1.19215
1.19543
1.19967
1.20556
1.21372
1.22425
1.23676
1.2511
1.26699
1.28393
1.30137
1.31881
1.33587
1.35225
1.36776
1.38228
1.39572
1.40805
1.41925
1.42931
1.43825
1.44607
1.4528
1.45844
1.46301
1.46653
1.469
1.47042
1.47082
1.47018
1.46851
1.46581
1.46207
1.45728
1.45143
1.44451
1.43649
1.42736
1.41709
1.40567
1.39308
1.37928
1.36427
1.34804
1.33059
1.31196
1.29222
1.27147
1.24993
1.22787
1.20572
1.18403
1.16349
1.14491
1.12755
1.11241
1.1029
1.09935
1.09829
1.09945
1.10304
1.10804
1.11363
1.11917
1.12416
1.12824
1.13115
1.13273
1.13288
1.1316
1.12891
1.12492
1.1198
1.11379
1.10721
1.10045
1.09393
1.08799
1.08284
1.07846
1.07515
1.07291
1.07152
1.07073
1.07035
1.0703
1.07066
1.07162
1.07345
1.07635
1.08035
1.08517
1.09083
1.09712
1.10369
1.11012
1.11604
1.12111
1.12512
1.12787
1.12927
1.16076
1.16058
1.16031
1.16016
1.16039
1.16126
1.16299
1.16564
1.16916
1.17351
1.17857
1.1841
1.18984
1.1955
1.20088
1.20584
1.21033
1.21444
1.21832
1.22226
1.22661
1.23181
1.2383
1.24641
1.25624
1.26767
1.28054
1.29459
1.3095
1.32485
1.34029
1.35551
1.37023
1.38429
1.39754
1.40989
1.42128
1.43168
1.44107
1.44944
1.45678
1.46311
1.46842
1.47272
1.47603
1.47834
1.47966
1.48
1.47935
1.47771
1.47509
1.47148
1.46686
1.46124
1.4546
1.44694
1.43823
1.42846
1.41763
1.40573
1.39275
1.37869
1.36357
1.34741
1.33029
1.31228
1.29353
1.27423
1.25467
1.2352
1.21628
1.19843
1.18221
1.16807
1.15653
1.14757
1.14141
1.13826
1.13762
1.13895
1.14157
1.14489
1.14838
1.15161
1.15426
1.15608
1.1569
1.15665
1.15528
1.15283
1.14936
1.14503
1.14002
1.13458
1.129
1.12356
1.11852
1.11405
1.11024
1.10721
1.10498
1.10346
1.10251
1.10203
1.102
1.10244
1.10347
1.1052
1.10774
1.11109
1.11512
1.11976
1.12482
1.13006
1.13518
1.1399
1.14397
1.14719
1.14942
1.15055
1.1912
1.1912
1.19127
1.19153
1.19216
1.19332
1.19514
1.19767
1.20091
1.2048
1.20925
1.2141
1.21916
1.22426
1.22924
1.23403
1.2386
1.24301
1.24739
1.25194
1.25694
1.26267
1.26941
1.27737
1.28664
1.29715
1.30878
1.32135
1.3346
1.34825
1.36201
1.37562
1.38889
1.40162
1.4137
1.42502
1.43551
1.44514
1.45385
1.46165
1.46851
1.47442
1.4794
1.48343
1.48652
1.48867
1.48988
1.49016
1.4895
1.4879
1.48536
1.48188
1.47745
1.47207
1.46573
1.45843
1.45015
1.4409
1.43067
1.41946
1.40729
1.39417
1.38013
1.36521
1.3495
1.33309
1.31612
1.2988
1.28137
1.26414
1.24746
1.23175
1.21741
1.2048
1.19422
1.18579
1.17963
1.17573
1.17383
1.17355
1.17441
1.17599
1.17785
1.17965
1.1811
1.18199
1.18217
1.18153
1.18006
1.17775
1.17467
1.17092
1.16667
1.16209
1.15739
1.1528
1.14848
1.14459
1.14124
1.13848
1.13635
1.13482
1.13381
1.13328
1.13322
1.13364
1.1346
1.13615
1.13833
1.14113
1.14447
1.14826
1.15235
1.15655
1.16064
1.16441
1.16768
1.17026
1.17206
1.17297
1.22164
1.22175
1.22202
1.22254
1.22341
1.22473
1.22658
1.22901
1.23201
1.23554
1.23953
1.24387
1.24844
1.25312
1.2578
1.26244
1.26702
1.2716
1.27627
1.28119
1.28654
1.29252
1.29931
1.30704
1.31578
1.3255
1.33609
1.34743
1.35931
1.37153
1.38386
1.3961
1.40807
1.41961
1.43061
1.44097
1.45062
1.45949
1.46756
1.47479
1.48117
1.48668
1.49132
1.49507
1.49795
1.49994
1.50104
1.50126
1.50058
1.49902
1.49657
1.49323
1.48899
1.48386
1.47782
1.47089
1.46305
1.45431
1.44468
1.43416
1.42278
1.41057
1.39756
1.38381
1.3694
1.35444
1.33908
1.32348
1.30787
1.29251
1.27768
1.26371
1.25089
1.23949
1.22974
1.22176
1.21559
1.21121
1.20843
1.20699
1.20655
1.20679
1.20738
1.20803
1.2085
1.20862
1.20823
1.20726
1.20566
1.20344
1.20064
1.19733
1.19364
1.18971
1.18569
1.18175
1.17801
1.17461
1.17163
1.16913
1.16714
1.16564
1.16463
1.16407
1.16396
1.16431
1.16513
1.16646
1.1683
1.17063
1.17338
1.17646
1.17977
1.18314
1.18642
1.18944
1.19206
1.19413
1.19557
1.19631
1.25196
1.25214
1.25254
1.2532
1.2542
1.25559
1.25744
1.25977
1.26257
1.26582
1.26946
1.27342
1.27762
1.28197
1.28641
1.2909
1.29546
1.3001
1.30491
1.31001
1.3155
1.32155
1.32825
1.33571
1.34395
1.35296
1.36267
1.37296
1.38369
1.39469
1.4058
1.41684
1.42767
1.43815
1.44817
1.45764
1.46649
1.47466
1.4821
1.48879
1.4947
1.49982
1.50412
1.5076
1.51026
1.51209
1.51308
1.51324
1.51256
1.51104
1.50868
1.50548
1.50143
1.49654
1.49081
1.48425
1.47684
1.46861
1.45957
1.44973
1.43911
1.42776
1.41572
1.40306
1.38985
1.37621
1.36226
1.34817
1.33412
1.32034
1.30705
1.29451
1.28294
1.27255
1.2635
1.2559
1.24977
1.24508
1.24169
1.23942
1.23802
1.23724
1.23684
1.23658
1.23627
1.23574
1.23488
1.23362
1.23189
1.22971
1.2271
1.22413
1.22086
1.21742
1.21392
1.21048
1.20721
1.20421
1.20154
1.19927
1.19742
1.19599
1.19499
1.19441
1.19424
1.19449
1.19516
1.19627
1.19779
1.1997
1.20194
1.20445
1.20711
1.20983
1.21246
1.21488
1.21697
1.21863
1.21979
1.22038
1.2821
1.28232
1.28279
1.28353
1.28459
1.28601
1.28783
1.29005
1.29268
1.2957
1.29907
1.30273
1.30664
1.31073
1.31496
1.31931
1.32379
1.32843
1.33328
1.33841
1.34393
1.34991
1.35645
1.36359
1.37136
1.37973
1.38866
1.39805
1.40779
1.41776
1.4278
1.4378
1.44762
1.45714
1.46627
1.47493
1.48304
1.49054
1.4974
1.50357
1.50903
1.51376
1.51774
1.52096
1.52341
1.52508
1.52596
1.52606
1.52537
1.5239
1.52163
1.51856
1.51471
1.51007
1.50465
1.49844
1.49147
1.48373
1.47526
1.46606
1.45618
1.44565
1.43452
1.42286
1.41074
1.39828
1.38559
1.37281
1.36012
1.34767
1.33568
1.32433
1.3138
1.30426
1.29582
1.28857
1.28252
1.27764
1.27383
1.27097
1.26886
1.26732
1.26616
1.26518
1.26424
1.2632
1.26195
1.26042
1.25858
1.25642
1.25394
1.2512
1.24826
1.24519
1.24209
1.23905
1.23615
1.23347
1.23106
1.22899
1.22727
1.22591
1.22494
1.22433
1.22411
1.22425
1.22477
1.22565
1.22688
1.22843
1.23025
1.23227
1.23442
1.23659
1.2387
1.24064
1.24231
1.24365
1.24457
1.24505
1.31201
1.31226
1.31276
1.31354
1.31462
1.31603
1.3178
1.31993
1.32241
1.32524
1.32838
1.33181
1.33547
1.33934
1.34339
1.3476
1.35198
1.35655
1.36135
1.36644
1.37188
1.37773
1.38404
1.39084
1.39815
1.40595
1.41418
1.42279
1.43168
1.44073
1.44986
1.45893
1.46786
1.47653
1.48485
1.49276
1.50019
1.50708
1.51338
1.51906
1.5241
1.52846
1.53212
1.53509
1.53733
1.53884
1.53963
1.53967
1.53898
1.53754
1.53536
1.53244
1.52878
1.52438
1.51926
1.51341
1.50685
1.49959
1.49166
1.48309
1.47389
1.46413
1.45384
1.4431
1.43198
1.42058
1.40901
1.39738
1.38585
1.37456
1.36366
1.35332
1.34368
1.33486
1.32696
1.32003
1.31409
1.30912
1.30504
1.30176
1.29914
1.29703
1.29528
1.29376
1.29232
1.29086
1.28929
1.28755
1.2856
1.28343
1.28105
1.27848
1.27578
1.273
1.2702
1.26747
1.26486
1.26244
1.26026
1.25835
1.25675
1.25546
1.25451
1.25388
1.2536
1.25364
1.254
1.25468
1.25566
1.25689
1.25835
1.25997
1.26169
1.26343
1.26511
1.26666
1.268
1.26906
1.2698
1.27018
1.34168
1.34193
1.34245
1.34324
1.34432
1.3457
1.34741
1.34944
1.3518
1.35446
1.35742
1.36064
1.3641
1.36778
1.37165
1.37571
1.37997
1.38443
1.38914
1.39412
1.39942
1.40508
1.41113
1.41759
1.42446
1.43172
1.43934
1.44725
1.45538
1.46365
1.47196
1.48022
1.48835
1.49625
1.50385
1.51108
1.51788
1.5242
1.52998
1.53521
1.53983
1.54384
1.54721
1.54993
1.55198
1.55334
1.55403
1.55402
1.55333
1.55193
1.54984
1.54706
1.54358
1.53943
1.53459
1.52908
1.52292
1.51613
1.50872
1.50073
1.49218
1.48313
1.47362
1.46372
1.4535
1.44305
1.43247
1.42186
1.41134
1.40104
1.3911
1.38162
1.37274
1.36455
1.35711
1.35049
1.34469
1.3397
1.33546
1.3319
1.32891
1.32638
1.32419
1.32224
1.32041
1.31862
1.3168
1.31488
1.31284
1.31065
1.30833
1.30589
1.30337
1.30081
1.29826
1.29577
1.29339
1.29118
1.28918
1.28741
1.2859
1.28468
1.28374
1.2831
1.28276
1.2827
1.28293
1.28342
1.28417
1.28514
1.28629
1.28757
1.28894
1.29032
1.29166
1.29289
1.29396
1.29481
1.2954
1.2957
1.3711
1.37135
1.37187
1.37265
1.37371
1.37506
1.3767
1.37864
1.38087
1.38339
1.38619
1.38923
1.39251
1.39601
1.39972
1.40363
1.40775
1.41208
1.41665
1.42148
1.4266
1.43204
1.43781
1.44392
1.45038
1.45715
1.4642
1.47149
1.47895
1.48652
1.49411
1.50165
1.50907
1.51628
1.52322
1.52983
1.53605
1.54184
1.54715
1.55194
1.55619
1.55987
1.56296
1.56544
1.5673
1.56853
1.56912
1.56907
1.56837
1.56702
1.56502
1.56237
1.55907
1.55514
1.55059
1.54541
1.53963
1.53328
1.52636
1.51891
1.51097
1.50258
1.49379
1.48466
1.47526
1.46566
1.45596
1.44624
1.43661
1.42718
1.41805
1.40933
1.40111
1.39347
1.38646
1.38014
1.3745
1.36953
1.3652
1.36146
1.35821
1.35538
1.35287
1.3506
1.34847
1.34643
1.3444
1.34234
1.34021
1.33801
1.33573
1.33339
1.33101
1.32861
1.32625
1.32395
1.32176
1.31972
1.31786
1.31621
1.31478
1.31361
1.31269
1.31202
1.31162
1.31148
1.31158
1.31191
1.31246
1.3132
1.31409
1.3151
1.31617
1.31726
1.31832
1.31929
1.32014
1.32081
1.32127
1.32151
1.40026
1.40051
1.40101
1.40178
1.40281
1.40411
1.40569
1.40754
1.40966
1.41205
1.4147
1.41759
1.42071
1.42404
1.42759
1.43135
1.43531
1.43949
1.4439
1.44855
1.45347
1.45867
1.46415
1.46992
1.47597
1.48229
1.48883
1.49556
1.50242
1.50936
1.51631
1.52321
1.52998
1.53658
1.54292
1.54897
1.55466
1.55996
1.56483
1.56922
1.57311
1.57648
1.57931
1.58157
1.58325
1.58435
1.58486
1.58476
1.58406
1.58275
1.58084
1.57832
1.5752
1.57149
1.5672
1.56234
1.55693
1.55098
1.54453
1.5376
1.53022
1.52244
1.51431
1.50588
1.49721
1.48837
1.47945
1.47053
1.46168
1.45301
1.44461
1.43654
1.4289
1.42175
1.41514
1.40909
1.40362
1.39872
1.39437
1.39051
1.3871
1.38405
1.38131
1.3788
1.37646
1.37422
1.37203
1.36985
1.36767
1.36545
1.3632
1.36093
1.35865
1.35639
1.35417
1.35202
1.34998
1.34807
1.34633
1.34477
1.34342
1.34228
1.34137
1.34069
1.34023
1.34001
1.34
1.34019
1.34057
1.34111
1.34178
1.34255
1.34338
1.34423
1.34506
1.34582
1.34648
1.34701
1.34738
1.34757
1.42917
1.42941
1.4299
1.43064
1.43164
1.43289
1.4344
1.43617
1.43819
1.44046
1.44297
1.44571
1.44868
1.45186
1.45525
1.45885
1.46265
1.46667
1.4709
1.47536
1.48006
1.48501
1.4902
1.49564
1.50131
1.50719
1.51327
1.51949
1.52581
1.53219
1.53856
1.54488
1.55108
1.55712
1.56292
1.56846
1.57367
1.57852
1.58298
1.587
1.59056
1.59364
1.59622
1.59827
1.5998
1.60077
1.6012
1.60106
1.60036
1.59909
1.59726
1.59487
1.59192
1.58842
1.58438
1.57982
1.57475
1.5692
1.56318
1.55672
1.54987
1.54265
1.53512
1.52732
1.51932
1.51118
1.50296
1.49473
1.48659
1.47859
1.47081
1.46333
1.45621
1.4495
1.44324
1.43746
1.43218
1.42737
1.42303
1.41913
1.41561
1.41243
1.40952
1.40684
1.40434
1.40195
1.39964
1.39738
1.39515
1.39292
1.39069
1.38848
1.38628
1.38412
1.38201
1.37998
1.37806
1.37626
1.37461
1.37313
1.37183
1.37073
1.36982
1.36912
1.36862
1.36832
1.36821
1.36828
1.36851
1.36888
1.36937
1.36994
1.37057
1.37122
1.37186
1.37245
1.37297
1.37338
1.37366
1.37381
1.45783
1.45807
1.45854
1.45926
1.46021
1.46141
1.46285
1.46454
1.46646
1.46862
1.47101
1.47362
1.47644
1.47947
1.48271
1.48615
1.48979
1.49363
1.49767
1.50193
1.50641
1.5111
1.516
1.52112
1.52643
1.53192
1.53756
1.54331
1.54915
1.55502
1.56088
1.56667
1.57236
1.57788
1.5832
1.58826
1.59304
1.59748
1.60155
1.60523
1.60849
1.6113
1.61365
1.61551
1.61688
1.61775
1.61809
1.61792
1.61722
1.61599
1.61424
1.61197
1.60918
1.60589
1.60209
1.59781
1.59307
1.58787
1.58226
1.57625
1.56987
1.56317
1.55619
1.54898
1.54158
1.53405
1.52646
1.51887
1.51134
1.50393
1.49672
1.48976
1.4831
1.47679
1.47087
1.46535
1.46024
1.45556
1.45127
1.44736
1.44379
1.44052
1.43751
1.43471
1.43209
1.4296
1.42721
1.42489
1.42262
1.42038
1.41818
1.41601
1.41387
1.41179
1.40978
1.40784
1.40601
1.4043
1.40273
1.40131
1.40005
1.39897
1.39807
1.39735
1.39681
1.39644
1.39625
1.39621
1.39631
1.39654
1.39687
1.39728
1.39774
1.39823
1.39871
1.39916
1.39955
1.39987
1.40009
1.4002
1.48626
1.48648
1.48694
1.48763
1.48854
1.48969
1.49106
1.49267
1.4945
1.49655
1.49882
1.5013
1.50399
1.50688
1.50996
1.51324
1.51672
1.52038
1.52424
1.52829
1.53253
1.53697
1.5416
1.5464
1.55137
1.55649
1.56173
1.56706
1.57245
1.57786
1.58325
1.58857
1.59379
1.59885
1.60373
1.60837
1.61274
1.6168
1.62053
1.62389
1.62687
1.62943
1.63156
1.63325
1.63448
1.63523
1.63551
1.6353
1.63461
1.63342
1.63175
1.62959
1.62696
1.62385
1.62028
1.61627
1.61183
1.60697
1.60173
1.59613
1.5902
1.58398
1.5775
1.57081
1.56396
1.55699
1.54997
1.54294
1.53596
1.52909
1.52238
1.51588
1.50964
1.5037
1.49808
1.49281
1.4879
1.48334
1.47913
1.47524
1.47166
1.46835
1.46528
1.46241
1.45972
1.45716
1.45471
1.45235
1.45005
1.44782
1.44563
1.4435
1.44142
1.4394
1.43746
1.4356
1.43385
1.43221
1.4307
1.42932
1.4281
1.42704
1.42613
1.42539
1.42482
1.42439
1.42412
1.42399
1.42399
1.4241
1.4243
1.42457
1.42489
1.42524
1.42559
1.42592
1.42622
1.42645
1.42662
1.4267
1.51446
1.51467
1.51511
1.51577
1.51664
1.51773
1.51905
1.52057
1.52232
1.52427
1.52643
1.52879
1.53134
1.53409
1.53703
1.54015
1.54345
1.54694
1.5506
1.55445
1.55847
1.56266
1.56701
1.57152
1.57617
1.58094
1.58581
1.59075
1.59573
1.60072
1.60568
1.61058
1.61537
1.62002
1.62448
1.62874
1.63274
1.63646
1.63987
1.64294
1.64565
1.64799
1.64992
1.65144
1.65254
1.6532
1.65341
1.65317
1.65248
1.65134
1.64974
1.64769
1.6452
1.64227
1.63892
1.63516
1.631
1.62646
1.62157
1.61635
1.61083
1.60504
1.59902
1.59282
1.58646
1.58
1.57348
1.56695
1.56047
1.55408
1.54782
1.54175
1.53589
1.53029
1.52496
1.51992
1.5152
1.51078
1.50666
1.50282
1.49926
1.49594
1.49285
1.48994
1.4872
1.4846
1.48212
1.47973
1.47743
1.4752
1.47303
1.47093
1.4689
1.46693
1.46505
1.46326
1.46156
1.45998
1.45852
1.45719
1.45599
1.45494
1.45404
1.45328
1.45267
1.4522
1.45186
1.45165
1.45155
1.45156
1.45165
1.4518
1.45201
1.45224
1.45249
1.45272
1.45294
1.45311
1.45323
1.45329
1.54243
1.54264
1.54306
1.54369
1.54452
1.54556
1.54681
1.54827
1.54992
1.55178
1.55383
1.55607
1.5585
1.56111
1.5639
1.56687
1.57001
1.57332
1.57679
1.58043
1.58423
1.58818
1.59227
1.5965
1.60084
1.60529
1.60982
1.6144
1.61901
1.62361
1.62819
1.63269
1.63709
1.64136
1.64546
1.64936
1.65302
1.65643
1.65954
1.66235
1.66482
1.66694
1.6687
1.67006
1.67104
1.67161
1.67176
1.6715
1.67081
1.66971
1.66818
1.66624
1.66388
1.66112
1.65797
1.65444
1.65054
1.6463
1.64173
1.63686
1.63172
1.62633
1.62074
1.61496
1.60906
1.60305
1.597
1.59093
1.58489
1.57893
1.57309
1.56739
1.56189
1.55659
1.55153
1.54673
1.54219
1.53791
1.5339
1.53014
1.52662
1.52332
1.52022
1.5173
1.51455
1.51193
1.50943
1.50704
1.50473
1.50251
1.50037
1.4983
1.4963
1.49439
1.49255
1.49081
1.48917
1.48764
1.48621
1.48491
1.48374
1.4827
1.48179
1.48102
1.48038
1.47986
1.47947
1.47919
1.47902
1.47894
1.47893
1.47899
1.4791
1.47924
1.47939
1.47955
1.47969
1.47981
1.4799
1.47994
1.5702
1.5704
1.5708
1.5714
1.57219
1.57318
1.57437
1.57575
1.57733
1.57909
1.58104
1.58317
1.58547
1.58795
1.5906
1.59342
1.59639
1.59953
1.60282
1.60625
1.60984
1.61355
1.6174
1.62136
1.62542
1.62956
1.63377
1.63802
1.64228
1.64654
1.65076
1.6549
1.65895
1.66287
1.66663
1.67021
1.67356
1.67668
1.67953
1.68209
1.68434
1.68627
1.68785
1.68908
1.68994
1.69043
1.69053
1.69024
1.68957
1.6885
1.68704
1.68519
1.68297
1.68036
1.6774
1.67408
1.67043
1.66646
1.66219
1.65765
1.65285
1.64783
1.64262
1.63725
1.63175
1.62616
1.62053
1.61487
1.60924
1.60367
1.5982
1.59285
1.58767
1.58266
1.57786
1.57327
1.56891
1.56478
1.56089
1.55721
1.55375
1.55049
1.54741
1.54451
1.54175
1.53914
1.53664
1.53425
1.53195
1.52975
1.52763
1.52559
1.52363
1.52176
1.51997
1.51827
1.51667
1.51517
1.51379
1.51251
1.51136
1.51032
1.50941
1.50862
1.50796
1.50741
1.50697
1.50663
1.50639
1.50623
1.50615
1.50613
1.50616
1.50622
1.5063
1.50639
1.50648
1.50655
1.5066
1.50663
1.59778
1.59796
1.59834
1.59891
1.59967
1.60061
1.60174
1.60305
1.60454
1.60622
1.60806
1.61008
1.61227
1.61462
1.61713
1.6198
1.62262
1.62558
1.62869
1.63194
1.63531
1.6388
1.64241
1.64611
1.6499
1.65377
1.65768
1.66162
1.66557
1.6695
1.67339
1.67722
1.68094
1.68455
1.688
1.69127
1.69435
1.6972
1.6998
1.70214
1.70419
1.70593
1.70736
1.70846
1.70922
1.70963
1.70969
1.70938
1.70871
1.70768
1.70628
1.70453
1.70242
1.69997
1.69718
1.69407
1.69064
1.68693
1.68293
1.67869
1.67421
1.66953
1.66467
1.65966
1.65454
1.64933
1.64407
1.63879
1.63353
1.62832
1.62318
1.61816
1.61326
1.60853
1.60396
1.59959
1.59541
1.59143
1.58765
1.58407
1.58068
1.57747
1.57444
1.57156
1.56883
1.56622
1.56374
1.56136
1.55909
1.5569
1.55481
1.5528
1.55088
1.54904
1.54729
1.54563
1.54407
1.5426
1.54124
1.53999
1.53885
1.53783
1.53691
1.53611
1.53542
1.53484
1.53436
1.53397
1.53368
1.53346
1.53331
1.53322
1.53318
1.53318
1.5332
1.53323
1.53327
1.53331
1.53334
1.53335
1.62516
1.62534
1.6257
1.62624
1.62695
1.62785
1.62892
1.63017
1.63158
1.63317
1.63492
1.63683
1.63891
1.64113
1.64351
1.64603
1.6487
1.6515
1.65443
1.65749
1.66066
1.66394
1.66732
1.67078
1.67432
1.67792
1.68156
1.68521
1.68887
1.69251
1.6961
1.69962
1.70305
1.70637
1.70954
1.71254
1.71536
1.71797
1.72034
1.72247
1.72433
1.72592
1.7272
1.72819
1.72885
1.72919
1.7292
1.72888
1.72822
1.72722
1.72589
1.72422
1.72222
1.71991
1.71728
1.71436
1.71115
1.70766
1.70393
1.69995
1.69577
1.6914
1.68686
1.68219
1.6774
1.67254
1.66763
1.66269
1.65777
1.65288
1.64806
1.64333
1.63871
1.63422
1.62988
1.6257
1.6217
1.61787
1.61421
1.61074
1.60743
1.60429
1.6013
1.59847
1.59576
1.59319
1.59073
1.58838
1.58612
1.58397
1.5819
1.57992
1.57803
1.57623
1.57452
1.57289
1.57136
1.56993
1.56859
1.56736
1.56624
1.56521
1.5643
1.56349
1.56278
1.56217
1.56165
1.56123
1.56088
1.56061
1.56041
1.56027
1.56017
1.56011
1.56008
1.56007
1.56007
1.56008
1.56008
1.56009
1.65236
1.65253
1.65287
1.65338
1.65406
1.65491
1.65593
1.65711
1.65845
1.65995
1.66161
1.66342
1.66539
1.66749
1.66974
1.67212
1.67464
1.67728
1.68005
1.68292
1.6859
1.68898
1.69214
1.69538
1.69868
1.70203
1.70541
1.70881
1.7122
1.71556
1.71888
1.72212
1.72528
1.72833
1.73124
1.734
1.73658
1.73896
1.74113
1.74307
1.74476
1.74619
1.74735
1.74822
1.7488
1.74908
1.74905
1.74871
1.74806
1.7471
1.74582
1.74424
1.74235
1.74016
1.73769
1.73494
1.73192
1.72865
1.72515
1.72143
1.71752
1.71343
1.70919
1.70482
1.70035
1.6958
1.69121
1.68659
1.68197
1.67738
1.67284
1.66838
1.66401
1.65976
1.65564
1.65165
1.64781
1.64413
1.6406
1.63723
1.63402
1.63095
1.62802
1.62524
1.62258
1.62004
1.61761
1.61529
1.61307
1.61094
1.60891
1.60696
1.6051
1.60333
1.60165
1.60006
1.59856
1.59715
1.59584
1.59463
1.59351
1.5925
1.59158
1.59076
1.59003
1.5894
1.58886
1.5884
1.58801
1.5877
1.58745
1.58726
1.58712
1.58701
1.58694
1.58689
1.58686
1.58684
1.58683
1.58683
1.67938
1.67955
1.67987
1.68036
1.681
1.68181
1.68277
1.68389
1.68516
1.68658
1.68815
1.68987
1.69172
1.69371
1.69583
1.69808
1.70046
1.70295
1.70555
1.70825
1.71105
1.71393
1.71689
1.71992
1.723
1.72612
1.72926
1.73241
1.73554
1.73866
1.74172
1.74471
1.74762
1.75043
1.7531
1.75563
1.75799
1.76017
1.76215
1.76392
1.76545
1.76674
1.76778
1.76856
1.76906
1.76928
1.76921
1.76886
1.76822
1.76729
1.76606
1.76456
1.76276
1.7607
1.75837
1.75578
1.75294
1.74988
1.74659
1.74311
1.73945
1.73562
1.73165
1.72756
1.72337
1.71912
1.71481
1.71048
1.70614
1.70182
1.69755
1.69334
1.68921
1.68518
1.68125
1.67745
1.67377
1.67024
1.66683
1.66357
1.66045
1.65746
1.65461
1.65188
1.64927
1.64677
1.64439
1.6421
1.63992
1.63782
1.63582
1.63391
1.63209
1.63035
1.6287
1.62714
1.62566
1.62428
1.62299
1.62179
1.62069
1.61968
1.61876
1.61793
1.6172
1.61654
1.61598
1.61549
1.61507
1.61473
1.61444
1.61421
1.61402
1.61388
1.61377
1.61369
1.61364
1.6136
1.61358
1.61356
1.70625
1.7064
1.70671
1.70717
1.70778
1.70855
1.70946
1.71051
1.71172
1.71306
1.71455
1.71617
1.71792
1.7198
1.7218
1.72392
1.72616
1.7285
1.73094
1.73348
1.73611
1.73881
1.74158
1.7444
1.74727
1.75017
1.75309
1.75601
1.75892
1.7618
1.76463
1.76739
1.77007
1.77265
1.7751
1.77742
1.77959
1.78158
1.78339
1.78499
1.78638
1.78755
1.78848
1.78916
1.78959
1.78976
1.78966
1.7893
1.78867
1.78776
1.78659
1.78516
1.78346
1.7815
1.7793
1.77686
1.7742
1.77132
1.76824
1.76497
1.76153
1.75795
1.75423
1.75039
1.74647
1.74248
1.73844
1.73437
1.73029
1.72623
1.7222
1.71822
1.71431
1.71048
1.70675
1.70312
1.6996
1.6962
1.69293
1.68978
1.68675
1.68385
1.68106
1.6784
1.67585
1.6734
1.67106
1.66882
1.66667
1.66462
1.66265
1.66077
1.65898
1.65728
1.65566
1.65412
1.65268
1.65132
1.65005
1.64887
1.64777
1.64677
1.64585
1.64502
1.64427
1.64361
1.64302
1.64251
1.64207
1.64169
1.64137
1.64111
1.64089
1.64072
1.64058
1.64047
1.6404
1.64034
1.64031
1.64029
1.73296
1.73311
1.7334
1.73383
1.73441
1.73513
1.73599
1.737
1.73813
1.7394
1.7408
1.74233
1.74399
1.74576
1.74765
1.74964
1.75175
1.75395
1.75625
1.75863
1.76109
1.76361
1.7662
1.76884
1.77151
1.77421
1.77692
1.77963
1.78233
1.78499
1.7876
1.79015
1.79262
1.79499
1.79725
1.79937
1.80135
1.80318
1.80482
1.80628
1.80754
1.80859
1.80942
1.81002
1.81038
1.8105
1.81038
1.81001
1.80939
1.80851
1.80739
1.80602
1.80441
1.80256
1.80048
1.79818
1.79567
1.79296
1.79006
1.787
1.78377
1.7804
1.77691
1.77332
1.76964
1.76589
1.76209
1.75826
1.75443
1.7506
1.74679
1.74303
1.73933
1.73569
1.73214
1.72867
1.72531
1.72205
1.71889
1.71585
1.71293
1.71011
1.7074
1.70481
1.70231
1.69992
1.69763
1.69544
1.69333
1.69132
1.68939
1.68755
1.68579
1.68412
1.68253
1.68103
1.6796
1.67827
1.67702
1.67585
1.67477
1.67377
1.67285
1.67202
1.67127
1.67059
1.66999
1.66946
1.66899
1.66859
1.66825
1.66796
1.66771
1.66752
1.66735
1.66723
1.66713
1.66706
1.66702
1.667
1.75953
1.75967
1.75994
1.76035
1.7609
1.76158
1.76239
1.76334
1.76441
1.76561
1.76693
1.76838
1.76993
1.7716
1.77338
1.77526
1.77724
1.77931
1.78146
1.78369
1.786
1.78836
1.79078
1.79324
1.79573
1.79824
1.80076
1.80327
1.80577
1.80823
1.81064
1.81299
1.81527
1.81745
1.81952
1.82147
1.82328
1.82494
1.82644
1.82777
1.82891
1.82985
1.83059
1.83111
1.83142
1.8315
1.83135
1.83097
1.83035
1.82951
1.82843
1.82712
1.82559
1.82384
1.82187
1.8197
1.81734
1.81479
1.81206
1.80918
1.80615
1.80299
1.79971
1.79633
1.79287
1.78935
1.78577
1.78217
1.77856
1.77494
1.77135
1.76779
1.76427
1.76082
1.75743
1.75413
1.75091
1.74778
1.74475
1.74182
1.73899
1.73626
1.73364
1.73111
1.72868
1.72635
1.72411
1.72196
1.7199
1.71793
1.71604
1.71424
1.71252
1.71088
1.70932
1.70784
1.70645
1.70513
1.7039
1.70275
1.70168
1.70068
1.69977
1.69894
1.69818
1.6975
1.69688
1.69634
1.69586
1.69544
1.69507
1.69476
1.6945
1.69428
1.69409
1.69395
1.69384
1.69376
1.69371
1.69368
1.78596
1.78609
1.78635
1.78674
1.78725
1.78789
1.78866
1.78955
1.79057
1.7917
1.79294
1.7943
1.79577
1.79734
1.79902
1.80078
1.80264
1.80458
1.8066
1.80869
1.81085
1.81305
1.81531
1.8176
1.81992
1.82226
1.8246
1.82693
1.82924
1.83152
1.83375
1.83591
1.83801
1.84001
1.84191
1.8437
1.84536
1.84688
1.84824
1.84944
1.85047
1.85131
1.85197
1.85242
1.85267
1.85271
1.85254
1.85216
1.85155
1.85073
1.8497
1.84845
1.84699
1.84533
1.84347
1.84142
1.83919