/*--------------------------------*- C++ -*----------------------------------*\
| =========                 |                                                 |
| \\      /  F ield         | OpenFOAM: The Open Source CFD Toolbox           |
|  \\    /   O peration     | Version:  2406                                  |
|   \\  /    A nd           | Website:  www.openfoam.com                      |
|    \\/     M anipulation  |                                                 |
\*---------------------------------------------------------------------------*/
FoamFile
{
    version     2.0;
    format      ascii;
    arch        "LSB;label=32;scalar=64";
    class       volScalarField;
    location    "2.6";
    object      C_0_0;
}
// * * * * * * * * * * * * * * * * * * * * * * * * * * * * * * * * * * * * * //

dimensions      [1 -3 0 0 0 0 0];

internalField   nonuniform List<scalar> 
14400
(
0.978013
0.969141
0.944867
0.911051
0.881658
0.860342
0.848693
0.847471
0.856978
0.877103
0.90727
0.946064
0.989898
1.02263
1.0392
1.04803
1.05029
1.0458
1.03253
1.00383
0.969119
0.941809
0.92476
0.919394
0.926576
0.94678
0.980101
1.02623
1.08426
1.15135
1.2082
1.2457
1.2746
1.29987
1.32209
1.34167
1.35895
1.37415
1.38749
1.3991
1.40912
1.41762
1.42471
1.43043
1.43483
1.43795
1.43982
1.44047
1.43988
1.43809
1.43506
1.43081
1.42529
1.41849
1.41036
1.40086
1.38993
1.37748
1.36343
1.34767
1.33004
1.31039
1.28849
1.26407
1.23679
1.20621
1.17174
1.12182
1.05003
0.97613
0.911154
0.857156
0.814605
0.783531
0.763816
0.755286
0.757745
0.770978
0.794728
0.828611
0.871845
0.922174
0.967434
0.99588
1.01315
1.02497
1.03198
1.03454
1.03277
1.0266
1.0157
0.999357
0.969162
0.925938
0.885493
0.852929
0.829813
0.816638
0.813318
0.81926
0.833263
0.853085
0.873315
0.882349
0.873402
0.853192
0.833319
0.819274
0.813331
0.816718
0.830055
0.853448
0.886426
0.927424
0.971209
1.00195
1.01911
1.03118
1.03891
1.04269
0.986588
0.979488
0.961446
0.929871
0.899248
0.876873
0.864605
0.863173
0.8729
0.893647
0.92484
0.964695
1.0057
1.03182
1.04625
1.05458
1.05705
1.05354
1.04352
1.02101
0.987373
0.959265
0.941311
0.935351
0.942349
0.962822
0.996798
1.04382
1.10244
1.16785
1.21691
1.25005
1.27821
1.30293
1.32472
1.34398
1.36101
1.37603
1.38921
1.4007
1.41062
1.41905
1.42607
1.43174
1.43611
1.4392
1.44106
1.44169
1.4411
1.43931
1.4363
1.43206
1.42658
1.41981
1.41174
1.4023
1.39144
1.37909
1.36515
1.34952
1.33207
1.31263
1.29101
1.26694
1.2401
1.21008
1.17629
1.13304
1.06857
0.993461
0.927404
0.872511
0.829261
0.797696
0.77771
0.76913
0.771759
0.785371
0.80969
0.844313
0.888341
0.93886
0.978686
1.00236
1.0186
1.02978
1.03644
1.03887
1.03718
1.03132
1.02106
1.00595
0.982381
0.944262
0.902506
0.869002
0.845369
0.832103
0.829158
0.835956
0.851302
0.872927
0.891255
0.8963
0.891283
0.873006
0.851326
0.835918
0.829095
0.832085
0.84549
0.869377
0.903264
0.945527
0.984034
1.00816
1.02412
1.03551
1.04286
1.04647
1.00226
0.996929
0.986221
0.964465
0.933419
0.909403
0.896091
0.894252
0.904408
0.926221
0.959052
0.999225
1.02912
1.0469
1.05937
1.067
1.0698
1.06773
1.06068
1.04781
1.02312
0.993773
0.974065
0.966945
0.973564
0.994589
1.02987
1.07865
1.13831
1.19136
1.2286
1.25868
1.28529
1.3089
1.32988
1.34853
1.36509
1.37973
1.39262
1.40388
1.41361
1.42189
1.42879
1.43436
1.43865
1.44169
1.44351
1.44412
1.44353
1.44175
1.43876
1.43457
1.42914
1.42245
1.41447
1.40515
1.39444
1.38227
1.36856
1.3532
1.33609
1.31707
1.29596
1.27256
1.24659
1.21771
1.18548
1.14915
1.09804
1.02648
0.959563
0.903141
0.858575
0.826053
0.805535
0.796861
0.799826
0.814181
0.839562
0.875513
0.920564
0.966496
0.995795
1.01476
1.02909
1.03911
1.04513
1.04731
1.04575
1.04044
1.03129
1.01811
1.00073
0.973655
0.93454
0.900432
0.876047
0.862625
0.860367
0.868622
0.88558
0.906333
0.916874
0.919274
0.916812
0.906269
0.885534
0.86848
0.860148
0.862405
0.875919
0.900514
0.934923
0.974262
1.00172
1.01971
1.03368
1.04389
1.05056
1.05385
1.02327
1.01952
1.01234
1.00163
0.981936
0.956663
0.942376
0.939863
0.950706
0.973523
1.00748
1.03511
1.05292
1.0668
1.07734
1.08425
1.08743
1.08688
1.08274
1.07537
1.06322
1.04275
1.02188
1.01336
1.01937
1.04124
1.0781
1.12768
1.17653
1.21364
1.24355
1.27077
1.29536
1.3175
1.33737
1.35518
1.37107
1.38519
1.39766
1.40859
1.41804
1.4261
1.43283
1.43826
1.44245
1.44541
1.44717
1.44775
1.44716
1.44539
1.44244
1.4383
1.43296
1.42638
1.41854
1.4094
1.39891
1.387
1.37361
1.35865
1.34201
1.32358
1.30322
1.28076
1.25599
1.2287
1.19862
1.16552
1.12789
1.07487
1.00749
0.948882
0.902506
0.868606
0.847329
0.838523
0.841978
0.857415
0.884139
0.921557
0.965955
0.996863
1.01613
1.03178
1.04388
1.05247
1.05764
1.05949
1.05807
1.05341
1.04553
1.03447
1.02039
1.00375
0.97839
0.945857
0.920859
0.907207
0.905833
0.915621
0.931727
0.942386
0.945858
0.947106
0.945724
0.942122
0.931412
0.915299
0.905361
0.906674
0.920343
0.945474
0.978008
1.00356
1.02063
1.03524
1.04701
1.0558
1.06163
1.06454
1.04803
1.04553
1.04086
1.03472
1.02705
1.01401
1.00125
0.997569
1.00955
1.03089
1.05158
1.0662
1.07892
1.09005
1.09894
1.10523
1.10878
1.10964
1.10803
1.10444
1.09975
1.09239
1.0814
1.07259
1.07773
1.10073
1.13807
1.17604
1.2079
1.23514
1.26117
1.28548
1.30789
1.32835
1.34694
1.36373
1.37882
1.3923
1.40426
1.41476
1.42387
1.43166
1.43816
1.44341
1.44746
1.45032
1.45202
1.45256
1.45195
1.4502
1.4473
1.44324
1.43801
1.43158
1.42392
1.415
1.40479
1.39321
1.38023
1.36576
1.34972
1.33203
1.31258
1.29125
1.26792
1.24246
1.21479
1.18485
1.15275
1.11655
1.0678
1.00858
0.960717
0.925156
0.902997
0.894029
0.898055
0.914914
0.942565
0.98016
1.00773
1.02502
1.03987
1.05235
1.06218
1.06924
1.07348
1.07493
1.07362
1.0696
1.06295
1.05383
1.04253
1.02959
1.01577
0.996726
0.976633
0.963019
0.962245
0.967886
0.973781
0.975562
0.97705
0.977566
0.976842
0.975148
0.97317
0.96716
0.961391
0.962062
0.975557
0.99555
1.0146
1.02865
1.0419
1.05363
1.06331
1.07068
1.07563
1.07812
1.07528
1.07371
1.07085
1.06726
1.0638
1.06121
1.05728
1.05733
1.06558
1.07692
1.08647
1.09653
1.10649
1.11554
1.12313
1.12893
1.13282
1.13486
1.13529
1.13462
1.13362
1.13342
1.13379
1.13446
1.143
1.16324
1.18829
1.2117
1.23465
1.25786
1.28052
1.30211
1.32235
1.34109
1.3583
1.37399
1.38819
1.40094
1.4123
1.42232
1.43103
1.43849
1.44473
1.44978
1.45366
1.4564
1.45802
1.45851
1.45789
1.45617
1.45332
1.44936
1.44425
1.43799
1.43056
1.42191
1.41202
1.40084
1.38833
1.37443
1.35909
1.34224
1.32382
1.30374
1.28197
1.25846
1.23321
1.20632
1.17803
1.14878
1.1175
1.07755
1.03166
0.994718
0.971961
0.962799
0.967009
0.985289
1.00948
1.02961
1.04262
1.05479
1.06596
1.07558
1.08326
1.08881
1.09211
1.09314
1.09189
1.08842
1.08285
1.07537
1.0663
1.05613
1.04557
1.03557
1.02476
1.01536
1.01168
1.01039
1.00905
1.00896
1.00921
1.00927
1.00893
1.0084
1.0082
1.00926
1.01035
1.01381
1.02299
1.03367
1.04371
1.05437
1.06472
1.07405
1.08191
1.08798
1.0921
1.09418
1.10411
1.10319
1.10157
1.09966
1.09808
1.09756
1.09893
1.10212
1.10625
1.11186
1.119
1.12694
1.13497
1.1425
1.14912
1.15456
1.15872
1.16167
1.16366
1.16513
1.1667
1.16927
1.17394
1.18202
1.19305
1.20735
1.2234
1.24162
1.26114
1.28113
1.30093
1.32009
1.33829
1.35536
1.37119
1.38574
1.399
1.41097
1.42169
1.43117
1.43945
1.44655
1.45249
1.4573
1.46101
1.46361
1.46513
1.46558
1.46495
1.46325
1.46047
1.45661
1.45166
1.44559
1.4384
1.43005
1.42053
1.4098
1.39782
1.38456
1.36997
1.35403
1.3367
1.31794
1.29776
1.27618
1.25327
1.22921
1.20427
1.1789
1.15377
1.12914
1.10078
1.0726
1.0513
1.04194
1.04377
1.05218
1.06186
1.06889
1.07705
1.08554
1.09362
1.10073
1.10648
1.11063
1.11303
1.11361
1.11237
1.10934
1.10466
1.0985
1.09116
1.08305
1.0747
1.06672
1.05969
1.05386
1.04861
1.04504
1.043
1.04201
1.04158
1.04135
1.04122
1.0413
1.04193
1.04362
1.04684
1.05177
1.05736
1.06423
1.0721
1.08041
1.08853
1.09596
1.10229
1.10723
1.11062
1.11233
1.13385
1.13337
1.13258
1.13175
1.13129
1.13166
1.13323
1.13605
1.13989
1.14482
1.15073
1.15725
1.16394
1.17039
1.17629
1.18145
1.18582
1.18945
1.19257
1.19551
1.19879
1.20302
1.2089
1.21704
1.22755
1.24005
1.25436
1.27024
1.28716
1.30457
1.32199
1.33902
1.35538
1.37087
1.38536
1.39878
1.41109
1.42226
1.43231
1.44123
1.44904
1.45575
1.46138
1.46594
1.46945
1.47191
1.47333
1.47371
1.47307
1.4714
1.4687
1.46496
1.46017
1.45432
1.44739
1.43938
1.43025
1.42
1.40859
1.396
1.38221
1.36721
1.35099
1.33356
1.31495
1.29522
1.2745
1.25297
1.23094
1.2088
1.18712
1.16659
1.14802
1.13079
1.11571
1.10621
1.10259
1.10141
1.10257
1.10615
1.11114
1.11672
1.12225
1.12723
1.1313
1.1342
1.13577
1.13592
1.13463
1.13193
1.12794
1.12281
1.1168
1.11021
1.10345
1.09692
1.09098
1.08583
1.08145
1.07814
1.0759
1.07452
1.07373
1.07335
1.0733
1.07365
1.07461
1.07642
1.07931
1.08331
1.08812
1.09377
1.10006
1.10662
1.11306
1.11897
1.12404
1.12804
1.13079
1.1322
1.16406
1.16388
1.16361
1.16346
1.16368
1.16455
1.16627
1.16892
1.17244
1.1768
1.18186
1.1874
1.19315
1.19881
1.20419
1.20915
1.21365
1.21775
1.22164
1.22557
1.22992
1.23511
1.24159
1.24968
1.2595
1.27091
1.28376
1.2978
1.31268
1.32802
1.34344
1.35863
1.37333
1.38737
1.4006
1.41293
1.4243
1.43469
1.44406
1.45241
1.45973
1.46604
1.47134
1.47564
1.47893
1.48124
1.48255
1.48288
1.48223
1.48059
1.47796
1.47435
1.46974
1.46412
1.45748
1.44982
1.44111
1.43135
1.42053
1.40864
1.39566
1.38161
1.3665
1.35037
1.33325
1.31526
1.29652
1.27724
1.2577
1.23824
1.21934
1.2015
1.18528
1.17114
1.15961
1.15065
1.1445
1.14135
1.1407
1.14202
1.14464
1.14795
1.15143
1.15465
1.15729
1.1591
1.15992
1.15966
1.15828
1.15582
1.15235
1.14801
1.143
1.13756
1.13197
1.12653
1.12149
1.11701
1.11321
1.11018
1.10795
1.10643
1.10548
1.105
1.10497
1.1054
1.10642
1.10815
1.11068
1.11402
1.11805
1.12268
1.12774
1.13298
1.13809
1.14281
1.14688
1.1501
1.15232
1.15346
1.19447
1.19446
1.19453
1.1948
1.19542
1.19658
1.1984
1.20093
1.20417
1.20806
1.21251
1.21736
1.22243
1.22752
1.23251
1.2373
1.24187
1.24628
1.25066
1.25521
1.2602
1.26593
1.27266
1.28061
1.28986
1.30035
1.31197
1.32452
1.33776
1.35138
1.36512
1.37872
1.39196
1.40468
1.41673
1.42804
1.43851
1.44812
1.45682
1.4646
1.47144
1.47735
1.48231
1.48633
1.48941
1.49155
1.49276
1.49303
1.49236
1.49076
1.48822
1.48474
1.48031
1.47493
1.46859
1.46129
1.45302
1.44377
1.43355
1.42235
1.41019
1.39708
1.38304
1.36814
1.35244
1.33604
1.31909
1.30178
1.28436
1.26714
1.25048
1.23478
1.22044
1.20784
1.19726
1.18884
1.18268
1.17878
1.17687
1.17658
1.17744
1.17901
1.18086
1.18265
1.1841
1.18498
1.18515
1.18451
1.18303
1.18072
1.17763
1.17388
1.16962
1.16504
1.16034
1.15574
1.15143
1.14754
1.14418
1.14143
1.1393
1.13776
1.13675
1.13622
1.13616
1.13657
1.13752
1.13907
1.14125
1.14404
1.14738
1.15116
1.15525
1.15944
1.16353
1.16731
1.17056
1.17315
1.17494
1.17586
1.22487
1.22498
1.22525
1.22577
1.22663
1.22795
1.2298
1.23223
1.23523
1.23876
1.24276
1.2471
1.25167
1.25635
1.26103
1.26567
1.27026
1.27483
1.2795
1.28442
1.28976
1.29573
1.30251
1.31024
1.31896
1.32866
1.33925
1.35057
1.36243
1.37463
1.38694
1.39916
1.41111
1.42264
1.43362
1.44397
1.45359
1.46245
1.47051
1.47773
1.48409
1.48959
1.49422
1.49796
1.50083
1.50281
1.5039
1.50411
1.50344
1.50187
1.49942
1.49608
1.49184
1.4867
1.48067
1.47374
1.4659
1.45717
1.44754
1.43704
1.42566
1.41346
1.40045
1.38672
1.37232
1.35737
1.34202
1.32643
1.31083
1.29548
1.28067
1.2667
1.25388
1.2425
1.23275
1.22476
1.2186
1.21422
1.21143
1.20999
1.20955
1.20978
1.21036
1.211
1.21147
1.21158
1.21119
1.21022
1.20861
1.20639
1.20358
1.20027
1.19658
1.19264
1.18862
1.18467
1.18093
1.17753
1.17455
1.17205
1.17005
1.16856
1.16754
1.16698
1.16687
1.16721
1.16803
1.16936
1.17119
1.17351
1.17626
1.17934
1.18264
1.18601
1.18929
1.19231
1.19492
1.197
1.19844
1.19917
1.25516
1.25534
1.25573
1.2564
1.25739
1.25879
1.26063
1.26296
1.26576
1.26901
1.27265
1.27661
1.28081
1.28516
1.2896
1.2941
1.29865
1.30329
1.3081
1.31319
1.31868
1.32472
1.33141
1.33886
1.34709
1.35609
1.36578
1.37606
1.38677
1.39776
1.40885
1.41988
1.43069
1.44115
1.45115
1.46061
1.46944
1.4776
1.48503
1.49171
1.49761
1.50271
1.507
1.51048
1.51312
1.51494
1.51593
1.51608
1.5154
1.51387
1.51151
1.50831
1.50426
1.49937
1.49365
1.48708
1.47968
1.47146
1.46242
1.45258
1.44197
1.43063
1.4186
1.40595
1.39275
1.37912
1.36518
1.35109
1.33706
1.32328
1.31
1.29746
1.2859
1.27551
1.26647
1.25887
1.25274
1.24805
1.24466
1.24238
1.24098
1.2402
1.23979
1.23953
1.23921
1.23868
1.23782
1.23654
1.23482
1.23263
1.23002
1.22704
1.22377
1.22033
1.21682
1.21338
1.21011
1.2071
1.20444
1.20216
1.20031
1.19888
1.19788
1.19729
1.19712
1.19737
1.19804
1.19914
1.20065
1.20256
1.2048
1.2073
1.20997
1.21268
1.2153
1.21772
1.21981
1.22148
1.22263
1.22322
1.28526
1.28548
1.28595
1.28669
1.28775
1.28917
1.29098
1.29321
1.29584
1.29886
1.30223
1.30589
1.3098
1.31388
1.31812
1.32247
1.32695
1.33158
1.33643
1.34156
1.34707
1.35304
1.35957
1.3667
1.37446
1.38282
1.39174
1.40112
1.41084
1.42079
1.43083
1.44081
1.45061
1.46012
1.46923
1.47788
1.48597
1.49346
1.50031
1.50647
1.51192
1.51664
1.5206
1.52381
1.52625
1.52791
1.52879
1.52889
1.5282
1.52672
1.52444
1.52138
1.51753
1.51289
1.50746
1.50126
1.49429
1.48656
1.47809
1.4689
1.45902
1.44849
1.43737
1.42572
1.41361
1.40116
1.38848
1.37571
1.36302
1.35058
1.3386
1.32725
1.31673
1.30719
1.29876
1.2915
1.28545
1.28057
1.27677
1.2739
1.27179
1.27025
1.26908
1.2681
1.26715
1.26611
1.26485
1.26332
1.26148
1.25931
1.25683
1.25409
1.25114
1.24807
1.24497
1.24192
1.23902
1.23633
1.23393
1.23185
1.23013
1.22878
1.2278
1.22719
1.22696
1.2271
1.22762
1.2285
1.22972
1.23127
1.23309
1.2351
1.23725
1.23942
1.24153
1.24346
1.24514
1.24647
1.24739
1.24787
1.31514
1.31538
1.31588
1.31666
1.31774
1.31916
1.32092
1.32305
1.32554
1.32836
1.33151
1.33493
1.33859
1.34246
1.34651
1.35072
1.35509
1.35966
1.36446
1.36955
1.37498
1.38082
1.38712
1.39392
1.40122
1.409
1.41723
1.42582
1.43469
1.44374
1.45285
1.46191
1.47082
1.47948
1.48779
1.49569
1.5031
1.50997
1.51627
1.52194
1.52696
1.53131
1.53497
1.53792
1.54016
1.54167
1.54244
1.54248
1.54179
1.54035
1.53816
1.53524
1.53158
1.52718
1.52205
1.51621
1.50965
1.5024
1.49447
1.4859
1.47671
1.46695
1.45667
1.44594
1.43483
1.42343
1.41187
1.40025
1.38872
1.37744
1.36655
1.35622
1.34658
1.33776
1.32986
1.32293
1.31699
1.31202
1.30795
1.30467
1.30204
1.29993
1.29818
1.29665
1.2952
1.29374
1.29216
1.29042
1.28847
1.28629
1.28391
1.28134
1.27863
1.27585
1.27305
1.27032
1.26771
1.26529
1.2631
1.26119
1.25958
1.2583
1.25734
1.25672
1.25643
1.25646
1.25683
1.2575
1.25848
1.25971
1.26116
1.26278
1.2645
1.26624
1.26792
1.26946
1.2708
1.27186
1.2726
1.27298
1.34478
1.34503
1.34554
1.34633
1.34741
1.3488
1.3505
1.35254
1.35489
1.35755
1.36051
1.36373
1.36719
1.37086
1.37473
1.37879
1.38305
1.38751
1.39221
1.39719
1.40248
1.40814
1.41418
1.42063
1.42749
1.43475
1.44235
1.45025
1.45837
1.46662
1.47492
1.48317
1.49129
1.49918
1.50676
1.51398
1.52077
1.52707
1.53285
1.53806
1.54268
1.54668
1.55004
1.55274
1.55478
1.55615
1.55683
1.55682
1.55611
1.55472
1.55263
1.54984
1.54636
1.5422
1.53737
1.53186
1.52571
1.51892
1.51151
1.50352
1.49498
1.48593
1.47643
1.46654
1.45633
1.44588
1.4353
1.4247
1.41419
1.4039
1.39395
1.38449
1.37561
1.36742
1.35999
1.35337
1.34757
1.34257
1.33833
1.33477
1.33177
1.32924
1.32706
1.3251
1.32327
1.32148
1.31965
1.31772
1.31568
1.31349
1.31117
1.30873
1.3062
1.30364
1.30108
1.29859
1.29621
1.294
1.29199
1.29022
1.28872
1.28749
1.28655
1.28591
1.28556
1.2855
1.28573
1.28622
1.28696
1.28793
1.28908
1.29036
1.29172
1.29311
1.29444
1.29567
1.29674
1.29758
1.29817
1.29847
1.37416
1.37441
1.37493
1.37571
1.37677
1.37811
1.37976
1.3817
1.38393
1.38645
1.38924
1.39229
1.39557
1.39906
1.40277
1.40668
1.41079
1.41512
1.41969
1.42451
1.42963
1.43506
1.44082
1.44693
1.45337
1.46013
1.46718
1.47446
1.48191
1.48946
1.49704
1.50457
1.51197
1.51918
1.52611
1.53271
1.53892
1.54469
1.54999
1.55477
1.55901
1.56268
1.56576
1.56824
1.57009
1.57131
1.5719
1.57184
1.57114
1.56978
1.56778
1.56513
1.56184
1.55791
1.55335
1.54817
1.5424
1.53604
1.52913
1.52169
1.51375
1.50537
1.49658
1.48745
1.47806
1.46846
1.45876
1.44905
1.43943
1.43
1.42088
1.41217
1.40395
1.39631
1.3893
1.38298
1.37734
1.37237
1.36805
1.3643
1.36105
1.35821
1.3557
1.35343
1.3513
1.34925
1.34722
1.34515
1.34303
1.34082
1.33854
1.3362
1.33381
1.33141
1.32904
1.32674
1.32455
1.32251
1.32065
1.31899
1.31757
1.31639
1.31547
1.3148
1.3144
1.31425
1.31435
1.31468
1.31523
1.31597
1.31686
1.31786
1.31893
1.32002
1.32108
1.32205
1.32289
1.32356
1.32403
1.32427
1.40328
1.40354
1.40404
1.4048
1.40583
1.40714
1.40871
1.41056
1.41269
1.41508
1.41772
1.42061
1.42372
1.42706
1.43061
1.43436
1.43832
1.44249
1.4469
1.45155
1.45646
1.46165
1.46713
1.47289
1.47894
1.48524
1.49177
1.49849
1.50534
1.51227
1.51921
1.5261
1.53286
1.53945
1.54578
1.55182
1.5575
1.56279
1.56764
1.57203
1.57591
1.57927
1.58209
1.58435
1.58602
1.58712
1.58762
1.58752
1.58681
1.5855
1.58358
1.58106
1.57794
1.57423
1.56994
1.56508
1.55967
1.55373
1.54728
1.54035
1.53297
1.5252
1.51707
1.50864
1.49998
1.49115
1.48224
1.47331
1.46448
1.45581
1.4474
1.43935
1.43171
1.42456
1.41795
1.4119
1.40643
1.40153
1.39718
1.39332
1.3899
1.38686
1.38412
1.3816
1.37926
1.37701
1.37482
1.37264
1.37045
1.36823
1.36599
1.36371
1.36143
1.35916
1.35694
1.35479
1.35274
1.35084
1.34909
1.34753
1.34618
1.34504
1.34412
1.34344
1.34299
1.34276
1.34274
1.34294
1.34331
1.34385
1.34452
1.34529
1.34612
1.34697
1.34779
1.34855
1.34922
1.34974
1.35011
1.3503
1.43216
1.4324
1.4329
1.43364
1.43463
1.43588
1.43739
1.43916
1.44118
1.44345
1.44596
1.4487
1.45167
1.45484
1.45823
1.46183
1.46563
1.46964
1.47387
1.47832
1.48302
1.48796
1.49314
1.49857
1.50424
1.51012
1.51618
1.52239
1.5287
1.53507
1.54144
1.54775
1.55394
1.55996
1.56576
1.57128
1.57648
1.58133
1.58577
1.58978
1.59334
1.59641
1.59898
1.60103
1.60255
1.60352
1.60393
1.60379
1.60309
1.60182
1.59998
1.59759
1.59464
1.59114
1.58711
1.58255
1.57748
1.57192
1.5659
1.55945
1.5526
1.54539
1.53786
1.53007
1.52207
1.51393
1.50571
1.49749
1.48935
1.48135
1.47358
1.4661
1.45898
1.45228
1.44602
1.44024
1.43496
1.43015
1.42582
1.42191
1.41839
1.4152
1.4123
1.40962
1.40711
1.40472
1.40241
1.40015
1.39791
1.39568
1.39345
1.39123
1.38903
1.38687
1.38476
1.38273
1.3808
1.379
1.37735
1.37587
1.37457
1.37346
1.37255
1.37185
1.37135
1.37104
1.37093
1.371
1.37123
1.3716
1.37208
1.37266
1.37328
1.37393
1.37457
1.37516
1.37567
1.37608
1.37637
1.37652
1.46079
1.46103
1.4615
1.46222
1.46317
1.46437
1.46581
1.46749
1.46942
1.47157
1.47396
1.47657
1.47939
1.48242
1.48566
1.48909
1.49272
1.49656
1.50061
1.50486
1.50933
1.51401
1.51891
1.52402
1.52932
1.53481
1.54044
1.54618
1.55201
1.55787
1.56372
1.56951
1.57518
1.5807
1.58601
1.59106
1.59583
1.60026
1.60432
1.608
1.61125
1.61405
1.61639
1.61825
1.61961
1.62047
1.62081
1.62063
1.61993
1.6187
1.61695
1.61468
1.61189
1.60859
1.60479
1.60051
1.59577
1.59058
1.58496
1.57895
1.57258
1.56589
1.55891
1.5517
1.5443
1.53678
1.52919
1.5216
1.51407
1.50667
1.49946
1.4925
1.48585
1.47954
1.47362
1.4681
1.463
1.45831
1.45402
1.45011
1.44654
1.44327
1.44026
1.43746
1.43483
1.43234
1.42995
1.42762
1.42535
1.42311
1.42091
1.41873
1.4166
1.41451
1.4125
1.41056
1.40873
1.40702
1.40544
1.40402
1.40276
1.40168
1.40077
1.40005
1.39951
1.39914
1.39894
1.3989
1.39901
1.39923
1.39956
1.39997
1.40043
1.40091
1.40139
1.40184
1.40224
1.40255
1.40277
1.40288
1.48918
1.48941
1.48987
1.49055
1.49147
1.49261
1.49399
1.49559
1.49742
1.49947
1.50174
1.50422
1.50691
1.50979
1.51288
1.51615
1.51962
1.52328
1.52713
1.53118
1.53542
1.53985
1.54447
1.54927
1.55424
1.55935
1.56458
1.5699
1.57528
1.58068
1.58606
1.59138
1.59659
1.60164
1.60651
1.61114
1.6155
1.61955
1.62328
1.62663
1.6296
1.63216
1.63428
1.63596
1.63718
1.63793
1.63821
1.638
1.6373
1.63611
1.63443
1.63228
1.62964
1.62653
1.62296
1.61895
1.61451
1.60965
1.60441
1.59882
1.59289
1.58667
1.58019
1.57351
1.56666
1.55969
1.55267
1.54564
1.53867
1.5318
1.52509
1.5186
1.51236
1.50642
1.50081
1.49554
1.49062
1.48606
1.48185
1.47796
1.47438
1.47107
1.468
1.46513
1.46243
1.45987
1.45742
1.45505
1.45276
1.45052
1.44833
1.4462
1.44411
1.4421
1.44015
1.43829
1.43654
1.43489
1.43338
1.43201
1.43079
1.42972
1.42881
1.42807
1.42749
1.42707
1.42679
1.42666
1.42666
1.42676
1.42696
1.42723
1.42755
1.4279
1.42825
1.42858
1.42887
1.42911
1.42928
1.42936
1.51735
1.51757
1.518
1.51866
1.51953
1.52063
1.52194
1.52346
1.5252
1.52715
1.52931
1.53167
1.53422
1.53697
1.5399
1.54302
1.54632
1.54981
1.55347
1.55731
1.56132
1.56551
1.56985
1.57436
1.579
1.58376
1.58863
1.59356
1.59853
1.60352
1.60847
1.61336
1.61814
1.62278
1.62724
1.63148
1.63547
1.63919
1.64259
1.64566
1.64836
1.65069
1.65262
1.65413
1.65522
1.65588
1.65609
1.65585
1.65515
1.654
1.6524
1.65035
1.64786
1.64493
1.64158
1.63781
1.63365
1.62912
1.62423
1.61901
1.61349
1.60771
1.60169
1.59548
1.58913
1.58267
1.57616
1.56963
1.56315
1.55676
1.55051
1.54444
1.53858
1.53298
1.52765
1.52262
1.51789
1.51347
1.50935
1.50552
1.50195
1.49864
1.49554
1.49263
1.48989
1.48729
1.4848
1.48241
1.48011
1.47787
1.47571
1.4736
1.47157
1.4696
1.46772
1.46592
1.46423
1.46264
1.46118
1.45985
1.45865
1.4576
1.45669
1.45593
1.45532
1.45484
1.45451
1.45429
1.4542
1.4542
1.45429
1.45444
1.45465
1.45488
1.45512
1.45536
1.45557
1.45574
1.45586
1.45592
1.5453
1.5455
1.54592
1.54655
1.54738
1.54842
1.54967
1.55112
1.55278
1.55463
1.55668
1.55892
1.56135
1.56396
1.56674
1.56971
1.57284
1.57615
1.57962
1.58326
1.58705
1.59099
1.59508
1.5993
1.60364
1.60808
1.6126
1.61718
1.62178
1.62638
1.63094
1.63544
1.63984
1.64409
1.64819
1.65207
1.65573
1.65913
1.66224
1.66504
1.66751
1.66962
1.67137
1.67273
1.6737
1.67426
1.67441
1.67415
1.67346
1.67235
1.67082
1.66888
1.66652
1.66376
1.66061
1.65707
1.65318
1.64893
1.64437
1.6395
1.63436
1.62897
1.62338
1.61761
1.6117
1.6057
1.59965
1.59358
1.58755
1.58159
1.57575
1.57005
1.56455
1.55925
1.5542
1.54939
1.54485
1.54058
1.53656
1.5328
1.52928
1.52598
1.52288
1.51996
1.51721
1.51459
1.51209
1.50969
1.50738
1.50516
1.50302
1.50094
1.49895
1.49703
1.4952
1.49345
1.49181
1.49027
1.48885
1.48755
1.48637
1.48533
1.48442
1.48364
1.483
1.48248
1.48209
1.48181
1.48164
1.48155
1.48155
1.48161
1.48171
1.48185
1.48201
1.48216
1.4823
1.48242
1.4825
1.48255
1.57303
1.57323
1.57363
1.57423
1.57502
1.57601
1.5772
1.57858
1.58015
1.58191
1.58386
1.58598
1.58829
1.59076
1.59341
1.59622
1.5992
1.60233
1.60561
1.60905
1.61262
1.61634
1.62018
1.62413
1.62818
1.63232
1.63652
1.64077
1.64503
1.64927
1.65348
1.65763
1.66167
1.66558
1.66933
1.6729
1.67625
1.67936
1.6822
1.68475
1.687
1.68892
1.6905
1.69172
1.69258
1.69306
1.69316
1.69287
1.69219
1.69112
1.68966
1.68781
1.68558
1.68298
1.68001
1.6767
1.67305
1.66907
1.66481
1.66026
1.65547
1.65045
1.64524
1.63987
1.63437
1.62879
1.62315
1.6175
1.61187
1.6063
1.60083
1.59549
1.5903
1.58529
1.58049
1.57591
1.57155
1.56742
1.56352
1.55985
1.55638
1.55312
1.55005
1.54714
1.54439
1.54177
1.53927
1.53687
1.53458
1.53237
1.53025
1.52821
1.52625
1.52437
1.52258
1.52088
1.51928
1.51778
1.51639
1.51512
1.51396
1.51293
1.51202
1.51122
1.51056
1.51
1.50956
1.50922
1.50898
1.50883
1.50874
1.50872
1.50875
1.50881
1.50889
1.50897
1.50906
1.50913
1.50919
1.50922
1.60057
1.60076
1.60114
1.60171
1.60246
1.6034
1.60453
1.60584
1.60733
1.609
1.61085
1.61287
1.61505
1.6174
1.61991
1.62258
1.62539
1.62835
1.63146
1.6347
1.63807
1.64155
1.64516
1.64886
1.65264
1.6565
1.6604
1.66434
1.66828
1.67221
1.67609
1.67991
1.68363
1.68722
1.69067
1.69394
1.69701
1.69985
1.70245
1.70478
1.70682
1.70856
1.70999
1.71108
1.71184
1.71224
1.71229
1.71198
1.71131
1.71028
1.70888
1.70712
1.70501
1.70256
1.69977
1.69666
1.69323
1.68951
1.68552
1.68128
1.6768
1.67212
1.66726
1.66225
1.65713
1.65192
1.64667
1.64139
1.63613
1.63092
1.62579
1.62076
1.61587
1.61113
1.60657
1.60219
1.59801
1.59403
1.59026
1.58668
1.58329
1.58008
1.57704
1.57416
1.57143
1.56882
1.56634
1.56396
1.56168
1.5595
1.5574
1.55539
1.55347
1.55163
1.54987
1.54822
1.54665
1.54519
1.54383
1.54257
1.54143
1.5404
1.53949
1.53868
1.53799
1.53741
1.53693
1.53654
1.53624
1.53602
1.53588
1.53579
1.53574
1.53574
1.53576
1.53579
1.53583
1.53587
1.5359
1.53591
1.62792
1.6281
1.62846
1.629
1.62971
1.63061
1.63168
1.63292
1.63434
1.63592
1.63767
1.63959
1.64166
1.64388
1.64626
1.64878
1.65144
1.65424
1.65716
1.66022
1.66338
1.66666
1.67004
1.6735
1.67703
1.68062
1.68425
1.6879
1.69156
1.69519
1.69877
1.70229
1.70571
1.70902
1.71218
1.71518
1.71799
1.72059
1.72296
1.72509
1.72694
1.72852
1.7298
1.73078
1.73144
1.73178
1.73179
1.73146
1.7308
1.7298
1.72846
1.72679
1.72479
1.72248
1.71985
1.71692
1.71371
1.71023
1.70649
1.70252
1.69834
1.69396
1.68943
1.68476
1.67997
1.67511
1.6702
1.66527
1.66034
1.65546
1.65063
1.6459
1.64128
1.6368
1.63246
1.62828
1.62428
1.62045
1.61679
1.61332
1.61001
1.60687
1.60388
1.60104
1.59834
1.59576
1.5933
1.59095
1.5887
1.58654
1.58447
1.58249
1.5806
1.57879
1.57708
1.57545
1.57392
1.57249
1.57115
1.56992
1.56879
1.56776
1.56685
1.56603
1.56532
1.56471
1.5642
1.56377
1.56342
1.56315
1.56295
1.5628
1.56271
1.56265
1.56261
1.5626
1.5626
1.56261
1.56262
1.56262
1.65509
1.65526
1.6556
1.65611
1.65679
1.65764
1.65865
1.65983
1.66118
1.66268
1.66433
1.66614
1.6681
1.67021
1.67245
1.67484
1.67735
1.67999
1.68275
1.68562
1.68859
1.69167
1.69483
1.69806
1.70136
1.7047
1.70808
1.71147
1.71485
1.71821
1.72152
1.72476
1.72791
1.73095
1.73386
1.73661
1.73918
1.74156
1.74373
1.74566
1.74735
1.74877
1.74993
1.7508
1.75137
1.75165
1.75161
1.75127
1.75062
1.74965
1.74837
1.74678
1.74489
1.7427
1.74023
1.73748
1.73446
1.73119
1.72769
1.72398
1.72006
1.71597
1.71173
1.70737
1.7029
1.69835
1.69375
1.68913
1.68452
1.67993
1.67539
1.67093
1.66657
1.66231
1.65819
1.6542
1.65037
1.64668
1.64316
1.63978
1.63657
1.6335
1.63057
1.62779
1.62512
1.62258
1.62016
1.61783
1.61561
1.61348
1.61145
1.6095
1.60764
1.60587
1.60419
1.60259
1.60109
1.59968
1.59837
1.59716
1.59604
1.59502
1.5941
1.59328
1.59255
1.59192
1.59138
1.59091
1.59053
1.59022
1.58997
1.58977
1.58963
1.58952
1.58945
1.5894
1.58937
1.58935
1.58934
1.58934
1.68208
1.68225
1.68257
1.68305
1.6837
1.6845
1.68546
1.68658
1.68785
1.68927
1.69084
1.69255
1.69441
1.69639
1.69852
1.70076
1.70313
1.70562
1.70822
1.71091
1.71371
1.71659
1.71955
1.72257
1.72564
1.72875
1.73189
1.73504
1.73817
1.74127
1.74433
1.74732
1.75023
1.75302
1.75569
1.75821
1.76057
1.76275
1.76472
1.76648
1.76801
1.7693
1.77033
1.7711
1.7716
1.77182
1.77175
1.7714
1.77075
1.76981
1.76859
1.76708
1.76529
1.76322
1.76089
1.7583
1.75546
1.75239
1.74911
1.74563
1.74196
1.73814
1.73417
1.73008
1.72589
1.72164
1.71733
1.713
1.70866
1.70435
1.70008
1.69587
1.69173
1.6877
1.68378
1.67997
1.6763
1.67276
1.66936
1.6661
1.66297
1.65999
1.65713
1.6544
1.65179
1.64929
1.64691
1.64462
1.64243
1.64034
1.63834
1.63642
1.6346
1.63286
1.63121
1.62964
1.62817
1.62679
1.62549
1.6243
1.62319
1.62218
1.62126
1.62043
1.61969
1.61904
1.61847
1.61798
1.61756
1.61722
1.61693
1.6167
1.61651
1.61637
1.61626
1.61618
1.61612
1.61608
1.61606
1.61605
1.70892
1.70907
1.70938
1.70984
1.71045
1.71121
1.71212
1.71318
1.71438
1.71572
1.7172
1.71882
1.72057
1.72245
1.72445
1.72657
1.7288
1.73114
1.73358
1.73612
1.73874
1.74143
1.7442
1.74702
1.74988
1.75278
1.7557
1.75861
1.76152
1.76439
1.76721
1.76997
1.77265
1.77522
1.77767
1.77998
1.78214
1.78413
1.78593
1.78753
1.78892
1.79008
1.791
1.79168
1.79211
1.79227
1.79218
1.79181
1.79117
1.79027
1.78909
1.78766
1.78596
1.784
1.7818
1.77936
1.77669
1.77381
1.77073
1.76746
1.76402
1.76044
1.75672
1.75289
1.74896
1.74497
1.74093
1.73686
1.73279
1.72872
1.7247
1.72072
1.71681
1.71298
1.70924
1.70561
1.7021
1.6987
1.69542
1.69227
1.68925
1.68634
1.68356
1.68089
1.67834
1.67589
1.67355
1.67131
1.66916
1.6671
1.66514
1.66326
1.66147
1.65976
1.65814
1.65661
1.65516
1.6538
1.65252
1.65134
1.65025
1.64924
1.64832
1.64749
1.64674
1.64607
1.64549
1.64497
1.64453
1.64415
1.64383
1.64357
1.64335
1.64318
1.64304
1.64294
1.64286
1.6428
1.64277
1.64275
1.7356
1.73574
1.73603
1.73647
1.73705
1.73777
1.73863
1.73963
1.74076
1.74203
1.74343
1.74496
1.74661
1.74838
1.75026
1.75226
1.75436
1.75656
1.75885
1.76123
1.76369
1.76621
1.76879
1.77143
1.7741
1.77679
1.7795
1.78221
1.78489
1.78755
1.79016
1.7927
1.79517
1.79753
1.79978
1.80191
1.80388
1.8057
1.80734
1.80879
1.81005
1.81109
1.81192
1.81251
1.81287
1.81299
1.81287
1.81249
1.81187
1.81099
1.80986
1.80849
1.80688
1.80503
1.80295
1.80065
1.79814
1.79543
1.79253
1.78946
1.78624
1.78287
1.77938
1.77579
1.77211
1.76836
1.76456
1.76073
1.7569
1.75307
1.74926
1.7455
1.7418
1.73816
1.73461
1.73114
1.72778
1.72452
1.72136
1.71832
1.7154
1.71258
1.70987
1.70727
1.70478
1.70239
1.7001
1.6979
1.69579
1.69378
1.69185
1.69001
1.68825
1.68658
1.68499
1.68348
1.68206
1.68072
1.67947
1.6783
1.67721
1.67621
1.6753
1.67446
1.67371
1.67303
1.67243
1.6719
1.67143
1.67103
1.67069
1.67039
1.67015
1.66995
1.66979
1.66966
1.66957
1.6695
1.66945
1.66943
1.76213
1.76227
1.76254
1.76295
1.7635
1.76418
1.76499
1.76594
1.76701
1.76821
1.76953
1.77097
1.77253
1.77419
1.77597
1.77785
1.77982
1.78189
1.78404
1.78627
1.78857
1.79093
1.79334
1.79579
1.79828
1.80079
1.8033
1.80581
1.8083
1.81076
1.81317
1.81552
1.81779
1.81996
1.82203
1.82397
1.82578
1.82744
1.82893
1.83026
1.83139
1.83233
1.83306
1.83358
1.83388
1.83396
1.83381
1.83342
1.83281
1.83196
1.83088
1.82957
1.82804
1.82628
1.82432
1.82215
1.81978
1.81723
1.81451
1.81162
1.80859
1.80543
1.80215
1.79877
1.79531
1.79179
1.78822
1.78461
1.781
1.77739
1.77379
1.77023
1.76672
1.76326
1.75988
1.75657
1.75335
1.75022
1.74719
1.74426
1.74143
1.7387
1.73608
1.73355
1.73112
1.72879
1.72655
1.7244
1.72234
1.72036
1.71847
1.71667
1.71495
1.71331
1.71175
1.71027
1.70887
1.70756
1.70632
1.70517
1.7041
1.70311
1.70219
1.70136
1.7006
1.69991
1.6993
1.69875
1.69827
1.69785
1.69748
1.69717
1.69691
1.69669
1.69651
1.69636
1.69625
1.69617
1.69612
1.69609
1.78853
1.78866
1.78892
1.78931
1.78982
1.79046
1.79123
1.79212
1.79313
1.79426
1.79551
1.79686
1.79833
1.7999
1.80157
1.80334
1.80519
1.80713
1.80915
1.81123
1.81338
1.81559
1.81784
1.82013
1.82245
1.82478
1.82711
1.82944
1.83175
1.83402
1.83624
1.83841
1.8405
1.8425
1.8444
1.84618
1.84783
1.84935
1.85071
1.8519
1.85293
1.85377
1.85442
1.85487
1.85512
1.85515
1.85498
1.85459
1.85398
1.85316
1.85213
1.85088
1.84942
1.84775
1.84589
1.84384
1.84161
1.83921
1.83664
1.83392
1.83107