/*--------------------------------*- C++ -*----------------------------------*\
| =========                 |                                                 |
| \\      /  F ield         | OpenFOAM: The Open Source CFD Toolbox           |
|  \\    /   O peration     | Version:  2406                                  |
|   \\  /    A nd           | Website:  www.openfoam.com                      |
|    \\/     M anipulation  |                                                 |
\*---------------------------------------------------------------------------*/
FoamFile
{
    version     2.0;
    format      ascii;
    arch        "LSB;label=32;scalar=64";
    class       volScalarField;
    location    "6.75";
    object      C;
}
// * * * * * * * * * * * * * * * * * * * * * * * * * * * * * * * * * * * * * //

dimensions      [1 -3 0 0 0 0 0];

internalField   nonuniform List<scalar> 
14400
(
0.245922
0.244645
0.242438
0.239801
0.237234
0.235157
0.233877
0.233588
0.234367
0.23618
0.238869
0.242146
0.245579
0.248585
0.250467
0.250543
0.248474
0.244736
0.24013
0.235463
0.231425
0.228574
0.227357
0.22814
0.231245
0.236963
0.245579
0.257384
0.272684
0.291808
0.315109
0.342952
0.375697
0.413636
0.456823
0.50449
0.552305
0.586643
0.609706
0.629659
0.646895
0.661658
0.674138
0.684479
0.692797
0.699178
0.703687
0.706369
0.707256
0.706359
0.703679
0.699198
0.692886
0.684696
0.674559
0.66239
0.648074
0.631467
0.612385
0.590594
0.564614
0.525618
0.474592
0.426888
0.384351
0.347143
0.315038
0.287684
0.264697
0.245706
0.230366
0.21837
0.209444
0.203355
0.199906
0.198938
0.200331
0.203999
0.209887
0.217962
0.228191
0.240526
0.254866
0.271004
0.288513
0.306346
0.320743
0.327468
0.326584
0.318076
0.305658
0.29284
0.280711
0.269786
0.260328
0.252452
0.246162
0.241382
0.23797
0.235727
0.234417
0.23379
0.233621
0.233753
0.234143
0.234879
0.236164
0.238265
0.241475
0.246076
0.252318
0.260403
0.270481
0.282631
0.296845
0.312983
0.330674
0.348927
0.364043
0.371394
0.254116
0.25248
0.249747
0.246576
0.243555
0.241138
0.239648
0.239279
0.240113
0.242114
0.245134
0.248887
0.252938
0.256664
0.259234
0.259648
0.257121
0.252592
0.247178
0.241813
0.237221
0.233951
0.232436
0.233027
0.236031
0.241732
0.250406
0.262341
0.27784
0.29723
0.320862
0.349106
0.382324
0.420818
0.464676
0.513052
0.558574
0.590177
0.612742
0.632375
0.649367
0.663942
0.676275
0.686503
0.694734
0.70105
0.705512
0.708166
0.709038
0.708143
0.705478
0.701029
0.694765
0.686641
0.676593
0.664536
0.650365
0.633942
0.615094
0.593597
0.56875
0.531987
0.481846
0.433814
0.390726
0.352984
0.320401
0.292628
0.269281
0.249983
0.234389
0.222188
0.213107
0.206914
0.203413
0.202447
0.203899
0.207686
0.213757
0.222079
0.232625
0.245351
0.260159
0.276845
0.294978
0.313471
0.327886
0.33406
0.33388
0.326109
0.3134
0.300079
0.287475
0.276162
0.266416
0.258348
0.251963
0.247178
0.243844
0.241745
0.240621
0.240184
0.240158
0.240342
0.240675
0.241266
0.242364
0.244283
0.247354
0.251883
0.258134
0.26632
0.276589
0.289024
0.303611
0.320206
0.338411
0.357132
0.371598
0.377605
0.271051
0.268525
0.264602
0.26029
0.256326
0.25322
0.251304
0.250775
0.251712
0.254087
0.25776
0.262463
0.26777
0.273024
0.277205
0.278665
0.274846
0.268489
0.261362
0.254581
0.248882
0.244786
0.242684
0.242895
0.245702
0.251369
0.260162
0.272358
0.288253
0.308172
0.332464
0.361495
0.395619
0.435103
0.479926
0.5288
0.56957
0.596937
0.618706
0.637733
0.654257
0.668468
0.680517
0.690525
0.698586
0.704775
0.709147
0.711743
0.712589
0.711696
0.709063
0.704675
0.698505
0.690511
0.680633
0.668798
0.654907
0.638842
0.620453
0.599558
0.575935
0.543574
0.496773
0.447766
0.403527
0.364731
0.331208
0.302609
0.278546
0.25864
0.24254
0.229933
0.220546
0.214148
0.210546
0.209588
0.211161
0.215187
0.221621
0.230435
0.24161
0.255107
0.270836
0.288584
0.307853
0.32725
0.34093
0.346356
0.34696
0.341625
0.328871
0.314591
0.301066
0.289002
0.278695
0.270258
0.263692
0.258911
0.255752
0.253972
0.253261
0.25325
0.253554
0.25386
0.254058
0.254313
0.254986
0.256501
0.259264
0.26363
0.269888
0.278263
0.288907
0.3019
0.317217
0.33468
0.353767
0.372815
0.384789
0.389225
0.297823
0.293412
0.287363
0.281186
0.275754
0.2716
0.269044
0.268271
0.269358
0.272278
0.276907
0.283005
0.290186
0.297829
0.304856
0.308987
0.30212
0.292557
0.282746
0.273849
0.266532
0.26123
0.258271
0.257927
0.260445
0.266068
0.275043
0.287633
0.304124
0.324832
0.350103
0.380292
0.415727
0.456563
0.502295
0.549556
0.583166
0.606745
0.627412
0.645593
0.66146
0.675156
0.686801
0.696493
0.70431
0.710316
0.714558
0.717072
0.717879
0.716989
0.714402
0.710103
0.704069
0.696263
0.686632
0.675114
0.661625
0.646066
0.628319
0.608239
0.58566
0.558332
0.517826
0.468321
0.422741
0.382504
0.347625
0.31781
0.292687
0.271875
0.255022
0.241812
0.231973
0.225275
0.22153
0.22059
0.22235
0.226737
0.233712
0.243258
0.255361
0.269994
0.287069
0.306355
0.327205
0.347136
0.358367
0.36322
0.36443
0.361914
0.351527
0.336292
0.321564
0.308461
0.29736
0.288396
0.281583
0.276837
0.273985
0.272754
0.272765
0.273523
0.274454
0.274995
0.274926
0.274541
0.274446
0.275252
0.277484
0.281559
0.287799
0.296438
0.307625
0.321429
0.337792
0.356453
0.376596
0.393821
0.401785
0.405175
0.335499
0.327521
0.318221
0.30944
0.302039
0.296503
0.293107
0.292013
0.29329
0.296909
0.302751
0.310604
0.320108
0.330654
0.34074
0.343449
0.337576
0.324324
0.311184
0.29966
0.290318
0.283496
0.279445
0.278388
0.280538
0.286113
0.295338
0.30846
0.325748
0.347503
0.374056
0.405748
0.442864
0.485442
0.532266
0.571466
0.597621
0.619247
0.638603
0.655767
0.670833
0.683896
0.695039
0.704335
0.711845
0.71762
0.721697
0.724106
0.724864
0.72398
0.721451
0.717267
0.711406
0.703838
0.69452
0.6834
0.670412
0.65548
0.638516
0.619421
0.598092
0.57439
0.541977
0.495232
0.448515
0.406531
0.36991
0.338509
0.311991
0.289984
0.272135
0.25813
0.247696
0.240608
0.236682
0.235776
0.237791
0.242662
0.250356
0.260863
0.274181
0.290283
0.309068
0.330225
0.352731
0.370795
0.379101
0.383714
0.385442
0.384456
0.378963
0.364833
0.349036
0.334732
0.322664
0.313044
0.305934
0.301278
0.298907
0.298525
0.299684
0.301729
0.303805
0.304795
0.30421
0.30266
0.30128
0.300958
0.302364
0.30598
0.312154
0.321112
0.332989
0.347818
0.365448
0.385289
0.405289
0.416748
0.421881
0.424514
0.37531
0.369062
0.356692
0.344986
0.335289
0.328136
0.323737
0.322258
0.323763
0.328211
0.335455
0.345269
0.357154
0.369876
0.376964
0.376683
0.374001
0.362193
0.346255
0.332008
0.320422
0.311854
0.306523
0.30462
0.306334
0.311865
0.321421
0.335222
0.353512
0.376563
0.404671
0.438122
0.477032
0.520752
0.563454
0.592334
0.614124
0.634019
0.651987
0.668038
0.682211
0.694555
0.705123
0.713962
0.721116
0.726621
0.730506
0.732792
0.733493
0.732615
0.730156
0.726107
0.720451
0.713163
0.70421
0.693553
0.681142
0.666925
0.650843
0.632837
0.612855
0.590863
0.565603
0.52853
0.481087
0.43709
0.398385
0.36506
0.336833
0.31335
0.294266
0.279273
0.268103
0.260536
0.256394
0.255541
0.257883
0.26336
0.271947
0.283637
0.298433
0.316299
0.337069
0.360126
0.382978
0.39606
0.402735
0.407092
0.409168
0.409106
0.407161
0.399309
0.383444
0.367985
0.354875
0.344501
0.33706
0.33256
0.330874
0.3317
0.334555
0.338612
0.342766
0.344626
0.343032
0.339396
0.336006
0.334024
0.334253
0.337209
0.343252
0.352569
0.365241
0.381255
0.400248
0.420667
0.434273
0.440437
0.444431
0.446488
0.410943
0.409174
0.400995
0.387394
0.37546
0.36665
0.36114
0.359233
0.361003
0.366387
0.375111
0.386851
0.400229
0.409444
0.411226
0.410493
0.408969
0.403195
0.387402
0.370933
0.357088
0.346644
0.339892
0.337028
0.33825
0.343755
0.353735
0.368377
0.387876
0.412459
0.442342
0.477708
0.518222
0.561131
0.591374
0.612748
0.632514
0.650719
0.667287
0.682187
0.695417
0.706992
0.716935
0.725275
0.732036
0.737242
0.740913
0.743062
0.7437
0.74283
0.740451
0.736554
0.731128
0.724153
0.715606
0.705459
0.69368
0.680236
0.665095
0.64823
0.629627
0.609296
0.587279
0.560029
0.519554
0.474233
0.433354
0.397869
0.367666
0.342441
0.321885
0.305709
0.29366
0.285523
0.281129
0.280349
0.283091
0.2893
0.298947
0.312025
0.328528
0.348395
0.371333
0.396037
0.414183
0.422688
0.428652
0.432751
0.435031
0.435618
0.434724
0.432342
0.423756
0.408051
0.394142
0.382982
0.375197
0.370912
0.370116
0.372484
0.377599
0.384323
0.391771
0.39507
0.391787
0.38493
0.378829
0.37467
0.373386
0.375471
0.381331
0.391021
0.40447
0.421567
0.440999
0.454618
0.461396
0.465815
0.468918
0.470518
0.44523
0.445045
0.442984
0.435189
0.422114
0.412067
0.405386
0.403046
0.405103
0.4115
0.421495
0.434321
0.443238
0.44598
0.445751
0.44509
0.443911
0.442122
0.433893
0.416529
0.400596
0.388249
0.379988
0.376067
0.376745
0.382253
0.392768
0.408427
0.429335
0.455648
0.487371
0.524514
0.565244
0.594903
0.615524
0.634573
0.652463
0.669056
0.684257
0.698007
0.710278
0.721059
0.730352
0.738166
0.744511
0.749399
0.75284
0.754844
0.755415
0.754555
0.752263
0.748531
0.743353
0.736714
0.728601
0.718996
0.707882
0.695244
0.68107
0.66536
0.648128
0.629413
0.609291
0.587878
0.559329
0.517384
0.475008
0.437365
0.405002
0.377798
0.355535
0.337979
0.3249
0.316098
0.311413
0.310726
0.313945
0.321007
0.331876
0.346516
0.364879
0.386781
0.411357
0.433391
0.444448
0.451163
0.456434
0.460231
0.462587
0.463609
0.463472
0.462419
0.460214
0.452744
0.439904
0.428325
0.420303
0.416246
0.416508
0.420474
0.427885
0.436163
0.440477
0.441914
0.440842
0.436843
0.428857
0.422582
0.419675
0.420694
0.42638
0.436408
0.450134
0.467104
0.478737
0.484941
0.489109
0.49251
0.494908
0.496147
0.479704
0.479698
0.479759
0.478471
0.472923
0.463678
0.456005
0.453423
0.455661
0.462863
0.472705
0.479065
0.481204
0.480994
0.480706
0.480207
0.479423
0.478327
0.476483
0.467701
0.4509
0.436949
0.42723
0.422173
0.422255
0.427805
0.438986
0.455858
0.478304
0.506408
0.539357
0.576298
0.603458
0.622622
0.640464
0.657555
0.67371
0.688786
0.702676
0.715306
0.726628
0.736614
0.745249
0.752525
0.758442
0.763001
0.766206
0.768059
0.768561
0.767713
0.765513
0.761956
0.757038
0.750751
0.743088
0.734043
0.723609
0.711787
0.698582
0.684012
0.668111
0.650938
0.63258
0.613163
0.59277
0.564266
0.523184
0.4839
0.44938
0.420004
0.39581
0.376678
0.362418
0.352846
0.347827
0.347252
0.351023
0.359062
0.371303
0.387625
0.407868
0.431471
0.455465
0.468558
0.475345
0.48108
0.485693
0.489149
0.491477
0.492758
0.493136
0.492809
0.492031
0.490812
0.485898
0.478661
0.471182
0.467309
0.468698
0.473201
0.477342
0.479921
0.480096
0.480037
0.480879
0.48124
0.479219
0.475654
0.471908
0.471755
0.477367
0.487382
0.498109
0.506412
0.5109
0.514404
0.517591
0.520206
0.522058
0.523016
0.514185
0.514283
0.514538
0.515072
0.515436
0.513095
0.510113
0.508492
0.510139
0.5135
0.516429
0.516798
0.516341
0.516085
0.515873
0.515609
0.515246
0.514791
0.514304
0.513071
0.505971
0.492319
0.481799
0.475595
0.47505
0.480704
0.492667
0.510955
0.534702
0.563957
0.593993
0.617201
0.634017
0.650259
0.666153
0.681473
0.696038
0.709702
0.722354
0.733912
0.744315
0.753521
0.761503
0.768244
0.773731
0.777959
0.780924
0.782624
0.783058
0.782223
0.780119
0.776742
0.772091
0.766163
0.758959
0.750477
0.740725
0.729712
0.717458
0.703994
0.689368
0.673648
0.656929
0.639333
0.62101
0.601983
0.575055
0.537142
0.501167
0.469588
0.443289
0.422419
0.406838
0.396383
0.390976
0.390534
0.394934
0.404052
0.417792
0.435778
0.457584
0.481381
0.495139
0.501632
0.507272
0.512121
0.516106
0.519198
0.521412
0.522812
0.523506
0.523649
0.523436
0.523099
0.522915
0.521247
0.518506
0.516574
0.516395
0.517035
0.516733
0.515555
0.515076
0.515191
0.515973
0.517388
0.519548
0.520586
0.521003
0.522676
0.526568
0.531702
0.53623
0.538774
0.541482
0.544184
0.546644
0.548666
0.5501
0.550844
0.548568
0.548712
0.549038
0.549617
0.550547
0.551975
0.552868
0.553005
0.553407
0.553259
0.552236
0.551608
0.551274
0.551131
0.551094
0.551109
0.551163
0.551286
0.55156
0.552134
0.552638
0.548981
0.542488
0.535671
0.534805
0.540712
0.553293
0.572869
0.595913
0.617318
0.635258
0.649443
0.663837
0.678243
0.692416
0.706147
0.719265
0.731629
0.743128
0.753673
0.763197
0.771652
0.779
0.785215
0.790279
0.794179
0.796907
0.798456
0.798822
0.798003
0.795997
0.792803
0.788421
0.782853
0.776105
0.768183
0.759101
0.748878
0.737544
0.725138
0.711718
0.697358
0.682155
0.666229
0.649727
0.632818
0.615583
0.591716
0.559573
0.526675
0.49834
0.475726
0.458752
0.447284
0.441415
0.441137
0.446233
0.456436
0.471718
0.490723
0.511933
0.524529
0.530314
0.535387
0.539991
0.544024
0.547413
0.550124
0.552163
0.55357
0.554427
0.554845
0.554964
0.554936
0.554911
0.554964
0.555061
0.554589
0.553331
0.551755
0.550539
0.549749
0.54946
0.549678
0.550433
0.551732
0.553609
0.556063
0.559047
0.561874
0.564145
0.565934
0.567801
0.569886
0.572071
0.574206
0.576134
0.577714
0.578834
0.579414
0.582807
0.58296
0.583284
0.58381
0.584562
0.585522
0.586485
0.587193
0.587197
0.58684
0.58641
0.586123
0.586017
0.586072
0.586261
0.58657
0.58701
0.587629
0.588517
0.589816
0.591737
0.594545
0.595523
0.596136
0.598844
0.605444
0.616535
0.630221
0.644184
0.656567
0.668431
0.680887
0.693645
0.706461
0.71912
0.731434
0.743246
0.754423
0.764855
0.774454
0.78315
0.790889
0.797629
0.803337
0.807991
0.811572
0.814068
0.81547
0.815772
0.81497
0.813063
0.810051
0.805936
0.800724
0.794424
0.787049
0.778618
0.769157
0.758701
0.747297
0.735008
0.721911
0.708102
0.693702
0.678849
0.66371
0.648474
0.633338
0.613959
0.589294
0.560372
0.536722
0.518527
0.505876
0.499439
0.499381
0.505214
0.516056
0.532293
0.547543
0.557278
0.561587
0.565661
0.569609
0.573282
0.57657
0.579397
0.581724
0.583543
0.58488
0.585787
0.586341
0.586637
0.586771
0.586825
0.586827
0.586724
0.586323
0.585567
0.584668
0.583914
0.583444
0.583336
0.583629
0.584348
0.5855
0.587081
0.589049
0.59129
0.593521
0.595522
0.597321
0.599089
0.600898
0.602709
0.604434
0.605972
0.607224
0.608107
0.608564
0.616892
0.617036
0.617329
0.617776
0.618371
0.619065
0.619744
0.62026
0.620476
0.620488
0.620441
0.620458
0.620597
0.620879
0.621308
0.621899
0.62268
0.623705
0.625061
0.626875
0.629314
0.632599
0.636997
0.642549
0.648273
0.65512
0.663269
0.671622
0.680478
0.69035
0.70094
0.712029
0.723396
0.734837
0.746168
0.757224
0.767863
0.777961
0.787415
0.796138
0.804061
0.811126
0.817289
0.822515
0.826775
0.83005
0.832324
0.833585
0.833826
0.833043
0.831234
0.828401
0.824548
0.819683
0.813819
0.806972
0.799165
0.790429
0.780805
0.770342
0.759106
0.747174
0.734643
0.721626
0.708259
0.694697
0.681121
0.667742
0.65481
0.640689
0.623178
0.60358
0.585254
0.57142
0.564344
0.564467
0.570814
0.57993
0.587802
0.593159
0.595451
0.59818
0.601132
0.604108
0.606959
0.609576
0.611882
0.613831
0.615407
0.616619
0.617498
0.618096
0.618472
0.618687
0.618789
0.618796
0.618684
0.618399
0.617946
0.617433
0.617007
0.616776
0.616811
0.617154
0.617829
0.618838
0.620166
0.621764
0.62354
0.625353
0.627092
0.628739
0.630337
0.631909
0.633432
0.63485
0.636096
0.637101
0.637808
0.638172
0.650835
0.650963
0.651218
0.651596
0.652078
0.652624
0.653166
0.653628
0.653959
0.654195
0.654407
0.654671
0.655037
0.655537
0.656195
0.657038
0.658104
0.659449
0.661149
0.663307
0.666048
0.669511
0.673823
0.679014
0.684985
0.691518
0.698513
0.706152
0.71444
0.723414
0.732951
0.742893
0.753072
0.763323
0.77349
0.783432
0.79302
0.802143
0.810705
0.818623
0.825828
0.832265
0.837887
0.842657
0.846545
0.849529
0.851591
0.852719
0.852904
0.852141
0.850429
0.847771
0.844172
0.839642
0.834196
0.827853
0.82064
0.812591
0.803747
0.794162
0.783899
0.773037
0.761669
0.749902
0.737863
0.725698
0.713572
0.701674
0.690222
0.679464
0.669598
0.65839
0.647046
0.637421
0.631096
0.628627
0.629186
0.630875
0.631279
0.631644
0.632832
0.634552
0.636578
0.63873
0.640871
0.642894
0.644724
0.646312
0.647635
0.64869
0.649492
0.650072
0.650467
0.650716
0.650849
0.650883
0.650816
0.650643
0.650386
0.650112
0.649905
0.649841
0.649977
0.650349
0.650976
0.651859
0.65298
0.6543
0.655753
0.65726
0.658753
0.660204
0.661612
0.66297
0.664259
0.665438
0.66646
0.667278
0.66785
0.668143
0.684649
0.684762
0.684986
0.685312
0.685722
0.686187
0.686668
0.687125
0.687538
0.687924
0.688323
0.688782
0.689342
0.690036
0.690896
0.691954
0.693251
0.694837
0.69678
0.699157
0.702059
0.705574
0.709769
0.714659
0.720195
0.726287
0.732889
0.740032
0.747715
0.755917
0.764556
0.773519
0.782676
0.791892
0.801039
0.809993
0.818642
0.826887
0.834638
0.841819
0.848365
0.854219
0.859337
0.863681
0.86722
0.86993
0.871793
0.872796
0.872929
0.872188
0.870571
0.868082
0.864726
0.860517
0.85547
0.849606
0.842953
0.835547
0.827431
0.818658
0.809291
0.799407
0.789092
0.778449
0.767594
0.75666
0.745793
0.735159
0.724939
0.715325
0.706506
0.698664
0.691949
0.686061
0.680959
0.676762
0.673289
0.670808
0.669577
0.669267
0.669682
0.670619
0.671897
0.673365
0.674899
0.676404
0.677807
0.679059
0.680131
0.681013
0.681708
0.682233
0.682609
0.68286
0.683009
0.68307
0.683053
0.68297
0.682844
0.682723
0.682659
0.682707
0.682907
0.683289
0.683866
0.68464
0.685595
0.686701
0.687914
0.689181
0.690457
0.691714
0.692934
0.694102
0.695195
0.696182
0.697029
0.697702
0.698169
0.698409
0.718349
0.718451
0.718652
0.718942
0.71931
0.719735
0.720193
0.720666
0.721145
0.721641
0.722179
0.722792
0.723512
0.724371
0.7254
0.726632
0.728107
0.729869
0.731975
0.734483
0.737458
0.740956
0.74502
0.749658
0.754847
0.760547
0.766725
0.773373
0.78047
0.787981
0.795838
0.803952
0.812219
0.820532
0.82878
0.836858
0.84467
0.852124
0.859142
0.865652
0.871592
0.87691
0.881562
0.885509
0.888723
0.891178
0.892856
0.893743
0.893829
0.89311
0.891586
0.889258
0.886136
0.88223
0.87756
0.872146
0.866018
0.859212
0.851771
0.843748
0.835202
0.826207
0.816844
0.807208
0.797405
0.787553
0.777782
0.768231
0.759051
0.75039
0.742391
0.735174
0.728804
0.72323
0.71841
0.714312
0.71099
0.708523
0.706955
0.706164
0.706011
0.706345
0.707027
0.707933
0.708958
0.710016
0.711041
0.711985
0.712818
0.713523
0.714095
0.714542
0.714874
0.715108
0.715257
0.715336
0.715358
0.715338
0.715299
0.715275
0.715303
0.71542
0.715656
0.716033
0.716561
0.717241
0.71806
0.718997
0.720019
0.721091
0.722181
0.723261
0.72431
0.725309
0.726236
0.727066
0.727773
0.728331
0.728716
0.728914
0.751948
0.752042
0.752227
0.752496
0.752841
0.753248
0.753705
0.754201
0.754735
0.755315
0.75596
0.756694
0.757543
0.758535
0.7597
0.761068
0.762674
0.76456
0.766767
0.769342
0.772332
0.775774
0.779696
0.784105
0.78899
0.794327
0.800092
0.806264
0.812813
0.819698
0.826863
0.834231
0.841719
0.849236
0.85669
0.863991
0.871053
0.877798
0.884153
0.890053
0.895441
0.900268
0.90449
0.908072
0.910984
0.913203
0.914709
0.915489
0.915534
0.914839
0.913403
0.911229
0.908327
0.904709
0.900392
0.895401
0.889762
0.883513
0.876695
0.869359
0.861563
0.853374
0.844869
0.836135
0.827265
0.818366
0.80955
0.800934
0.792642
0.784793
0.777495
0.770835
0.764863
0.759582
0.754983
0.751061
0.747838
0.745337
0.743556
0.742426
0.741851
0.741723
0.741933
0.742382
0.742983
0.74366
0.744355
0.745023
0.745633
0.746164
0.746609
0.746965
0.747239
0.747439
0.747575
0.747659
0.747704
0.747724
0.74774
0.747776
0.747858
0.748013
0.748264
0.748625
0.749104
0.749702
0.750408
0.751207
0.752074
0.752985
0.753914
0.754838
0.755735
0.756587
0.757374
0.758074
0.758667
0.759132
0.759452
0.759616
0.785453
0.785542
0.785717
0.785975
0.786309
0.786712
0.787176
0.787698
0.788278
0.788925
0.789653
0.790481
0.791431
0.792527
0.793796
0.795264
0.796964
0.798928
0.80119
0.803788
0.806752
0.810113
0.813886
0.818077
0.822681
0.82768
0.833053
0.838776
0.844818
0.851138
0.857683
0.86439
0.871189
0.878003
0.884753
0.891362
0.897755
0.903863
0.90962
0.914967
0.919852
0.924229
0.928058
0.931304
0.933939
0.93594
0.937289
0.937971
0.937979
0.937308
0.935957
0.93393
0.931235
0.927886
0.923901
0.919301
0.914117
0.908382
0.902137
0.89543
0.888316
0.880857
0.873124
0.865195
0.857155
0.849096
0.841116
0.833314
0.825791
0.818645
0.811961
0.805808
0.800232
0.795253
0.790878
0.787112
0.783963
0.781433
0.779505
0.778132
0.777244
0.776761
0.7766
0.776681
0.776931
0.777287
0.777697
0.77812
0.778525
0.778893
0.779209
0.779471
0.779677
0.779833
0.779945
0.780022
0.780074
0.780115
0.780161
0.780229
0.78034
0.780512
0.780761
0.781099
0.78153
0.782054
0.782664
0.783347
0.784086
0.784862
0.785653
0.786441
0.787206
0.787931
0.788598
0.789189
0.789688
0.790077
0.790345
0.790481
0.818869
0.818955
0.819126
0.819378
0.819709
0.820114
0.82059
0.821136
0.821755
0.822454
0.823246
0.824146
0.825173
0.826347
0.827691
0.82923
0.83099
0.832997
0.83528
0.837865
0.840778
0.844038
0.847656
0.851638
0.855976
0.860658
0.865664
0.87097
0.876546
0.882351
0.888341
0.894459
0.900645
0.906833
0.912956
0.918948
0.924742
0.930278
0.935495
0.940343
0.944772
0.948739
0.952209
0.955147
0.957528
0.95933
0.960534
0.961128
0.961104
0.960457
0.959186
0.957297
0.954797
0.9517
0.948022
0.943787
0.939022
0.933761
0.928041
0.921908
0.915413
0.908614
0.901576
0.894367
0.887064
0.879748
0.872503
0.865413
0.858564
0.852034
0.845895
0.840205
0.835004
0.830319
0.826163
0.822545
0.819468
0.816926
0.8149
0.813352
0.812232
0.811478
0.811026
0.81081
0.810772
0.810859
0.811025
0.811234
0.811456
0.811671
0.811866
0.812032
0.812167
0.812272
0.81235
0.812409
0.812456
0.812502
0.812558
0.81264
0.81276
0.812933
0.81317
0.813479
0.813862
0.81432
0.814846
0.815431
0.816062
0.816722
0.817396
0.818066
0.818717
0.819333
0.819898
0.820398
0.820817
0.821144
0.821369
0.821483
0.852198
0.852283
0.852452
0.852703
0.853035
0.853446
0.853934
0.854501
0.855151
0.85589
0.856731
0.857684
0.858767
0.859997
0.861393
0.862976
0.864768
0.86679
0.869066
0.871615
0.874457
0.877604
0.881065
0.884841
0.888927
0.893311
0.897975
0.902895
0.908042
0.913381
0.91887
0.92446
0.930098
0.935728
0.941292
0.946732
0.951989
0.95701
0.961741
0.966137
0.970152
0.973748
0.97689
0.979548
0.981697
0.983316
0.984389
0.984904
0.984851
0.984228
0.983035
0.981275
0.978957
0.976094
0.972702
0.968803
0.964425
0.959597
0.954358
0.948748
0.942815
0.936612
0.930197
0.923633
0.916987
0.91033
0.903734
0.897272
0.891017
0.885033
0.879382
0.874112
0.869261
0.864855
0.860912
0.857439
0.854438
0.851903
0.849815
0.848146
0.846855
0.845894
0.845214
0.844762
0.84449
0.844353
0.844312
0.844334
0.844394
0.844471
0.84455
0.844624
0.844686
0.844736
0.844775
0.844808
0.844839
0.844877
0.844932
0.845012
0.845128
0.845291
0.845507
0.845783
0.84612
0.846518
0.84697
0.84747
0.848007
0.848569
0.849142
0.849711
0.850264
0.850786
0.851264
0.851686
0.852039
0.852314
0.852503
0.852598
0.885443
0.885528
0.885696
0.885948
0.886282
0.886699
0.887199
0.887783
0.888457
0.889227
0.890102
0.891093
0.892214
0.89348
0.894907
0.896513
0.898315
0.900331
0.902579
0.905074
0.907829
0.910856
0.914157
0.917734
0.921581
0.925684
0.930029
0.934593
0.939348
0.944262
0.949298
0.954412
0.959559
0.96469
0.969753
0.974697
0.979472
0.98403
0.988324
0.992311
0.995952
0.99921
1.00205
1.00446
1.0064
1.00785
1.0088
1.00925
1.00917
1.00857
1.00745
1.00581
1.00366
1.00102
0.997888
0.9943
0.990276
0.985846
0.981045
0.97591
0.970486
0.964821
0.958967
0.952981
0.946921
0.94085
0.934831
0.928926
0.923197
0.9177
0.912487
0.907599
0.903072
0.898929
0.895189
0.89186
0.888943
0.886432
0.884313
0.882561
0.881146
0.88003
0.879173
0.878534
0.878072
0.87775
0.877535
0.877397
0.877314
0.877267
0.877241
0.877227
0.877218
0.877211
0.877207
0.877207
0.877215
0.877237
0.877279
0.877347
0.877451
0.877595
0.877786
0.878026
0.878318
0.87866
0.879047
0.879473
0.879929
0.880405
0.88089
0.881373
0.881841
0.882282
0.882686
0.883042
0.88334
0.883571
0.88373
0.88381
0.918603
0.918688
0.918857
0.91911
0.919447
0.91987
0.920378
0.920976
0.921667
0.922458
0.923356
0.924372
0.925516
0.926802
0.928243
0.929853
0.931647
0.93364
0.935844
0.938271
0.940932
0.943832
0.946975
0.950359
0.953976
0.957817
0.961865
0.966099
0.970494
0.975021
0.979647
0.984332
0.989037
0.993719
0.998332
1.00283
1.00717
1.01131
1.01521
1.01883
1.02213
1.02509
1.02766
1.02983
1.03158
1.03288
1.03373
1.03411
1.03401
1.03343
1.03238
1.03086
1.02886
1.02642
1.02353
1.02023
1.01653
1.01247
1.00806
1.00336
0.998399
0.99322
0.98787
0.982401
0.976866
0.971318
0.965812
0.960404
0.955145
0.950084
0.945265
0.940726
0.936497
0.932602
0.929056
0.925868
0.923041
0.92057
0.918443
0.91664
0.915138
0.913907
0.912915
0.912128
0.911513
0.91104
0.910679
0.910406
0.9102
0.910042
0.90992
0.909824
0.909747
0.909684
0.909634
0.909598
0.909578
0.909577
0.909598
0.909648
0.909731
0.909852
0.910014
0.910218
0.910467
0.910756
0.911084
0.911445
0.91183
0.912232
0.912642
0.913049
0.913444
0.913816
0.914157
0.914456
0.914707
0.914901
0.915034
0.915102
0.951679
0.951764
0.951933
0.952187
0.952527
0.952954
0.953469
0.954075
0.954777
0.955581
0.956493
0.957522
0.958677
0.959969
0.96141
0.96301
0.964782
0.966737
0.968885
0.971235
0.973794
0.976566
0.979552
0.982749
0.986149
0.989742
0.993513
0.997443
1.00151
1.00568
1.00994
1.01423
1.01854
1.02282
1.02702
1.03112
1.03508
1.03884
1.04238
1.04567
1.04866
1.05134
1.05367
1.05563
1.05721
1.05837
1.05912
1.05944
1.05933
1.05878
1.05779
1.05637
1.05452
1.05226
1.0496
1.04656
1.04316
1.03942
1.03538
1.03107
1.02653
1.02179
1.01689
1.01189
1.00682
1.00174
0.996697
0.991733
0.986895
0.982226
0.977764
0.973543
0.969589
0.965925
0.962564
0.959516
0.956784
0.954364
0.952247
0.950419
0.948859
0.947546
0.946452
0.94555
0.944814
0.944217
0.943736
0.943348
0.943035
0.942781
0.942574
0.942403
0.942261
0.942144
0.942048
0.941974
0.941922
0.941893
0.94189
0.941916
0.941975
0.942068
0.942199
0.942367
0.942573
0.942815
0.943089
0.943391
0.943714
0.944052
0.944396
0.944738
0.945069
0.945382
0.945668
0.945919
0.94613
0.946293
0.946404
0.946461
0.98467
0.984755
0.984924
0.985179
0.985521
0.985949
0.986468
0.987079
0.987787
0.988596
0.989514
0.990546
0.991701
0.992988
0.994416
0.995995
0.997734
0.999641
1.00172
1.00399
1.00644
1.00909
1.01192
1.01494
1.01813
1.02149
1.025
1.02865
1.03241
1.03627
1.04018
1.04412
1.04807
1.05198
1.05582
1.05956
1.06316
1.06659
1.06981
1.0728
1.07551
1.07794
1.08005
1.08182
1.08324
1.08428
1.08494
1.08521
1.08508
1.08456
1.08363
1.0823
1.08059
1.0785
1.07605
1.07325
1.07012
1.06668
1.06298
1.05902
1.05485
1.05051
1.04602
1.04144
1.03679
1.03213
1.0275
1.02293
1.01848
1.01416
1.01002
1.00609
1.00239
0.998944
0.995759
0.992848
0.990214
0.987855
0.985763
0.983928
0.982335
0.980964
0.979796
0.978807
0.977975
0.97728
0.9767
0.976216
0.975812
0.975474
0.975191
0.974952
0.97475
0.974581
0.974441
0.974328
0.974242
0.974183
0.974153
0.974152
0.974183
0.974247
0.974346
0.974478
0.974644
0.974842
0.975067
0.975316
0.975585
0.975865
0.976152
0.976437
0.976714
0.976975
0.977214
0.977424
0.9776
0.977736
0.977829
0.977876
1.01758
1.01766
1.01783
1.01809
1.01843
1.01886
1.01937
1.01999
1.02069
1.0215
1.02242
1.02345
1.02459
1.02587
1.02727
1.02882
1.03052
1.03237
1.03438
1.03656
1.0389
1.04142
1.0441
1.04694
1.04994
1.05309
1.05636
1.05975
1.06323
1.06679
1.07039
1.07402
1.07763
1.08122
1.08473
1.08814
1.09142
1.09455
1.09748
1.10019
1.10266
1.10486
1.10677
1.10837
1.10964
1.11057
1.11116
1.11138
1.11124
1.11073
1.10986
1.10863
1.10704
1.10511
1.10284
1.10026
1.09738
1.09422
1.09081
1.08718
1.08336
1.07937
1.07525
1.07105
1.06678
1.0625
1.05824
1.05403
1.04991
1.04592
1.04207
1.03841
1.03495
1.0317
1.02868
1.0259
1.02337
1.02108
1.01902
1.0172
1.01559
1.01418
1.01296
1.01191
1.011
1.01023
1.00957
1.009
1.00852
1.00811
1.00776
1.00746
1.00721
1.00699
1.00681
1.00666
1.00654
1.00645
1.00639
1.00636
1.00636
1.00639
1.00646
1.00656
1.00668
1.00684
1.00702
1.00722
1.00744
1.00767
1.00791
1.00814
1.00837
1.00859
1.00879
1.00896
1.00911
1.00922
1.0093
1.00934
1.0504
1.05048
1.05065
1.0509
1.05124
1.05167
1.05219
1.0528
1.0535
1.0543
1.05521
1.05623
1.05736
1.05861
1.05999
1.0615
1.06314
1.06493
1.06687
1.06896
1.0712
1.07358
1.07612
1.0788
1.08161
1.08455
1.0876
1.09075
1.09397
1.09726
1.10058
1.10392
1.10724
1.11052
1.11373
1.11685
1.11985
1.12269
1.12536
1.12783
1.13007
1.13206
1.13379
1.13524
1.13638
1.13721
1.13773
1.13791
1.13776
1.13728
1.13646
1.13531
1.13383
1.13204
1.12995
1.12757
1.12492
1.12201
1.11888
1.11554
1.11202
1.10836
1.10458
1.10071
1.09679
1.09285
1.08892
1.08503
1.08123
1.07752
1.07395
1.07053
1.06728
1.06422
1.06136
1.05872
1.05628
1.05406
1.05205
1.05025
1.04864
1.04721
1.04596
1.04486
1.0439
1.04306
1.04234
1.04171
1.04116
1.04069
1.04028
1.03993
1.03963
1.03936
1.03914
1.03895
1.0388
1.03868
1.03859
1.03853
1.0385
1.03851
1.03854
1.0386
1.0387
1.03881
1.03895
1.03911
1.03929
1.03947
1.03967
1.03986
1.04005
1.04022
1.04039
1.04053
1.04065
1.04074
1.04081
1.04084
1.08314
1.08322
1.08339
1.08364
1.08397
1.0844
1.08491
1.08551
1.08621
1.087
1.0879
1.0889
1.09
1.09123
1.09257
1.09404
1.09563
1.09735
1.09921
1.10121
1.10334
1.1056
1.108
1.11052
1.11315
1.1159
1.11874
1.12167
1.12466
1.12769
1.13076
1.13383
1.13688
1.13989
1.14283
1.14568
1.14842
1.15101
1.15345
1.15569
1.15773
1.15954
1.1611
1.1624
1.16343
1.16418
1.16463
1.16478
1.16462
1.16415
1.16339
1.16231
1.16094
1.15929
1.15735
1.15515
1.15271
1.15003
1.14714
1.14407
1.14084
1.13747
1.13399
1.13043
1.12681
1.12318
1.11955
1.11596
1.11244
1.109
1.10567
1.10247
1.09943
1.09654
1.09384
1.09132
1.08898
1.08684
1.08488
1.0831
1.08151
1.08007
1.0788
1.07767
1.07666
1.07578
1.07501
1.07433
1.07373
1.07321
1.07275
1.07235
1.072
1.0717
1.07144
1.07122
1.07103
1.07088
1.07076
1.07067
1.07061
1.07059
1.07059
1.07062
1.07068
1.07076
1.07087
1.07099
1.07112
1.07127
1.07142
1.07158
1.07173
1.07187
1.072
1.07212
1.07222
1.0723
1.07235
1.07237
1.11579
1.11587
1.11604
1.11629
1.11662
1.11703
1.11754
1.11813
1.11882
1.1196
1.12047
1.12145
1.12253
1.12373
1.12503
1.12645
1.12798
1.12964
1.13142
1.13332
1.13534
1.13749
1.13975
1.14212
1.14459
1.14716
1.14981
1.15252
1.15529
1.1581
1.16093
1.16376
1.16656
1.16933
1.17202
1.17463
1.17713
1.1795
1.18172
1.18376
1.18561
1.18725
1.18867
1.18985
1.19077
1.19144
1.19183
1.19195
1.19178
1.19134
1.19061
1.18961
1.18834
1.1868
1.18501
1.18298
1.18072
1.17826
1.1756
1.17277
1.16979
1.16668
1.16347
1.16019
1.15686
1.15351
1.15015
1.14683
1.14356
1.14036
1.13726
1.13427
1.13141
1.12869
1.12613
1.12373
1.12149
1.11942
1.11752
1.11578
1.11421
1.11278
1.11149
1.11034
1.10932
1.1084
1.10759
1.10686
1.10622
1.10566
1.10516
1.10472
1.10433
1.10399
1.1037
1.10344
1.10322
1.10304
1.10289