/*--------------------------------*- C++ -*----------------------------------*\
| =========                 |                                                 |
| \\      /  F ield         | OpenFOAM: The Open Source CFD Toolbox           |
|  \\    /   O peration     | Version:  2406                                  |
|   \\  /    A nd           | Website:  www.openfoam.com                      |
|    \\/     M anipulation  |                                                 |
\*---------------------------------------------------------------------------*/
FoamFile
{
    version     2.0;
    format      ascii;
    arch        "LSB;label=32;scalar=64";
    class       volScalarField;
    location    "6.75";
    object      Da;
}
// * * * * * * * * * * * * * * * * * * * * * * * * * * * * * * * * * * * * * //

dimensions      [0 2 -1 0 0 0 0];

internalField   nonuniform List<scalar> 
14400
(
4.59101e-05
4.58638e-05
4.57913e-05
4.57144e-05
4.56469e-05
4.55953e-05
4.55619e-05
4.55479e-05
4.55546e-05
4.55847e-05
4.56414e-05
4.57274e-05
4.58397e-05
4.59612e-05
4.60458e-05
4.6021e-05
4.58489e-05
4.5598e-05
4.53337e-05
4.50836e-05
4.48531e-05
4.46394e-05
4.44389e-05
4.42496e-05
4.40717e-05
4.3907e-05
4.37584e-05
4.36294e-05
4.35243e-05
4.34485e-05
4.34097e-05
4.34201e-05
4.35021e-05
4.37034e-05
4.41499e-05
4.53167e-05
5.01143e-05
7.75813e-05
7.8e-05
7.8e-05
7.8e-05
7.8e-05
7.8e-05
7.8e-05
7.8e-05
7.8e-05
7.8e-05
7.8e-05
7.8e-05
7.8e-05
7.8e-05
7.8e-05
7.8e-05
7.8e-05
7.8e-05
7.8e-05
7.8e-05
7.8e-05
7.8e-05
7.8e-05
7.23058e-05
4.7412e-05
4.4828e-05
4.41071e-05
4.38187e-05
4.37104e-05
4.37044e-05
4.37686e-05
4.38868e-05
4.40492e-05
4.42479e-05
4.44742e-05
4.47166e-05
4.496e-05
4.51869e-05
4.53796e-05
4.55249e-05
4.5618e-05
4.56646e-05
4.56803e-05
4.56897e-05
4.5726e-05
4.5837e-05
4.61087e-05
4.67643e-05
4.88076e-05
6.08825e-05
7.79904e-05
6.73786e-05
4.91956e-05
4.66395e-05
4.5808e-05
4.54205e-05
4.52224e-05
4.51275e-05
4.50961e-05
4.5106e-05
4.5143e-05
4.51959e-05
4.52551e-05
4.53106e-05
4.53523e-05
4.53704e-05
4.53576e-05
4.53121e-05
4.52381e-05
4.51442e-05
4.50406e-05
4.49373e-05
4.48433e-05
4.47672e-05
4.47186e-05
4.47099e-05
4.47596e-05
4.4901e-05
4.5205e-05
4.5874e-05
4.78305e-05
5.89449e-05
7.79842e-05
4.59146e-05
4.58438e-05
4.57411e-05
4.56389e-05
4.55534e-05
4.54902e-05
4.54506e-05
4.54345e-05
4.54433e-05
4.54799e-05
4.55488e-05
4.56558e-05
4.58033e-05
4.59806e-05
4.61379e-05
4.61582e-05
4.59318e-05
4.56164e-05
4.53092e-05
4.50361e-05
4.47953e-05
4.4579e-05
4.43807e-05
4.41965e-05
4.40253e-05
4.3868e-05
4.37271e-05
4.36059e-05
4.35086e-05
4.34408e-05
4.34107e-05
4.34316e-05
4.35286e-05
4.37571e-05
4.42793e-05
4.58602e-05
5.54026e-05
7.79732e-05
7.8e-05
7.8e-05
7.8e-05
7.8e-05
7.8e-05
7.8e-05
7.8e-05
7.8e-05
7.8e-05
7.8e-05
7.8e-05
7.8e-05
7.8e-05
7.8e-05
7.8e-05
7.8e-05
7.8e-05
7.8e-05
7.8e-05
7.8e-05
7.8e-05
7.8e-05
7.60011e-05
4.81713e-05
4.50651e-05
4.41988e-05
4.38587e-05
4.37254e-05
4.37035e-05
4.37548e-05
4.38607e-05
4.401e-05
4.41943e-05
4.44045e-05
4.46295e-05
4.48555e-05
4.50664e-05
4.52467e-05
4.53851e-05
4.54776e-05
4.55299e-05
4.55568e-05
4.55817e-05
4.56374e-05
4.57725e-05
4.60779e-05
4.67979e-05
4.91232e-05
6.52565e-05
7.79992e-05
7.30477e-05
4.98275e-05
4.68288e-05
4.58649e-05
4.5422e-05
4.51944e-05
4.50809e-05
4.50363e-05
4.50368e-05
4.50674e-05
4.51172e-05
4.51765e-05
4.52351e-05
4.52818e-05
4.53048e-05
4.52947e-05
4.52488e-05
4.51725e-05
4.50765e-05
4.49728e-05
4.48719e-05
4.47828e-05
4.4714e-05
4.46748e-05
4.46779e-05
4.47432e-05
4.4907e-05
4.52495e-05
4.60076e-05
4.83872e-05
6.57805e-05
7.79996e-05
4.60006e-05
4.58573e-05
4.56793e-05
4.55214e-05
4.53995e-05
4.53142e-05
4.52627e-05
4.52429e-05
4.52552e-05
4.53033e-05
4.53945e-05
4.5541e-05
4.57589e-05
4.6063e-05
4.64294e-05
4.66517e-05
4.61946e-05
4.5692e-05
4.52829e-05
4.49596e-05
4.46968e-05
4.44742e-05
4.42786e-05
4.41026e-05
4.39428e-05
4.37986e-05
4.36716e-05
4.35647e-05
4.3482e-05
4.34296e-05
4.34168e-05
4.34595e-05
4.35882e-05
4.3873e-05
4.45346e-05
4.67923e-05
6.64739e-05
7.79999e-05
7.8e-05
7.8e-05
7.8e-05
7.8e-05
7.8e-05
7.8e-05
7.8e-05
7.8e-05
7.8e-05
7.8e-05
7.8e-05
7.8e-05
7.8e-05
7.8e-05
7.8e-05
7.8e-05
7.8e-05
7.8e-05
7.8e-05
7.8e-05
7.8e-05
7.8e-05
7.7966e-05
5.48448e-05
4.58865e-05
4.44181e-05
4.39468e-05
4.37601e-05
4.3706e-05
4.37321e-05
4.38145e-05
4.39396e-05
4.40976e-05
4.42793e-05
4.44743e-05
4.46703e-05
4.48542e-05
4.50138e-05
4.51405e-05
4.52322e-05
4.52944e-05
4.53409e-05
4.53936e-05
4.54854e-05
4.56685e-05
4.60482e-05
4.69217e-05
4.97564e-05
7.22698e-05
7.8e-05
7.78308e-05
5.40949e-05
4.75115e-05
4.60372e-05
4.54504e-05
4.51582e-05
4.50071e-05
4.49376e-05
4.49209e-05
4.49407e-05
4.4986e-05
4.50471e-05
4.51137e-05
4.51725e-05
4.52075e-05
4.52035e-05
4.51552e-05
4.50712e-05
4.49681e-05
4.48615e-05
4.47631e-05
4.46817e-05
4.46254e-05
4.46034e-05
4.46291e-05
4.47259e-05
4.49391e-05
4.53761e-05
4.63734e-05
4.96221e-05
7.5055e-05
7.8e-05
4.64113e-05
4.60277e-05
4.5677e-05
4.54172e-05
4.52368e-05
4.51186e-05
4.50499e-05
4.50246e-05
4.50416e-05
4.51054e-05
4.52275e-05
4.54312e-05
4.57605e-05
4.63074e-05
4.72801e-05
4.89718e-05
4.69602e-05
4.59133e-05
4.52967e-05
4.48855e-05
4.45854e-05
4.43502e-05
4.41553e-05
4.39876e-05
4.38409e-05
4.37127e-05
4.36035e-05
4.35154e-05
4.34529e-05
4.34228e-05
4.34366e-05
4.35151e-05
4.37008e-05
4.40984e-05
4.50618e-05
4.8585e-05
7.68055e-05
7.8e-05
7.8e-05
7.8e-05
7.8e-05
7.8e-05
7.8e-05
7.8e-05
7.8e-05
7.8e-05
7.8e-05
7.8e-05
7.8e-05
7.8e-05
7.8e-05
7.8e-05
7.8e-05
7.8e-05
7.8e-05
7.8e-05
7.8e-05
7.8e-05
7.8e-05
7.8e-05
7.8e-05
6.87514e-05
4.71724e-05
4.47747e-05
4.40964e-05
4.38248e-05
4.37208e-05
4.37095e-05
4.37587e-05
4.38511e-05
4.39752e-05
4.41213e-05
4.42796e-05
4.44402e-05
4.45929e-05
4.47289e-05
4.48427e-05
4.4934e-05
4.50087e-05
4.50797e-05
4.51685e-05
4.53097e-05
4.55665e-05
4.60874e-05
4.74044e-05
5.29004e-05
7.76781e-05
7.8e-05
7.8e-05
7.00945e-05
4.91641e-05
4.64311e-05
4.55552e-05
4.51503e-05
4.49403e-05
4.48345e-05
4.47947e-05
4.48015e-05
4.48433e-05
4.49112e-05
4.49948e-05
4.50786e-05
4.51392e-05
4.51467e-05
4.50899e-05
4.49851e-05
4.48631e-05
4.47457e-05
4.46459e-05
4.45719e-05
4.45307e-05
4.45317e-05
4.45905e-05
4.47375e-05
4.50405e-05
4.56954e-05
4.76773e-05
6.14744e-05
7.79971e-05
7.8e-05
4.84434e-05
4.66688e-05
4.58498e-05
4.53955e-05
4.51219e-05
4.49559e-05
4.48633e-05
4.483e-05
4.4853e-05
4.4938e-05
4.51028e-05
4.53906e-05
4.59029e-05
4.69615e-05
5.0275e-05
7.20335e-05
4.96519e-05
4.64932e-05
4.54189e-05
4.4854e-05
4.44933e-05
4.42352e-05
4.40356e-05
4.38735e-05
4.37387e-05
4.36268e-05
4.35369e-05
4.34709e-05
4.34332e-05
4.34324e-05
4.34839e-05
4.36184e-05
4.39086e-05
4.45817e-05
4.68537e-05
6.68566e-05
7.79999e-05
7.8e-05
7.8e-05
7.8e-05
7.8e-05
7.8e-05
7.8e-05
7.8e-05
7.8e-05
7.8e-05
7.8e-05
7.8e-05
7.8e-05
7.8e-05
7.8e-05
7.8e-05
7.8e-05
7.8e-05
7.8e-05
7.8e-05
7.8e-05
7.8e-05
7.8e-05
7.8e-05
7.8e-05
7.77724e-05
5.09935e-05
4.5532e-05
4.43711e-05
4.39463e-05
4.37643e-05
4.37005e-05
4.37071e-05
4.37604e-05
4.38463e-05
4.39541e-05
4.4075e-05
4.42004e-05
4.4323e-05
4.44369e-05
4.45394e-05
4.46317e-05
4.47205e-05
4.48191e-05
4.49501e-05
4.5154e-05
4.55145e-05
4.62709e-05
4.86482e-05
6.70774e-05
7.79998e-05
7.8e-05
7.8e-05
7.7966e-05
5.67699e-05
4.75279e-05
4.58484e-05
4.52302e-05
4.49272e-05
4.47695e-05
4.46999e-05
4.46927e-05
4.47349e-05
4.4819e-05
4.49374e-05
4.50733e-05
4.51949e-05
4.52286e-05
4.51453e-05
4.49839e-05
4.48164e-05
4.46712e-05
4.45609e-05
4.44905e-05
4.44654e-05
4.44953e-05
4.46009e-05
4.48271e-05
4.52881e-05
4.63627e-05
5.01971e-05
7.69335e-05
7.8e-05
7.8e-05
6.7733e-05
4.91793e-05
4.64657e-05
4.55608e-05
4.51194e-05
4.48781e-05
4.47487e-05
4.47032e-05
4.4735e-05
4.48521e-05
4.50841e-05
4.55204e-05
4.64282e-05
4.92134e-05
7.06221e-05
7.79998e-05
6.6776e-05
4.82731e-05
4.57878e-05
4.49181e-05
4.44553e-05
4.41574e-05
4.39439e-05
4.37816e-05
4.36552e-05
4.3558e-05
4.34878e-05
4.34463e-05
4.34387e-05
4.34764e-05
4.35816e-05
4.38051e-05
4.42919e-05
4.56876e-05
5.37881e-05
7.79556e-05
7.8e-05
7.8e-05
7.8e-05
7.8e-05
7.8e-05
7.8e-05
7.8e-05
7.8e-05
7.8e-05
7.8e-05
7.8e-05
7.8e-05
7.8e-05
7.8e-05
7.8e-05
7.8e-05
7.8e-05
7.8e-05
7.8e-05
7.8e-05
7.8e-05
7.8e-05
7.8e-05
7.8e-05
7.8e-05
7.8e-05
7.16977e-05
4.75895e-05
4.49373e-05
4.41799e-05
4.38639e-05
4.37239e-05
4.36759e-05
4.3684e-05
4.37291e-05
4.37988e-05
4.38841e-05
4.39778e-05
4.40743e-05
4.417e-05
4.42642e-05
4.436e-05
4.44654e-05
4.45953e-05
4.47774e-05
4.50654e-05
4.55865e-05
4.67686e-05
5.11473e-05
7.73322e-05
7.8e-05
7.8e-05
7.8e-05
7.8e-05
7.68954e-05
5.03739e-05
4.65856e-05
4.55105e-05
4.50407e-05
4.47976e-05
4.46852e-05
4.46619e-05
4.47114e-05
4.48303e-05
4.5023e-05
4.52797e-05
4.55941e-05
4.57141e-05
4.55322e-05
4.51847e-05
4.49045e-05
4.46941e-05
4.45549e-05
4.44806e-05
4.44728e-05
4.45426e-05
4.47232e-05
4.50994e-05
4.59626e-05
4.88257e-05
7.24041e-05
7.8e-05
7.8e-05
7.8e-05
7.79999e-05
6.80095e-05
4.88403e-05
4.61867e-05
4.534e-05
4.49568e-05
4.47593e-05
4.46919e-05
4.47394e-05
4.4916e-05
4.52762e-05
4.60723e-05
4.8454e-05
6.40938e-05
7.79992e-05
7.8e-05
7.79367e-05
5.47431e-05
4.67556e-05
4.51671e-05
4.45179e-05
4.41495e-05
4.3906e-05
4.37336e-05
4.36096e-05
4.35243e-05
4.34743e-05
4.34612e-05
4.34923e-05
4.35852e-05
4.37757e-05
4.41603e-05
4.50831e-05
4.85065e-05
7.68345e-05
7.8e-05
7.8e-05
7.8e-05
7.8e-05
7.8e-05
7.8e-05
7.8e-05
7.8e-05
7.8e-05
7.8e-05
7.8e-05
7.8e-05
7.8e-05
7.8e-05
7.8e-05
7.8e-05
7.8e-05
7.8e-05
7.8e-05
7.8e-05
7.8e-05
7.8e-05
7.8e-05
7.8e-05
7.8e-05
7.8e-05
7.8e-05
7.79983e-05
6.07676e-05
4.65843e-05
4.46702e-05
4.40711e-05
4.38081e-05
4.36859e-05
4.36397e-05
4.36405e-05
4.36723e-05
4.37247e-05
4.37907e-05
4.38658e-05
4.39479e-05
4.4038e-05
4.4141e-05
4.42672e-05
4.44362e-05
4.46866e-05
4.51077e-05
4.59658e-05
4.86282e-05
7.00317e-05
7.8e-05
7.8e-05
7.8e-05
7.8e-05
7.8e-05
7.8e-05
7.4764e-05
4.94493e-05
4.63667e-05
4.54552e-05
4.50173e-05
4.48269e-05
4.47802e-05
4.48511e-05
4.50469e-05
4.54309e-05
4.60345e-05
4.74294e-05
4.80961e-05
4.72721e-05
4.59052e-05
4.52924e-05
4.49107e-05
4.47015e-05
4.46078e-05
4.46226e-05
4.47604e-05
4.50944e-05
4.58559e-05
4.84574e-05
6.81131e-05
7.8e-05
7.8e-05
7.8e-05
7.8e-05
7.8e-05
7.79998e-05
6.70643e-05
4.87007e-05
4.61127e-05
4.53698e-05
4.49975e-05
4.48805e-05
4.49632e-05
4.52901e-05
4.59764e-05
4.82664e-05
6.19231e-05
7.79971e-05
7.8e-05
7.8e-05
7.8e-05
7.65198e-05
4.93814e-05
4.58428e-05
4.47761e-05
4.4266e-05
4.39587e-05
4.37577e-05
4.36258e-05
4.35487e-05
4.35214e-05
4.35457e-05
4.36343e-05
4.38233e-05
4.41862e-05
4.49933e-05
4.78655e-05
7.44909e-05
7.8e-05
7.8e-05
7.8e-05
7.8e-05
7.8e-05
7.8e-05
7.8e-05
7.8e-05
7.8e-05
7.8e-05
7.8e-05
7.8e-05
7.8e-05
7.8e-05
7.8e-05
7.8e-05
7.8e-05
7.8e-05
7.8e-05
7.8e-05
7.8e-05
7.8e-05
7.8e-05
7.8e-05
7.8e-05
7.8e-05
7.8e-05
7.8e-05
7.8e-05
7.79223e-05
5.29033e-05
4.58529e-05
4.44996e-05
4.40051e-05
4.37683e-05
4.36496e-05
4.35985e-05
4.35903e-05
4.36111e-05
4.36527e-05
4.37105e-05
4.37836e-05
4.38744e-05
4.39904e-05
4.41462e-05
4.43696e-05
4.47244e-05
4.53964e-05
4.72392e-05
5.8533e-05
7.79899e-05
7.8e-05
7.8e-05
7.8e-05
7.8e-05
7.8e-05
7.8e-05
7.8e-05
7.47023e-05
4.98728e-05
4.69361e-05
4.57102e-05
4.53207e-05
4.52202e-05
4.53563e-05
4.57604e-05
4.6971e-05
4.90389e-05
6.28757e-05
7.12968e-05
6.1299e-05
4.87488e-05
4.66741e-05
4.55956e-05
4.51883e-05
4.50254e-05
4.50895e-05
4.5394e-05
4.62164e-05
4.86921e-05
6.8729e-05
7.79999e-05
7.8e-05
7.8e-05
7.8e-05
7.8e-05
7.8e-05
7.8e-05
7.79999e-05
7.0456e-05
4.92459e-05
4.70032e-05
4.57846e-05
4.5518e-05
4.57053e-05
4.67124e-05
4.87954e-05
6.57974e-05
7.79976e-05
7.8e-05
7.8e-05
7.8e-05
7.8e-05
7.8e-05
7.38095e-05
4.85496e-05
4.55561e-05
4.46456e-05
4.41784e-05
4.3905e-05
4.37436e-05
4.36695e-05
4.36735e-05
4.37602e-05
4.39552e-05
4.43776e-05
4.52658e-05
4.80122e-05
7.37357e-05
7.8e-05
7.8e-05
7.8e-05
7.8e-05
7.8e-05
7.8e-05
7.8e-05
7.8e-05
7.8e-05
7.8e-05
7.8e-05
7.8e-05
7.8e-05
7.8e-05
7.8e-05
7.8e-05
7.8e-05
7.8e-05
7.8e-05
7.8e-05
7.8e-05
7.8e-05
7.8e-05
7.8e-05
7.8e-05
7.8e-05
7.8e-05
7.8e-05
7.8e-05
7.8e-05
7.8e-05
7.75101e-05
4.98452e-05
4.55483e-05
4.44511e-05
4.39877e-05
4.37507e-05
4.36281e-05
4.35719e-05
4.3559e-05
4.35771e-05
4.36208e-05
4.36895e-05
4.37876e-05
4.39267e-05
4.41301e-05
4.4443e-05
4.49851e-05
4.62249e-05
5.12082e-05
7.76453e-05
7.8e-05
7.8e-05
7.8e-05
7.8e-05
7.8e-05
7.8e-05
7.8e-05
7.8e-05
7.8e-05
7.68451e-05
5.67121e-05
4.83372e-05
4.71101e-05
4.67255e-05
4.72412e-05
4.84963e-05
5.78067e-05
7.5406e-05
7.7999e-05
7.8e-05
7.79977e-05
7.43614e-05
5.53112e-05
4.81892e-05
4.69133e-05
4.63325e-05
4.66554e-05
4.77355e-05
5.16255e-05
7.38463e-05
7.8e-05
7.8e-05
7.8e-05
7.8e-05
7.8e-05
7.8e-05
7.8e-05
7.8e-05
7.8e-05
7.8e-05
7.58737e-05
5.93898e-05
4.88325e-05
4.79842e-05
4.85515e-05
5.61837e-05
7.37228e-05
7.79998e-05
7.8e-05
7.8e-05
7.8e-05
7.8e-05
7.8e-05
7.8e-05
7.8e-05
7.33206e-05
4.86295e-05
4.58616e-05
4.47988e-05
4.43075e-05
4.4052e-05
4.39709e-05
4.40383e-05
4.42792e-05
4.47425e-05
4.62025e-05
5.01489e-05
7.57827e-05
7.8e-05
7.8e-05
7.8e-05
7.8e-05
7.8e-05
7.8e-05
7.8e-05
7.8e-05
7.8e-05
7.8e-05
7.8e-05
7.8e-05
7.8e-05
7.8e-05
7.8e-05
7.8e-05
7.8e-05
7.8e-05
7.8e-05
7.8e-05
7.8e-05
7.8e-05
7.8e-05
7.8e-05
7.8e-05
7.8e-05
7.8e-05
7.8e-05
7.8e-05
7.8e-05
7.8e-05
7.8e-05
7.8e-05
7.71464e-05
4.9687e-05
4.57202e-05
4.45333e-05
4.40253e-05
4.37771e-05
4.36497e-05
4.35938e-05
4.35855e-05
4.36164e-05
4.36865e-05
4.38026e-05
4.39852e-05
4.42819e-05
4.4785e-05
4.58031e-05
4.92195e-05
7.64188e-05
7.8e-05
7.8e-05
7.8e-05
7.8e-05
7.8e-05
7.8e-05
7.8e-05
7.8e-05
7.8e-05
7.8e-05
7.8e-05
7.79785e-05
7.13768e-05
5.96483e-05
5.51668e-05
6.13038e-05
7.28364e-05
7.79875e-05
7.8e-05
7.8e-05
7.8e-05
7.8e-05
7.8e-05
7.79603e-05
7.11778e-05
5.87404e-05
5.25577e-05
5.61668e-05
6.80283e-05
7.77467e-05
7.8e-05
7.8e-05
7.8e-05
7.8e-05
7.8e-05
7.8e-05
7.8e-05
7.8e-05
7.8e-05
7.8e-05
7.8e-05
7.8e-05
7.79942e-05
7.57211e-05
7.1388e-05
7.47906e-05
7.79736e-05
7.8e-05
7.8e-05
7.8e-05
7.8e-05
7.8e-05
7.8e-05
7.8e-05
7.8e-05
7.8e-05
7.8e-05
7.59465e-05
5.25535e-05
4.70872e-05
4.55093e-05
4.48343e-05
4.47179e-05
4.49951e-05
4.60078e-05
4.75539e-05
6.05478e-05
7.77056e-05
7.8e-05
7.8e-05
7.8e-05
7.8e-05
7.8e-05
7.8e-05
7.8e-05
7.8e-05
7.8e-05
7.8e-05
7.8e-05
7.8e-05
7.8e-05
7.8e-05
7.8e-05
7.8e-05
7.8e-05
7.8e-05
7.8e-05
7.8e-05
7.8e-05
7.8e-05
7.8e-05
7.8e-05
7.8e-05
7.8e-05
7.8e-05
7.8e-05
7.8e-05
7.8e-05
7.8e-05
7.8e-05
7.8e-05
7.8e-05
7.8e-05
7.74646e-05
5.23513e-05
4.63559e-05
4.47342e-05
4.41703e-05
4.38994e-05
4.37723e-05
4.3724e-05
4.37402e-05
4.38223e-05
4.39798e-05
4.42553e-05
4.48e-05
4.59443e-05
4.9169e-05
7.57376e-05
7.8e-05
7.8e-05
7.8e-05
7.8e-05
7.8e-05
7.8e-05
7.8e-05
7.8e-05
7.8e-05
7.8e-05
7.8e-05
7.8e-05
7.8e-05
7.8e-05
7.79937e-05
7.79466e-05
7.79972e-05
7.8e-05
7.8e-05
7.8e-05
7.8e-05
7.8e-05
7.8e-05
7.8e-05
7.8e-05
7.8e-05
7.7991e-05
7.78194e-05
7.79699e-05
7.79999e-05
7.8e-05
7.8e-05
7.8e-05
7.8e-05
7.8e-05
7.8e-05
7.8e-05
7.8e-05
7.8e-05
7.8e-05
7.8e-05
7.8e-05
7.8e-05
7.8e-05
7.8e-05
7.8e-05
7.8e-05
7.8e-05
7.8e-05
7.8e-05
7.8e-05
7.8e-05
7.8e-05
7.8e-05
7.8e-05
7.8e-05
7.8e-05
7.8e-05
7.8e-05
7.78966e-05
6.75542e-05
5.16712e-05
4.7618e-05
4.73769e-05
4.87615e-05
5.91616e-05
7.34573e-05
7.79984e-05
7.8e-05
7.8e-05
7.8e-05
7.8e-05
7.8e-05
7.8e-05
7.8e-05
7.8e-05
7.8e-05
7.8e-05
7.8e-05
7.8e-05
7.8e-05
7.8e-05
7.8e-05
7.8e-05
7.8e-05
7.8e-05
7.8e-05
7.8e-05
7.8e-05
7.8e-05
7.8e-05
7.8e-05
7.8e-05
7.8e-05
7.8e-05
7.8e-05
7.8e-05
7.8e-05
7.8e-05
7.8e-05
7.8e-05
7.8e-05
7.8e-05
7.8e-05
7.8e-05
7.79062e-05
6.01449e-05
4.73186e-05
4.5319e-05
4.45649e-05
4.42675e-05
4.41214e-05
4.4108e-05
4.42368e-05
4.45127e-05
4.50384e-05
4.67464e-05
5.22185e-05
7.68244e-05
7.8e-05
7.8e-05
7.8e-05
7.8e-05
7.8e-05
7.8e-05
7.8e-05
7.8e-05
7.8e-05
7.8e-05
7.8e-05
7.8e-05
7.8e-05
7.8e-05
7.8e-05
7.8e-05
7.8e-05
7.8e-05
7.8e-05
7.8e-05
7.8e-05
7.8e-05
7.8e-05
7.8e-05
7.8e-05
7.8e-05
7.8e-05
7.8e-05
7.8e-05
7.8e-05
7.8e-05
7.8e-05
7.8e-05
7.8e-05
7.8e-05
7.8e-05
7.8e-05
7.8e-05
7.8e-05
7.8e-05
7.8e-05
7.8e-05
7.8e-05
7.8e-05
7.8e-05
7.8e-05
7.8e-05
7.8e-05
7.8e-05
7.8e-05
7.8e-05
7.8e-05
7.8e-05
7.8e-05
7.8e-05
7.8e-05
7.8e-05
7.8e-05
7.8e-05
7.8e-05
7.8e-05
7.79999e-05
7.78477e-05
7.47609e-05
7.39519e-05
7.71745e-05
7.79963e-05
7.8e-05
7.8e-05
7.8e-05
7.8e-05
7.8e-05
7.8e-05
7.8e-05
7.8e-05
7.8e-05
7.8e-05
7.8e-05
7.8e-05
7.8e-05
7.8e-05
7.8e-05
7.8e-05
7.8e-05
7.8e-05
7.8e-05
7.8e-05
7.8e-05
7.8e-05
7.8e-05
7.8e-05
7.8e-05
7.8e-05
7.8e-05
7.8e-05
7.8e-05
7.8e-05
7.8e-05
7.8e-05
7.8e-05
7.8e-05
7.8e-05
7.8e-05
7.8e-05
7.8e-05
7.8e-05
7.8e-05
7.79979e-05
7.15344e-05
5.11352e-05
4.69932e-05
4.59689e-05
4.53072e-05
4.51552e-05
4.55551e-05
4.64746e-05
4.79898e-05
6.31813e-05
7.78749e-05
7.8e-05
7.8e-05
7.8e-05
7.8e-05
7.8e-05
7.8e-05
7.8e-05
7.8e-05
7.8e-05
7.8e-05
7.8e-05
7.8e-05
7.8e-05
7.8e-05
7.8e-05
7.8e-05
7.8e-05
7.8e-05
7.8e-05
7.8e-05
7.8e-05
7.8e-05
7.8e-05
7.8e-05
7.8e-05
7.8e-05
7.8e-05
7.8e-05
7.8e-05
7.8e-05
7.8e-05
7.8e-05
7.8e-05
7.8e-05
7.8e-05
7.8e-05
7.8e-05
7.8e-05
7.8e-05
7.8e-05
7.8e-05
7.8e-05
7.8e-05
7.8e-05
7.8e-05
7.8e-05
7.8e-05
7.8e-05
7.8e-05
7.8e-05
7.8e-05
7.8e-05
7.8e-05
7.8e-05
7.8e-05
7.8e-05
7.8e-05
7.8e-05
7.8e-05
7.8e-05
7.8e-05
7.8e-05
7.8e-05
7.8e-05
7.8e-05
7.8e-05
7.8e-05
7.8e-05
7.8e-05
7.8e-05
7.8e-05
7.8e-05
7.8e-05
7.8e-05
7.8e-05
7.8e-05
7.8e-05
7.8e-05
7.8e-05
7.8e-05
7.8e-05
7.8e-05
7.8e-05
7.8e-05
7.8e-05
7.8e-05
7.8e-05
7.8e-05
7.8e-05
7.8e-05
7.8e-05
7.8e-05
7.8e-05
7.8e-05
7.8e-05
7.8e-05
7.8e-05
7.8e-05
7.8e-05
7.8e-05
7.8e-05
7.8e-05
7.8e-05
7.8e-05
7.8e-05
7.8e-05
7.8e-05
7.8e-05
7.8e-05
7.8e-05
7.78343e-05
6.98488e-05
5.81907e-05
5.09757e-05
4.94766e-05
5.2727e-05
6.2843e-05
7.4953e-05
7.79995e-05
7.8e-05
7.8e-05
7.8e-05
7.8e-05
7.8e-05
7.8e-05
7.8e-05
7.8e-05
7.8e-05
7.8e-05
7.8e-05
7.8e-05
7.8e-05
7.8e-05
7.8e-05
7.8e-05
7.8e-05
7.8e-05
7.8e-05
7.8e-05
7.8e-05
7.8e-05
7.8e-05
7.8e-05
7.8e-05
7.8e-05
7.8e-05
7.8e-05
7.8e-05
7.8e-05
7.8e-05
7.8e-05
7.8e-05
7.8e-05
7.8e-05
7.8e-05
7.8e-05
7.8e-05
7.8e-05
7.8e-05
7.8e-05
7.8e-05
7.8e-05
7.8e-05
7.8e-05
7.8e-05
7.8e-05
7.8e-05
7.8e-05
7.8e-05
7.8e-05
7.8e-05
7.8e-05
7.8e-05
7.8e-05
7.8e-05
7.8e-05
7.8e-05
7.8e-05
7.8e-05
7.8e-05
7.8e-05
7.8e-05
7.8e-05
7.8e-05
7.8e-05
7.8e-05
7.8e-05
7.8e-05
7.8e-05
7.8e-05
7.8e-05
7.8e-05
7.8e-05
7.8e-05
7.8e-05
7.8e-05
7.8e-05
7.8e-05
7.8e-05
7.8e-05
7.8e-05
7.8e-05
7.8e-05
7.8e-05
7.8e-05
7.8e-05
7.8e-05
7.8e-05
7.8e-05
7.8e-05
7.8e-05
7.8e-05
7.8e-05
7.8e-05
7.8e-05
7.8e-05
7.8e-05
7.8e-05
7.8e-05
7.8e-05
7.8e-05
7.8e-05
7.8e-05
7.8e-05
7.8e-05
7.8e-05
7.8e-05
7.8e-05
7.8e-05
7.8e-05
7.8e-05
7.8e-05
7.79937e-05
7.77849e-05
7.74577e-05
7.79094e-05
7.79993e-05
7.8e-05
7.8e-05
7.8e-05
7.8e-05
7.8e-05
7.8e-05
7.8e-05
7.8e-05
7.8e-05
7.8e-05
7.8e-05
7.8e-05
7.8e-05
7.8e-05
7.8e-05
7.8e-05
7.8e-05
7.8e-05
7.8e-05
7.8e-05
7.8e-05
7.8e-05
7.8e-05
7.8e-05
7.8e-05
7.8e-05
7.8e-05
7.8e-05
7.8e-05
7.8e-05
7.8e-05
7.8e-05
7.8e-05
7.8e-05
7.8e-05
7.8e-05
7.8e-05
7.8e-05
7.8e-05
7.8e-05
7.8e-05
7.8e-05
7.8e-05
7.8e-05
7.8e-05
7.8e-05
7.8e-05
7.8e-05
7.8e-05
7.8e-05
7.8e-05
7.8e-05
7.8e-05
7.8e-05
7.8e-05
7.8e-05
7.8e-05
7.8e-05
7.8e-05
7.8e-05
7.8e-05
7.8e-05
7.8e-05
7.8e-05
7.8e-05
7.8e-05
7.8e-05
7.8e-05
7.8e-05
7.8e-05
7.8e-05
7.8e-05
7.8e-05
7.8e-05
7.8e-05
7.8e-05
7.8e-05
7.8e-05
7.8e-05
7.8e-05
7.8e-05
7.8e-05
7.8e-05
7.8e-05
7.8e-05
7.8e-05
7.8e-05
7.8e-05
7.8e-05
7.8e-05
7.8e-05
7.8e-05
7.8e-05
7.8e-05
7.8e-05
7.8e-05
7.8e-05
7.8e-05
7.8e-05
7.8e-05
7.8e-05
7.8e-05
7.8e-05
7.8e-05
7.8e-05
7.8e-05
7.8e-05
7.8e-05
7.8e-05
7.8e-05
7.8e-05
7.8e-05
7.8e-05
7.8e-05
7.8e-05
7.8e-05
7.8e-05
7.8e-05
7.8e-05
7.8e-05
7.8e-05
7.8e-05
7.8e-05
7.8e-05
7.8e-05
7.8e-05
7.8e-05
7.8e-05
7.8e-05
7.8e-05
7.8e-05
7.8e-05
7.8e-05
7.8e-05
7.8e-05
7.8e-05
7.8e-05
7.8e-05
7.8e-05
7.8e-05
7.8e-05
7.8e-05
7.8e-05
7.8e-05
7.8e-05
7.8e-05
7.8e-05
7.8e-05
7.8e-05
7.8e-05
7.8e-05
7.8e-05
7.8e-05
7.8e-05
7.8e-05
7.8e-05
7.8e-05
7.8e-05
7.8e-05
7.8e-05
7.8e-05
7.8e-05
7.8e-05
7.8e-05
7.8e-05
7.8e-05
7.8e-05
7.8e-05
7.8e-05
7.8e-05
7.8e-05
7.8e-05
7.8e-05
7.8e-05
7.8e-05
7.8e-05
7.8e-05
7.8e-05
7.8e-05
7.8e-05
7.8e-05
7.8e-05
7.8e-05
7.8e-05
7.8e-05
7.8e-05
7.8e-05
7.8e-05
7.8e-05
7.8e-05
7.8e-05
7.8e-05
7.8e-05
7.8e-05
7.8e-05
7.8e-05
7.8e-05
7.8e-05
7.8e-05
7.8e-05
7.8e-05
7.8e-05
7.8e-05
7.8e-05
7.8e-05
7.8e-05
7.8e-05
7.8e-05
7.8e-05
7.8e-05
7.8e-05
7.8e-05
7.8e-05
7.8e-05
7.8e-05
7.8e-05
7.8e-05
7.8e-05
7.8e-05
7.8e-05
7.8e-05
7.8e-05
7.8e-05
7.8e-05
7.8e-05
7.8e-05
7.8e-05
7.8e-05
7.8e-05
7.8e-05
7.8e-05
7.8e-05
7.8e-05
7.8e-05
7.8e-05
7.8e-05
7.8e-05
7.8e-05
7.8e-05
7.8e-05
7.8e-05
7.8e-05
7.8e-05
7.8e-05
7.8e-05
7.8e-05
7.8e-05
7.8e-05
7.8e-05
7.8e-05
7.8e-05
7.8e-05
7.8e-05
7.8e-05
7.8e-05
7.8e-05
7.8e-05
7.8e-05
7.8e-05
7.8e-05
7.8e-05
7.8e-05
7.8e-05
7.8e-05
7.8e-05
7.8e-05
7.8e-05
7.8e-05
7.8e-05
7.8e-05
7.8e-05
7.8e-05
7.8e-05
7.8e-05
7.8e-05
7.8e-05
7.8e-05
7.8e-05
7.8e-05
7.8e-05
7.8e-05
7.8e-05
7.8e-05
7.8e-05
7.8e-05
7.8e-05
7.8e-05
7.8e-05
7.8e-05
7.8e-05
7.8e-05
7.8e-05
7.8e-05
7.8e-05
7.8e-05
7.8e-05
7.8e-05
7.8e-05
7.8e-05
7.8e-05
7.8e-05
7.8e-05
7.8e-05
7.8e-05
7.8e-05
7.8e-05
7.8e-05
7.8e-05
7.8e-05
7.8e-05
7.8e-05
7.8e-05
7.8e-05
7.8e-05
7.8e-05
7.8e-05
7.8e-05
7.8e-05
7.8e-05
7.8e-05
7.8e-05
7.8e-05
7.8e-05
7.8e-05
7.8e-05
7.8e-05
7.8e-05
7.8e-05
7.8e-05
7.8e-05
7.8e-05
7.8e-05
7.8e-05
7.8e-05
7.8e-05
7.8e-05
7.8e-05
7.8e-05
7.8e-05
7.8e-05
7.8e-05
7.8e-05
7.8e-05
7.8e-05
7.8e-05
7.8e-05
7.8e-05
7.8e-05
7.8e-05
7.8e-05
7.8e-05
7.8e-05
7.8e-05
7.8e-05
7.8e-05
7.8e-05
7.8e-05
7.8e-05
7.8e-05
7.8e-05
7.8e-05
7.8e-05
7.8e-05
7.8e-05
7.8e-05
7.8e-05
7.8e-05
7.8e-05
7.8e-05
7.8e-05
7.8e-05
7.8e-05
7.8e-05
7.8e-05
7.8e-05
7.8e-05
7.8e-05
7.8e-05
7.8e-05
7.8e-05
7.8e-05
7.8e-05
7.8e-05
7.8e-05
7.8e-05
7.8e-05
7.8e-05
7.8e-05
7.8e-05
7.8e-05
7.8e-05
7.8e-05
7.8e-05
7.8e-05
7.8e-05
7.8e-05
7.8e-05
7.8e-05
7.8e-05
7.8e-05
7.8e-05
7.8e-05
7.8e-05
7.8e-05
7.8e-05
7.8e-05
7.8e-05
7.8e-05
7.8e-05
7.8e-05
7.8e-05
7.8e-05
7.8e-05
7.8e-05
7.8e-05
7.8e-05
7.8e-05
7.8e-05
7.8e-05
7.8e-05
7.8e-05
7.8e-05
7.8e-05
7.8e-05
7.8e-05
7.8e-05
7.8e-05
7.8e-05
7.8e-05
7.8e-05
7.8e-05
7.8e-05
7.8e-05
7.8e-05
7.8e-05
7.8e-05
7.8e-05
7.8e-05
7.8e-05
7.8e-05
7.8e-05
7.8e-05
7.8e-05
7.8e-05
7.8e-05
7.8e-05
7.8e-05
7.8e-05
7.8e-05
7.8e-05
7.8e-05
7.8e-05
7.8e-05
7.8e-05
7.8e-05
7.8e-05
7.8e-05
7.8e-05
7.8e-05
7.8e-05
7.8e-05
7.8e-05
7.8e-05
7.8e-05
7.8e-05
7.8e-05
7.8e-05
7.8e-05
7.8e-05
7.8e-05
7.8e-05
7.8e-05
7.8e-05
7.8e-05
7.8e-05
7.8e-05
7.8e-05
7.8e-05
7.8e-05
7.8e-05
7.8e-05
7.8e-05
7.8e-05
7.8e-05
7.8e-05
7.8e-05
7.8e-05
7.8e-05
7.8e-05
7.8e-05
7.8e-05
7.8e-05
7.8e-05
7.8e-05
7.8e-05
7.8e-05
7.8e-05
7.8e-05
7.8e-05
7.8e-05
7.8e-05
7.8e-05
7.8e-05
7.8e-05
7.8e-05
7.8e-05
7.8e-05
7.8e-05
7.8e-05
7.8e-05
7.8e-05
7.8e-05
7.8e-05
7.8e-05
7.8e-05
7.8e-05
7.8e-05
7.8e-05
7.8e-05
7.8e-05
7.8e-05
7.8e-05
7.8e-05
7.8e-05
7.8e-05
7.8e-05
7.8e-05
7.8e-05
7.8e-05
7.8e-05
7.8e-05
7.8e-05
7.8e-05
7.8e-05
7.8e-05
7.8e-05
7.8e-05
7.8e-05
7.8e-05
7.8e-05
7.8e-05
7.8e-05
7.8e-05
7.8e-05
7.8e-05
7.8e-05
7.8e-05
7.8e-05
7.8e-05
7.8e-05
7.8e-05
7.8e-05
7.8e-05
7.8e-05
7.8e-05
7.8e-05
7.8e-05
7.8e-05
7.8e-05
7.8e-05
7.8e-05
7.8e-05
7.8e-05
7.8e-05
7.8e-05
7.8e-05
7.8e-05
7.8e-05
7.8e-05
7.8e-05
7.8e-05
7.8e-05
7.8e-05
7.8e-05
7.8e-05
7.8e-05
7.8e-05
7.8e-05
7.8e-05
7.8e-05
7.8e-05
7.8e-05
7.8e-05
7.8e-05
7.8e-05
7.8e-05
7.8e-05
7.8e-05
7.8e-05
7.8e-05
7.8e-05
7.8e-05
7.8e-05
7.8e-05
7.8e-05
7.8e-05
7.8e-05
7.8e-05
7.8e-05
7.8e-05
7.8e-05
7.8e-05
7.8e-05
7.8e-05
7.8e-05
7.8e-05
7.8e-05
7.8e-05
7.8e-05
7.8e-05
7.8e-05
7.8e-05
7.8e-05
7.8e-05
7.8e-05
7.8e-05
7.8e-05
7.8e-05
7.8e-05
7.8e-05
7.8e-05
7.8e-05
7.8e-05
7.8e-05
7.8e-05
7.8e-05
7.8e-05
7.8e-05
7.8e-05
7.8e-05
7.8e-05
7.8e-05
7.8e-05
7.8e-05
7.8e-05
7.8e-05
7.8e-05
7.8e-05
7.8e-05
7.8e-05
7.8e-05
7.8e-05
7.8e-05
7.8e-05
7.8e-05
7.8e-05
7.8e-05
7.8e-05
7.8e-05
7.8e-05
7.8e-05
7.8e-05
7.8e-05
7.8e-05
7.8e-05
7.8e-05
7.8e-05
7.8e-05
7.8e-05
7.8e-05
7.8e-05
7.8e-05
7.8e-05
7.8e-05
7.8e-05
7.8e-05
7.8e-05
7.8e-05
7.8e-05
7.8e-05
7.8e-05
7.8e-05
7.8e-05
7.8e-05
7.8e-05
7.8e-05
7.8e-05
7.8e-05
7.8e-05
7.8e-05
7.8e-05
7.8e-05
7.8e-05
7.8e-05
7.8e-05
7.8e-05
7.8e-05
7.8e-05
7.8e-05
7.8e-05
7.8e-05
7.8e-05
7.8e-05
7.8e-05
7.8e-05
7.8e-05
7.8e-05
7.8e-05
7.8e-05
7.8e-05
7.8e-05
7.8e-05
7.8e-05
7.8e-05
7.8e-05
7.8e-05
7.8e-05
7.8e-05
7.8e-05
7.8e-05
7.8e-05
7.8e-05
7.8e-05
7.8e-05
7.8e-05
7.8e-05
7.8e-05
7.8e-05
7.8e-05
7.8e-05
7.8e-05
7.8e-05
7.8e-05
7.8e-05
7.8e-05
7.8e-05
7.8e-05
7.8e-05
7.8e-05
7.8e-05
7.8e-05
7.8e-05
7.8e-05
7.8e-05
7.8e-05
7.8e-05
7.8e-05
7.8e-05
7.8e-05
7.8e-05
7.8e-05
7.8e-05
7.8e-05
7.8e-05
7.8e-05
7.8e-05
7.8e-05
7.8e-05
7.8e-05
7.8e-05
7.8e-05
7.8e-05
7.8e-05
7.8e-05
7.8e-05
7.8e-05
7.8e-05
7.8e-05
7.8e-05
7.8e-05
7.8e-05
7.8e-05
7.8e-05
7.8e-05
7.8e-05
7.8e-05
7.8e-05
7.8e-05
7.8e-05
7.8e-05
7.8e-05
7.8e-05
7.8e-05
7.8e-05
7.8e-05
7.8e-05
7.8e-05
7.8e-05
7.8e-05
7.8e-05
7.8e-05
7.8e-05
7.8e-05
7.8e-05
7.8e-05
7.8e-05
7.8e-05
7.8e-05
7.8e-05
7.8e-05
7.8e-05
7.8e-05
7.8e-05
7.8e-05
7.8e-05
7.8e-05
7.8e-05
7.8e-05
7.8e-05
7.8e-05
7.8e-05
7.8e-05
7.8e-05
7.8e-05
7.8e-05
7.8e-05
7.8e-05
7.8e-05
7.8e-05
7.8e-05
7.8e-05
7.8e-05
7.8e-05
7.8e-05
7.8e-05
7.8e-05
7.8e-05
7.8e-05
7.8e-05
7.8e-05
7.8e-05
7.8e-05
7.8e-05
7.8e-05
7.8e-05
7.8e-05
7.8e-05
7.8e-05
7.8e-05
7.8e-05
7.8e-05
7.8e-05
7.8e-05
7.8e-05
7.8e-05
7.8e-05
7.8e-05
7.8e-05
7.8e-05
7.8e-05
7.8e-05
7.8e-05
7.8e-05
7.8e-05
7.8e-05
7.8e-05
7.8e-05
7.8e-05
7.8e-05
7.8e-05
7.8e-05
7.8e-05
7.8e-05
7.8e-05
7.8e-05
7.8e-05
7.8e-05
7.8e-05
7.8e-05
7.8e-05
7.8e-05
7.8e-05
7.8e-05
7.8e-05
7.8e-05
7.8e-05
7.8e-05
7.8e-05
7.8e-05
7.8e-05
7.8e-05
7.8e-05
7.8e-05
7.8e-05
7.8e-05
7.8e-05
7.8e-05
7.8e-05
7.8e-05
7.8e-05
7.8e-05
7.8e-05
7.8e-05
7.8e-05
7.8e-05
7.8e-05
7.8e-05
7.8e-05
7.8e-05
7.8e-05
7.8e-05
7.8e-05
7.8e-05
7.8e-05
7.8e-05
7.8e-05
7.8e-05
7.8e-05
7.8e-05
7.8e-05
7.8e-05
7.8e-05
7.8e-05
7.8e-05
7.8e-05
7.8e-05
7.8e-05
7.8e-05
7.8e-05
7.8e-05
7.8e-05
7.8e-05
7.8e-05
7.8e-05
7.8e-05
7.8e-05
7.8e-05
7.8e-05
7.8e-05
7.8e-05
7.8e-05
7.8e-05
7.8e-05
7.8e-05
7.8e-05
7.8e-05
7.8e-05
7.8e-05
7.8e-05
7.8e-05
7.8e-05
7.8e-05
7.8e-05
7.8e-05
7.8e-05
7.8e-05
7.8e-05
7.8e-05
7.8e-05
7.8e-05
7.8e-05
7.8e-05
7.8e-05
7.8e-05
7.8e-05
7.8e-05
7.8e-05
7.8e-05
7.8e-05
7.8e-05
7.8e-05
7.8e-05
7.8e-05
7.8e-05
7.8e-05
7.8e-05
7.8e-05
7.8e-05
7.8e-05
7.8e-05
7.8e-05
7.8e-05
7.8e-05
7.8e-05
7.8e-05
7.8e-05
7.8e-05
7.8e-05
7.8e-05
7.8e-05
7.8e-05
7.8e-05
7.8e-05
7.8e-05
7.8e-05
7.8e-05
7.8e-05
7.8e-05
7.8e-05
7.8e-05
7.8e-05
7.8e-05
7.8e-05
7.8e-05
7.8e-05
7.8e-05
7.8e-05
7.8e-05
7.8e-05
7.8e-05
7.8e-05
7.8e-05
7.8e-05
7.8e-05
7.8e-05
7.8e-05
7.8e-05
7.8e-05
7.8e-05
7.8e-05
7.8e-05
7.8e-05
7.8e-05
7.8e-05
7.8e-05
7.8e-05
7.8e-05
7.8e-05
7.8e-05
7.8e-05
7.8e-05
7.8e-05
7.8e-05
7.8e-05
7.8e-05
7.8e-05
7.8e-05
7.8e-05
7.8e-05
7.8e-05
7.8e-05
7.8e-05
7.8e-05
7.8e-05
7.8e-05
7.8e-05
7.8e-05
7.8e-05
7.8e-05
7.8e-05
7.8e-05
7.8e-05
7.8e-05
7.8e-05
7.8e-05
7.8e-05
7.8e-05
7.8e-05
7.8e-05
7.8e-05
7.8e-05
7.8e-05
7.8e-05
7.8e-05
7.8e-05
7.8e-05
7.8e-05
7.8e-05
7.8e-05
7.8e-05
7.8e-05
7.8e-05
7.8e-05
7.8e-05
7.8e-05
7.8e-05
7.8e-05
7.8e-05
7.8e-05
7.8e-05
7.8e-05
7.8e-05
7.8e-05
7.8e-05
7.8e-05
7.8e-05
7.8e-05
7.8e-05
7.8e-05
7.8e-05
7.8e-05
7.8e-05
7.8e-05
7.8e-05
7.8e-05
7.8e-05
7.8e-05
7.8e-05
7.8e-05
7.8e-05
7.8e-05
7.8e-05
7.8e-05
7.8e-05
7.8e-05
7.8e-05
7.8e-05
7.8e-05
7.8e-05
7.8e-05
7.8e-05
7.8e-05
7.8e-05
7.8e-05
7.8e-05
7.8e-05
7.8e-05
7.8e-05
7.8e-05
7.8e-05
7.8e-05
7.8e-05
7.8e-05
7.8e-05
7.8e-05
7.8e-05
7.8e-05
7.8e-05
7.8e-05
7.8e-05
7.8e-05
7.8e-05
7.8e-05
7.8e-05
7.8e-05
7.8e-05
7.8e-05
7.8e-05
7.8e-05
7.8e-05
7.8e-05
7.8e-05
7.8e-05
7.8e-05
7.8e-05
7.8e-05
7.8e-05
7.8e-05
7.8e-05
7.8e-05
7.8e-05
7.8e-05
7.8e-05
7.8e-05
7.8e-05
7.8e-05
7.8e-05
7.8e-05
7.8e-05
7.8e-05
7.8e-05
7.8e-05
7.8e-05
7.8e-05
7.8e-05
7.8e-05
7.8e-05
7.8e-05
7.8e-05
7.8e-05
7.8e-05
7.8e-05
7.8e-05
7.8e-05
7.8e-05
7.8e-05
7.8e-05
7.8e-05
7.8e-05
7.8e-05
7.8e-05
7.8e-05
7.8e-05
7.8e-05
7.8e-05
7.8e-05
7.8e-05
7.8e-05
7.8e-05
7.8e-05
7.8e-05
7.8e-05
7.8e-05
7.8e-05
7.8e-05
7.8e-05
7.8e-05
7.8e-05
7.8e-05
7.8e-05
7.8e-05
7.8e-05
7.8e-05
7.8e-05
7.8e-05
7.8e-05
7.8e-05
7.8e-05
7.8e-05
7.8e-05
7.8e-05
7.8e-05
7.8e-05
7.8e-05
7.8e-05
7.8e-05
7.8e-05
7.8e-05
7.8e-05
7.8e-05
7.8e-05
7.8e-05
7.8e-05
7.8e-05
7.8e-05
7.8e-05
7.8e-05
7.8e-05
7.8e-05
7.8e-05
7.8e-05
7.8e-05
7.8e-05
7.8e-05
7.8e-05
7.8e-05
7.8e-05
7.8e-05
7.8e-05
7.8e-05
7.8e-05
7.8e-05
7.8e-05
7.8e-05
7.8e-05
7.8e-05
7.8e-05
7.8e-05
7.8e-05
7.8e-05
7.8e-05
7.8e-05
7.8e-05
7.8e-05
7.8e-05
7.8e-05
7.8e-05
7.8e-05
7.8e-05
7.8e-05
7.8e-05
7.8e-05
7.8e-05
7.8e-05
7.8e-05
7.8e-05
7.8e-05
7.8e-05
7.8e-05
7.8e-05
7.8e-05
7.8e-05
7.8e-05
7.8e-05
7.8e-05
7.8e-05
7.8e-05
7.8e-05
7.8e-05
7.8e-05
7.8e-05
7.8e-05
7.8e-05
7.8e-05
7.8e-05
7.8e-05
7.8e-05
7.8e-05
7.8e-05
7.8e-05
7.8e-05
7.8e-05
7.8e-05
7.8e-05
7.8e-05
7.8e-05
7.8e-05
7.8e-05
7.8e-05
7.8e-05
7.8e-05
7.8e-05
7.8e-05
7.8e-05
7.8e-05
7.8e-05
7.8e-05
7.8e-05
7.8e-05
7.8e-05
7.8e-05
7.8e-05
7.8e-05
7.8e-05
7.8e-05
7.8e-05
7.8e-05
7.8e-05
7.8e-05
7.8e-05
7.8e-05
7.8e-05
7.8e-05
7.8e-05
7.8e-05
7.8e-05
7.8e-05
7.8e-05
7.8e-05
7.8e-05
7.8e-05
7.8e-05
7.8e-05
7.8e-05
7.8e-05
7.8e-05
7.8e-05
7.8e-05
7.8e-05
7.8e-05
7.8e-05
7.8e-05
7.8e-05
7.8e-05
7.8e-05
7.8e-05
7.8e-05
7.8e-05
7.8e-05
7.8e-05
7.8e-05
7.8e-05
7.8e-05
7.8e-05
7.8e-05
7.8e-05
7.8e-05
7.8e-05
7.8e-05
7.8e-05
7.8e-05
7.8e-05
7.8e-05
7.8e-05
7.8e-05
7.8e-05
7.8e-05
7.8e-05
7.8e-05
7.8e-05
7.8e-05
7.8e-05
7.8e-05
7.8e-05
7.8e-05
7.8e-05
7.8e-05
7.8e-05
7.8e-05
7.8e-05
7.8e-05
7.8e-05
7.8e-05
7.8e-05
7.8e-05
7.8e-05
7.8e-05
7.8e-05
7.8e-05
7.8e-05
7.8e-05
7.8e-05
7.8e-05
7.8e-05
7.8e-05
7.8e-05
7.8e-05
7.8e-05
7.8e-05
7.8e-05
7.8e-05
7.8e-05
7.8e-05
7.8e-05
7.8e-05
7.8e-05
7.8e-05
7.8e-05
7.8e-05
7.8e-05
7.8e-05
7.8e-05
7.8e-05
7.8e-05
7.8e-05
7.8e-05
7.8e-05
7.8e-05
7.8e-05
7.8e-05
7.8e-05
7.8e-05
7.8e-05
7.8e-05
7.8e-05
7.8e-05
7.8e-05
7.8e-05
7.8e-05
7.8e-05
7.8e-05
7.8e-05
7.8e-05
7.8e-05
7.8e-05
7.8e-05
7.8e-05
7.8e-05
7.8e-05
7.8e-05
7.8e-05
7.8e-05
7.8e-05
7.8e-05