/*--------------------------------*- C++ -*----------------------------------*\
| =========                 |                                                 |
| \\      /  F ield         | OpenFOAM: The Open Source CFD Toolbox           |
|  \\    /   O peration     | Version:  2406                                  |
|   \\  /    A nd           | Website:  www.openfoam.com                      |
|    \\/     M anipulation  |                                                 |
\*---------------------------------------------------------------------------*/
FoamFile
{
    version     2.0;
    format      ascii;
    arch        "LSB;label=32;scalar=64";
    class       volScalarField;
    location    "2.95";
    object      C;
}
// * * * * * * * * * * * * * * * * * * * * * * * * * * * * * * * * * * * * * //

dimensions      [1 -3 0 0 0 0 0];

internalField   nonuniform List<scalar> 
14400
(
0.76645
0.753502
0.728611
0.702429
0.680721
0.665368
0.657269
0.656912
0.664519
0.680077
0.703307
0.733512
0.768995
0.80417
0.826271
0.835059
0.83622
0.829312
0.808263
0.77834
0.752036
0.732626
0.721602
0.719864
0.728013
0.746468
0.775486
0.815152
0.865279
0.925132
0.991969
1.0452
1.07988
1.10787
1.13248
1.15419
1.17336
1.19025
1.20509
1.21805
1.22927
1.23885
1.24689
1.25344
1.25857
1.26231
1.26471
1.26577
1.26552
1.26395
1.26106
1.25685
1.25128
1.24433
1.23595
1.22609
1.21468
1.20165
1.18689
1.17027
1.15164
1.13082
1.10756
1.08156
1.05244
1.01972
0.973891
0.907473
0.836055
0.772206
0.717791
0.673075
0.637955
0.612215
0.595616
0.58793
0.588956
0.598518
0.616448
0.642551
0.676504
0.717612
0.763701
0.801119
0.822928
0.836375
0.844535
0.847831
0.846414
0.840179
0.828729
0.808123
0.77401
0.735261
0.701514
0.674632
0.655218
0.643411
0.638984
0.641323
0.649344
0.661311
0.674274
0.682431
0.674508
0.661806
0.650121
0.642427
0.64049
0.645426
0.657878
0.67811
0.706018
0.741036
0.781313
0.81682
0.838761
0.851872
0.86024
0.864322
0.77669
0.767779
0.74537
0.718068
0.695332
0.679242
0.670695
0.670186
0.677941
0.69394
0.717896
0.74912
0.78579
0.817524
0.834576
0.842672
0.844124
0.838804
0.823066
0.794938
0.76756
0.747172
0.735438
0.733284
0.741314
0.759946
0.78942
0.829787
0.88074
0.941041
1.00563
1.05227
1.08386
1.11125
1.13539
1.15674
1.17562
1.1923
1.20697
1.2198
1.23091
1.2404
1.24837
1.25486
1.25995
1.26366
1.26604
1.26709
1.26683
1.26527
1.26239
1.2582
1.25266
1.24575
1.23742
1.22763
1.21631
1.20338
1.18874
1.17228
1.15384
1.13326
1.1103
1.08468
1.05604
1.02389
0.98331
0.922862
0.850758
0.786106
0.730914
0.685512
0.649846
0.623722
0.60691
0.599185
0.600343
0.610204
0.628595
0.655306
0.689965
0.731664
0.777224
0.81017
0.828995
0.841661
0.849398
0.852545
0.851231
0.845394
0.834756
0.817957
0.788672
0.750053
0.715694
0.688244
0.668485
0.656677
0.652664
0.655883
0.665295
0.679292
0.694828
0.702124
0.695074
0.679785
0.666049
0.656944
0.654108
0.658611
0.671045
0.691601
0.720052
0.755635
0.795667
0.826191
0.844318
0.856613
0.864526
0.868403
0.794954
0.78953
0.774862
0.748368
0.724202
0.706823
0.697431
0.696631
0.70467
0.721496
0.746704
0.779179
0.814759
0.837528
0.849814
0.85693
0.858799
0.855357
0.846228
0.825836
0.797895
0.775999
0.762963
0.760026
0.767825
0.786808
0.817166
0.858891
0.911494
0.972943
1.02587
1.06228
1.09175
1.11787
1.1411
1.16175
1.1801
1.19636
1.2107
1.22326
1.23416
1.24348
1.25131
1.2577
1.2627
1.26636
1.26869
1.26971
1.26945
1.26789
1.26505
1.2609
1.25542
1.24859
1.24037
1.23071
1.21955
1.20681
1.19242
1.17626
1.15819
1.13807
1.11569
1.09082
1.06315
1.0323
0.997495
0.948211
0.879158
0.813791
0.757199
0.710452
0.673707
0.646822
0.629589
0.621787
0.623209
0.633663
0.65295
0.680841
0.716866
0.759689
0.800206
0.824779
0.840602
0.851876
0.858851
0.861718
0.860572
0.855409
0.846141
0.832649
0.811903
0.778747
0.743701
0.715262
0.694804
0.682959
0.679707
0.684543
0.696285
0.712993
0.72686
0.729947
0.727059
0.713473
0.69699
0.685512
0.681022
0.684727
0.697162
0.718377
0.747773
0.78397
0.818173
0.840061
0.854872
0.865737
0.872848
0.876361
0.818632
0.815001
0.808073
0.791773
0.766626
0.74772
0.737175
0.735967
0.744405
0.762363
0.789159
0.822558
0.846584
0.860196
0.870166
0.876434
0.878786
0.877218
0.871954
0.861778
0.84153
0.818572
0.803825
0.799843
0.807297
0.826803
0.858344
0.901672
0.954868
1.00756
1.04588
1.07585
1.10297
1.12741
1.14937
1.16906
1.18666
1.20233
1.2162
1.22839
1.23898
1.24806
1.25569
1.26193
1.26681
1.27037
1.27264
1.27363
1.27335
1.27181
1.26901
1.26492
1.25953
1.25282
1.24475
1.23528
1.22436
1.21191
1.19787
1.18213
1.1646
1.14513
1.12358
1.09975
1.07345
1.04441
1.0124
0.975021
0.921455
0.855353
0.796701
0.74798
0.709668
0.681664
0.663812
0.6559
0.657717
0.669041
0.689592
0.719081
0.756492
0.798262
0.82639
0.843474
0.85676
0.866388
0.872411
0.874905
0.87393
0.869529
0.861747
0.850697
0.836685
0.815163
0.783982
0.755107
0.733629
0.721675
0.7194
0.726366
0.74014
0.75451
0.760701
0.761643
0.760802
0.754818
0.740748
0.727184
0.720514
0.723183
0.735671
0.757839
0.787579
0.819533
0.841971
0.857078
0.869371
0.878617
0.884766
0.887832
0.84594
0.843592
0.839268
0.833007
0.819431
0.800597
0.789074
0.787441
0.796298
0.815131
0.841985
0.86278
0.875598
0.885982
0.89422
0.899855
0.902693
0.902772
0.900384
0.896133
0.887785
0.872829
0.857015
0.852149
0.859082
0.879334
0.912042
0.956159
1.00161
1.03738
1.06568
1.09228
1.11688
1.13941
1.15991
1.17846
1.19515
1.2101
1.22339
1.23511
1.24532
1.25409
1.26147
1.2675
1.27223
1.27568
1.27787
1.27881
1.27852
1.277
1.27424
1.27024
1.26497
1.25841
1.25054
1.24131
1.23069
1.21861
1.20501
1.18981
1.17294
1.15428
1.13374
1.11117
1.08647
1.0595
1.03019
0.998541
0.960574
0.908106
0.84885
0.797977
0.757817
0.72839
0.709753
0.701705
0.704034
0.716493
0.738499
0.769845
0.807832
0.835617
0.852282
0.865772
0.876574
0.884505
0.889501
0.89156
0.890714
0.88703
0.880622
0.871701
0.860648
0.848081
0.829605
0.806036
0.783594
0.771613
0.770184
0.779199
0.78854
0.793785
0.794728
0.795122
0.794786
0.79391
0.788852
0.779771
0.771009
0.772749
0.785192
0.808205
0.832312
0.851448
0.864889
0.876904
0.886916
0.894592
0.899768
0.902368
0.875594
0.874159
0.871573
0.868389
0.864895
0.857297
0.850082
0.848494
0.857384
0.87215
0.886611
0.896427
0.905568
0.913916
0.920874
0.926072
0.929358
0.930795
0.930674
0.929537
0.928192
0.924902
0.918949
0.915069
0.921103
0.942423
0.974747
1.0084
1.03756
1.06257
1.08715
1.1107
1.13286
1.15345
1.1724
1.1897
1.2054
1.21953
1.23216
1.24333
1.25309
1.2615
1.26859
1.27439
1.27893
1.28224
1.28434
1.28523
1.28493
1.28343
1.28073
1.27682
1.27169
1.26532
1.25768
1.24874
1.23847
1.22682
1.21374
1.19917
1.18306
1.16533
1.14591
1.12473
1.10175
1.07694
1.05032
1.02205
0.992413
0.957247
0.911256
0.859688
0.818035
0.786974
0.767476
0.759267
0.762149
0.775991
0.798807
0.830461
0.853804
0.868301
0.880306
0.890758
0.899257
0.905558
0.909528
0.911118
0.910337
0.907255
0.902009
0.894836
0.88611
0.876381
0.866398
0.853974
0.840003
0.829616
0.827092
0.828932
0.829954
0.829361
0.829301
0.829332
0.829308
0.829381
0.830002
0.829115
0.827441
0.830235
0.840946
0.855305
0.86816
0.878786
0.88922
0.898731
0.906796
0.913069
0.917344
0.919505
0.906684
0.905877
0.904476
0.902896
0.901742
0.901803
0.90139
0.902798
0.908518
0.915676
0.921893
0.929014
0.936331
0.943239
0.949289
0.954202
0.957872
0.960376
0.961979
0.96315
0.964567
0.967147
0.970806
0.974721
0.984477
1.00281
1.02468
1.04572
1.06665
1.0882
1.10966
1.13052
1.15042
1.16913
1.18653
1.20256
1.21721
1.23047
1.24238
1.25296
1.26223
1.27023
1.27699
1.28253
1.28687
1.29003
1.29202
1.29285
1.29252
1.29105
1.28842
1.28462
1.27965
1.27349
1.26611
1.25751
1.24763
1.23646
1.22396
1.21008
1.19479
1.17805
1.15983
1.1401
1.11887
1.09617
1.07212
1.04691
1.02087
0.994494
0.965294
0.929258
0.889047
0.856614
0.836576
0.82816
0.831165
0.846409
0.86586
0.88185
0.891911
0.901098
0.90988
0.917696
0.92414
0.928941
0.931936
0.933045
0.932261
0.929642
0.925323
0.919524
0.912573
0.904917
0.897128
0.889886
0.883353
0.876764
0.872349
0.868333
0.865746
0.8644
0.863784
0.863595
0.863731
0.8643
0.865614
0.868188
0.872269
0.876827
0.8836
0.890411
0.898054
0.906301
0.914473
0.922006
0.928467
0.933545
0.937032
0.938804
0.938579
0.938189
0.937559
0.936974
0.936828
0.937557
0.939466
0.942542
0.945945
0.950272
0.955524
0.961406
0.967504
0.973419
0.978841
0.983573
0.987552
0.990857
0.993717
0.996514
0.99978
1.00419
1.01053
1.01969
1.03141
1.04491
1.06002
1.07695
1.09512
1.1139
1.13277
1.1513
1.16916
1.18611
1.20203
1.2168
1.23039
1.24277
1.25393
1.26388
1.27264
1.28021
1.28661
1.29187
1.29599
1.29898
1.30085
1.30162
1.30128
1.29983
1.29727
1.2936
1.2888
1.28287
1.27579
1.26753
1.25809
1.24744
1.23555
1.2224
1.20798
1.19227
1.17526
1.15697
1.13745
1.11677
1.09508
1.07259
1.04965
1.0267
1.00433
0.982258
0.95732
0.932885
0.914336
0.905635
0.905919
0.911517
0.918231
0.922607
0.928143
0.934298
0.940422
0.946004
0.950664
0.954131
0.956229
0.956866
0.956018
0.95373
0.950117
0.945365
0.939741
0.933587
0.927305
0.921301
0.915852
0.911001
0.906446
0.902832
0.900296
0.898707
0.897841
0.897532
0.897721
0.898474
0.899963
0.902422
0.905995
0.910558
0.915504
0.921115
0.92734
0.933893
0.940363
0.946352
0.951522
0.955611
0.958434
0.959873
0.970865
0.970741
0.970595
0.970613
0.971039
0.972119
0.974009
0.976697
0.979975
0.983929
0.988523
0.993583
0.998858
1.00409
1.00908
1.0137
1.0179
1.02178
1.02552
1.02941
1.03385
1.03931
1.04627
1.05514
1.06587
1.07818
1.09192
1.10696
1.12297
1.13952
1.15623
1.17275
1.18879
1.20415
1.21866
1.23223
1.24479
1.25628
1.26669
1.27601
1.28423
1.29135
1.29739
1.30235
1.30623
1.30904
1.3108
1.31149
1.31113
1.30972
1.30724
1.3037
1.29909
1.2934
1.28663
1.27875
1.26976
1.25965
1.2484
1.236
1.22246
1.20778
1.19197
1.17509
1.15718
1.13838
1.11882
1.09874
1.07844
1.05832
1.03887
1.02065
1.00434
0.98922
0.975833
0.966854
0.962393
0.959647
0.959077
0.960721
0.963755
0.96753
0.971504
0.975236
0.978381
0.980688
0.981985
0.982171
0.981215
0.979144
0.976048
0.972077
0.967438
0.962385
0.957202
0.952161
0.947459
0.943193
0.939384
0.936253
0.933898
0.932291
0.931341
0.93097
0.931148
0.93191
0.933342
0.935541
0.938545
0.942266
0.946495
0.951205
0.956298
0.961566
0.966735
0.971518
0.975658
0.978944
0.981219
0.982383
1.00327
1.00332
1.00347
1.00384
1.0046
1.00587
1.00776
1.01026
1.01333
1.01694
1.02106
1.02554
1.03025
1.03501
1.0397
1.04423
1.04859
1.05285
1.05716
1.06175
1.0669
1.07292
1.08012
1.08871
1.09872
1.11003
1.12251
1.13601
1.15026
1.16499
1.17988
1.19467
1.20911
1.22302
1.23625
1.24868
1.26024
1.27088
1.28055
1.28923
1.29691
1.30358
1.30924
1.3139
1.31754
1.32017
1.3218
1.32242
1.32205
1.32066
1.31827
1.31487
1.31046
1.30503
1.29857
1.29108
1.28256
1.27299
1.26239
1.25074
1.23808
1.2244
1.20976
1.19421
1.17783
1.16073
1.14309
1.1251
1.10706
1.08928
1.07216
1.05612
1.04159
1.02884
1.01821
1.00962
1.00325
0.999324
0.997509
0.997444
0.998625
1.00056
1.00283
1.00505
1.00694
1.00826
1.00885
1.00862
1.00753
1.00558
1.00286
0.999458
0.995548
0.991313
0.986959
0.982679
0.978632
0.974927
0.971644
0.968896
0.966751
0.965217
0.964263
0.963859
0.963991
0.964677
0.965953
0.967854
0.970379
0.973465
0.977004
0.980913
0.985079
0.989339
0.993491
0.997326
1.00065
1.00329
1.00512
1.00605
1.03564
1.03578
1.03611
1.0367
1.03763
1.03901
1.04088
1.04326
1.04613
1.04947
1.05321
1.05729
1.06159
1.06601
1.07047
1.07492
1.07937
1.08387
1.08854
1.09354
1.09907
1.10535
1.11258
1.12087
1.13026
1.14071
1.15209
1.16429
1.17709
1.19028
1.20364
1.21693
1.22997
1.24258
1.25462
1.266
1.27663
1.28644
1.29539
1.30345
1.3106
1.31682
1.32211
1.32645
1.32985
1.3323
1.33381
1.33436
1.33396
1.33261
1.33031
1.32706
1.32285
1.31767
1.31154
1.30445
1.29639
1.28738
1.27741
1.26651
1.2547
1.242
1.22847
1.21416
1.19918
1.18364
1.16769
1.15153
1.1354
1.11958
1.10436
1.09009
1.07705
1.06551
1.05565
1.04754
1.04128
1.03689
1.03419
1.03292
1.03273
1.03327
1.0342
1.03521
1.03606
1.03655
1.03654
1.03593
1.03469
1.0328
1.03033
1.02735
1.02398
1.02036
1.01664
1.01297
1.00946
1.00624
1.00337
1.00094
0.998994
0.997561
0.996636
0.99621
0.99628
0.996852
0.997939
0.999545
1.00165
1.00421
1.00714
1.01036
1.01377
1.01722
1.02057
1.02365
1.02632
1.02844
1.02991
1.03066
1.06786
1.06806
1.06849
1.0692
1.07023
1.07165
1.0735
1.07577
1.07847
1.08158
1.08504
1.0888
1.0928
1.09697
1.10125
1.10562
1.1101
1.11472
1.11957
1.12479
1.1305
1.13684
1.14396
1.15193
1.16076
1.17044
1.18087
1.19195
1.20353
1.21542
1.22746
1.23945
1.25125
1.26269
1.27367
1.28407
1.29382
1.30286
1.31112
1.31859
1.32522
1.331
1.33592
1.33996
1.34312
1.34538
1.34676
1.34724
1.34683
1.34552
1.34331
1.3402
1.33619
1.33128
1.32547
1.31877
1.31118
1.30271
1.29338
1.2832
1.2722
1.26043
1.24794
1.2348
1.22109
1.20695
1.1925
1.17793
1.16344
1.14926
1.13563
1.12281
1.11103
1.10049
1.09132
1.08363
1.07745
1.07276
1.06945
1.06732
1.06612
1.06559
1.06548
1.06552
1.06554
1.06534
1.06482
1.06388
1.06248
1.06062
1.05832
1.05564
1.05267
1.04951
1.04627
1.04308
1.04002
1.03719
1.03466
1.03249
1.03073
1.0294
1.02851
1.02807
1.02807
1.02851
1.0294
1.03073
1.03247
1.03458
1.03699
1.03963
1.0424
1.0452
1.0479
1.05039
1.05253
1.05424
1.05542
1.05603
1.09988
1.10012
1.1006
1.10137
1.10245
1.10388
1.10568
1.10786
1.11041
1.11332
1.11656
1.12008
1.12385
1.12781
1.13194
1.13622
1.14067
1.14533
1.15026
1.15554
1.16128
1.16757
1.1745
1.18211
1.19042
1.19941
1.20901
1.21912
1.22964
1.24042
1.25131
1.26218
1.27287
1.28328
1.29329
1.3028
1.31174
1.32004
1.32766
1.33455
1.34069
1.34605
1.3506
1.35435
1.35727
1.35936
1.36061
1.36103
1.3606
1.35932
1.35721
1.35424
1.35043
1.34579
1.3403
1.33399
1.32685
1.31891
1.31019
1.3007
1.29048
1.27959
1.26806
1.25599
1.24345
1.23056
1.21744
1.20426
1.19118
1.17839
1.1661
1.1545
1.14378
1.13408
1.12553
1.1182
1.11212
1.10725
1.10352
1.10077
1.09884
1.09751
1.09659
1.09588
1.09522
1.09447
1.09352
1.09229
1.09074
1.08887
1.08668
1.08421
1.08154
1.07873
1.07587
1.07305
1.07035
1.06784
1.06558
1.06363
1.06203
1.06079
1.05994
1.05948
1.05941
1.05973
1.06043
1.06151
1.06293
1.06465
1.06662
1.06877
1.07102
1.07328
1.07546
1.07746
1.07918
1.08056
1.08151
1.08199
1.13167
1.13192
1.13243
1.13322
1.13432
1.13573
1.13748
1.13957
1.14199
1.14475
1.1478
1.15113
1.1547
1.15849
1.16247
1.16666
1.17105
1.17567
1.18058
1.18584
1.19151
1.19766
1.20434
1.21159
1.21941
1.22777
1.23662
1.2459
1.25549
1.2653
1.2752
1.28506
1.29479
1.30427
1.3134
1.32209
1.33028
1.33791
1.34492
1.35128
1.35694
1.36189
1.3661
1.36956
1.37225
1.37417
1.3753
1.37565
1.37521
1.37397
1.37195
1.36913
1.36552
1.36113
1.35596
1.35002
1.34333
1.3359
1.32775
1.31892
1.30945
1.29937
1.28874
1.27764
1.26616
1.25439
1.24245
1.23047
1.21861
1.20702
1.19587
1.18531
1.17549
1.16653
1.15852
1.15153
1.14556
1.14061
1.1366
1.13342
1.13095
1.12902
1.12748
1.12618
1.12499
1.12379
1.12249
1.12102
1.11934
1.11743
1.11531
1.113
1.11054
1.108
1.10543
1.10291
1.10049
1.09824
1.0962
1.09443
1.09296
1.0918
1.09098
1.09049
1.09036
1.09056
1.09109
1.09194
1.09308
1.09447
1.09606
1.0978
1.09962
1.10144
1.1032
1.10481
1.10619
1.10729
1.10806
1.10845
1.16321
1.16346
1.16398
1.16478
1.16586
1.16724
1.16894
1.17094
1.17325
1.17587
1.17876
1.18192
1.18533
1.18896
1.19281
1.19688
1.20118
1.20573
1.21056
1.21573
1.22126
1.22722
1.23362
1.2405
1.24785
1.25563
1.26382
1.27235
1.28113
1.29009
1.29911
1.3081
1.31696
1.3256
1.33394
1.34189
1.3494
1.3564
1.36284
1.36869
1.3739
1.37847
1.38235
1.38553
1.388
1.38976
1.39078
1.39106
1.39061
1.38941
1.38748
1.3848
1.38139
1.37725
1.37238
1.36681
1.36054
1.3536
1.34601
1.3378
1.32901
1.31969
1.30989
1.29968
1.28915
1.27838
1.26749
1.25657
1.24578
1.23522
1.22505
1.21538
1.20634
1.19802
1.1905
1.18382
1.17801
1.17303
1.16884
1.16537
1.16251
1.16013
1.15813
1.15638
1.15478
1.15322
1.15163
1.14995
1.14815
1.14621
1.14413
1.14193
1.13963
1.13729
1.13495
1.13265
1.13046
1.12842
1.12656
1.12494
1.12357
1.12247
1.12167
1.12117
1.12097
1.12106
1.12144
1.12208
1.12298
1.12408
1.12535
1.12675
1.12821
1.12968
1.13109
1.13238
1.13349
1.13437
1.13498
1.13529
1.19448
1.19474
1.19526
1.19604
1.1971
1.19845
1.20008
1.202
1.20421
1.2067
1.20946
1.21247
1.21573
1.21922
1.22294
1.22688
1.23106
1.2355
1.24021
1.24524
1.2506
1.25632
1.26244
1.26894
1.27584
1.2831
1.29069
1.29854
1.30661
1.3148
1.32305
1.33126
1.33935
1.34724
1.35486
1.36214
1.36902
1.37544
1.38135
1.38673
1.39153
1.39572
1.39929
1.40222
1.40448
1.40608
1.40699
1.40722
1.40675
1.4056
1.40375
1.40121
1.39799
1.39409
1.38952
1.38429
1.37843
1.37195
1.36488
1.35725
1.34911
1.34049
1.33145
1.32205
1.31238
1.30251
1.29254
1.28256
1.2727
1.26304
1.25372
1.24483
1.23647
1.22872
1.22163
1.21526
1.2096
1.20466
1.20038
1.19671
1.19358
1.19088
1.18853
1.18644
1.18451
1.18267
1.18086
1.17901
1.17711
1.17513
1.17308
1.17095
1.16878
1.16658
1.16441
1.1623
1.16028
1.1584
1.1567
1.15519
1.1539
1.15286
1.15207
1.15154
1.15128
1.15127
1.15151
1.15198
1.15266
1.15352
1.15453
1.15564
1.1568
1.15797
1.15909
1.16012
1.16101
1.16171
1.1622
1.16245
1.22551
1.22576
1.22627
1.22703
1.22806
1.22936
1.23094
1.23278
1.23489
1.23727
1.2399
1.24278
1.2459
1.24925
1.25283
1.25664
1.26069
1.26499
1.26956
1.27441
1.27956
1.28504
1.29085
1.297
1.30347
1.31024
1.31727
1.32453
1.33195
1.33947
1.34702
1.35454
1.36194
1.36916
1.37613
1.38279
1.38909
1.39498
1.40041
1.40534
1.40975
1.41361
1.41688
1.41956
1.42163
1.42308
1.42389
1.42406
1.42359
1.42247
1.42071
1.4183
1.41526
1.41159
1.4073
1.40241
1.39693
1.39089
1.38431
1.37723
1.36968
1.3617
1.35336
1.3447
1.33581
1.32674
1.31759
1.30845
1.2994
1.29054
1.28196
1.27375
1.26599
1.25874
1.25206
1.24597
1.24049
1.23561
1.2313
1.22752
1.2242
1.22128
1.21868
1.21633
1.21416
1.2121
1.21011
1.20813
1.20615
1.20414
1.20209
1.20002
1.19793
1.19586
1.19382
1.19185
1.18997
1.18822
1.18663
1.18521
1.18399
1.18299
1.18221
1.18166
1.18133
1.18124
1.18135
1.18167
1.18217
1.18282
1.1836
1.18447
1.18538
1.1863
1.18719
1.18801
1.18871
1.18927
1.18966
1.18986
1.25627
1.25652
1.25701
1.25776
1.25876
1.26001
1.26152
1.26329
1.26531
1.26758
1.27009
1.27285
1.27584
1.27905
1.2825
1.28617
1.29007
1.29422
1.29861
1.30327
1.30821
1.31343
1.31894
1.32473
1.3308
1.33711
1.34364
1.35035
1.35719
1.36411
1.37104
1.37793
1.38471
1.39132
1.3977
1.40381
1.40958
1.41498
1.41996
1.42449
1.42853
1.43207
1.43507
1.43752
1.4394
1.44071
1.44142
1.44155
1.44107
1.43999
1.43831
1.43603
1.43317
1.42972
1.4257
1.42112
1.416
1.41037
1.40425
1.39767
1.39067
1.38329
1.37558
1.3676
1.3594
1.35106
1.34264
1.33424
1.32591
1.31775
1.30983
1.30222
1.295
1.2882
1.28189
1.27608
1.27078
1.266
1.2617
1.25786
1.25443
1.25136
1.24858
1.24604
1.24369
1.24147
1.23934
1.23726
1.23521
1.23317
1.23113
1.2291
1.22708
1.2251
1.22316
1.2213
1.21953
1.21788
1.21638
1.21504
1.21387
1.21289
1.21211
1.21154
1.21116
1.21098
1.21099
1.21118
1.21152
1.212
1.21258
1.21324
1.21395
1.21467
1.21537
1.21601
1.21656
1.21701
1.21731
1.21747
1.28679
1.28703
1.28751
1.28823
1.28919
1.2904
1.29185
1.29354
1.29547
1.29764
1.30005
1.30268
1.30554
1.30863
1.31193
1.31546
1.31921
1.32319
1.3274
1.33186
1.33657
1.34153
1.34674
1.35219
1.35787
1.36376
1.36983
1.37605
1.38236
1.38873
1.3951
1.40142
1.40764
1.4137
1.41956
1.42515
1.43045
1.43539
1.43996
1.44411
1.44782
1.45106
1.45381
1.45604
1.45775
1.45893
1.45956
1.45963
1.45915
1.45811
1.45651
1.45436
1.45166
1.44841
1.44465
1.44036
1.43559
1.43034
1.42464
1.41853
1.41204
1.4052
1.39807
1.3907
1.38314
1.37545
1.36769
1.35994
1.35226
1.34472
1.33738
1.33031
1.32357
1.31719
1.31122
1.30567
1.30056
1.29589
1.29164
1.28779
1.2843
1.28113
1.27824
1.27557
1.27309
1.27075
1.26852
1.26636
1.26426
1.2622
1.26017
1.25816
1.2562
1.25428
1.25243
1.25065
1.24897
1.2474
1.24597
1.24468
1.24356
1.2426
1.24182
1.24122
1.24079
1.24055
1.24046
1.24053
1.24074
1.24106
1.24149
1.24198
1.24251
1.24306
1.2436
1.2441
1.24453
1.24487
1.24511
1.24523
1.31708
1.31731
1.31777
1.31846
1.31938
1.32054
1.32193
1.32355
1.3254
1.32747
1.32977
1.33229
1.33503
1.33798
1.34115
1.34452
1.34812
1.35192
1.35595
1.3602
1.36468
1.36938
1.37429
1.37942
1.38474
1.39024
1.39588
1.40164
1.40747
1.41335
1.41921
1.42502
1.43074
1.4363
1.44167
1.4468
1.45165
1.45619
1.46038
1.46418
1.46758
1.47054
1.47305
1.47509
1.47664
1.4777
1.47824
1.47827
1.47779
1.47678
1.47526
1.47323
1.47068
1.46764
1.46411
1.4601
1.45564
1.45075
1.44545
1.43977
1.43375
1.42741
1.42081
1.41399
1.407
1.3999
1.39273
1.38557
1.37847
1.37148
1.36466
1.35808
1.35177
1.34577
1.34011
1.33482
1.32991
1.32537
1.32119
1.31736
1.31385
1.31063
1.30767
1.30492
1.30235
1.29993
1.29762
1.29541
1.29327
1.2912
1.28917
1.28719
1.28527
1.28341
1.28161
1.27991
1.27829
1.27679
1.27541
1.27417
1.27307
1.27213
1.27134
1.27072
1.27025
1.26994
1.26977
1.26975
1.26984
1.27004
1.27032
1.27067
1.27106
1.27147
1.27187
1.27225
1.27258
1.27284
1.27302
1.27312
1.34713
1.34735
1.34779
1.34846
1.34934
1.35045
1.35178
1.35333
1.3551
1.35708
1.35928
1.36168
1.3643
1.36712
1.37015
1.37337
1.37681
1.38044
1.38428
1.38832
1.39256
1.39701
1.40164
1.40645
1.41144
1.41656
1.42181
1.42715
1.43255
1.43797
1.44338
1.44873
1.45398
1.45909
1.46402
1.46872
1.47318
1.47734
1.48118
1.48466
1.48777
1.49048
1.49277
1.49463
1.49603
1.49697
1.49744
1.49743
1.49695
1.49598
1.49453
1.4926
1.49021
1.48735
1.48404
1.4803
1.47613
1.47157
1.46664
1.46136
1.45576
1.44989
1.44377
1.43746
1.43099
1.42441
1.41778
1.41114
1.40455
1.39807
1.39172
1.38557
1.37966
1.374
1.36865
1.3636
1.35887
1.35447
1.35039
1.34661
1.34312
1.33988
1.33688
1.33408
1.33146
1.32898
1.32663
1.32439
1.32223
1.32014
1.31812
1.31617
1.31428
1.31246
1.31072
1.30906
1.30751
1.30605
1.30472
1.30351
1.30244
1.3015
1.30071
1.30006
1.29956
1.29919
1.29895
1.29884
1.29883
1.29892
1.29909
1.29932
1.29959
1.29988
1.30017
1.30045
1.30069
1.30089
1.30103
1.3011
1.37696
1.37717
1.3776
1.37823
1.37908
1.38014
1.38141
1.38289
1.38458
1.38647
1.38857
1.39087
1.39336
1.39606
1.39894
1.40202
1.40529
1.40875
1.4124
1.41624
1.42025
1.42444
1.42881
1.43332
1.43798
1.44276
1.44765
1.4526
1.4576
1.46261
1.4676
1.47253
1.47736
1.48205
1.48658
1.49091
1.49499
1.49881
1.50233
1.50552
1.50836
1.51084
1.51293
1.51461
1.51588
1.51671
1.51711
1.51707
1.51659
1.51565
1.51427
1.51245
1.5102
1.50751
1.50441
1.50091
1.49702
1.49277
1.48817
1.48326
1.47806
1.4726
1.46693
1.46107
1.45507
1.44898
1.44283
1.43667
1.43055
1.42451
1.41859
1.41283
1.40728
1.40195
1.39687
1.39205
1.38752
1.38326
1.37929
1.37558
1.37212
1.3689
1.36589
1.36307
1.36042
1.35792
1.35554
1.35327
1.3511
1.34902
1.34701
1.34508
1.34322
1.34144
1.33974
1.33813
1.33661
1.3352
1.3339
1.33272
1.33166
1.33073
1.32993
1.32926
1.32872
1.3283
1.32801
1.32782
1.32773
1.32773
1.3278
1.32792
1.32809
1.32828
1.32849
1.32868
1.32885
1.329
1.3291
1.32915
1.40658
1.40678
1.40719
1.40779
1.40861
1.40962
1.41083
1.41224
1.41385
1.41566
1.41766
1.41985
1.42223
1.4248
1.42755
1.43048
1.43359
1.43688
1.44034
1.44397
1.44776
1.45171
1.45581
1.46005
1.46441
1.46887
1.47341
1.47801
1.48264
1.48728
1.49188
1.49642
1.50087
1.50519
1.50935
1.51333
1.51708
1.52058
1.5238
1.52672
1.52933
1.53159
1.53349
1.53501
1.53615
1.53689
1.53723
1.53716
1.53667
1.53577
1.53446
1.53274
1.53061
1.52809
1.52518
1.52191
1.51827
1.51431
1.51002
1.50545
1.50061
1.49554
1.49027
1.48483
1.47926
1.4736
1.46788
1.46215
1.45646
1.45082
1.44529
1.4399
1.43467
1.42964
1.42482
1.42023
1.41588
1.41178
1.40791
1.40429
1.40089
1.3977
1.3947
1.39189
1.38924
1.38672
1.38434
1.38207
1.3799
1.37782
1.37582
1.37391
1.37208
1.37033
1.36867
1.36709
1.36561
1.36424
1.36296
1.3618
1.36076
1.35983
1.35902
1.35833
1.35776
1.3573
1.35695
1.3567
1.35654
1.35646
1.35645
1.35649
1.35657
1.35668
1.35681
1.35693
1.35705
1.35715
1.35721
1.35725
1.43599
1.43619
1.43657
1.43715
1.43793
1.43889
1.44005
1.4414
1.44293
1.44466
1.44656
1.44865
1.45091
1.45336
1.45597
1.45876
1.46171
1.46483
1.4681
1.47153
1.47511
1.47883
1.48269
1.48666
1.49073
1.49489
1.49912
1.50339
1.50768
1.51197
1.51622
1.52041
1.52451
1.52849
1.53232
1.53597
1.53941
1.54262
1.54557
1.54825
1.55063
1.55269
1.55442
1.5558
1.55682
1.55748
1.55776
1.55766
1.55717
1.5563
1.55505
1.55342
1.55142
1.54905
1.54632
1.54326
1.53986
1.53616
1.53216
1.5279
1.5234
1.51868
1.51377
1.50872
1.50354
1.49827
1.49295
1.48761
1.4823
1.47703
1.47186
1.46679
1.46187
1.45712
1.45254
1.44817
1.444
1.44005
1.4363
1.43277
1.42944
1.4263
1.42334
1.42055
1.41791
1.4154
1.41302
1.41076
1.40859
1.40653
1.40455
1.40266
1.40086
1.39914
1.39751
1.39596
1.39452
1.39317
1.39192
1.39077
1.38974
1.38881
1.38799
1.38729
1.38669
1.38619
1.3858
1.38549
1.38527
1.38512
1.38504
1.38501
1.38502
1.38506
1.38513
1.3852
1.38526
1.38532
1.38536
1.38539
1.46521
1.4654
1.46577
1.46632
1.46706
1.46798
1.46908
1.47037
1.47183
1.47347
1.47528
1.47726
1.47942
1.48174
1.48422
1.48687
1.48966
1.49262
1.49571
1.49895
1.50233
1.50582
1.50944
1.51316
1.51696
1.52084
1.52478
1.52875
1.53273
1.53669
1.54063
1.54449
1.54827
1.55194
1.55546
1.55881
1.56197
1.56492
1.56763
1.57008
1.57225
1.57413
1.5757
1.57695
1.57786
1.57844
1.57866
1.57854
1.57806
1.57722
1.57603
1.57448
1.57259
1.57037
1.56781
1.56494
1.56176
1.5583
1.55457
1.5506
1.5464
1.542
1.53743
1.53272
1.5279
1.52299
1.51803
1.51306
1.50809
1.50316
1.49831
1.49355
1.48891
1.48441
1.48007
1.4759
1.47191
1.4681
1.46449
1.46106
1.4578
1.45473
1.45181
1.44906
1.44644
1.44396
1.44159
1.43934
1.4372
1.43515
1.4332
1.43133
1.42955
1.42786
1.42626
1.42474
1.42332
1.42199
1.42076
1.41963
1.4186
1.41768
1.41686
1.41613
1.41551
1.41498
1.41455
1.4142
1.41393
1.41372
1.41358
1.41349
1.41344
1.41343
1.41344
1.41346
1.41349
1.41351
1.41353
1.41355
1.49425
1.49442
1.49478
1.4953
1.49601
1.49688
1.49793
1.49915
1.50055
1.5021
1.50383
1.50571
1.50776
1.50996
1.51231
1.51482
1.51747
1.52026
1.52318
1.52624
1.52941
1.5327
1.53609
1.53957
1.54312
1.54674
1.5504
1.55409
1.55778
1.56146
1.56509
1.56866
1.57215
1.57553
1.57877
1.58185
1.58475
1.58746
1.58994
1.59218
1.59416
1.59587
1.5973
1.59842
1.59924
1.59975
1.59992
1.59978
1.5993
1.59849
1.59735
1.59589
1.59411
1.59201
1.58961
1.58692
1.58394
1.58071
1.57722
1.57351
1.5696
1.5655
1.56124
1.55685
1.55235
1.54777
1.54314
1.53848
1.53384
1.52922
1.52466
1.52018
1.5158
1.51154
1.50742
1.50345
1.49963
1.49597
1.49248
1.48916
1.48599
1.48299
1.48013
1.47742
1.47484
1.47239
1.47005
1.46783
1.4657
1.46368
1.46175
1.45991
1.45816
1.45649
1.45491
1.45343
1.45203
1.45072
1.44951
1.44839
1.44737
1.44644
1.44561
1.44488
1.44424
1.44368
1.44322
1.44283
1.44251
1.44226
1.44207
1.44193
1.44183
1.44177
1.44173
1.44172
1.44171
1.44171
1.44171
1.44172
1.52311
1.52328
1.52361
1.52411
1.52478
1.52561
1.52661
1.52777
1.52909
1.53057
1.53221
1.534
1.53594
1.53803
1.54026
1.54263
1.54513
1.54777
1.55052
1.5534
1.55639
1.55947
1.56265
1.5659
1.56922
1.5726
1.576
1.57943
1.58285
1.58626
1.58962
1.59292
1.59614
1.59925
1.60223
1.60507
1.60773
1.61021
1.61249
1.61454
1.61635
1.6179
1.6192
1.62021
1.62094
1.62138
1.62151
1.62134
1.62087
1.62009
1.619
1.61762
1.61593
1.61396
1.6117
1.60918
1.60639
1.60336
1.60011
1.59664
1.59298
1.58915
1.58517
1.58107
1.57687
1.57259
1.56826
1.56391
1.55955
1.55522
1.55093
1.54671
1.54258
1.53854
1.53463
1.53084
1.52719
1.52368
1.52031
1.5171
1.51403
1.5111
1.50831
1.50565
1.50311
1.5007
1.4984
1.49621
1.49411
1.49212
1.49021
1.4884
1.48667
1.48504
1.48348
1.48202
1.48064
1.47936
1.47816
1.47705
1.47604
1.47511
1.47428
1.47353
1.47288
1.4723
1.4718
1.47138
1.47103
1.47074
1.47051
1.47033
1.47019
1.47008
1.47001
1.46996
1.46993
1.46991
1.46989
1.46989
1.5518
1.55196
1.55228
1.55275
1.55339
1.55418
1.55513
1.55623
1.55748
1.55889
1.56044
1.56214
1.56397
1.56595
1.56806
1.5703
1.57266
1.57515
1.57775
1.58045
1.58326
1.58615
1.58913
1.59217
1.59527
1.59842
1.60159
1.60477
1.60795
1.6111
1.61421
1.61726
1.62023
1.6231
1.62585
1.62845
1.6309
1.63318
1.63526
1.63713
1.63879
1.6402
1.64137
1.64228
1.64293
1.6433
1.6434
1.64321
1.64274
1.64199
1.64095
1.63964
1.63805
1.63619
1.63406
1.63169
1.62908
1.62624
1.6232
1.61995
1.61653
1.61295
1.60924
1.6054
1.60147
1.59747
1.59341
1.58933
1.58525
1.58118
1.57714
1.57316
1.56925
1.56543
1.5617
1.55809
1.5546
1.55123
1.548
1.54489
1.54191
1.53907
1.53635
1.53375
1.53127
1.5289
1.52664
1.52448
1.52242
1.52046
1.51859
1.5168
1.5151
1.51349
1.51197
1.51053
1.50917
1.5079
1.50672
1.50562
1.50462
1.50369
1.50286
1.5021
1.50143
1.50083
1.50032
1.49987
1.49948
1.49916
1.4989
1.49868
1.49851
1.49837
1.49827
1.49819
1.49813
1.49809
1.49807
1.49806
1.58033
1.58048
1.58078
1.58124
1.58184
1.58259
1.58349
1.58454
1.58572
1.58705
1.58852
1.59013
1.59187
1.59374
1.59573
1.59785
1.60008
1.60242
1.60486
1.60741
1.61004
1.61275
1.61554
1.61838
1.62128
1.62421
1.62716
1.63011
1.63306
1.63599
1.63887
1.64168
1.64442
1.64707
1.6496
1.652
1.65425
1.65633
1.65824
1.65995
1.66146
1.66275
1.6638
1.66462
1.66519
1.66551
1.66557
1.66537
1.66491
1.66418
1.66319
1.66194
1.66043
1.65868
1.65668
1.65445
1.652
1.64934
1.64648
1.64345
1.64024
1.63689
1.63341
1.62982
1.62614
1.62239
1.61859
1.61476
1.61092
1.60709
1.60329
1.59953
1.59583
1.59221
1.58867
1.58523
1.58189
1.57866
1.57555
1.57255
1.56967
1.56691
1.56427
1.56174
1.55931
1.55699
1.55478
1.55266
1.55064
1.54871
1.54687
1.54512
1.54345
1.54186
1.54036
1.53895
1.53761
1.53636
1.53519
1.53411
1.53311
1.53219
1.53135
1.53059
1.5299
1.52929
1.52876
1.52829
1.52788
1.52753
1.52724
1.52699
1.52679
1.52662
1.52649
1.52639
1.52632
1.52626
1.52623
1.52621
1.60871
1.60885
1.60914
1.60957
1.61014
1.61085
1.61171
1.6127
1.61382
1.61508
1.61647
1.61799
1.61963
1.6214
1.62328
1.62528
1.62738
1.62958
1.63188
1.63427
1.63674
1.63928
1.64189
1.64455
1.64725
1.64998
1.65272
1.65547
1.6582
1.66091
1.66358
1.66618
1.66871
1.67115
1.67348
1.67569
1.67776
1.67967
1.68142
1.68298
1.68435
1.68552
1.68647
1.68721
1.68771
1.68798
1.688
1.68779
1.68733
1.68663
1.68568
1.68449
1.68306
1.68141
1.67952
1.67743
1.67513
1.67263
1.66995
1.6671
1.6641
1.66096
1.6577
1.65434
1.65089
1.64737
1.6438
1.6402
1.63659
1.63299
1.6294
1.62585
1.62235
1.61891
1.61554
1.61226
1.60907
1.60598
1.60298
1.6001
1.59732
1.59464
1.59207
1.58961
1.58725
1.58499
1.58282
1.58075
1.57877
1.57687
1.57507
1.57335
1.57171
1.57015
1.56868
1.56728
1.56597
1.56474
1.56358
1.56251
1.56152
1.5606
1.55976
1.559
1.5583
1.55768
1.55713
1.55664
1.55621
1.55584
1.55553
1.55526
1.55503
1.55484
1.55469
1.55457