/*--------------------------------*- C++ -*----------------------------------*\
| =========                 |                                                 |
| \\      /  F ield         | OpenFOAM: The Open Source CFD Toolbox           |
|  \\    /   O peration     | Version:  2406                                  |
|   \\  /    A nd           | Website:  www.openfoam.com                      |
|    \\/     M anipulation  |                                                 |
\*---------------------------------------------------------------------------*/
FoamFile
{
    version     2.0;
    format      ascii;
    arch        "LSB;label=32;scalar=64";
    class       volScalarField;
    location    "4.55";
    object      C_0_0;
}
// * * * * * * * * * * * * * * * * * * * * * * * * * * * * * * * * * * * * * //

dimensions      [1 -3 0 0 0 0 0];

internalField   nonuniform List<scalar> 
14400
(
0.366469
0.362235
0.355734
0.348731
0.34251
0.337944
0.335604
0.335833
0.3388
0.34452
0.352856
0.363489
0.375855
0.389
0.401209
0.408815
0.404664
0.394912
0.38361
0.373061
0.36462
0.359158
0.35729
0.359495
0.366178
0.377709
0.394451
0.416767
0.445024
0.479583
0.520759
0.568722
0.623221
0.682189
0.728072
0.758282
0.782986
0.804682
0.823708
0.840323
0.854734
0.867102
0.877554
0.886192
0.893094
0.898322
0.901922
0.903924
0.90435
0.903207
0.90049
0.896185
0.890265
0.882691
0.873408
0.862348
0.849421
0.834518
0.817499
0.798192
0.776379
0.751787
0.724062
0.685517
0.630333
0.570635
0.51631
0.468696
0.427769
0.393195
0.364569
0.34149
0.323597
0.310574
0.302159
0.298145
0.298371
0.302721
0.311114
0.323492
0.339801
0.359964
0.383814
0.410946
0.440056
0.464426
0.478052
0.483489
0.482933
0.475348
0.457532
0.434071
0.411654
0.391691
0.374687
0.360823
0.350093
0.342348
0.337309
0.334568
0.33359
0.333741
0.334352
0.334873
0.335092
0.335266
0.335985
0.337959
0.341864
0.348278
0.357663
0.37036
0.386589
0.406442
0.429836
0.456378
0.484705
0.507392
0.519466
0.52462
0.381534
0.375513
0.36734
0.359071
0.351954
0.346792
0.3441
0.34419
0.347213
0.35318
0.361959
0.373248
0.386523
0.400888
0.414649
0.423137
0.419255
0.407548
0.394623
0.382926
0.373667
0.367621
0.365354
0.367315
0.373895
0.385456
0.40235
0.424938
0.453584
0.488639
0.530402
0.57898
0.633816
0.691499
0.733499
0.761708
0.785992
0.807354
0.826117
0.842528
0.856777
0.869017
0.879368
0.887927
0.894768
0.89995
0.903518
0.905502
0.90592
0.904779
0.902078
0.8978
0.891919
0.884399
0.875186
0.864214
0.851398
0.836633
0.819787
0.800697
0.779159
0.754914
0.727633
0.692324
0.640516
0.580244
0.525273
0.477057
0.435584
0.400531
0.3715
0.348097
0.329958
0.31677
0.308272
0.304255
0.304561
0.309072
0.317709
0.330414
0.347132
0.367778
0.392172
0.419854
0.449354
0.472417
0.484283
0.489483
0.489245
0.48326
0.467719
0.44433
0.421438
0.400979
0.383579
0.369463
0.358638
0.350972
0.346191
0.34388
0.343475
0.344262
0.345415
0.346154
0.346143
0.345765
0.345843
0.347242
0.350712
0.356865
0.366166
0.378947
0.395416
0.415641
0.439495
0.46645
0.494644
0.514888
0.525041
0.529773
0.411577
0.401624
0.390188
0.379546
0.370753
0.364463
0.361104
0.360934
0.364074
0.370524
0.380158
0.39269
0.407631
0.424058
0.439665
0.446066
0.444042
0.43149
0.416144
0.402481
0.39173
0.384581
0.381544
0.383034
0.389418
0.401039
0.41824
0.441372
0.470786
0.506817
0.549731
0.599585
0.655455
0.70713
0.742145
0.768527
0.791922
0.812623
0.830879
0.846893
0.86083
0.872821
0.882975
0.891379
0.898101
0.903194
0.906699
0.908644
0.909047
0.907914
0.905242
0.901017
0.895214
0.887799
0.878723
0.867924
0.855325
0.840829
0.82432
0.805651
0.784645
0.761077
0.734655
0.703708
0.658549
0.598981
0.543174
0.493859
0.451319
0.415316
0.385479
0.361424
0.342794
0.329276
0.32061
0.316588
0.317052
0.321886
0.331012
0.344369
0.361899
0.383505
0.408959
0.437607
0.467076
0.486443
0.496108
0.500915
0.501117
0.496771
0.48601
0.464705
0.440976
0.419565
0.401397
0.386782
0.375769
0.368258
0.364002
0.362585
0.363394
0.3656
0.368044
0.369332
0.368741
0.367056
0.365707
0.365885
0.368457
0.374077
0.38321
0.396164
0.413106
0.434063
0.458802
0.48646
0.512396
0.52745
0.535598
0.53966
0.44626
0.437908
0.423225
0.409704
0.398731
0.390913
0.386642
0.386123
0.389446
0.396596
0.407442
0.421665
0.438744
0.457379
0.470597
0.473559
0.472903
0.464435
0.447414
0.43149
0.418789
0.410119
0.40599
0.406806
0.412914
0.424637
0.4423
0.466239
0.496783
0.534212
0.578647
0.629673
0.684368
0.72502
0.75348
0.77833
0.800546
0.820338
0.837883
0.853337
0.866827
0.878462
0.888333
0.896513
0.903061
0.908025
0.911439
0.913329
0.91371
0.912587
0.909959
0.905811
0.900122
0.89286
0.883982
0.873433
0.861147
0.847039
0.831011
0.812943
0.792692
0.770093
0.744958
0.717104
0.680642
0.627033
0.570187
0.51929
0.475189
0.437773
0.40673
0.381698
0.362329
0.348314
0.339394
0.335363
0.336065
0.341384
0.351241
0.365572
0.384306
0.407316
0.434301
0.464271
0.490592
0.504493
0.512607
0.51695
0.517536
0.514476
0.507918
0.493418
0.469872
0.447401
0.42817
0.412842
0.401538
0.394252
0.390796
0.390767
0.393523
0.398184
0.403148
0.405629
0.40379
0.399563
0.395748
0.393974
0.39515
0.39996
0.408851
0.422072
0.439696
0.461673
0.487429
0.514905
0.533484
0.543561
0.550239
0.553608
0.47945
0.476453
0.464506
0.448895
0.435661
0.426074
0.420741
0.419828
0.423401
0.431431
0.443767
0.459837
0.478608
0.495544
0.502265
0.504044
0.503882
0.500726
0.487564
0.469717
0.454856
0.444365
0.438875
0.43885
0.444624
0.456497
0.474773
0.49977
0.531772
0.570959
0.617156
0.668799
0.712233
0.742371
0.767713
0.790767
0.811595
0.830298
0.84698
0.861743
0.874678
0.885868
0.895382
0.903279
0.909607
0.914405
0.917704
0.919523
0.919876
0.918767
0.916194
0.912146
0.906602
0.899536
0.890911
0.880681
0.86879
0.85517
0.839743
0.822417
0.803089
0.781647
0.757977
0.731976
0.702916
0.661789
0.605906
0.553492
0.507467
0.468215
0.435577
0.409248
0.388893
0.374209
0.364947
0.360903
0.361922
0.367887
0.378714
0.394329
0.41462
0.439352
0.467859
0.497597
0.516107
0.525996
0.532876
0.536744
0.5376
0.535563
0.530887
0.52322
0.507245
0.484305
0.463841
0.447675
0.435959
0.428938
0.426531
0.428375
0.433728
0.44199
0.451082
0.455794
0.451627
0.44326
0.435834
0.431456
0.430752
0.434499
0.443102
0.456699
0.475123
0.498264
0.524361
0.543955
0.554991
0.562813
0.568191
0.570924
0.513486
0.512851
0.50821
0.495847
0.481172
0.469762
0.463371
0.462071
0.46595
0.474945
0.488948
0.506324
0.523484
0.532045
0.534813
0.53647
0.536862
0.536014
0.530837
0.516084
0.499801
0.48744
0.480387
0.47941
0.484823
0.496902
0.515925
0.542182
0.57586
0.616836
0.663545
0.706082
0.736532
0.761224
0.784234
0.805428
0.824771
0.842279
0.857996
0.871976
0.884276
0.89495
0.904048
0.911613
0.917682
0.922286
0.925447
0.927183
0.927503
0.926412
0.923906
0.919975
0.914605
0.907772
0.899446
0.88959
0.878162
0.865108
0.850373
0.833892
0.815598
0.795428
0.773327
0.749264
0.723251
0.693106
0.649727
0.596586
0.54844
0.506998
0.472413
0.444487
0.422904
0.407382
0.397686
0.393622
0.395036
0.401805
0.413824
0.431007
0.453148
0.479788
0.509312
0.531092
0.542301
0.550376
0.556158
0.559549
0.560556
0.559289
0.555979
0.550987
0.543238
0.528567
0.507813
0.491146
0.478859
0.472094
0.470905
0.474997
0.48284
0.494418
0.500781
0.502891
0.501322
0.495582
0.484809
0.477932
0.474967
0.477482
0.485793
0.499907
0.51881
0.542151
0.559879
0.57061
0.578341
0.584509
0.588787
0.590973
0.548158
0.547857
0.547351
0.543168
0.533769
0.5212
0.51423
0.512618
0.516817
0.526475
0.541743
0.555258
0.563202
0.56609
0.568464
0.570159
0.571082
0.571268
0.570872
0.5656
0.552763
0.539269
0.530561
0.528664
0.533747
0.546091
0.565925
0.593505
0.62875
0.670327
0.708168
0.736609
0.75968
0.781759
0.80257
0.821941
0.83978
0.85605
0.870748
0.883889
0.895499
0.905608
0.914246
0.921443
0.927223
0.931608
0.934616
0.936258
0.936542
0.935471
0.933041
0.929245
0.924071
0.9175
0.909509
0.900073
0.889158
0.876729
0.862748
0.847178
0.829984
0.811141
0.79064
0.768503
0.744799
0.719668
0.689436
0.646859
0.598014
0.554393
0.517629
0.487878
0.46485
0.44832
0.438098
0.434004
0.435886
0.4436
0.456984
0.475934
0.499927
0.527439
0.550064
0.562329
0.570489
0.577048
0.581829
0.58474
0.585785
0.585057
0.582754
0.579173
0.574718
0.568469
0.557247
0.542289
0.529403
0.522954
0.522841
0.529189
0.536431
0.540803
0.541684
0.541524
0.542312
0.542033
0.538368
0.53199
0.526737
0.528169
0.536118
0.550731
0.568011
0.581677
0.590415
0.59723
0.603254
0.608096
0.611475
0.613209
0.58313
0.583067
0.583032
0.583222
0.581454
0.576846
0.571628
0.569838
0.5743
0.582729
0.590686
0.595889
0.598232
0.600616
0.602796
0.604621
0.60604
0.607099
0.607951
0.608833
0.605846
0.598413
0.588684
0.586459
0.591335
0.603998
0.62448
0.652832
0.687974
0.718419
0.742606
0.763382
0.783819
0.803563
0.822347
0.839986
0.856358
0.871394
0.885057
0.897333
0.908223
0.917736
0.925886
0.932689
0.938158
0.942309
0.94515
0.946692
0.946937
0.945888
0.943542
0.939894
0.934933
0.928647
0.92102
0.912033
0.901667
0.889901
0.876713
0.862089
0.84602
0.828511
0.809588
0.789308
0.767774
0.745149
0.721667
0.693249
0.654647
0.610282
0.571449
0.539865
0.515224
0.497524
0.486688
0.482545
0.484953
0.493735
0.508483
0.529182
0.553934
0.574653
0.586504
0.593868
0.600278
0.6055
0.609368
0.611799
0.612785
0.612402
0.610806
0.608235
0.605005
0.601503
0.59768
0.591045
0.583883
0.57887
0.577895
0.57906
0.57999
0.578636
0.577891
0.577841
0.578554
0.579988
0.582055
0.581913
0.581748
0.583975
0.590517
0.599469
0.608011
0.613852
0.619348
0.624643
0.629347
0.633146
0.635808
0.637177
0.618165
0.618249
0.618486
0.619016
0.620058
0.621337
0.621027
0.62153
0.624159
0.627605
0.62951
0.631161
0.633184
0.635347
0.637481
0.63949
0.641356
0.643139
0.644989
0.647152
0.649996
0.651261
0.650704
0.651036
0.655929
0.668931
0.689097
0.712835
0.735293
0.754082
0.772171
0.790492
0.80865
0.826325
0.843269
0.859296
0.874274
0.888112
0.900753
0.912163
0.922323
0.931227
0.938874
0.945267
0.950413
0.954317
0.956985
0.958421
0.958626
0.957602
0.955346
0.951854
0.947119
0.941134
0.933889
0.925374
0.915578
0.904493
0.892115
0.878445
0.863496
0.847295
0.829892
0.811367
0.791842
0.771485
0.750528
0.72926
0.704599
0.672462
0.633256
0.600651
0.574348
0.555363
0.543871
0.53963
0.542551
0.552507
0.567973
0.589299
0.605344
0.614919
0.620821
0.626359
0.631257
0.635303
0.638346
0.640302
0.641155
0.640959
0.639832
0.637955
0.635563
0.632937
0.630377
0.628222
0.625873
0.623008
0.620668
0.61789
0.615534
0.614094
0.613402
0.613394
0.614076
0.615468
0.617663
0.620867
0.624594
0.628065
0.632295
0.636192
0.639927
0.644138
0.648481
0.652645
0.656343
0.659335
0.661434
0.662515
0.653115
0.653278
0.653645
0.6543
0.655339
0.656821
0.658762
0.660658
0.661937
0.662995
0.664371
0.666053
0.667997
0.670106
0.67229
0.674504
0.676754
0.679111
0.681714
0.684779
0.688613
0.693626
0.699833
0.705464
0.7135
0.725612
0.740454
0.755718
0.770115
0.785494
0.801502
0.817767
0.833964
0.849819
0.865108
0.879656
0.893328
0.906026
0.91768
0.928242
0.93768
0.945975
0.953114
0.959093
0.96391
0.967562
0.970052
0.97138
0.971545
0.970548
0.968386
0.965057
0.960557
0.954882
0.948029
0.939994
0.930777
0.920379
0.908808
0.89608
0.882223
0.86728
0.851317
0.834427
0.816739
0.798423
0.779698
0.760837
0.742171
0.722539
0.697745
0.668967
0.641547
0.621601
0.609642
0.605149
0.608131
0.619128
0.63205
0.641858
0.647489
0.651395
0.655503
0.659488
0.663089
0.66611
0.66841
0.669906
0.670575
0.670448
0.669609
0.668188
0.666356
0.664304
0.662218
0.660236
0.658301
0.656287
0.653944
0.651753
0.649981
0.648802
0.648229
0.648255
0.648889
0.650146
0.652056
0.654634
0.657733
0.661112
0.664285
0.667482
0.670804
0.674292
0.677794
0.681113
0.684047
0.686416
0.688078
0.688934
0.687904
0.688101
0.688519
0.689197
0.690176
0.691463
0.692998
0.69457
0.695995
0.697382
0.698925
0.700681
0.702647
0.704788
0.70707
0.709481
0.712047
0.714838
0.717977
0.721638
0.72605
0.731477
0.738168
0.746383
0.755911
0.766227
0.777308
0.789438
0.802482
0.816277
0.830576
0.845109
0.859619
0.873877
0.887688
0.900891
0.913356
0.924984
0.935699
0.945445
0.95418
0.961877
0.968516
0.974083
0.978569
0.98197
0.984281
0.985501
0.985627
0.984658
0.982593
0.97943
0.975168
0.969808
0.96335
0.955798
0.947157
0.937438
0.926658
0.914845
0.902036
0.888286
0.873669
0.858286
0.842265
0.82577
0.809006
0.792218
0.775699
0.759789
0.744735
0.727563
0.709581
0.693296
0.681875
0.67671
0.676723
0.679524
0.682734
0.683768
0.685367
0.687668
0.69031
0.692999
0.695502
0.697638
0.699277
0.700339
0.700791
0.700648
0.699966
0.698834
0.69737
0.695704
0.693954
0.692203
0.690455
0.688681
0.686867
0.685196
0.683835
0.682905
0.682456
0.68251
0.683079
0.68417
0.685781
0.68788
0.690365
0.693078
0.695837
0.698645
0.701517
0.70443
0.707291
0.709967
0.712315
0.714205
0.715527
0.716208
0.722496
0.722703
0.723131
0.723795
0.724707
0.725856
0.727195
0.72863
0.730092
0.731613
0.733268
0.735099
0.737121
0.73933
0.74172
0.744303
0.747113
0.750217
0.753717
0.757747
0.762471
0.768062
0.774672
0.782391
0.791136
0.800715
0.81107
0.822225
0.834098
0.846556
0.859416
0.872474
0.885526
0.898383
0.910877
0.922863
0.934222
0.944856
0.954688
0.963657
0.971719
0.978838
0.984988
0.990152
0.994315
0.997467
0.999602
1.00072
1.0008
0.999864
0.997897
0.994901
0.990879
0.985832
0.979766
0.972689
0.964614
0.955556
0.945542
0.934604
0.92279
0.910158
0.896789
0.882782
0.868263
0.853386
0.838337
0.82333
0.808615
0.794467
0.781177
0.769069
0.758254
0.747685
0.73865
0.732403
0.728492
0.72507
0.72287
0.722186
0.722541
0.7236
0.725069
0.726697
0.728282
0.729662
0.730721
0.73138
0.731603
0.731389
0.730771
0.729811
0.728587
0.727187
0.725693
0.724165
0.722633
0.721116
0.719649
0.718328
0.717259
0.716526
0.71618
0.716249
0.716747
0.717675
0.719019
0.720741
0.722767
0.725
0.72734
0.729746
0.732187
0.73462
0.736972
0.739147
0.741042
0.742559
0.743619
0.744164
0.756879
0.757087
0.757506
0.758144
0.758999
0.76006
0.761296
0.762662
0.76413
0.765709
0.767432
0.769327
0.771409
0.77369
0.776179
0.778898
0.781885
0.785201
0.788926
0.793162
0.798026
0.803629
0.810065
0.817374
0.825523
0.834429
0.844033
0.854292
0.86513
0.876433
0.888058
0.899844
0.911628
0.923253
0.934573
0.945463
0.955812
0.965529
0.974538
0.982778
0.9902
0.996767
1.00245
1.00722
1.01107
1.01398
1.01595
1.01696
1.01701
1.0161
1.01423
1.0114
1.00761
1.00287
0.997193
0.99058
0.983052
0.974632
0.965349
0.955242
0.94436
0.932768
0.920545
0.907789
0.894619
0.881176
0.867624
0.854151
0.840965
0.828287
0.816344
0.805348
0.795444
0.786724
0.779204
0.772747
0.767506
0.763641
0.761025
0.759564
0.759012
0.759124
0.759667
0.760438
0.761265
0.762009
0.762564
0.762858
0.762851
0.762533
0.76192
0.761052
0.75998
0.758765
0.757465
0.756131
0.754798
0.753501
0.752283
0.751208
0.750347
0.74976
0.749488
0.749559
0.749985
0.750763
0.751879
0.753297
0.754964
0.756814
0.758779
0.76081
0.762864
0.764892
0.766831
0.768608
0.770146
0.771372
0.772226
0.772664
0.791055
0.791257
0.791664
0.792275
0.793087
0.79409
0.795265
0.796592
0.798056
0.799662
0.801426
0.803367
0.8055
0.80784
0.810407
0.813224
0.81633
0.819774
0.823622
0.827951
0.83284
0.838365
0.844583
0.851519
0.859154
0.867445
0.876339
0.885781
0.895697
0.905989
0.916539
0.927217
0.93789
0.948425
0.958701
0.968604
0.978035
0.986911
0.995158
1.00272
1.00954
1.01558
1.02082
1.02522
1.02876
1.03144
1.03324
1.03415
1.03417
1.03329
1.03152
1.02885
1.0253
1.02086
1.01555
1.00939
1.00238
0.994571
0.98598
0.976653
0.966641
0.956009
0.944835
0.933211
0.921248
0.909074
0.896833
0.884686
0.872806
0.861373
0.850563
0.840534
0.831409
0.823265
0.816134
0.810008
0.804937
0.800962
0.798026
0.796031
0.794821
0.794215
0.794037
0.794124
0.794332
0.794545
0.794668
0.794637
0.79441
0.793971
0.793325
0.792495
0.791515
0.790427
0.789273
0.788094
0.786927
0.785807
0.784773
0.783875
0.783162
0.782677
0.782454
0.782516
0.78287
0.783515
0.784435
0.785603
0.786978
0.788511
0.790151
0.791852
0.793568
0.795253
0.796853
0.798308
0.799562
0.800557
0.801248
0.801602
0.825028
0.825224
0.825617
0.826205
0.826984
0.827947
0.829084
0.830384
0.83184
0.833457
0.835243
0.837213
0.839382
0.841765
0.844384
0.847262
0.850435
0.853944
0.857839
0.862178
0.867017
0.872408
0.878385
0.884963
0.89213
0.899856
0.908097
0.916797
0.925888
0.935285
0.94489
0.954595
0.964288
0.973859
0.9832
0.992215
1.00081
1.00892
1.01647
1.02339
1.02965
1.0352
1.04002
1.04407
1.04733
1.04978
1.05143
1.05224
1.05223
1.05139
1.04971
1.0472
1.04387
1.03972
1.03477
1.02903
1.02253
1.01529
1.00735
0.998748
0.989542
0.979792
0.969573
0.958972
0.948089
0.937038
0.925947
0.914953
0.9042
0.893835
0.883999
0.874818
0.866392
0.858792
0.852059
0.846212
0.841273
0.837244
0.834084
0.831715
0.830024
0.828878
0.828143
0.827687
0.827396
0.827169
0.826927
0.826611
0.82618
0.825616
0.824915
0.824088
0.823158
0.822154
0.821106
0.820047
0.819009
0.818025
0.817128
0.816357
0.815747
0.815332
0.815137
0.815179
0.815464
0.81599
0.816744
0.817703
0.818835
0.820102
0.821463
0.822878
0.824304
0.825699
0.827017
0.828212
0.829235
0.830045
0.830607
0.830894
0.858804
0.858994
0.859375
0.859943
0.860697
0.861631
0.86274
0.864019
0.865465
0.867082
0.868877
0.870861
0.873049
0.875456
0.8781
0.881007
0.884204
0.887726
0.891613
0.895906
0.900644
0.905863
0.911585
0.917816
0.924548
0.931754
0.939395
0.947422
0.955773
0.964374
0.973142
0.981985
0.990809
0.999521
1.00803
1.01624
1.02409
1.03149
1.03839
1.04473
1.05047
1.05557
1.05998
1.0637
1.06669
1.06894
1.07043
1.07116
1.07112
1.07031
1.06872
1.06637
1.06325
1.05938
1.05477
1.04943
1.0434
1.03671
1.02937
1.02145
1.01299
1.00404
0.994694
0.985014
0.975097
0.965044
0.954965
0.944979
0.935206
0.925769
0.916781
0.908347
0.900549
0.893452
0.887098
0.881509
0.876698
0.872657
0.869352
0.866722
0.864682
0.863132
0.861967
0.861087
0.860395
0.859809
0.859261
0.858698
0.858084
0.857398
0.85663
0.855785
0.854877
0.853923
0.852949
0.851978
0.851038
0.850155
0.849359
0.848677
0.848138
0.847767
0.847583
0.847598
0.847817
0.848238
0.848848
0.849629
0.850556
0.851599
0.852722
0.853891
0.85507
0.856221
0.857306
0.858285
0.859122
0.859783
0.86024
0.860473
0.892391
0.892575
0.892944
0.893496
0.894229
0.89514
0.896227
0.897486
0.898919
0.900528
0.902321
0.904306
0.906497
0.908908
0.911555
0.91446
0.917648
0.921144
0.924981
0.929187
0.933791
0.938816
0.944275
0.95017
0.956491
0.963215
0.970307
0.977723
0.985407
0.993296
1.00132
1.00939
1.01744
1.02539
1.03314
1.04064
1.0478
1.05456
1.06087
1.06668
1.07194
1.07661
1.08066
1.08406
1.0868
1.08885
1.09021
1.09085
1.09079
1.09001
1.08851
1.0863
1.08339
1.07978
1.07549
1.07054
1.06495
1.05876
1.05199
1.04469
1.03691
1.02871
1.02014
1.01129
1.00224
0.993074
0.983891
0.974791
0.965877
0.957252
0.94901
0.941238
0.934006
0.927371
0.92137
0.916028
0.911352
0.907334
0.903946
0.901139
0.898848
0.896999
0.895509
0.894297
0.893287
0.89241
0.891609
0.890837
0.890061
0.88926
0.888422
0.887546
0.886639
0.885715
0.884788
0.883879
0.883009
0.8822
0.881474
0.880854
0.880362
0.880015
0.879829
0.879813
0.879969
0.880295
0.88078
0.88141
0.882163
0.883014
0.883935
0.884895
0.885864
0.88681
0.8877
0.888501
0.889185
0.889724
0.890096
0.890286
0.925792
0.925971
0.92633
0.926868
0.927583
0.928474
0.92954
0.93078
0.932195
0.933791
0.935572
0.937546
0.939726
0.942123
0.944752
0.947632
0.950782
0.954223
0.957978
0.96207
0.966517
0.971334
0.976528
0.982098
0.988032
0.994308
1.0009
1.00775
1.01484
1.02209
1.02944
1.03683
1.04419
1.05144
1.05852
1.06537
1.07191
1.07809
1.08386
1.08918
1.09399
1.09826
1.10197
1.10509
1.10759
1.10946
1.11069
1.11126
1.11117
1.11042
1.10901
1.10694
1.10422
1.10085
1.09687
1.09228
1.08711
1.08138
1.07514
1.06841
1.06126
1.05373
1.04588
1.03778
1.0295
1.02112
1.01273
1.00442
0.99626
0.988352
0.98077
0.973588
0.966866
0.960654
0.954985
0.949881
0.945349
0.941382
0.937957
0.935038
0.932574
0.930507
0.928773
0.927306
0.926046
0.924936
0.923927
0.92298
0.922064
0.921159
0.920251
0.919338
0.91842
0.917507
0.916609
0.915741
0.914919
0.914161
0.913483
0.912903
0.912439
0.912103
0.911906
0.911856
0.911952
0.912193
0.912569
0.913068
0.913671
0.914359
0.915107
0.91589
0.916682
0.917455
0.918181
0.918836
0.919393
0.919832
0.920134
0.920289
0.959013
0.959188
0.959538
0.960063
0.960761
0.961633
0.962678
0.963898
0.965293
0.966868
0.968628
0.970582
0.972737
0.975105
0.977699
0.980534
0.983624
0.986987
0.99064
0.994597
0.998873
1.00348
1.00841
1.01366
1.01923
1.02509
1.03121
1.03756
1.0441
1.05077
1.05752
1.06429
1.07103
1.07767
1.08414
1.0904
1.09638
1.10203
1.10731
1.11217
1.11657
1.12049
1.12388
1.12673
1.12901
1.13071
1.13182
1.13232
1.13221
1.13149
1.13016
1.12822
1.12569
1.12256
1.11886
1.1146
1.10981
1.10452
1.09876
1.09257
1.08599
1.07907
1.07186
1.06444
1.05685
1.04918
1.0415
1.03388
1.0264
1.01912
1.01213
1.00548
0.999218
0.993393
0.988034
0.983161
0.97878
0.974887
0.971464
0.968482
0.965904
0.963682
0.961768
0.960108
0.958655
0.95736
0.956184
0.955092
0.954057
0.953059
0.952087
0.951133
0.950197
0.949284
0.948401
0.947557
0.946766
0.94604
0.945393
0.944838
0.944387
0.944051
0.943838
0.94375
0.943791
0.943954
0.944235
0.94462
0.945096
0.945644
0.946245
0.946877
0.947519
0.948146
0.948736
0.949267
0.949719
0.950075
0.950321
0.950446
0.992059
0.99223
0.992572
0.993083
0.993766
0.994619
0.995643
0.996839
0.99821
0.99976
1.00149
1.00341
1.00553
1.00786
1.01041
1.01318
1.01619
1.01946
1.023
1.02681
1.0309
1.03529
1.03996
1.04491
1.05014
1.05561
1.0613
1.06719
1.07323
1.07937
1.08558
1.0918
1.09797
1.10405
1.10998
1.1157
1.12118
1.12635
1.13118
1.13562
1.13965
1.14323
1.14633
1.14893
1.15101
1.15256
1.15356
1.15399
1.15387
1.15318
1.15193
1.15011
1.14774
1.14483
1.1414
1.13745
1.13302
1.12814
1.12282
1.11711
1.11105
1.10469
1.09807
1.09125
1.08429
1.07726
1.07021
1.06321
1.05632
1.04962
1.04315
1.03697
1.03113
1.02567
1.0206
1.01595
1.01172
1.00792
1.00453
1.00152
0.998876
0.996551
0.994507
0.992705
0.991104
0.989666
0.988356
0.987146
0.986012
0.984935
0.983903
0.98291
0.981952
0.981031
0.980152
0.979321
0.978548
0.977841
0.977211
0.976668
0.976221
0.975877
0.975642
0.975518
0.975505
0.9756
0.975795
0.976082
0.976447
0.976876
0.977351
0.977855
0.978369
0.978873
0.979349
0.979777
0.980142
0.980429
0.980628
0.980729
1.02494
1.0251
1.02543
1.02593
1.0266
1.02743
1.02844
1.02961
1.03095
1.03247
1.03417
1.03605
1.03813
1.0404
1.04288
1.04558
1.04851
1.05167
1.05508
1.05873
1.06264
1.06681
1.07123
1.0759
1.08079
1.0859
1.0912
1.09666
1.10225
1.10792
1.11363
1.11935
1.12502
1.13059
1.13602
1.14126
1.14627
1.15101
1.15543
1.15949
1.16318
1.16645
1.16929
1.17166
1.17355
1.17495
1.17585
1.17623
1.17609
1.17543
1.17425
1.17255
1.17034
1.16764
1.16445
1.16079
1.15669
1.15218
1.14727
1.142
1.13642
1.13057
1.12448
1.11821
1.11181
1.10535
1.09886
1.09242
1.08607
1.07987
1.07388
1.06813
1.06268
1.05754
1.05274
1.04831
1.04425
1.04055
1.03721
1.03421
1.03153
1.02914
1.02701
1.0251
1.02339
1.02184
1.02043
1.01912
1.01791
1.01676
1.01568
1.01465
1.01367
1.01274
1.01185
1.01103
1.01026
1.00956
1.00894
1.0084
1.00795
1.00759
1.00734
1.00717
1.00711
1.00714
1.00726
1.00747
1.00773
1.00806
1.00843
1.00882
1.00923
1.00963
1.01001
1.01035
1.01064
1.01087
1.01103
1.01111
1.05764
1.05781
1.05813
1.05862
1.05927
1.06008
1.06106
1.0622
1.06351
1.065
1.06666
1.06849
1.07052
1.07273
1.07514
1.07776
1.08059
1.08364
1.08691
1.0904
1.09413
1.09808
1.10226
1.10665
1.11124
1.11601
1.12094
1.12601
1.13118
1.13642
1.14168
1.14694
1.15215
1.15727
1.16225
1.16705
1.17164
1.17598
1.18002
1.18375
1.18712
1.19011
1.1927
1.19486
1.19659
1.19786
1.19866
1.19899
1.19883
1.1982
1.19709
1.1955
1.19344
1.19093
1.18797
1.18458
1.18078
1.17661
1.17207
1.16722
1.16207
1.15667
1.15107
1.1453
1.13941
1.13345
1.12747
1.12153
1.11566
1.10993
1.10436
1.09901
1.0939
1.08907
1.08453
1.08031
1.0764
1.07281
1.06954
1.06657
1.06389
1.06146
1.05928
1.0573
1.05551
1.05389
1.05239
1.05101
1.04973
1.04853
1.04741
1.04634
1.04534
1.04439
1.0435
1.04267
1.04191
1.04121
1.04059
1.04005
1.03959
1.03921
1.03893
1.03873
1.03862
1.0386
1.03865
1.03878
1.03897
1.0392
1.03948
1.03978
1.0401
1.04041
1.0407
1.04097
1.0412
1.04139
1.04151
1.04158
1.09019
1.09035
1.09066
1.09114
1.09177
1.09256
1.09351
1.09463
1.09591
1.09735
1.09896
1.10075
1.10272
1.10486
1.1072
1.10973
1.11245
1.11538
1.11851
1.12184
1.12538
1.12913
1.13307
1.1372
1.1415
1.14595
1.15055
1.15525
1.16004
1.16488
1.16974
1.17459
1.17938
1.18408
1.18865
1.19306
1.19727
1.20124
1.20495
1.20835
1.21144
1.21417
1.21654
1.21851
1.22008
1.22122
1.22194
1.22222
1.22206
1.22145
1.2204
1.21892
1.217
1.21466
1.21191
1.20877
1.20525
1.20139
1.1972
1.19272
1.18797
1.18299
1.17782
1.1725
1.16707
1.16157
1.15606
1.15056
1.14513
1.13981
1.13463
1.12963
1.12485
1.1203
1.116
1.11198
1.10823
1.10477
1.10158
1.09865
1.09598
1.09355
1.09134
1.08932
1.08748
1.08579
1.08424
1.08281
1.08148
1.08023
1.07907
1.07798
1.07695
1.07599
1.07509
1.07425
1.07349
1.07279
1.07216
1.07161
1.07114
1.07075
1.07043
1.0702
1.07005
1.06998
1.06997
1.07003
1.07015
1.07031
1.0705
1.07073
1.07096
1.0712
1.07143
1.07164
1.07182
1.07196
1.07206
1.07211
1.12258
1.12273
1.12304
1.1235
1.12411
1.12488
1.12581
1.12689
1.12813
1.12953
1.1311
1.13283
1.13473
1.13681
1.13906
1.1415
1.14411
1.14691
1.1499
1.15308
1.15644
1.15998
1.16369
1.16757
1.1716
1.17576
1.18004
1.18441
1.18885
1.19333
1.19782
1.20229
1.2067
1.21102
1.21522
1.21927
1.22313
1.22677
1.23016
1.23329
1.23611
1.23861
1.24076
1.24256
1.24399
1.24502
1.24566
1.2459
1.24573
1.24515
1.24416
1.24277
1.24098
1.2388
1.23625
1.23333
1.23008
1.2265
1.22263
1.21848
1.21409
1.2095
1.20472
1.19981
1.1948
1.18972
1.18462
1.17953
1.17449
1.16955
1.16472
1.16005
1.15556
1.15127
1.14721
1.14338
1.13979
1.13644
1.13334
1.13048
1.12784
1.12542
1.1232
1.12116
1.11929
1.11756
1.11597
1.1145
1.11313
1.11185
1.11066
1.10954
1.1085
1.10752
1.10661
1.10577
1.105
1.10429
1.10366
1.10309
1.10261
1.10219
1.10186
1.1016
1.10141
1.10128
1.10123
1.10123
1.10128
1.10138
1.10151
1.10166
1.10183
1.102
1.10217
1.10233
1.10246
1.10257
1.10265
1.10268
1.15482
1.15496
1.15526
1.15571
1.1563
1.15705
1.15795
1.15899
1.1602
1.16155
1.16307
1.16474
1.16658
1.16858
1.17075
1.17308
1.17559
1.17826
1.18111
1.18413
1.18731
1.19066
1.19416
1.1978
1.20157
1.20546
1.20944
1.21351
1.21762
1.22177
1.22592
1.23004
1.2341
1.23808
1.24194
1.24566
1.24921
1.25255
1.25566
1.25852
1.2611
1.26338
1.26535
1.26699
1.26828
1.26922
1.26979
1.26998
1.2698
1.26925
1.26832
1.26701
1.26534
1.26331
1.26094
1.25824
1.25522
1.25191
1.24832
1.24449
1.24043
1.23618
1.23177
1.22722
1.22259
1.21789
1.21316
1.20844
1.20376
1.19916
1.19466
1.19029
1.18607
1.18203
1.17818
1.17453
1.1711
1.16788
1.16487
1.16208
1.15949
1.15709
1.15488
1.15284
1.15095
1.1492
1.14759
1.14609
1.14469
1.14339
1.14217
1.14104
1.13998
1.13899
1.13807
1.13722
1.13643
1.13572
1.13508
1.1345
1.134
1.13357
1.13321
1.13292
1.13269
1.13253
1.13242
1.13237
1.13237
1.13241
1.13248
1.13258
1.13269
1.13281
1.13293
1.13304
1.13314
1.13322
1.13327
1.1333
1.1869
1.18705
1.18733
1.18777
1.18834
1.18906
1.18993
1.19094
1.19211
1.19342
1.19488
1.19649
1.19826
1.20018
1.20226
1.2045
1.20689
1.20944
1.21215
1.21501
1.21803
1.22118
1.22447
1.22789
1.23142
1.23506
1.23877
1.24255
1.24637
1.25021
1.25404
1.25785
1.26159
1.26526
1.26881
1.27223
1.27549
1.27855
1.2814
1.28402
1.28638
1.28847
1.29027
1.29176
1.29293
1.29378
1.29428
1.29444
1.29426
1.29373
1.29285
1.29162
1.29006
1.28817
1.28597
1.28346
1.28066
1.27759
1.27426
1.27071
1.26696
1.26302
1.25894
1.25473
1.25044
1.24608
1.2417
1.23731
1.23296
1.22867
1.22446
1.22037
1.2164
1.21259
1.20894
1.20547
1.20219
1.19909
1.19619
1.19347
1.19094
1.18858
1.18639
1.18436
1.18247
1.18071
1.17908
1.17757
1.17615
1.17484
1.1736
1.17245
1.17138
1.17038
1.16945
1.1686
1.16781
1.16708
1.16643
1.16584
1.16532
1.16487
1.16449
1.16417
1.16391
1.16371
1.16357
1.16347
1.16342
1.16341
1.16343
1.16348
1.16354
1.16361
1.16369
1.16377
1.16383
1.16389
1.16393
1.16395
1.21885
1.21898
1.21926
1.21968
1.22024
1.22093
1.22177
1.22275
1.22387
1.22513
1.22654
1.22809
1.22978
1.23163
1.23362
1.23575
1.23804
1.24046
1.24304
1.24575
1.24859
1.25157
1.25467
1.25787
1.26118
1.26457
1.26803
1.27154
1.27509
1.27865
1.2822
1.28571
1.28917
1.29255
1.29582
1.29896
1.30195
1.30477
1.30738
1.30978
1.31195
1.31386
1.3155
1.31685
1.31791
1.31867
1.31912
1.31925
1.31906
1.31855
1.31772
1.31657
1.31511
1.31335
1.3113
1.30897
1.30637
1.30352
1.30044
1.29714
1.29366
1.29002
1.28623
1.28233
1.27835
1.27431
1.27023
1.26616
1.2621
1.25809
1.25416
1.25032
1.24659
1.24299
1.23953
1.23623
1.23309
1.23012
1.22732
1.22468
1.22221
1.2199
1.21774
1.21573
1.21385
1.2121
1.21047
1.20895
1.20752
1.2062
1.20496
1.2038
1.20271
1.20171
1.20077
1.19991
1.19911
1.19838
1.19771
1.19711
1.19658
1.19611
1.1957
1.19536
1.19507
1.19484
1.19466
1.19453
1.19443
1.19438
1.19436
1.19436
1.19438
1.19442
1.19446
1.1945
1.19454
1.19458
1.1946
1.19461
1.25065
1.25078
1.25105
1.25145
1.25199
1.25266
1.25347
1.25441
1.25548
1.2567
1.25805
1.25954
1.26116
1.26292
1.26483
1.26686
1.26904
1.27134
1.27378
1.27635
1.27903
1.28184
1.28475
1.28775
1.29085
1.29401
1.29724
1.30051
1.3038
1.3071
1.31038
1.31363
1.31683
1.31994
1.32296
1.32585
1.3286
1.33118
1.33358
1.33578
1.33776
1.33951
1.341
1.34224
1.3432
1.34388
1.34428
1.34438
1.34418
1.34369
1.34291
1.34183
1.34047
1.33883
1.33691
1.33474
1.33233
1.32968
1.32682
1.32376
1.32053
1.31715
1.31364
1.31002
1.30632
1.30256
1.29877
1.29497
1.29119
1.28745
1.28376
1.28015
1.27664
1.27324
1.26997
1.26683
1.26383
1.26098
1.25828
1.25573
1.25333
1.25107
1.24895
1.24697
1.24511
1.24337
1.24174
1.24022
1.2388
1.23747
1.23622
1.23506
1.23397
1.23296
1.23202
1.23115
1.23034
1.2296
1.22893
1.22832
1.22777
1.22729
1.22686
1.22649
1.22618
1.22592
1.2257
1.22554
1.22541
1.22532
1.22526
1.22522
1.22521
1.22521
1.22522
1.22524
1.22526
1.22527
1.22529
1.22529
1.28232
1.28245
1.28271
1.28309
1.28361
1.28425
1.28503
1.28593
1.28697
1.28813
1.28942
1.29085
1.2924
1.29409
1.2959
1.29784
1.2999
1.30209
1.3044
1.30682
1.30936
1.312
1.31473
1.31755
1.32044
1.3234
1.32641
1.32945
1.3325
1.33556
1.33861
1.34161
1.34456
1.34744
1.35021
1.35288
1.3554
1.35778
1.35998
1.362
1.36381
1.36541
1.36677
1.36789
1.36877
1.36938
1.36972
1.3698
1.3696
1.36913
1.36839
1.36738
1.3661
1.36457
1.36278
1.36076
1.35851
1.35605
1.3534
1.35056
1.34756