/*--------------------------------*- C++ -*----------------------------------*\
| =========                 |                                                 |
| \\      /  F ield         | OpenFOAM: The Open Source CFD Toolbox           |
|  \\    /   O peration     | Version:  2406                                  |
|   \\  /    A nd           | Website:  www.openfoam.com                      |
|    \\/     M anipulation  |                                                 |
\*---------------------------------------------------------------------------*/
FoamFile
{
    version     2.0;
    format      ascii;
    arch        "LSB;label=32;scalar=64";
    class       volScalarField;
    location    "3.5";
    object      C;
}
// * * * * * * * * * * * * * * * * * * * * * * * * * * * * * * * * * * * * * //

dimensions      [1 -3 0 0 0 0 0];

internalField   nonuniform List<scalar> 
14400
(
0.562335
0.549443
0.531607
0.514767
0.500966
0.491271
0.486313
0.486466
0.491917
0.502685
0.518613
0.53932
0.564057
0.591138
0.614374
0.625351
0.624833
0.611306
0.589244
0.568041
0.55077
0.538834
0.533058
0.534025
0.542202
0.557993
0.581761
0.61383
0.654457
0.70374
0.761341
0.825128
0.878703
0.91458
0.942167
0.966455
0.98787
1.00674
1.02333
1.03783
1.05041
1.0612
1.07028
1.07776
1.08368
1.08809
1.09105
1.09256
1.09264
1.0913
1.08854
1.08434
1.07867
1.07152
1.06281
1.05251
1.04053
1.02679
1.01116
0.993507
0.973659
0.951397
0.926446
0.89846
0.866881
0.8198
0.753512
0.688256
0.629809
0.579379
0.53706
0.50261
0.475694
0.455974
0.44315
0.436973
0.437246
0.443821
0.456585
0.475437
0.500247
0.530779
0.566478
0.605524
0.636383
0.6536
0.66327
0.667553
0.666627
0.66033
0.646865
0.620976
0.588022
0.557829
0.532182
0.511655
0.496402
0.486321
0.481075
0.480058
0.48234
0.486576
0.490923
0.49312
0.491462
0.487681
0.484071
0.482507
0.484366
0.490614
0.501899
0.518607
0.540894
0.568668
0.601416
0.63736
0.665959
0.681964
0.691163
0.69563
0.576682
0.564671
0.54564
0.527641
0.512941
0.502617
0.497282
0.497303
0.502858
0.513961
0.530444
0.551905
0.577526
0.605385
0.626617
0.634888
0.634784
0.624919
0.603622
0.581233
0.562986
0.550337
0.544067
0.54474
0.552817
0.568699
0.59274
0.62525
0.666465
0.716419
0.774536
0.83767
0.885985
0.918399
0.945467
0.969329
0.990412
1.00903
1.02541
1.03976
1.05221
1.06289
1.0719
1.07931
1.08518
1.08956
1.09249
1.09398
1.09406
1.09273
1.08998
1.0858
1.08017
1.07306
1.06441
1.05419
1.0423
1.02867
1.01318
0.995704
0.976074
0.954085
0.92948
0.901934
0.871029
0.82886
0.767263
0.700792
0.641283
0.590043
0.547086
0.512136
0.484842
0.464864
0.451903
0.445708
0.446085
0.452886
0.465997
0.485314
0.510694
0.541856
0.578056
0.616723
0.644472
0.659535
0.668658
0.672762
0.671996
0.666278
0.655078
0.633068
0.600699
0.570013
0.543819
0.5229
0.507475
0.497492
0.492667
0.492444
0.495952
0.501894
0.508315
0.512017
0.508845
0.502979
0.497653
0.494854
0.495909
0.501725
0.512898
0.529761
0.552418
0.580709
0.613893
0.649107
0.673654
0.687302
0.695894
0.700097
0.599304
0.591923
0.572975
0.553122
0.536774
0.525265
0.519205
0.518969
0.524733
0.536497
0.554058
0.576934
0.603915
0.631148
0.646211
0.652089
0.652497
0.647022
0.630458
0.606993
0.587222
0.573307
0.566106
0.566208
0.574091
0.59016
0.614743
0.648118
0.69048
0.741733
0.800739
0.857795
0.89694
0.926081
0.951971
0.974982
0.995421
1.01354
1.02954
1.04357
1.05578
1.06626
1.07511
1.0824
1.08817
1.09248
1.09536
1.09682
1.09689
1.09557
1.09284
1.08871
1.08315
1.07613
1.0676
1.05752
1.04581
1.0324
1.01719
1.00005
0.980847
0.959389
0.935456
0.908764
0.878931
0.843332
0.791223
0.724793
0.663959
0.611351
0.567208
0.53129
0.503253
0.482764
0.469527
0.463296
0.463878
0.471128
0.484927
0.505161
0.531661
0.564078
0.601306
0.636808
0.658181
0.670893
0.679064
0.682842
0.682317
0.677495
0.668326
0.652975
0.625754
0.594192
0.566985
0.545323
0.529542
0.51972
0.515687
0.516963
0.522785
0.531996
0.542686
0.549481
0.543203
0.533043
0.524427
0.519293
0.51883
0.523831
0.534817
0.552
0.575359
0.60461
0.638593
0.668223
0.685882
0.697431
0.705015
0.708767
0.626511
0.623451
0.611668
0.590581
0.572185
0.5591
0.552017
0.551419
0.557492
0.570214
0.589284
0.61408
0.642159
0.661126
0.669856
0.674746
0.675787
0.672997
0.664376
0.644321
0.623169
0.607689
0.599204
0.598486
0.606085
0.622445
0.647833
0.682438
0.726356
0.778947
0.836704
0.879523
0.909965
0.937011
0.961356
0.983205
1.00275
1.02017
1.03562
1.04921
1.06107
1.07127
1.07989
1.087
1.09263
1.09684
1.09964
1.10106
1.10112
1.0998
1.09712
1.09306
1.08759
1.0807
1.07234
1.06247
1.05103
1.03794
1.02312
1.00648
0.987872
0.967168
0.94419
0.918735
0.890566
0.859446
0.818934
0.759646
0.697714
0.643368
0.597588
0.560282
0.531153
0.509903
0.496253
0.489965
0.490849
0.49876
0.51357
0.535129
0.563174
0.59707
0.634377
0.660872
0.675967
0.686789
0.693862
0.697226
0.696936
0.693057
0.685697
0.675099
0.657434
0.628981
0.601267
0.578733
0.562411
0.552735
0.549774
0.553046
0.561798
0.574526
0.586482
0.590136
0.586894
0.575502
0.563346
0.555251
0.552766
0.556663
0.567461
0.58513
0.609291
0.638937
0.669495
0.689236
0.701897
0.711525
0.717967
0.721189
0.656707
0.654813
0.650569
0.638156
0.618435
0.603821
0.595498
0.594472
0.600923
0.614802
0.635411
0.661309
0.680262
0.690286
0.696959
0.701253
0.70291
0.701985
0.698882
0.689175
0.669875
0.653291
0.643324
0.641572
0.648787
0.665571
0.692011
0.728052
0.773723
0.826697
0.86871
0.898965
0.925879
0.950641
0.973236
0.993728
1.01221
1.02879
1.04355
1.0566
1.06801
1.07785
1.08619
1.09306
1.09852
1.10259
1.1053
1.10667
1.1067
1.10541
1.10278
1.0988
1.09347
1.08674
1.0786
1.069
1.05789
1.04521
1.03089
1.01485
0.996997
0.977219
0.955402
0.931418
0.905151
0.876519
0.8453
0.802155
0.742001
0.686136
0.638445
0.599407
0.568854
0.546601
0.532404
0.526032
0.527301
0.536068
0.552174
0.575385
0.605166
0.639937
0.668945
0.685647
0.697485
0.706433
0.712369
0.715262
0.715143
0.7121
0.706303
0.698055
0.687843
0.670708
0.645649
0.622682
0.605633
0.595962
0.594267
0.599678
0.610829
0.621915
0.626639
0.626728
0.626985
0.622718
0.612245
0.601708
0.597056
0.599639
0.61038
0.628691
0.65318
0.679921
0.698798
0.710797
0.720941
0.728804
0.73414
0.736832
0.688797
0.687679
0.685688
0.682084
0.67246
0.65826
0.64888
0.647528
0.65429
0.66907
0.689559
0.7051
0.714212
0.720913
0.72644
0.730398
0.732612
0.733148
0.732313
0.730581
0.722835
0.709101
0.698045
0.695196
0.701863
0.71929
0.746961
0.783839
0.82945
0.866536
0.894462
0.919865
0.943945
0.966437
0.987221
1.00626
1.02358
1.0392
1.0532
1.06562
1.07652
1.08595
1.09394
1.10055
1.1058
1.10971
1.11231
1.11361
1.11362
1.11235
1.10978
1.10591
1.10072
1.0942
1.08632
1.07704
1.06632
1.05412
1.04038
1.02504
1.00804
0.989311
0.968779
0.946386
0.922099
0.895935
0.867997
0.837702
0.795562
0.739483
0.689908
0.648972
0.616685
0.593212
0.57835
0.57186
0.573565
0.583338
0.600925
0.625852
0.656335
0.684292
0.701218
0.712498
0.721891
0.729089
0.733919
0.736311
0.736274
0.733897
0.729358
0.722951
0.715112
0.706387
0.692703
0.675185
0.657809
0.647956
0.647593
0.654276
0.660431
0.663415
0.663079
0.663073
0.66342
0.664113
0.661608
0.656057
0.650125
0.651303
0.662173
0.68067
0.699487
0.714552
0.724774
0.734186
0.742265
0.748609
0.752958
0.755166
0.722004
0.721419
0.720431
0.7194
0.718189
0.713582
0.709027
0.708227
0.714617
0.725021
0.735105
0.741504
0.747239
0.752712
0.757489
0.761287
0.763994
0.765683
0.766613
0.767217
0.768063
0.765294
0.760843
0.757877
0.763816
0.782204
0.810819
0.843747
0.87334
0.896868
0.919696
0.942086
0.963597
0.983942
1.00295
1.02052
1.03663
1.05126
1.06443
1.07617
1.0865
1.09547
1.10309
1.10939
1.1144
1.11814
1.12062
1.12185
1.12183
1.12058
1.11808
1.11433
1.10932
1.10302
1.09543
1.08651
1.07623
1.06456
1.05146
1.0369
1.02082
1.0032
0.984015
0.963247
0.940925
0.917124
0.891998
0.8658
0.837902
0.800127
0.751134
0.709036
0.674782
0.649997
0.634412
0.627759
0.629864
0.640665
0.659603
0.685262
0.708279
0.72308
0.73263
0.741235
0.748494
0.754113
0.757907
0.759787
0.759745
0.757857
0.754282
0.749277
0.74321
0.736556
0.729913
0.721475
0.711783
0.704341
0.701822
0.702127
0.701456
0.699899
0.699181
0.699064
0.699502
0.700558
0.702484
0.703634
0.703911
0.707193
0.715553
0.726229
0.735726
0.743583
0.751507
0.758909
0.765325
0.770408
0.773918
0.775707
0.755797
0.75556
0.755217
0.755028
0.755362
0.756721
0.757677
0.75928
0.76323
0.767707
0.771358
0.775782
0.780529
0.785208
0.789517
0.793266
0.796393
0.798976
0.80124
0.803556
0.806446
0.810623
0.814554
0.81903
0.828606
0.845303
0.865937
0.88672
0.905636
0.925354
0.945369
0.965185
0.984417
1.00279
1.02011
1.03625
1.05115
1.06477
1.07709
1.08812
1.09786
1.10633
1.11355
1.11953
1.12428
1.12783
1.13017
1.13132
1.13128
1.13005
1.12763
1.12401
1.11919
1.11315
1.10587
1.09734
1.08753
1.07643
1.06402
1.05026
1.03515
1.01867
1.00083
0.981663
0.961228
0.939638
0.917072
0.893794
0.870171
0.846173
0.815165
0.778163
0.742344
0.716745
0.700564
0.693683
0.695862
0.707119
0.725711
0.74087
0.751133
0.7581
0.764983
0.771319
0.776737
0.780962
0.78381
0.785184
0.785063
0.783503
0.780634
0.776668
0.771893
0.766673
0.761428
0.756597
0.752417
0.748031
0.743894
0.739936
0.737217
0.735539
0.73468
0.734502
0.734966
0.736125
0.738135
0.741237
0.745663
0.750412
0.755507
0.76053
0.766287
0.772512
0.778762
0.784617
0.789717
0.79378
0.796597
0.798039
0.789827
0.789805
0.789851
0.790131
0.790862
0.792259
0.794355
0.797005
0.799537
0.802441
0.805852
0.809735
0.813885
0.818072
0.822106
0.825868
0.829336
0.832588
0.835816
0.83932
0.843512
0.848905
0.856084
0.865683
0.877094
0.890026
0.904041
0.919507
0.936155
0.953541
0.971241
0.988867
1.0061
1.02268
1.03844
1.05322
1.06695
1.07957
1.09104
1.10135
1.11048
1.11845
1.12525
1.13089
1.13538
1.13872
1.14092
1.14199
1.14192
1.14072
1.13838
1.13491
1.13028
1.1245
1.11756
1.10944
1.10013
1.08963
1.07791
1.06498
1.05083
1.03549
1.01898
1.00135
0.982686
0.963128
0.942858
0.922133
0.901287
0.880739
0.860947
0.838556
0.814107
0.791041
0.77482
0.767636
0.76866
0.774122
0.780666
0.784899
0.788695
0.7932
0.797884
0.80232
0.806172
0.809186
0.811188
0.812077
0.811821
0.810457
0.808084
0.804866
0.801022
0.796814
0.792526
0.788412
0.784594
0.780955
0.7774
0.77429
0.771935
0.770359
0.769499
0.769296
0.769733
0.770842
0.772694
0.77537
0.778865
0.782888
0.787093
0.791554
0.796375
0.801415
0.806413
0.811079
0.815148
0.818395
0.820654
0.821811
0.823878
0.823984
0.824252
0.824782
0.825696
0.827093
0.828987
0.831288
0.833815
0.83666
0.839872
0.843423
0.847205
0.85109
0.854965
0.858766
0.862493
0.866224
0.870114
0.874398
0.879377
0.885398
0.89281
0.901854
0.912399
0.924175
0.937073
0.951057
0.965935
0.981416
0.997185
1.01294
1.02843
1.04341
1.05773
1.07125
1.08387
1.09552
1.10616
1.11575
1.12428
1.13173
1.13811
1.1434
1.14761
1.15075
1.1528
1.15378
1.15369
1.15252
1.15027
1.14694
1.14253
1.13703
1.13043
1.12273
1.11393
1.10403
1.09301
1.08091
1.06772
1.05348
1.03824
1.02206
1.00504
0.987329
0.9691
0.950593
0.932104
0.913987
0.896649
0.880558
0.865775
0.850736
0.83809
0.829998
0.826373
0.824699
0.82326
0.823747
0.825545
0.828123
0.831032
0.833905
0.836444
0.838423
0.839679
0.840113
0.839687
0.838419
0.83638
0.833691
0.830513
0.827035
0.823451
0.81993
0.816572
0.813399
0.81045
0.807889
0.805874
0.804464
0.80366
0.80345
0.80383
0.804815
0.806429
0.808683
0.81153
0.814823
0.818402
0.822219
0.826244
0.830361
0.834395
0.83814
0.841399
0.844001
0.845811
0.846739
0.857822
0.858
0.85839
0.85905
0.860047
0.861431
0.863211
0.865346
0.867776
0.87051
0.873553
0.876878
0.880423
0.884118
0.887898
0.891736
0.895647
0.8997
0.904019
0.90878
0.914198
0.920503
0.927902
0.936518
0.946318
0.957186
0.969018
0.981714
0.995113
1.009
1.02314
1.03729
1.05125
1.06481
1.07783
1.09018
1.10176
1.11249
1.12232
1.13122
1.13915
1.1461
1.15205
1.15699
1.16093
1.16385
1.16576
1.16666
1.16654
1.1654
1.16324
1.16006
1.15587
1.15064
1.1444
1.13713
1.12884
1.11953
1.10922
1.09792
1.08566
1.07248
1.05844
1.04361
1.0281
1.01204
0.995619
0.979035
0.96255
0.946456
0.931077
0.916753
0.903788
0.892486
0.882872
0.874862
0.868624
0.864459
0.862101
0.861282
0.861616
0.862713
0.864217
0.865823
0.867278
0.868382
0.868991
0.869009
0.868395
0.867151
0.865326
0.863005
0.860305
0.857361
0.854313
0.851283
0.848364
0.845618
0.843111
0.840942
0.839207
0.837962
0.837228
0.837014
0.837322
0.838158
0.839523
0.841403
0.84375
0.846472
0.849472
0.852677
0.856018
0.859392
0.862665
0.865686
0.868307
0.870397
0.871851
0.872596
0.891588
0.891804
0.892258
0.89298
0.89401
0.895375
0.897079
0.899107
0.901434
0.904053
0.906952
0.910111
0.913493
0.917058
0.920774
0.924633
0.928659
0.932909
0.937482
0.942506
0.948132
0.954513
0.961777
0.969998
0.97917
0.989232
1.0001
1.01167
1.0238
1.03634
1.04908
1.06185
1.07446
1.08676
1.0986
1.10987
1.12048
1.13035
1.13942
1.14765
1.155
1.16146
1.16699
1.17159
1.17526
1.17797
1.17974
1.18055
1.1804
1.17929
1.17723
1.17421
1.17023
1.16529
1.15939
1.15254
1.14476
1.13604
1.12641
1.11589
1.10452
1.09234
1.07942
1.06584
1.0517
1.03713
1.0223
1.00738
0.992604
0.978208
0.964451
0.95159
0.939861
0.929454
0.920456
0.912898
0.906858
0.902399
0.899402
0.897666
0.896925
0.896895
0.897299
0.897892
0.898462
0.898838
0.898892
0.898538
0.897731
0.896465
0.894767
0.892698
0.89034
0.887792
0.885156
0.882526
0.879984
0.877598
0.875433
0.873562
0.872051
0.870947
0.870277
0.870055
0.870286
0.870972
0.872103
0.873657
0.875592
0.877843
0.880336
0.883
0.88576
0.888524
0.891186
0.893631
0.895746
0.897429
0.898599
0.899199
0.925137
0.925373
0.925855
0.926604
0.92764
0.928978
0.930622
0.932568
0.934801
0.937313
0.940092
0.943122
0.94638
0.949847
0.953507
0.957365
0.961445
0.965796
0.970493
0.975629
0.981311
0.987639
0.994696
1.00253
1.01113
1.02047
1.03048
1.04106
1.05209
1.06346
1.07499
1.08655
1.09799
1.10916
1.11994
1.13024
1.13995
1.14901
1.15737
1.16496
1.17176
1.17773
1.18287
1.18713
1.19053
1.19304
1.19466
1.19539
1.19522
1.19415
1.19218
1.18931
1.18554
1.18088
1.17533
1.1689
1.16161
1.15346
1.14448
1.13471
1.12418
1.11294
1.10106
1.08862
1.07572
1.06248
1.04905
1.03559
1.02228
1.00932
0.996927
0.985296
0.97461
0.965013
0.956598
0.949417
0.94351
0.938879
0.935441
0.933053
0.931524
0.930642
0.930194
0.929984
0.929839
0.929615
0.929202
0.928521
0.927528
0.926209
0.924579
0.922679
0.920566
0.918311
0.915991
0.913681
0.911449
0.909356
0.907461
0.905822
0.904488
0.903498
0.902878
0.902642
0.902797
0.903339
0.904259
0.905531
0.907119
0.908971
0.911029
0.913227
0.915496
0.917758
0.919925
0.921907
0.923616
0.924974
0.925917
0.9264
0.95845
0.958694
0.959186
0.95994
0.960966
0.962274
0.963866
0.96574
0.967889
0.970306
0.972981
0.975903
0.97906
0.982441
0.986043
0.989874
0.993959
0.998337
1.00306
1.00821
1.01384
1.02004
1.02684
1.03428
1.04236
1.05105
1.06028
1.06998
1.08006
1.0904
1.10089
1.11139
1.12178
1.13194
1.14177
1.15118
1.16007
1.16839
1.17607
1.18306
1.18934
1.19486
1.1996
1.20355
1.20669
1.209
1.21049
1.21113
1.21094
1.20991
1.20803
1.20531
1.20175
1.19737
1.19215
1.18613
1.17931
1.17171
1.16336
1.15429
1.14455
1.13419
1.12327
1.11187
1.10009
1.08803
1.07584
1.06364
1.05159
1.03987
1.02864
1.01806
1.00827
0.999391
0.991505
0.984663
0.978887
0.974163
0.970431
0.967582
0.965476
0.963953
0.96285
0.962011
0.961294
0.960582
0.959779
0.958816
0.95765
0.956264
0.954663
0.952872
0.950932
0.948895
0.946818
0.944758
0.942773
0.940916
0.939234
0.937776
0.93658
0.935678
0.935094
0.934839
0.934919
0.935331
0.936061
0.937089
0.938381
0.939895
0.941581
0.943383
0.94524
0.947085
0.948848
0.950455
0.951838
0.952935
0.953696
0.954085
0.99152
0.991765
0.992257
0.993003
0.994011
0.995285
0.996827
0.998637
1.00071
1.00304
1.00562
1.00845
1.01151
1.01481
1.01835
1.02213
1.02618
1.03053
1.03522
1.0403
1.04582
1.05182
1.05834
1.0654
1.07299
1.08107
1.08961
1.09853
1.10777
1.11721
1.12677
1.13633
1.14579
1.15506
1.16403
1.17262
1.18077
1.1884
1.19545
1.20189
1.20767
1.21276
1.21713
1.22078
1.22367
1.22579
1.22714
1.22772
1.2275
1.2265
1.22472
1.22215
1.2188
1.21467
1.20979
1.20415
1.19778
1.19071
1.18295
1.17455
1.16554
1.15599
1.14595
1.1355
1.12472
1.11373
1.10262
1.09153
1.08059
1.06994
1.0597
1.05003
1.04102
1.03278
1.02537
1.01884
1.01321
1.00846
1.00454
1.00137
0.998845
0.996845
0.995243
0.993914
0.992746
0.99164
0.990515
0.989313
0.987992
0.986534
0.984936
0.983214
0.981396
0.979519
0.977625
0.975761
0.973971
0.972299
0.970785
0.969467
0.968377
0.967542
0.96698
0.966701
0.96671
0.967002
0.967566
0.968382
0.96942
0.970646
0.972017
0.973484
0.974996
0.976496
0.977926
0.979227
0.980345
0.981231
0.981845
0.982159
1.02435
1.02459
1.02507
1.02581
1.02679
1.02803
1.02952
1.03127
1.03327
1.03552
1.03802
1.04076
1.04373
1.04695
1.05041
1.05412
1.0581
1.06238
1.06698
1.07195
1.0773
1.08309
1.08931
1.09599
1.10311
1.11064
1.11855
1.12678
1.13526
1.1439
1.15264
1.16137
1.17001
1.17846
1.18666
1.19452
1.20198
1.20898
1.21545
1.22137
1.22669
1.23137
1.2354
1.23875
1.24141
1.24336
1.24458
1.24508
1.24485
1.24389
1.24219
1.23976
1.23661
1.23274
1.22817
1.22291
1.21697
1.21039
1.20319
1.1954
1.18708
1.17827
1.16904
1.15945
1.14958
1.13953
1.1294
1.11928
1.1093
1.09957
1.09021
1.08132
1.073
1.06533
1.05835
1.05213
1.04665
1.04192
1.03789
1.03451
1.03169
1.02934
1.02736
1.02566
1.02414
1.02272
1.02133
1.01993
1.01847
1.01694
1.01533
1.01365
1.01192
1.01016
1.0084
1.00669
1.00505
1.00352
1.00214
1.00093
0.999921
0.999133
0.998582
0.998276
0.998218
0.998402
0.99882
0.999451
1.00027
1.00125
1.00236
1.00354
1.00476
1.00598
1.00713
1.00818
1.00909
1.0098
1.01029
1.01055
1.05693
1.05717
1.05764
1.05836
1.05931
1.06051
1.06196
1.06365
1.06559
1.06776
1.07018
1.07283
1.07572
1.07884
1.08221
1.08584
1.08973
1.0939
1.09839
1.1032
1.10837
1.11391
1.11983
1.12614
1.13282
1.13984
1.14718
1.15478
1.16258
1.17051
1.17851
1.1865
1.1944
1.20213
1.20963
1.21683
1.22366
1.23007
1.23602
1.24145
1.24634
1.25064
1.25435
1.25743
1.25986
1.26164
1.26275
1.26318
1.26294
1.26201
1.2604
1.25811
1.25515
1.25152
1.24724
1.24233
1.2368
1.23068
1.224
1.2168
1.20911
1.20099
1.19249
1.18368
1.17463
1.16542
1.15615
1.14689
1.13776
1.12885
1.12025
1.11205
1.10434
1.09717
1.0906
1.08465
1.07935
1.07468
1.0706
1.06709
1.06406
1.06146
1.05921
1.05722
1.05542
1.05376
1.05216
1.0506
1.04903
1.04743
1.0458
1.04414
1.04247
1.04079
1.03914
1.03754
1.03602
1.0346
1.03332
1.03219
1.03124
1.03049
1.02994
1.0296
1.02948
1.02957
1.02986
1.03033
1.03097
1.03174
1.03261
1.03356
1.03454
1.03551
1.03644
1.03729
1.03801
1.03859
1.03898
1.03919
1.08928
1.08951
1.08997
1.09066
1.09159
1.09276
1.09415
1.09579
1.09766
1.09976
1.10209
1.10466
1.10746
1.11049
1.11377
1.11729
1.12107
1.12512
1.12946
1.1341
1.13906
1.14435
1.14997
1.15592
1.16218
1.16873
1.17554
1.18257
1.18976
1.19706
1.2044
1.21172
1.21896
1.22604
1.23291
1.2395
1.24576
1.25164
1.25709
1.26208
1.26656
1.27052
1.27392
1.27674
1.27897
1.28059
1.28159
1.28196
1.2817
1.28081
1.27928
1.27712
1.27434
1.27095
1.26695
1.26237
1.25723
1.25154
1.24535
1.23868
1.23157
1.22408
1.21625
1.20814
1.19983
1.19138
1.18287
1.17438
1.166
1.15781
1.14988
1.1423
1.13513
1.12842
1.12221
1.11654
1.11142
1.10683
1.10276
1.09917
1.09601
1.09324
1.09078
1.08858
1.08658
1.08473
1.08297
1.08127
1.0796
1.07795
1.0763
1.07465
1.07302
1.0714
1.06983
1.06831
1.06688
1.06555
1.06434
1.06328
1.06237
1.06164
1.06108
1.06072
1.06054
1.06054
1.06071
1.06105
1.06152
1.06211
1.0628
1.06354
1.06432
1.0651
1.06584
1.06651
1.06709
1.06755
1.06787
1.06803
1.12139
1.12162
1.12207
1.12274
1.12364
1.12476
1.12611
1.12769
1.12949
1.13152
1.13378
1.13626
1.13897
1.1419
1.14507
1.14848
1.15214
1.15605
1.16023
1.16468
1.16942
1.17446
1.17978
1.18538
1.19125
1.19736
1.20369
1.2102
1.21684
1.22356
1.23031
1.23703
1.24367
1.25016
1.25645
1.26249
1.26823
1.27363
1.27863
1.28321
1.28732
1.29095
1.29407
1.29665
1.29869
1.30016
1.30106
1.30137
1.3011
1.30024
1.29879
1.29676
1.29415
1.29098
1.28724
1.28298
1.27819
1.27291
1.26717
1.26099
1.25442
1.2475
1.24028
1.23282
1.22517
1.2174
1.20957
1.20177
1.19405
1.1865
1.17917
1.17214
1.16545
1.15916
1.1533
1.14789
1.14295
1.13847
1.13443
1.13082
1.12759
1.1247
1.1221
1.11975
1.1176
1.1156
1.11371
1.11191
1.11017
1.10847
1.10679
1.10515
1.10354
1.10197
1.10046
1.09901
1.09764
1.09637
1.09522
1.0942
1.09332
1.0926
1.09204
1.09164
1.09141
1.09133
1.09141
1.09162
1.09196
1.0924
1.09292
1.0935
1.09411
1.09471
1.0953
1.09583
1.09629
1.09666
1.09691
1.09704
1.15329
1.1535
1.15394
1.15459
1.15545
1.15654
1.15784
1.15937
1.16111
1.16306
1.16524
1.16763
1.17025
1.17308
1.17614
1.17943
1.18295
1.18671
1.19072
1.19498
1.1995
1.20427
1.2093
1.21457
1.22007
1.22578
1.23166
1.23769
1.24383
1.25003
1.25624
1.26242
1.26852
1.27448
1.28025
1.28579
1.29106
1.29601
1.30059
1.30479
1.30857
1.3119
1.31475
1.31711
1.31897
1.3203
1.3211
1.32137
1.32108
1.32026
1.31889
1.31697
1.31453
1.31156
1.30808
1.3041
1.29965
1.29474
1.28942
1.28369
1.27762
1.27123
1.26456
1.25768
1.25063
1.24347
1.23626
1.22906
1.22194
1.21496
1.20817
1.20162
1.19538
1.18947
1.18393
1.17877
1.17402
1.16966
1.16569
1.16208
1.15882
1.15586
1.15317
1.15072
1.14846
1.14635
1.14437
1.14249
1.14069
1.13895
1.13726
1.13562
1.13403
1.13249
1.13102
1.12962
1.1283
1.12708
1.12597
1.12498
1.12413
1.12341
1.12283
1.1224
1.12212
1.12198
1.12196
1.12208
1.1223
1.12261
1.12299
1.12342
1.12389
1.12436
1.12481
1.12523
1.12559
1.12587
1.12607
1.12617
1.18496
1.18517
1.18559
1.18622
1.18705
1.1881
1.18936
1.19082
1.1925
1.19439
1.19648
1.19879
1.2013
1.20403
1.20698
1.21014
1.21352
1.21712
1.22096
1.22502
1.22932
1.23384
1.23858
1.24354
1.24869
1.25401
1.25949
1.26508
1.27076
1.27649
1.28221
1.2879
1.29351
1.29898
1.30428
1.30937
1.3142
1.31874
1.32295
1.3268
1.33026
1.33331
1.33593
1.33808
1.33977
1.34098
1.34169
1.34191
1.34162
1.34082
1.33952
1.33772
1.33543
1.33265
1.3294
1.3257
1.32156
1.317
1.31206
1.30676
1.30113
1.29522
1.28906
1.28271
1.2762
1.26959
1.26293
1.25628
1.2497
1.24322
1.23691
1.23082
1.22497
1.21941
1.21417
1.20926
1.20469
1.20046
1.19657
1.19301
1.18974
1.18676
1.18402
1.18149
1.17916
1.17698
1.17493
1.173
1.17115
1.16938
1.16768
1.16604
1.16446
1.16295
1.16151
1.16014
1.15886
1.15768
1.1566
1.15563
1.15479
1.15407
1.15348
1.15302
1.15269
1.15249
1.1524
1.15242
1.15254
1.15274
1.153
1.15332
1.15366
1.15401
1.15436
1.15468
1.15495
1.15517
1.15533
1.15541
1.21643
1.21663
1.21703
1.21764
1.21844
1.21945
1.22066
1.22207
1.22369
1.2255
1.22751
1.22973
1.23215
1.23477
1.2376
1.24063
1.24386
1.24731
1.25097
1.25483
1.25891
1.26318
1.26765
1.27231
1.27713
1.2821
1.28719
1.29239
1.29765
1.30294
1.30822
1.31346
1.31862
1.32366
1.32853
1.3332
1.33764
1.3418
1.34567
1.3492
1.35237
1.35516
1.35755
1.35952
1.36106
1.36215
1.36278
1.36295
1.36265
1.36189
1.36066
1.35896
1.35681
1.35422
1.35118
1.34773
1.34388
1.33965
1.33506
1.33014
1.32493
1.31946
1.31376
1.30788
1.30187
1.29576
1.2896
1.28344
1.27734
1.27132
1.26545
1.25976
1.25428
1.24904
1.24408
1.2394
1.23501
1.23093
1.22714
1.22363
1.22039
1.2174
1.21464
1.21208
1.2097
1.20748
1.20539
1.20341
1.20153
1.19974
1.19803
1.1964
1.19483
1.19333
1.19192
1.19058
1.18933
1.18817
1.18711
1.18616
1.18532
1.1846
1.184
1.18351
1.18314
1.18288
1.18273
1.18267
1.1827
1.18281
1.18297
1.18318
1.18343
1.18368
1.18393
1.18417
1.18438
1.18454
1.18466
1.18472
1.24769
1.24789
1.24827
1.24886
1.24963
1.2506
1.25176
1.25312
1.25467
1.25641
1.25834
1.26047
1.26279
1.2653
1.26801
1.27091
1.274
1.27729
1.28077
1.28444
1.28829
1.29233
1.29654
1.30091
1.30542
1.31006
1.3148
1.31963
1.3245
1.32939
1.33428
1.33911
1.34386
1.3485
1.35298
1.35727
1.36135
1.36517
1.36872
1.37195
1.37486
1.37742
1.3796
1.3814
1.38279
1.38377
1.38433
1.38446
1.38416
1.38342
1.38226
1.38066
1.37865
1.37622
1.37339
1.37017
1.36658
1.36265
1.35839
1.35382
1.34899
1.34392
1.33864
1.3332
1.32763
1.32197
1.31626
1.31055
1.30488
1.29929
1.29381
1.28848
1.28334
1.2784
1.2737
1.26924
1.26504
1.2611
1.25742
1.25398
1.25079
1.24782
1.24506
1.24249
1.24009
1.23784
1.23573
1.23373
1.23183
1.23003
1.22831
1.22668
1.22512
1.22364
1.22224
1.22093
1.2197
1.21856
1.21752
1.21658
1.21574
1.21501
1.21439
1.21388
1.21347
1.21316
1.21295
1.21283
1.21279
1.21281
1.21289
1.21302
1.21318
1.21335
1.21353
1.21369
1.21384
1.21396
1.21405
1.21409
1.27876
1.27895
1.27932
1.27988
1.28063
1.28156
1.28267
1.28397
1.28546
1.28713
1.28898
1.29102
1.29324
1.29564
1.29823
1.301
1.30394
1.30707
1.31038
1.31385
1.3175
1.3213
1.32526
1.32936
1.33358
1.33792
1.34233
1.34681
1.35133
1.35587
1.36038
1.36484
1.36922
1.37349
1.37761
1.38156
1.3853
1.38882
1.39207
1.39504
1.3977
1.40004
1.40204
1.40367
1.40494
1.40582
1.40631
1.4064
1.4061
1.40539
1.40428
1.40278
1.40089
1.39862
1.39597
1.39297
1.38963
1.38597
1.38201
1.37778
1.37329
1.36859
1.36369
1.35865
1.35348
1.34823
1.34293
1.33763
1.33235
1.32713
1.32201
1.31702
1.31219
1.30753
1.30308
1.29883
1.29481
1.29101
1.28744
1.2841
1.28096
1.27803
1.2753
1.27273
1.27033
1.26807
1.26595
1.26394
1.26203
1.26023
1.25851
1.25689
1.25534
1.25387
1.25249
1.25119
1.24998
1.24886
1.24783
1.24689
1.24606
1.24532
1.24468
1.24414
1.2437
1.24335
1.24309
1.24291
1.24281
1.24276
1.24277
1.24282
1.24291
1.24301
1.24312
1.24324
1.24334
1.24342
1.24348
1.24351
1.30965
1.30983
1.31018
1.31072
1.31143
1.31233
1.3134
1.31464
1.31606
1.31766
1.31944
1.32138
1.32351
1.3258
1.32827
1.3309
1.33371
1.33668
1.33981
1.3431
1.34654
1.35013
1.35385
1.35769
1.36164
1.36568
1.3698
1.37396
1.37816
1.38235
1.38653
1.39065
1.39469
1.39862
1.40242
1.40605
1.40949
1.41272
1.41571
1.41843
1.42087
1.42301
1.42483
1.42632
1.42746
1.42825
1.42868
1.42874
1.42844
1.42776
1.42671
1.42529
1.42352
1.42139
1.41892
1.41612
1.41301
1.4096
1.40591
1.40198
1.39781
1.39344
1.3889
1.38421
1.37941
1.37453
1.36961
1.36467
1.35975
1.35488
1.35009
1.34541
1.34086
1.33647
1.33224
1.3282
1.32435
1.3207
1.31725
1.31399
1.31093
1.30806
1.30535
1.30281
1.30042
1.29817
1.29605
1.29404
1.29214
1.29034
1.28863
1.28701
1.28547
1.28402
1.28265
1.28137
1.28017
1.27906
1.27804
1.27711
1.27627
1.27553
1.27487
1.27431
1.27384
1.27346
1.27315
1.27292
1.27276
1.27266
1.27261
1.2726
1.27262
1.27267
1.27272
1.27279
1.27285
1.2729
1.27294
1.27296
1.34035
1.34053
1.34087
1.34138
1.34206
1.34292
1.34394
1.34513
1.34649
1.34802
1.34972
1.35158
1.3536
1.35579
1.35814
1.36064
1.36331
1.36612
1.36909
1.3722
1.37544
1.37882
1.38231
1.38591
1.38961
1.39338
1.39721
1.40109
1.40498
1.40887
1.41273
1.41654
1.42027
1.42389
1.42739
1.43074
1.4339
1.43686
1.43961
1.4421
1.44434
1.44629
1.44796
1.44931
1.45034
1.45105
1.45142
1.45146
1.45115
1.45049
1.4495
1.44816
1.44649
1.4445
1.44219
1.43958
1.43667
1.4335
1.43007
1.42641
1.42253
1.41847
1.41425
1.40989
1.40543
1.40089
1.3963
1.3917
1.3871
1.38255
1.37806
1.37367
1.36938
1.36523
1.36122
1.35737
1.35369
1.35018
1.34685
1.3437
1.34072
1.3379
1.33525
1.33274
1.33038
1.32814
1.32603
1.32404
1.32215
1.32035
1.31866
1.31705
1.31552
1.31409
1.31273
1.31146
1.31027
1.30917
1.30816
1.30723
1.30639
1.30564
1.30497
1.30439
1.3039
1.30348
1.30314
1.30286
1.30266
1.3025
1.3024
1.30234
1.30231
1.30231
1.30232
1.30234
1.30237
1.3024
1.30242
1.30243
1.37089
1.37105
1.37138
1.37187
1.37252
1.37334
1.37432
1.37546
1.37676
1.37821
1.37983
1.3816
1.38353
1.38561
1.38785
1.39023
1.39275
1.39542
1.39822
1.40116
1.40422
1.40739
1.41067
1.41404
1.4175
1.42102
1.42459
1.42819
1.4318
1.43541
1.43898
1.4425
1.44595
1.44929
1.45252
1.4556
1.45851
1.46123
1.46375
1.46604
1.46809
1.46987
1.47139
1.47262
1.47355
1.47418
1.4745
1.47451
1.4742
1.47357
1.47262
1.47136
1.4698
1.46793
1.46577
1.46332
1.46062
1.45766
1.45446
1.45105
1.44744
1.44366
1.43973
1.43567
1.43151
1.42728
1.42301
1.41871
1.41442
1.41015
1.40594
1.40181
1.39777
1.39384
1.39004
1.38637
1.38286
1.37949
1.37629
1.37323
1.37034
1.36759
1.36499
1.36253
1.3602
1.35799
1.35591
1.35393
1.35205
1.35028
1.34859
1.347
1.34549
1.34407
1.34272
1.34147
1.34029
1.3392
1.33819
1.33727
1.33642
1.33566
1.33499
1.33439
1.33387
1.33343
1.33305
1.33274
1.33249
1.3323
1.33215
1.33205
1.33197
1.33193
1.3319
1.33189
1.33189
1.3319
1.3319
1.3319
1.40126
1.40142
1.40173
1.4022
1.40282
1.4036
1.40453
1.40562
1.40686
1.40825
1.40979
1.41147
1.41331
1.41529
1.41741
1.41966
1.42206
1.42458
1.42723
1.42999
1.43287
1.43585
1.43893
1.44209
1.44532
1.4486
1.45193
1.45528
1.45863
1.46198
1.46529
1.46854
1.47173
1.47482
1.47779
1.48062
1.4833
1.48581
1.48812
1.49022
1.49209
1.49373
1.49511
1.49622
1.49707
1.49763
1.4979
1.49788
1.49757
1.49696
1.49606
1.49487
1.4934
1.49165
1.48962
1.48734
1.48481
1.48205
1.47907
1.47588
1.47252
1.469
1.46533
1.46155
1.45768
1.45373
1.44974
1.44572
1.4417
1.4377
1.43375
1.42986
1.42604
1.42233
1.41872
1.41523
1.41187
1.40865
1.40556
1.40261
1.3998
1.39713
1.39459
1.39218
1.3899
1.38773
1.38567
1.38371
1.38186
1.38011
1.37844
1.37686
1.37537
1.37396
1.37264
1.37139
1.37023
1.36914
1.36814
1.36722
1.36637
1.36561
1.36492
1.36431
1.36377
1.3633
1.3629
1.36256
1.36228
1.36205
1.36186
1.36172
1.36161
1.36153
1.36147
1.36144
1.36141
1.3614
1.36139
1.36138
1.43147
1.43162
1.43192
1.43237
1.43296
1.43371
1.43459
1.43563
1.43681
1.43813
1.4396
1.4412
1.44294
1.44482
1.44683
1.44897
1.45123
1.45361
1.45611
1.45872
1.46142
1.46422
1.46711
1.47006
1.47308
1.47615
1.47925
1.48236
1.48548
1.48858
1.49165
1.49466
1.4976
1.50045
1.50319
1.50581
1.50827
1.51058
1.5127
1.51462
1.51634
1.51783
1.51909
1.5201
1.52086
1.52136
1.52159
1.52155
1.52124
1.52065
1.5198
1.51867
1.51728
1.51563
1.51374
1.5116
1.50924
1.50665
1.50387
1.5009
1.49776
1.49448
1.49106
1.48753
1.48391
1.48022
1.47649
1.47273
1.46896
1.46521
1.46149
1.45782
1.45422
1.45071
1.44728
1.44396
1.44075
1.43766
1.4347
1.43185
1.42914
1.42654
1.42407
1.42172
1.41948
1.41735
1.41532
1.4134
1.41158
1.40984
1.4082
1.40664
1.40517
1.40378
1.40246
1.40123
1.40008
1.39901
1.39801
1.39709
1.39624
1.39547
1.39478
1.39415
1.3936
1.39311
1.39269
1.39232
1.39201
1.39175
1.39153
1.39136
1.39122
1.39111
1.39103
1.39096
1.39092
1.39089
1.39087
1.39086
1.46154
1.46168
1.46197
1.46239
1.46296
1.46366
1.46451
1.4655
1.46662
1.46787
1.46927
1.47079
1.47244
1.47422
1.47612
1.47814
1.48028
1.48253
1.48488
1.48734
1.48988
1.49251
1.49521
1.49798
1.5008
1.50366
1.50654
1.50944
1.51234
1.51522
1.51806
1.52085
1.52357
1.5262
1.52873
1.53114
1.53341
1.53552
1.53747
1.53924
1.54081
1.54217
1.54332
1.54423
1.54491
1.54535
1.54554