/*--------------------------------*- C++ -*----------------------------------*\
| =========                 |                                                 |
| \\      /  F ield         | OpenFOAM: The Open Source CFD Toolbox           |
|  \\    /   O peration     | Version:  2406                                  |
|   \\  /    A nd           | Website:  www.openfoam.com                      |
|    \\/     M anipulation  |                                                 |
\*---------------------------------------------------------------------------*/
FoamFile
{
    version     2.0;
    format      ascii;
    arch        "LSB;label=32;scalar=64";
    class       volScalarField;
    location    "3.5";
    object      C_0;
}
// * * * * * * * * * * * * * * * * * * * * * * * * * * * * * * * * * * * * * //

dimensions      [1 -3 0 0 0 0 0];

internalField   nonuniform List<scalar> 
14400
(
0.563767
0.550838
0.532921
0.516008
0.502151
0.492417
0.487438
0.487589
0.493057
0.503859
0.519841
0.540622
0.565448
0.592624
0.615882
0.626835
0.626335
0.612848
0.590757
0.569488
0.552154
0.540167
0.534355
0.535304
0.54348
0.559289
0.583093
0.615216
0.655914
0.705283
0.762977
0.826839
0.880265
0.915996
0.943558
0.967825
0.98922
1.00808
1.02465
1.03914
1.05171
1.06248
1.07156
1.07903
1.08494
1.08935
1.0923
1.0938
1.09389
1.09255
1.08978
1.08558
1.07992
1.07276
1.06406
1.05376
1.04179
1.02805
1.01243
0.994783
0.974945
0.952693
0.927755
0.899785
0.86824
0.82133
0.755197
0.689837
0.631266
0.580723
0.538307
0.503778
0.476799
0.457033
0.444179
0.437988
0.438263
0.444857
0.457654
0.476553
0.501423
0.532026
0.567802
0.606915
0.637738
0.654895
0.664552
0.668827
0.667896
0.661602
0.648171
0.622295
0.589287
0.559037
0.533337
0.512768
0.497486
0.487392
0.48215
0.481154
0.483472
0.487755
0.49215
0.494373
0.492686
0.488854
0.485195
0.483592
0.485426
0.491667
0.502961
0.519692
0.542015
0.569835
0.602632
0.63862
0.667191
0.683151
0.692341
0.696805
0.578075
0.566075
0.546972
0.5289
0.514142
0.50378
0.498424
0.498442
0.504014
0.515153
0.53169
0.553223
0.578932
0.606873
0.62809
0.636352
0.63626
0.626451
0.605163
0.582706
0.564395
0.551694
0.545387
0.54604
0.554116
0.570016
0.594093
0.626657
0.667944
0.717988
0.776196
0.83935
0.887499
0.919811
0.946854
0.970695
0.99176
1.01036
1.02673
1.04106
1.0535
1.06418
1.07318
1.08058
1.08644
1.09082
1.09374
1.09523
1.09531
1.09397
1.09122
1.08704
1.08141
1.0743
1.06566
1.05544
1.04355
1.02993
1.01445
0.996979
0.977358
0.955379
0.930787
0.903255
0.872366
0.83036
0.768958
0.702386
0.642757
0.591405
0.548352
0.513322
0.485965
0.465941
0.452949
0.446741
0.44712
0.45394
0.467086
0.486452
0.511894
0.54313
0.579407
0.618119
0.645803
0.660824
0.669935
0.674031
0.673261
0.667543
0.656361
0.634384
0.601987
0.571246
0.544997
0.524032
0.508576
0.498579
0.493759
0.493558
0.497105
0.503102
0.509586
0.513339
0.510114
0.504183
0.498799
0.495956
0.496986
0.502794
0.513977
0.530865
0.553562
0.581902
0.615132
0.650362
0.674863
0.688483
0.697068
0.701268
0.60065
0.593299
0.574338
0.554412
0.538008
0.526461
0.52038
0.520141
0.525923
0.537723
0.555336
0.578286
0.605353
0.632608
0.647639
0.653527
0.653947
0.648497
0.632008
0.608508
0.588679
0.57471
0.567468
0.56755
0.575432
0.591518
0.616137
0.649566
0.691999
0.74335
0.802478
0.859385
0.89837
0.927484
0.953352
0.976342
0.996765
1.01487
1.03085
1.04487
1.05707
1.06755
1.07639
1.08366
1.08943
1.09374
1.09661
1.09807
1.09814
1.09681
1.09409
1.08996
1.08439
1.07737
1.06885
1.05877
1.04707
1.03366
1.01846
1.00133
0.982128
0.96068
0.936759
0.91008
0.880262
0.844764
0.79286
0.726408
0.665468
0.61275
0.568511
0.532514
0.504413
0.483876
0.470608
0.464364
0.46495
0.47222
0.486056
0.506342
0.532908
0.565403
0.602719
0.638175
0.659469
0.67217
0.680331
0.684102
0.683572
0.678746
0.669575
0.65426
0.627093
0.595476
0.568207
0.546492
0.530678
0.520839
0.51681
0.518109
0.523976
0.533251
0.544011
0.550767
0.544526
0.534292
0.525609
0.520427
0.519938
0.524932
0.535929
0.553142
0.576547
0.605854
0.639882
0.669444
0.687056
0.6986
0.70618
0.70993
0.627833
0.624774
0.613034
0.591907
0.573463
0.560346
0.55324
0.552639
0.558731
0.57149
0.590609
0.615472
0.643611
0.662533
0.671257
0.676158
0.677208
0.674424
0.665866
0.645902
0.624699
0.609158
0.600627
0.599887
0.607486
0.623865
0.649289
0.683943
0.727919
0.780579
0.838344
0.881008
0.911378
0.938402
0.962727
0.984557
1.00409
1.0215
1.03693
1.05051
1.06236
1.07255
1.08116
1.08826
1.09389
1.09809
1.10089
1.10231
1.10236
1.10104
1.09836
1.0943
1.08883
1.08194
1.07359
1.06372
1.05228
1.0392
1.02439
1.00774
0.989148
0.968453
0.945487
0.920044
0.89189
0.860786
0.820437
0.761336
0.69928
0.64482
0.598947
0.561562
0.532368
0.511069
0.497387
0.491085
0.491973
0.499907
0.514757
0.536373
0.564485
0.598449
0.635784
0.66218
0.677241
0.688053
0.695118
0.698474
0.698178
0.694294
0.686928
0.67632
0.658703
0.630316
0.602546
0.579952
0.563594
0.553899
0.55094
0.554233
0.563032
0.575814
0.587704
0.591311
0.588114
0.576785
0.564572
0.556426
0.553917
0.557808
0.56862
0.58632
0.610535
0.640231
0.670709
0.690392
0.703055
0.712681
0.719122
0.722343
0.658009
0.656111
0.651899
0.639527
0.619767
0.605138
0.596784
0.595752
0.602225
0.616149
0.63679
0.662753
0.68166
0.691649
0.698335
0.70264
0.704305
0.703385
0.700282
0.690657
0.671473
0.654839
0.64482
0.64305
0.650267
0.667073
0.693548
0.729638
0.775342
0.828371
0.870239
0.900382
0.927275
0.952017
0.974595
0.995071
1.01354
1.0301
1.04485
1.05789
1.06929
1.07913
1.08745
1.09432
1.09977
1.10384
1.10655
1.10791
1.10794
1.10664
1.10401
1.10004
1.0947
1.08798
1.07984
1.07024
1.05914
1.04646
1.03215
1.01611
0.998267
0.978499
0.956691
0.932719
0.906464
0.877847
0.84668
0.803699
0.743585
0.687641
0.639876
0.600764
0.570143
0.547837
0.533607
0.52722
0.528496
0.537289
0.553438
0.576713
0.60657
0.641401
0.670287
0.686913
0.698744
0.707684
0.713613
0.716499
0.716373
0.713323
0.707518
0.699261
0.68904
0.671957
0.646977
0.623951
0.606873
0.597178
0.595487
0.600905
0.612097
0.623109
0.62777
0.627864
0.628114
0.623907
0.613504
0.602923
0.598261
0.600837
0.611596
0.629931
0.654472
0.681123
0.699938
0.711938
0.722084
0.729948
0.735284
0.737975
0.690081
0.688961
0.686965
0.683401
0.673813
0.659667
0.65023
0.64887
0.655657
0.670508
0.690964
0.70647
0.715539
0.722255
0.727795
0.731763
0.733985
0.734526
0.733695
0.73197
0.724316
0.710714
0.699604
0.696759
0.703434
0.720887
0.748586
0.785518
0.831081
0.868055
0.89587
0.921257
0.945321
0.967798
0.988566
1.00759
1.02489
1.04051
1.0545
1.06691
1.0778
1.08721
1.0952
1.1018
1.10704
1.11095
1.11355
1.11485
1.11486
1.11358
1.11101
1.10714
1.10196
1.09544
1.08755
1.07827
1.06756
1.05536
1.04163
1.0263
1.00931
0.990583
0.970059
0.947676
0.923401
0.897249
0.869325
0.839126
0.797136
0.741036
0.691434
0.650427
0.618067
0.594536
0.579637
0.573132
0.574846
0.584649
0.602278
0.627276
0.65783
0.685642
0.702471
0.713748
0.723136
0.730328
0.735151
0.737535
0.737492
0.735107
0.73056
0.724144
0.716294
0.707563
0.693932
0.67647
0.659105
0.649215
0.64887
0.655512
0.661614
0.664539
0.664202
0.664196
0.664541
0.665232
0.662782
0.657279
0.651386
0.652543
0.663444
0.681922
0.700675
0.715677
0.7259
0.735316
0.743397
0.749741
0.754091
0.756299
0.723274
0.722687
0.721696
0.72066
0.71948
0.714912
0.710393
0.709615
0.716004
0.726377
0.736428
0.742802
0.748551
0.754037
0.758824
0.762632
0.765346
0.767041
0.767977
0.768585
0.769443
0.766768
0.762404
0.75952
0.765464
0.783888
0.812481
0.845293
0.874793
0.898257
0.921076
0.943455
0.964954
0.985286
1.00428
1.02184
1.03793
1.05255
1.06572
1.07745
1.08777
1.09673
1.10434
1.11064
1.11565
1.11938
1.12185
1.12308
1.12306
1.12181
1.11931
1.11556
1.11054
1.10425
1.09666
1.08774
1.07747
1.0658
1.05271
1.03815
1.02208
1.00447
0.985286
0.964526
0.942213
0.918423
0.893308
0.867121
0.839324
0.801668
0.752776
0.710607
0.67627
0.651417
0.635794
0.629126
0.631241
0.642083
0.661038
0.686762
0.709633
0.724327
0.733871
0.742472
0.749726
0.755339
0.759127
0.760999
0.760951
0.759055
0.755472
0.750458
0.744381
0.737717
0.731062
0.722659
0.712988
0.705546
0.703011
0.703287
0.702572
0.701015
0.700296
0.700179
0.700614
0.701667
0.703591
0.704781
0.705084
0.708375
0.71673
0.727378
0.736833
0.744695
0.752623
0.760027
0.766445
0.77153
0.77504
0.77683
0.757054
0.756816
0.756471
0.756278
0.756607
0.757964
0.758966
0.760587
0.764527
0.768968
0.772629
0.777066
0.781825
0.786516
0.790835
0.794593
0.797726
0.800315
0.802585
0.804906
0.807801
0.811983
0.815989
0.82051
0.830105
0.846797
0.867378
0.88809
0.906998
0.926714
0.946724
0.966532
0.985754
1.00411
1.02142
1.03756
1.05244
1.06605
1.07837
1.08938
1.09912
1.10759
1.1148
1.12077
1.12552
1.12906
1.1314
1.13255
1.13251
1.13127
1.12885
1.12524
1.12041
1.11437
1.10709
1.09856
1.08876
1.07767
1.06525
1.0515
1.03639
1.01992
1.00209
0.98293
0.962503
0.940921
0.918363
0.895092
0.871474
0.84753
0.816635
0.779809
0.743923
0.718256
0.702044
0.695148
0.697331
0.708661
0.727167
0.742221
0.752377
0.759336
0.766214
0.772544
0.777956
0.782175
0.785017
0.786385
0.786257
0.784689
0.781812
0.777838
0.773054
0.767824
0.762568
0.757724
0.753537
0.749161
0.745003
0.741042
0.738325
0.736647
0.735788
0.735608
0.73607
0.737227
0.739233
0.742329
0.746753
0.751517
0.756597
0.761621
0.767384
0.773614
0.779868
0.785726
0.790828
0.794891
0.79771
0.799151
0.791073
0.791051
0.791095
0.791372
0.792101
0.793495
0.795588
0.798239
0.800778
0.803693
0.807114
0.811009
0.815169
0.819365
0.823407
0.827177
0.830651
0.833909
0.837142
0.840651
0.844846
0.850241
0.857418
0.867014
0.878438
0.891356
0.905368
0.920842
0.937492
0.954878
0.972573
0.990193
1.00742
1.02399
1.03974
1.05452
1.06824
1.08085
1.09231
1.10261
1.11174
1.1197
1.12649
1.13212
1.13661
1.13994
1.14214
1.14321
1.14314
1.14193
1.1396
1.13612
1.1315
1.12572
1.11878
1.11066
1.10135
1.09085
1.07914
1.06621
1.05207
1.03673
1.02022
1.0026
0.983947
0.964395
0.944131
0.923411
0.902567
0.882019
0.862229
0.839953
0.815598
0.792592
0.776387
0.769181
0.770142
0.775518
0.781985
0.78614
0.789927
0.794426
0.799103
0.803533
0.807379
0.810387
0.812383
0.813265
0.813003
0.811632
0.809252
0.806026
0.802173
0.797956
0.793659
0.789535
0.785709
0.782062
0.778505
0.775393
0.773037
0.771461
0.7706
0.770395
0.77083
0.771936
0.773785
0.776458
0.77995
0.78397
0.788177
0.792641
0.797466
0.80251
0.80751
0.812179
0.816249
0.819498
0.821757
0.822914
0.825114
0.825219
0.825486
0.826016
0.826928
0.828324
0.830217
0.832521
0.835053
0.837905
0.841125
0.844685
0.848476
0.852369
0.856251
0.860059
0.863792
0.867528
0.871422
0.87571
0.880691
0.886714
0.894125
0.903167
0.913711
0.925487
0.938386
0.952373
0.967252
0.982731
0.998497
1.01425
1.02973
1.04471
1.05902
1.07253
1.08514
1.09679
1.10742
1.117
1.12552
1.13297
1.13934
1.14463
1.14884
1.15197
1.15402
1.155
1.1549
1.15373
1.15148
1.14815
1.14374
1.13824
1.13164
1.12394
1.11515
1.10524
1.09423
1.08213
1.06895
1.05471
1.03947
1.0233
1.00629
0.98858
0.970356
0.951852
0.933365
0.915248
0.897909
0.881815
0.867082
0.852099
0.83948
0.831379
0.827709
0.82595
0.824494
0.824974
0.826765
0.829336
0.832239
0.835106
0.83764
0.839612
0.840862
0.84129
0.840858
0.839583
0.837537
0.834841
0.831655
0.828169
0.824577
0.821048
0.817683
0.814504
0.811551
0.808988
0.806971
0.805559
0.804754
0.804542
0.80492
0.805903
0.807514
0.809766
0.812611
0.815903
0.819482
0.823301
0.827328
0.831448
0.835484
0.83923
0.842491
0.845094
0.846905
0.847834
0.859048
0.859226
0.859616
0.860275
0.861272
0.862656
0.864436
0.866573
0.869008
0.871748
0.874797
0.878129
0.881682
0.885383
0.88917
0.893014
0.89693
0.900987
0.90531
0.910074
0.915495
0.921801
0.9292
0.937816
0.947615
0.958483
0.970315
0.983012
0.996411
1.0103
1.02443
1.03858
1.05253
1.06609
1.0791
1.09144
1.10301
1.11374
1.12357
1.13246
1.14038
1.14733
1.15327
1.15821
1.16214
1.16506
1.16697
1.16786
1.16774
1.1666
1.16444
1.16127
1.15707
1.15185
1.1456
1.13833
1.13004
1.12074
1.11043
1.09913
1.08688
1.0737
1.05966
1.04484
1.02933
1.01328
0.996858
0.980278
0.963793
0.947699
0.932321
0.917996
0.905031
0.893721
0.884105
0.876091
0.869852
0.865686
0.863321
0.862496
0.862824
0.863914
0.865412
0.867012
0.868462
0.86956
0.870163
0.870175
0.869554
0.868304
0.866473
0.864145
0.861438
0.858487
0.855432
0.852396
0.849471
0.846719
0.844208
0.842036
0.840299
0.839051
0.838316
0.8381
0.838406
0.83924
0.840603
0.842481
0.844826
0.847547
0.850547
0.853754
0.857096
0.860472
0.863746
0.866768
0.86939
0.871481
0.872936
0.873681
0.892805
0.893021
0.893474
0.894197
0.895227
0.896592
0.898297
0.900328
0.902659
0.905282
0.908187
0.911352
0.91474
0.91831
0.922032
0.925896
0.929926
0.93418
0.938757
0.943783
0.949411
0.955794
0.963059
0.97128
0.980452
0.990513
1.00138
1.01295
1.02508
1.03761
1.05036
1.06312
1.07573
1.08802
1.09986
1.11113
1.12173
1.13159
1.14066
1.14888
1.15623
1.16268
1.16821
1.1728
1.17646
1.17917
1.18094
1.18174
1.1816
1.18049
1.17842
1.1754
1.17142
1.16648
1.16058
1.15374
1.14595
1.13724
1.12761
1.11709
1.10572
1.09355
1.08063
1.06705
1.05292
1.03835
1.02352
1.00861
0.993831
0.979435
0.965678
0.952817
0.941085
0.930675
0.921674
0.914114
0.908071
0.903609
0.900607
0.898865
0.898119
0.898083
0.898482
0.899069
0.899634
0.900004
0.900053
0.899693
0.89888
0.897608
0.895904
0.893828
0.891464
0.88891
0.886267
0.883632
0.881085
0.878694
0.876525
0.874651
0.873137
0.87203
0.871358
0.871134
0.871364
0.872047
0.873176
0.874729
0.876663
0.878913
0.881406
0.88407
0.886831
0.889596
0.892259
0.894705
0.896821
0.898505
0.899675
0.900275
0.926345
0.92658
0.927063
0.927812
0.928848
0.930187
0.931834
0.933781
0.936017
0.938533
0.941317
0.944351
0.947615
0.951086
0.954751
0.958613
0.962697
0.967052
0.971752
0.976891
0.982574
0.988903
0.995961
1.00379
1.0124
1.02174
1.03174
1.04232
1.05336
1.06472
1.07625
1.08781
1.09924
1.1104
1.12118
1.13147
1.14118
1.15024
1.15859
1.16618
1.17297
1.17894
1.18407
1.18834
1.19173
1.19424
1.19586
1.19658
1.19641
1.19534
1.19337
1.1905
1.18673
1.18207
1.17652
1.17009
1.16279
1.15465
1.14567
1.1359
1.12537
1.11414
1.10226
1.08983
1.07693
1.06369
1.05026
1.0368
1.02349
1.01053
0.998139
0.986507
0.975819
0.96622
0.957802
0.950618
0.944708
0.940073
0.936632
0.934239
0.932705
0.931817
0.931364
0.931149
0.930999
0.93077
0.930351
0.929665
0.928666
0.927342
0.925707
0.9238
0.921681
0.919421
0.917096
0.91478
0.912543
0.910446
0.908547
0.906904
0.905567
0.904575
0.903953
0.903715
0.903868
0.904408
0.905326
0.906597
0.908184
0.910036
0.912093
0.914291
0.916561
0.918823
0.92099
0.922973
0.924683
0.926042
0.926985
0.927468
0.959649
0.959892
0.960385
0.961139
0.962166
0.963475
0.965069
0.966945
0.969097
0.971517
0.974196
0.977121
0.980282
0.983668
0.987274
0.991109
0.995197
0.999578
1.00431
1.00945
1.01509
1.02128
1.02809
1.03553
1.04361
1.0523
1.06153
1.07123
1.08131
1.09165
1.10213
1.11263
1.12301
1.13317
1.143
1.1524
1.16129
1.1696
1.17728
1.18427
1.19054
1.19606
1.2008
1.20474
1.20788
1.21019
1.21167
1.21231
1.21212
1.21108
1.20921
1.20649
1.20293
1.19854
1.19333
1.1873
1.18048
1.17289
1.16454
1.15547
1.14573
1.13537
1.12445
1.11306
1.10128
1.08923
1.07703
1.06483
1.05279
1.04107
1.02984
1.01925
1.00946
1.00058
0.992695
0.985849
0.98007
0.975344
0.971607
0.968754
0.966644
0.965116
0.964008
0.963164
0.962443
0.961725
0.960917
0.959949
0.958778
0.957387
0.95578
0.953984
0.952039
0.949997
0.947914
0.94585
0.94386
0.941999
0.940314
0.938852
0.937653
0.936749
0.936162
0.935905
0.935983
0.936393
0.937122
0.938148
0.939439
0.940953
0.942638
0.94444
0.946298
0.948143
0.949906
0.951514
0.952897
0.953994
0.954755
0.955145
0.992709
0.992954
0.993446
0.994193
0.995202
0.996477
0.998021
0.999832
1.00191
1.00424
1.00683
1.00966
1.01273
1.01603
1.01957
1.02335
1.0274
1.03176
1.03645
1.04153
1.04705
1.05305
1.05958
1.06664
1.07422
1.08231
1.09084
1.09977
1.109
1.11844
1.12799
1.13755
1.14702
1.15628
1.16524
1.17384
1.18198
1.1896
1.19665
1.20308
1.20886
1.21395
1.21832
1.22196
1.22485
1.22697
1.22832
1.22889
1.22867
1.22767
1.22589
1.22331
1.21996
1.21584
1.21095
1.20532
1.19895
1.19188
1.18412
1.17572
1.16671
1.15716
1.14712
1.13668
1.1259
1.11491
1.10381
1.09272
1.08177
1.07112
1.06089
1.05121
1.0422
1.03395
1.02654
1.02001
1.01438
1.00962
1.0057
1.00253
0.999999
0.997995
0.996389
0.995056
0.993883
0.992772
0.991643
0.990435
0.98911
0.987646
0.986044
0.984317
0.982494
0.980612
0.978714
0.976845
0.975051
0.973374
0.971857
0.970536
0.969444
0.968606
0.968041
0.96776
0.967767
0.968058
0.96862
0.969434
0.970472
0.971697
0.973067
0.974534
0.976046
0.977546
0.978976
0.980278
0.981396
0.982282
0.982896
0.98321
1.02553
1.02577
1.02625
1.02699
1.02797
1.02921
1.03071
1.03246
1.03446
1.03671
1.03921
1.04195
1.04493
1.04815
1.05161
1.05533
1.05931
1.06359
1.0682
1.07316
1.07852
1.08431
1.09053
1.09721
1.10433
1.11186
1.11977
1.128
1.13647
1.14512
1.15385
1.16258
1.17122
1.17967
1.18787
1.19572
1.20318
1.21017
1.21664
1.22255
1.22787
1.23255
1.23658
1.23993
1.24258
1.24452
1.24575
1.24625
1.24601
1.24505
1.24335
1.24092
1.23777
1.2339
1.22933
1.22406
1.21813
1.21154
1.20435
1.19656
1.18824
1.17944
1.1702
1.16062
1.15075
1.1407
1.13056
1.12045
1.11047
1.10074
1.09138
1.08249
1.07417
1.06649
1.05952
1.05328
1.04781
1.04307
1.03904
1.03566
1.03283
1.03048
1.0285
1.02679
1.02526
1.02384
1.02245
1.02104
1.01958
1.01804
1.01643
1.01475
1.01301
1.01124
1.00948
1.00777
1.00612
1.00459
1.0032
1.00199
1.00098
1.00019
0.999636
0.999328
0.999268
0.999451
0.999867
1.0005
1.00132
1.0023
1.0034
1.00458
1.00581
1.00702
1.00817
1.00923
1.01013
1.01084
1.01134
1.01159
1.0581
1.05834
1.05881
1.05953
1.06048
1.06169
1.06313
1.06483
1.06676
1.06894
1.07136
1.07401
1.0769
1.08003
1.08341
1.08703
1.09092
1.0951
1.09959
1.1044
1.10957
1.11511
1.12104
1.12734
1.13402
1.14105
1.14838
1.15598
1.16378
1.17171
1.17971
1.1877
1.19559
1.20333
1.21082
1.21801
1.22484
1.23125
1.23719
1.24262
1.24751
1.25181
1.25551
1.25859
1.26102
1.2628
1.2639
1.26433
1.26409
1.26316
1.26155
1.25926
1.25629
1.25267
1.24839
1.24348
1.23795
1.23183
1.22515
1.21795
1.21026
1.20214
1.19364
1.18483
1.17578
1.16658
1.1573
1.14805
1.13892
1.13
1.1214
1.1132
1.10549
1.09832
1.09175
1.0858
1.08049
1.07582
1.07174
1.06822
1.06519
1.06259
1.06033
1.05833
1.05654
1.05487
1.05327
1.0517
1.05012
1.04852
1.04689
1.04523
1.04355
1.04187
1.04021
1.03861
1.03708
1.03566
1.03438
1.03325
1.03229
1.03154
1.03099
1.03065
1.03052
1.03061
1.0309
1.03137
1.032
1.03277
1.03365
1.0346
1.03557
1.03655
1.03748
1.03832
1.03905
1.03962
1.04002
1.04022
1.09044
1.09067
1.09113
1.09182
1.09275
1.09392
1.09532
1.09695
1.09882
1.10093
1.10326
1.10583
1.10863
1.11167
1.11495
1.11847
1.12225
1.1263
1.13065
1.13529
1.14025
1.14554
1.15116
1.15711
1.16337
1.16992
1.17673
1.18376
1.19095
1.19825
1.20559
1.21291
1.22014
1.22722
1.23408
1.24067
1.24693
1.2528
1.25825
1.26324
1.26772
1.27168
1.27507
1.27789
1.28012
1.28174
1.28273
1.2831
1.28284
1.28195
1.28042
1.27826
1.27548
1.27208
1.26809
1.26351
1.25836
1.25268
1.24648
1.23981
1.23271
1.22522
1.21739
1.20928
1.20097
1.19252
1.18401
1.17553
1.16714
1.15895
1.15102
1.14344
1.13626
1.12955
1.12335
1.11768
1.11255
1.10796
1.10388
1.10029
1.09713
1.09435
1.09189
1.08969
1.08768
1.08582
1.08406
1.08236
1.08069
1.07903
1.07738
1.07573
1.07409
1.07247
1.07089
1.06937
1.06794
1.0666
1.06539
1.06432
1.06341
1.06268
1.06212
1.06175
1.06157
1.06157
1.06175
1.06208
1.06255
1.06314
1.06383
1.06457
1.06535
1.06612
1.06687
1.06754
1.06812
1.06858
1.06889
1.06906
1.12254
1.12277
1.12322
1.12389
1.12479
1.12591
1.12727
1.12885
1.13065
1.13268
1.13494
1.13742
1.14013
1.14307
1.14624
1.14965
1.15331
1.15722
1.1614
1.16586
1.1706
1.17563
1.18095
1.18655
1.19242
1.19854
1.20487
1.21137
1.21801
1.22473
1.23148
1.2382
1.24483
1.25132
1.25762
1.26366
1.26939
1.27478
1.27978
1.28436
1.28847
1.2921
1.29521
1.29779
1.29983
1.3013
1.30219
1.3025
1.30223
1.30137
1.29992
1.29789
1.29528
1.2921
1.28837
1.2841
1.27932
1.27404
1.26829
1.26212
1.25555
1.24863
1.24141
1.23395
1.2263
1.21853
1.2107
1.2029
1.19518
1.18762
1.1803
1.17326
1.16657
1.16028
1.15442
1.14901
1.14406
1.13958
1.13554
1.13193
1.12869
1.1258
1.1232
1.12084
1.11869
1.11668
1.1148
1.11299
1.11124
1.10954
1.10786
1.10622
1.10461
1.10303
1.10151
1.10006
1.09869
1.09742
1.09626
1.09524
1.09436
1.09364
1.09307
1.09267
1.09244
1.09236
1.09243
1.09265
1.09298
1.09342
1.09394
1.09452
1.09513
1.09573
1.09632
1.09685
1.09731
1.09767
1.09793
1.09805
1.15443
1.15464
1.15508
1.15573
1.1566
1.15768
1.15899
1.16051
1.16225
1.16421
1.16639
1.16878
1.1714
1.17423
1.17729
1.18058
1.18411
1.18787
1.19188
1.19614
1.20066
1.20544
1.21046
1.21573
1.22123
1.22694
1.23282
1.23885
1.24499
1.25119
1.2574
1.26358
1.26967
1.27563
1.2814
1.28694
1.29221
1.29715
1.30174
1.30593
1.30971
1.31303
1.31588
1.31824
1.3201
1.32143
1.32223
1.32249
1.32221
1.32138
1.32001
1.31809
1.31565
1.31267
1.30919
1.30522
1.30076
1.29586
1.29053
1.28481
1.27873
1.27234
1.26568
1.2588
1.25175
1.24459
1.23738
1.23018
1.22306
1.21607
1.20928
1.20274
1.19649
1.19058
1.18504
1.17988
1.17512
1.17076
1.16679
1.16318
1.15991
1.15695
1.15426
1.1518
1.14954
1.14743
1.14545
1.14356
1.14176
1.14001
1.13832
1.13668
1.13508
1.13354
1.13206
1.13066
1.12934
1.12812
1.127
1.12601
1.12515
1.12443
1.12386
1.12343
1.12314
1.12299
1.12298
1.12309
1.12331
1.12362
1.124
1.12444
1.1249
1.12537
1.12582
1.12624
1.1266
1.12688
1.12708
1.12718
1.18609
1.1863
1.18672
1.18735
1.18818
1.18923
1.19049
1.19196
1.19364
1.19552
1.19762
1.19993
1.20244
1.20517
1.20812
1.21128
1.21466
1.21827
1.22211
1.22617
1.23046
1.23499
1.23973
1.24469
1.24984
1.25516
1.26064
1.26623
1.27191
1.27763
1.28336
1.28905
1.29465
1.30012
1.30542
1.31051
1.31534
1.31987
1.32408
1.32793
1.33139
1.33444
1.33705
1.3392
1.34089
1.34209
1.34281
1.34302
1.34273
1.34193
1.34063
1.33883
1.33654
1.33376
1.33051
1.3268
1.32266
1.31811
1.31316
1.30786
1.30224
1.29632
1.29017
1.28381
1.2773
1.27069
1.26404
1.25739
1.2508
1.24433
1.23802
1.23192
1.22607
1.22051
1.21526
1.21035
1.20578
1.20155
1.19766
1.19409
1.19082
1.18783
1.18509
1.18257
1.18023
1.17805
1.176
1.17406
1.17221
1.17043
1.16873
1.16708
1.1655
1.16399
1.16254
1.16117
1.15989
1.1587
1.15762
1.15666
1.15581
1.15509
1.1545
1.15403
1.1537
1.1535
1.15341
1.15343
1.15355
1.15375
1.15401
1.15432
1.15467
1.15502
1.15536
1.15568
1.15596
1.15618
1.15633
1.15641
1.21755
1.21775
1.21815
1.21876
1.21956
1.22057
1.22178
1.2232
1.22481
1.22662
1.22864
1.23086
1.23328
1.2359
1.23873
1.24176
1.245
1.24844
1.2521
1.25597
1.26004
1.26432
1.26879
1.27344
1.27826
1.28323
1.28833
1.29352
1.29878
1.30407
1.30935
1.31459
1.31975
1.32478
1.32966
1.33433
1.33876
1.34292
1.34679
1.35031
1.35349
1.35628
1.35866
1.36063
1.36216
1.36325
1.36388
1.36405
1.36375
1.36299
1.36176
1.36006
1.35791
1.35531
1.35228
1.34883
1.34497
1.34074
1.33615
1.33124
1.32602
1.32055
1.31486
1.30898
1.30296
1.29685
1.29069
1.28454
1.27843
1.27241
1.26654
1.26084
1.25536
1.25013
1.24516
1.24048
1.23609
1.232
1.22821
1.2247
1.22146
1.21847
1.21571
1.21314
1.21076
1.20853
1.20644
1.20446
1.20258
1.20079
1.19907
1.19743
1.19586
1.19436
1.19294
1.1916
1.19035
1.18919
1.18813
1.18718
1.18634
1.18561
1.185
1.18451
1.18414
1.18388
1.18373
1.18367
1.1837
1.1838
1.18397
1.18418
1.18442
1.18468
1.18493
1.18517
1.18537
1.18554
1.18566
1.18571
1.2488
1.24899
1.24938
1.24996
1.25074
1.25171
1.25287
1.25423
1.25578
1.25752
1.25946
1.26159
1.26391
1.26642
1.26913
1.27203
1.27512
1.27841
1.28189
1.28556
1.28941
1.29345
1.29766
1.30203
1.30654
1.31118
1.31593
1.32075
1.32562
1.33051
1.33539
1.34023
1.34498
1.34961
1.35409
1.35838
1.36246
1.36628
1.36982
1.37306
1.37596
1.37852
1.3807
1.38249
1.38389
1.38486
1.38542
1.38555
1.38525
1.38451
1.38334
1.38175
1.37973
1.3773
1.37447
1.37125
1.36767
1.36373
1.35947
1.35491
1.35007
1.345
1.33973
1.33428
1.32871
1.32305
1.31734
1.31163
1.30596
1.30036
1.29489
1.28956
1.28441
1.27948
1.27477
1.27031
1.26611
1.26216
1.25848
1.25504
1.25185
1.24888
1.24612
1.24354
1.24114
1.23889
1.23677
1.23476
1.23287
1.23106
1.22934
1.22771
1.22615
1.22466
1.22326
1.22194
1.22071
1.21957
1.21853
1.21759
1.21675
1.21602
1.21539
1.21488
1.21447
1.21416
1.21395
1.21382
1.21378
1.2138
1.21388
1.21401
1.21416
1.21434
1.21451
1.21468
1.21483
1.21495
1.21504
1.21508
1.27986
1.28005
1.28042
1.28098
1.28172
1.28265
1.28377
1.28507
1.28656
1.28823
1.29008
1.29212
1.29434
1.29675
1.29934
1.3021
1.30505
1.30818
1.31148
1.31496
1.31861
1.32241
1.32637
1.33047
1.33469
1.33902
1.34344
1.34792
1.35244
1.35697
1.36148
1.36594
1.37032
1.37459
1.37871
1.38266
1.3864
1.38991
1.39316
1.39613
1.39879
1.40113
1.40312
1.40476
1.40602
1.4069
1.40739
1.40748
1.40718
1.40647
1.40536
1.40386
1.40196
1.39969
1.39705
1.39405
1.39071
1.38704
1.38308
1.37885
1.37436
1.36966
1.36476
1.35972
1.35455
1.3493
1.344
1.33869
1.33341
1.3282
1.32308
1.31809
1.31325
1.30859
1.30413
1.29989
1.29586
1.29206
1.28849
1.28514
1.28201
1.27908
1.27634
1.27377
1.27137
1.26911
1.26698
1.26496
1.26306
1.26125
1.25953
1.2579
1.25635
1.25488
1.2535
1.2522
1.25098
1.24986
1.24883
1.24789
1.24705
1.24631
1.24567
1.24513
1.24469
1.24434
1.24408
1.2439
1.24379
1.24374
1.24375
1.2438
1.24389
1.24399
1.2441
1.24421
1.24432
1.2444
1.24446
1.24449
1.31073
1.31091
1.31127
1.31181
1.31252
1.31341
1.31448
1.31573
1.31715
1.31875
1.32053
1.32248
1.3246
1.32689
1.32936
1.332
1.3348
1.33777
1.34091
1.3442
1.34764
1.35123
1.35495
1.35879
1.36274
1.36678
1.37089
1.37506
1.37925
1.38345
1.38762
1.39174
1.39578
1.39971
1.40351
1.40714
1.41058
1.4138
1.41679
1.41951
1.42195
1.42409
1.42591
1.42739
1.42854
1.42932
1.42975
1.42981
1.4295
1.42882
1.42777
1.42636
1.42458
1.42245
1.41998
1.41718
1.41407
1.41066
1.40697
1.40304
1.39887
1.3945
1.38996
1.38527
1.38047
1.37559
1.37067
1.36573
1.36081
1.35594
1.35115
1.34646
1.34191
1.33751
1.33329
1.32924
1.32539
1.32174
1.31829
1.31503
1.31197
1.30909
1.30638
1.30384
1.30145
1.29919
1.29707
1.29506
1.29315
1.29135
1.28964
1.28801
1.28648
1.28502
1.28365
1.28237
1.28116
1.28005
1.27903
1.2781
1.27726
1.27651
1.27586
1.27529
1.27482
1.27444
1.27413
1.2739
1.27374
1.27363
1.27358
1.27357
1.27359
1.27364
1.27369
1.27376
1.27382
1.27387
1.27391
1.27393
1.34143
1.3416
1.34194
1.34246
1.34314
1.34399
1.34502
1.34621
1.34757
1.3491
1.3508
1.35266
1.35468
1.35687
1.35922
1.36173
1.36439
1.36721
1.37017
1.37328
1.37653
1.3799
1.3834
1.387
1.39069
1.39446
1.3983
1.40217
1.40606
1.40995
1.41381
1.41762
1.42134
1.42497
1.42847
1.43181
1.43497
1.43794
1.44068
1.44317
1.44541
1.44736
1.44902
1.45037
1.45141
1.45211
1.45248
1.45251
1.4522
1.45155
1.45055
1.44921
1.44755
1.44555
1.44324
1.44063
1.43773
1.43455
1.43112
1.42746
1.42358
1.41952
1.41529
1.41093
1.40647
1.40193
1.39734
1.39274
1.38815
1.38359
1.3791
1.37471
1.37042
1.36626
1.36225
1.3584
1.35472
1.35121
1.34788
1.34473
1.34174
1.33892
1.33627
1.33376
1.33139
1.32916
1.32704
1.32504
1.32315
1.32136
1.31965
1.31804
1.31652
1.31508
1.31372
1.31245
1.31126
1.31016
1.30914
1.30821
1.30737
1.30661
1.30595
1.30537
1.30487
1.30445
1.3041
1.30383
1.30362
1.30347
1.30336
1.3033
1.30327
1.30327
1.30328
1.3033
1.30333
1.30336
1.30338
1.30339
1.37195
1.37212
1.37244
1.37293
1.37359
1.3744
1.37538
1.37652
1.37782
1.37928
1.3809
1.38267
1.3846
1.38668
1.38891
1.3913
1.39382
1.39649
1.39929
1.40223
1.40529
1.40846
1.41174
1.41511
1.41857
1.42209
1.42566
1.42926
1.43287
1.43648
1.44005
1.44357
1.44701
1.45036
1.45358
1.45666
1.45957
1.46229
1.46481
1.4671
1.46914
1.47093
1.47244
1.47367
1.4746
1.47523
1.47555
1.47556
1.47525
1.47461
1.47367
1.47241
1.47084
1.46897
1.46681
1.46436
1.46166
1.45869
1.4555
1.45208
1.44848
1.44469
1.44076
1.43671
1.43255
1.42832
1.42404
1.41974
1.41545
1.41118
1.40697
1.40284
1.39879
1.39486
1.39106
1.3874
1.38388
1.38051
1.3773
1.37425
1.37135
1.3686
1.366
1.36353
1.3612
1.35899
1.3569
1.35492
1.35305
1.35127
1.34958
1.34798
1.34647
1.34505
1.3437
1.34244
1.34127
1.34017
1.33916
1.33823
1.33739
1.33663
1.33595
1.33535
1.33483
1.33439
1.33401
1.3337
1.33345
1.33326
1.33311
1.333
1.33293
1.33288
1.33286
1.33285
1.33285
1.33285
1.33285
1.33286
1.40231
1.40247
1.40278
1.40325
1.40387
1.40465
1.40559
1.40667
1.40791
1.4093
1.41084
1.41253
1.41437
1.41634
1.41846
1.42072
1.42311
1.42564
1.42828
1.43105
1.43393
1.43691
1.43999
1.44315
1.44638
1.44966
1.45299
1.45634
1.45969
1.46303
1.46634
1.4696
1.47278
1.47587
1.47884
1.48167
1.48435
1.48686
1.48916
1.49126
1.49314
1.49477
1.49615
1.49726
1.4981
1.49866
1.49894
1.49892
1.49861
1.498
1.4971
1.49591
1.49443
1.49268
1.49065
1.48837
1.48584
1.48307
1.48009
1.47691
1.47355
1.47002
1.46636
1.46258
1.4587
1.45475
1.45076
1.44674
1.44272
1.43872
1.43477
1.43087
1.42706
1.42334
1.41973
1.41624
1.41288
1.40965
1.40657
1.40362
1.40081
1.39813
1.39559
1.39318
1.39089
1.38872
1.38666
1.3847
1.38285
1.38109
1.37942
1.37784
1.37634
1.37493
1.37361
1.37236
1.37119
1.37011
1.3691
1.36818
1.36733
1.36657
1.36588
1.36526
1.36472
1.36425
1.36385
1.36351
1.36323
1.36299
1.36281
1.36267
1.36256
1.36248
1.36242
1.36238
1.36236
1.36234
1.36233
1.36233
1.43252
1.43266
1.43296
1.43341
1.434
1.43475
1.43564
1.43667
1.43785
1.43918
1.44064
1.44224
1.44399
1.44586
1.44787
1.45001
1.45228
1.45466
1.45716
1.45976
1.46247
1.46527
1.46816
1.47111
1.47413
1.47719
1.48029
1.48341
1.48652
1.48962
1.49269
1.4957
1.49864
1.50149
1.50423
1.50685
1.50931
1.51161
1.51373
1.51566
1.51737
1.51886
1.52012
1.52113
1.52189
1.52238
1.52261
1.52257
1.52226
1.52167
1.52082
1.51969
1.5183
1.51665
1.51476
1.51262
1.51025
1.50767
1.50489
1.50192
1.49878
1.49549
1.49207
1.48854
1.48492
1.48123
1.4775
1.47374
1.46997
1.46622
1.4625
1.45883
1.45523
1.45171
1.44828
1.44496
1.44175
1.43866
1.43569
1.43284
1.43012
1.42753
1.42505
1.4227
1.42046
1.41833
1.4163
1.41438
1.41255
1.41081
1.40917
1.40761
1.40613
1.40474
1.40343
1.40219
1.40104
1.39996
1.39896
1.39804
1.39719
1.39642
1.39572
1.3951
1.39454
1.39405
1.39363
1.39326
1.39295
1.39269
1.39247
1.3923
1.39216
1.39205
1.39196
1.3919
1.39185
1.39182
1.39181
1.3918
1.46257
1.46271
1.463
1.46342
1.46399
1.46469
1.46554
1.46653
1.46765
1.46891
1.4703
1.47182
1.47347
1.47525
1.47716
1.47918
1.48132
1.48357
1.48592
1.48837
1.49092
1.49355
1.49625
1.49901
1.50183
1.50469
1.50758
1.51048
1.51337
1.51625
1.51909
1.52188
1.5246
1.52723
1.52976
1.53216
1.53443
1.53655
1.5385
1.54026
1.54183
1.54319