/*--------------------------------*- C++ -*----------------------------------*\
| =========                 |                                                 |
| \\      /  F ield         | OpenFOAM: The Open Source CFD Toolbox           |
|  \\    /   O peration     | Version:  2406                                  |
|   \\  /    A nd           | Website:  www.openfoam.com                      |
|    \\/     M anipulation  |                                                 |
\*---------------------------------------------------------------------------*/
FoamFile
{
    version     2.0;
    format      ascii;
    arch        "LSB;label=32;scalar=64";
    class       volScalarField;
    location    "3.5";
    object      C_0_0;
}
// * * * * * * * * * * * * * * * * * * * * * * * * * * * * * * * * * * * * * //

dimensions      [1 -3 0 0 0 0 0];

internalField   nonuniform List<scalar> 
14400
(
0.565206
0.55224
0.534243
0.517256
0.503342
0.493569
0.488569
0.488718
0.494202
0.50504
0.521076
0.54193
0.566845
0.594117
0.617395
0.628324
0.627844
0.614397
0.592278
0.570942
0.553544
0.541505
0.535658
0.536588
0.544764
0.560591
0.58443
0.616607
0.657376
0.706831
0.764617
0.828553
0.881833
0.917417
0.944954
0.969199
0.990575
1.00941
1.02597
1.04045
1.05301
1.06377
1.07284
1.0803
1.08621
1.09061
1.09356
1.09506
1.09514
1.0938
1.09103
1.08683
1.08117
1.07401
1.06531
1.05502
1.04305
1.02931
1.0137
0.996063
0.976234
0.953993
0.929068
0.901113
0.869602
0.822864
0.756891
0.691425
0.63273
0.582074
0.539561
0.504952
0.47791
0.458097
0.445213
0.439008
0.439286
0.445897
0.458727
0.477674
0.502604
0.533278
0.569131
0.608312
0.639099
0.656196
0.66584
0.670106
0.669172
0.66288
0.649483
0.62362
0.590558
0.56025
0.534498
0.513886
0.498575
0.488468
0.48323
0.482255
0.484609
0.48894
0.493383
0.495634
0.493916
0.490034
0.486324
0.484681
0.486492
0.492725
0.504027
0.520782
0.543142
0.571008
0.603854
0.639886
0.668429
0.684343
0.693525
0.697985
0.579474
0.567486
0.548311
0.530165
0.51535
0.504948
0.499572
0.499587
0.505176
0.51635
0.532942
0.554549
0.580345
0.608367
0.629569
0.637823
0.637742
0.627988
0.606712
0.584185
0.56581
0.553056
0.546711
0.547346
0.555421
0.571338
0.595451
0.628069
0.669429
0.719562
0.77786
0.841034
0.889018
0.921229
0.948247
0.972067
0.993113
1.01169
1.02805
1.04237
1.0548
1.06547
1.07446
1.08185
1.08771
1.09208
1.095
1.09648
1.09656
1.09522
1.09247
1.08829
1.08266
1.07555
1.06691
1.05669
1.04481
1.03119
1.01572
0.998257
0.978646
0.956678
0.932098
0.90458
0.873708
0.831864
0.770658
0.703986
0.644238
0.592775
0.549625
0.514515
0.487094
0.467023
0.454001
0.447778
0.448161
0.454999
0.468179
0.487594
0.5131
0.544409
0.580763
0.619521
0.647139
0.662119
0.671217
0.675306
0.674531
0.668814
0.657649
0.635707
0.603282
0.572485
0.54618
0.52517
0.509683
0.499672
0.494855
0.494676
0.498264
0.504317
0.510865
0.514671
0.51139
0.505392
0.499949
0.497063
0.498067
0.503868
0.51506
0.531975
0.554712
0.5831
0.616377
0.651622
0.676077
0.68967
0.698247
0.702444
0.602002
0.594682
0.575707
0.555709
0.539248
0.527663
0.52156
0.521319
0.527118
0.538954
0.556621
0.579645
0.606799
0.634075
0.649072
0.654971
0.655403
0.649979
0.633565
0.61003
0.590142
0.576118
0.568836
0.568897
0.576778
0.592882
0.617538
0.651019
0.693524
0.744973
0.804223
0.86098
0.899804
0.928892
0.954738
0.977708
0.998113
1.0162
1.03217
1.04618
1.05837
1.06883
1.07767
1.08494
1.0907
1.095
1.09786
1.09932
1.09938
1.09806
1.09533
1.0912
1.08564
1.07862
1.0701
1.06002
1.04832
1.03492
1.01972
1.0026
0.983413
0.961975
0.938065
0.9114
0.881598
0.8462
0.7945
0.72803
0.666985
0.614157
0.569823
0.533744
0.505579
0.484994
0.471695
0.465437
0.466026
0.473316
0.487189
0.507527
0.53416
0.566733
0.604137
0.639549
0.660763
0.673453
0.681605
0.685368
0.684832
0.680003
0.67083
0.65555
0.628437
0.596765
0.569434
0.547667
0.531818
0.521964
0.517938
0.51926
0.525172
0.534511
0.545342
0.55206
0.545854
0.535547
0.526797
0.521566
0.521051
0.526038
0.537047
0.554288
0.57774
0.607102
0.641177
0.67067
0.688235
0.699775
0.707351
0.711099
0.629161
0.626103
0.614406
0.59324
0.574748
0.561599
0.55447
0.553866
0.559975
0.572773
0.59194
0.616871
0.645068
0.663946
0.672664
0.677576
0.678636
0.675858
0.667363
0.647491
0.626236
0.610633
0.602056
0.601294
0.608893
0.625291
0.65075
0.685456
0.729489
0.782217
0.839986
0.882496
0.912796
0.939797
0.964102
0.985915
1.00543
1.02282
1.03824
1.05182
1.06365
1.07383
1.08244
1.08953
1.09515
1.09935
1.10214
1.10356
1.1036
1.10229
1.0996
1.09554
1.09008
1.08319
1.07483
1.06497
1.05353
1.04046
1.02565
1.00902
0.990428
0.969743
0.946787
0.921357
0.893217
0.862131
0.821942
0.763034
0.700857
0.646282
0.600315
0.56285
0.53359
0.512241
0.498526
0.49221
0.493103
0.50106
0.515949
0.537621
0.565802
0.599832
0.637196
0.663494
0.678521
0.689324
0.696381
0.699729
0.699427
0.695537
0.688165
0.677548
0.659978
0.631657
0.603831
0.581177
0.564782
0.555069
0.552112
0.555425
0.564272
0.577108
0.588932
0.59249
0.58934
0.578073
0.565802
0.557607
0.555074
0.558958
0.569785
0.587517
0.611786
0.641531
0.671929
0.691553
0.704217
0.713843
0.720283
0.723502
0.659316
0.657415
0.653234
0.640904
0.621105
0.606461
0.598076
0.597039
0.603532
0.617503
0.638177
0.664202
0.683064
0.693019
0.699718
0.704034
0.705706
0.704792
0.701689
0.692146
0.673079
0.656394
0.646321
0.644533
0.651753
0.66858
0.695091
0.731231
0.776966
0.830046
0.87177
0.901804
0.928675
0.953399
0.975959
0.996419
1.01487
1.03142
1.04616
1.05919
1.07058
1.08041
1.08872
1.09559
1.10103
1.10509
1.1078
1.10916
1.10919
1.10789
1.10525
1.10128
1.09594
1.08922
1.08108
1.07149
1.06039
1.04772
1.03341
1.01738
0.999541
0.979782
0.957984
0.934023
0.907781
0.879179
0.848058
0.805242
0.745181
0.689157
0.641317
0.602129
0.57144
0.549081
0.534816
0.528415
0.529696
0.538514
0.554707
0.578045
0.60798
0.642869
0.671635
0.688185
0.700009
0.708942
0.714863
0.717742
0.717609
0.714552
0.70874
0.700473
0.690243
0.673212
0.648311
0.625226
0.608119
0.598401
0.596713
0.602137
0.613371
0.624309
0.628908
0.629006
0.629249
0.625102
0.614769
0.604142
0.599471
0.60204
0.612817
0.631175
0.65577
0.68233
0.701083
0.713085
0.723234
0.731098
0.736434
0.739125
0.691372
0.690249
0.688247
0.684724
0.675172
0.661082
0.651585
0.650219
0.65703
0.671953
0.692374
0.707845
0.716873
0.723604
0.729156
0.733134
0.735364
0.735911
0.735083
0.733365
0.725803
0.712332
0.701169
0.698328
0.705013
0.722491
0.750219
0.787206
0.832714
0.869577
0.897282
0.922654
0.946702
0.969163
0.989917
1.00893
1.02622
1.04182
1.0558
1.0682
1.07908
1.08849
1.09647
1.10306
1.1083
1.1122
1.1148
1.11609
1.1161
1.11482
1.11225
1.10838
1.10319
1.09667
1.08879
1.07952
1.0688
1.05661
1.04288
1.02756
1.01057
0.991858
0.971343
0.94897
0.924706
0.898567
0.870657
0.840548
0.798709
0.742597
0.69297
0.65189
0.619458
0.595866
0.580929
0.57441
0.576132
0.585965
0.603636
0.628705
0.65933
0.686999
0.703731
0.715005
0.724388
0.731572
0.736388
0.738766
0.738715
0.736324
0.731768
0.725342
0.717483
0.708744
0.695166
0.67776
0.660408
0.650482
0.650153
0.656752
0.662802
0.665668
0.665331
0.665326
0.665668
0.666357
0.663962
0.658507
0.652652
0.65379
0.664721
0.68318
0.701868
0.716808
0.727032
0.736451
0.744534
0.75088
0.75523
0.757438
0.72455
0.723961
0.722966
0.721925
0.720777
0.716247
0.711763
0.711009
0.717396
0.727739
0.737757
0.744105
0.749869
0.755367
0.760166
0.763982
0.766705
0.768406
0.769346
0.76996
0.77083
0.768248
0.76397
0.761169
0.767121
0.785578
0.814149
0.846843
0.876248
0.89965
0.922461
0.944829
0.966316
0.986635
1.00561
1.02316
1.03925
1.05385
1.06701
1.07873
1.08905
1.09799
1.1056
1.11189
1.11689
1.12062
1.12309
1.12431
1.1243
1.12304
1.12054
1.11679
1.11177
1.10548
1.09789
1.08898
1.07871
1.06704
1.05395
1.0394
1.02334
1.00573
0.98656
0.965809
0.943505
0.919725
0.894621
0.868444
0.840747
0.803208
0.754427
0.712185
0.677767
0.652845
0.637181
0.630498
0.632624
0.643507
0.662479
0.688266
0.710994
0.725579
0.735119
0.743716
0.750964
0.756571
0.760352
0.762218
0.762162
0.760258
0.756667
0.751645
0.745558
0.738883
0.732217
0.723849
0.7142
0.706757
0.704206
0.704453
0.703693
0.702136
0.701417
0.701299
0.701732
0.702782
0.704703
0.705934
0.706261
0.709563
0.717912
0.728531
0.737945
0.745812
0.753744
0.761151
0.767572
0.772657
0.776169
0.777959
0.758318
0.758078
0.757731
0.757534
0.757859
0.759213
0.76026
0.7619
0.76583
0.770234
0.773906
0.778357
0.783128
0.78783
0.792159
0.795925
0.799066
0.801661
0.803936
0.806262
0.809163
0.81335
0.817429
0.821997
0.83161
0.848295
0.868823
0.889463
0.908364
0.928079
0.948083
0.967883
0.987096
1.00545
1.02274
1.03887
1.05375
1.06734
1.07965
1.09066
1.10039
1.10884
1.11605
1.12202
1.12676
1.1303
1.13263
1.13378
1.13373
1.1325
1.13008
1.12646
1.12164
1.1156
1.10832
1.09979
1.09
1.0789
1.06649
1.05275
1.03764
1.02118
1.00335
0.9842
0.963781
0.942207
0.919657
0.896393
0.87278
0.848888
0.818107
0.781458
0.745513
0.719774
0.703531
0.696617
0.698805
0.71021
0.728628
0.743577
0.753628
0.760579
0.76745
0.773775
0.779181
0.783394
0.78623
0.787591
0.787456
0.785881
0.782996
0.779013
0.77422
0.76898
0.763713
0.758856
0.754662
0.750295
0.746117
0.742154
0.739439
0.737761
0.736901
0.73672
0.73718
0.738334
0.740337
0.743427
0.747847
0.752626
0.757692
0.762718
0.768487
0.774722
0.78098
0.78684
0.791944
0.796009
0.798828
0.80027
0.792325
0.792302
0.792345
0.79262
0.793346
0.794738
0.796828
0.799479
0.802024
0.804951
0.808382
0.812288
0.816458
0.820664
0.824715
0.828493
0.831973
0.835236
0.838474
0.841987
0.846186
0.851583
0.858757
0.868349
0.879786
0.892691
0.9067
0.922182
0.938835
0.956219
0.97391
0.991524
1.00874
1.02531
1.04104
1.05581
1.06953
1.08213
1.09358
1.10387
1.11299
1.12095
1.12773
1.13336
1.13784
1.14117
1.14337
1.14443
1.14436
1.14315
1.14082
1.13734
1.13272
1.12694
1.12
1.11188
1.10258
1.09208
1.08037
1.06745
1.05331
1.03798
1.02148
1.00386
0.985211
0.965665
0.945407
0.924692
0.903851
0.883302
0.863514
0.841351
0.81709
0.794146
0.777958
0.770729
0.771627
0.776918
0.78331
0.787387
0.791166
0.795657
0.800328
0.804752
0.808592
0.811595
0.813584
0.81446
0.81419
0.812812
0.810425
0.807191
0.80333
0.799104
0.794797
0.790664
0.786829
0.783174
0.779615
0.776502
0.774146
0.772568
0.771706
0.7715
0.771933
0.773036
0.774882
0.777551
0.78104
0.785058
0.789267
0.793734
0.798562
0.803609
0.808613
0.813283
0.817355
0.820605
0.822865
0.824023
0.826356
0.826461
0.826727
0.827255
0.828166
0.829561
0.831454
0.833759
0.836297
0.839156
0.842385
0.845953
0.849753
0.853654
0.857543
0.861357
0.865097
0.868838
0.872737
0.877028
0.882012
0.888036
0.895446
0.904486
0.915029
0.926805
0.939704
0.953694
0.968573
0.984051
0.999814
1.01556
1.03103
1.04601
1.06031
1.07381
1.08642
1.09805
1.10868
1.11826
1.12677
1.13421
1.14058
1.14586
1.15006
1.15319
1.15524
1.15621
1.15612
1.15494
1.15269
1.14936
1.14495
1.13945
1.13285
1.12516
1.11636
1.10646
1.09546
1.08336
1.07018
1.05595
1.04071
1.02455
1.00754
0.989835
0.971615
0.953115
0.93463
0.916513
0.899172
0.883077
0.86839
0.853464
0.840874
0.832765
0.82905
0.827206
0.825733
0.826207
0.827991
0.830555
0.833452
0.836313
0.838841
0.840808
0.842051
0.842473
0.842034
0.840752
0.8387
0.835996
0.832803
0.829308
0.825708
0.822171
0.818799
0.815614
0.812658
0.810092
0.808074
0.806661
0.805854
0.80564
0.806016
0.806996
0.808605
0.810855
0.813698
0.816988
0.820568
0.824389
0.828418
0.83254
0.836578
0.840326
0.843588
0.846192
0.848004
0.848933
0.860281
0.860458
0.860847
0.861506
0.862502
0.863886
0.865667
0.867807
0.870246
0.872992
0.876048
0.879386
0.882946
0.886654
0.890448
0.894297
0.898218
0.90228
0.906607
0.911375
0.916797
0.923104
0.930504
0.939119
0.948918
0.959785
0.971617
0.984315
0.997714
1.0116
1.02573
1.03988
1.05382
1.06737
1.08038
1.09271
1.10428
1.115
1.12482
1.1337
1.14162
1.14856
1.1545
1.15943
1.16336
1.16628
1.16818
1.16907
1.16895
1.16781
1.16565
1.16247
1.15827
1.15305
1.14681
1.13954
1.13125
1.12195
1.11164
1.10035
1.0881
1.07492
1.06089
1.04607
1.03057
1.01452
0.998101
0.981523
0.965041
0.948947
0.933568
0.919242
0.906278
0.894961
0.885342
0.877326
0.871086
0.866918
0.864546
0.863715
0.864036
0.86512
0.866613
0.868207
0.869651
0.870744
0.87134
0.871347
0.87072
0.869463
0.867625
0.865291
0.862577
0.859619
0.856556
0.853513
0.850582
0.847825
0.84531
0.843136
0.841396
0.840146
0.839409
0.839191
0.839495
0.840327
0.841688
0.843564
0.845907
0.848628
0.851628
0.854836
0.858179
0.861556
0.864832
0.867856
0.870479
0.872571
0.874026
0.874772
0.894028
0.894244
0.894697
0.89542
0.89645
0.897815
0.899522
0.901555
0.90389
0.906517
0.909427
0.912598
0.915992
0.919568
0.923295
0.927165
0.931199
0.935458
0.940037
0.945067
0.950697
0.95708
0.964346
0.972567
0.981738
0.991799
1.00267
1.01423
1.02637
1.0389
1.05164
1.0644
1.077
1.08929
1.10112
1.11238
1.12298
1.13284
1.1419
1.15011
1.15746
1.1639
1.16942
1.17402
1.17767
1.18038
1.18214
1.18295
1.1828
1.18169
1.17962
1.1766
1.17262
1.16768
1.16178
1.15494
1.14715
1.13844
1.12881
1.1183
1.10693
1.09476
1.08185
1.06827
1.05414
1.03958
1.02475
1.00984
0.995062
0.980667
0.966909
0.954047
0.942315
0.931901
0.922897
0.915334
0.909289
0.904824
0.901817
0.90007
0.899319
0.899277
0.899671
0.900252
0.900811
0.901176
0.901219
0.900854
0.900035
0.898756
0.897046
0.894965
0.892594
0.890033
0.887385
0.884743
0.882191
0.879795
0.877622
0.875745
0.874228
0.873119
0.872445
0.872219
0.872446
0.873128
0.874255
0.875807
0.877739
0.879988
0.882481
0.885146
0.887907
0.890674
0.893338
0.895785
0.897901
0.899586
0.900757
0.901357
0.927558
0.927794
0.928276
0.929026
0.930062
0.931402
0.93305
0.935
0.93724
0.939759
0.942547
0.945586
0.948855
0.952331
0.956001
0.959868
0.963955
0.968314
0.973017
0.978158
0.983843
0.990174
0.997232
1.00506
1.01367
1.02301
1.03301
1.04359
1.05463
1.06599
1.07752
1.08907
1.1005
1.11166
1.12243
1.13272
1.14242
1.15148
1.15982
1.1674
1.17419
1.18016
1.18528
1.18954
1.19293
1.19544
1.19705
1.19777
1.1976
1.19653
1.19456
1.19168
1.18792
1.18325
1.17771
1.17128
1.16398
1.15584
1.14687
1.1371
1.12657
1.11534
1.10347
1.09103
1.07814
1.0649
1.05147
1.03801
1.0247
1.01175
0.999354
0.987721
0.977032
0.96743
0.95901
0.951824
0.945911
0.941273
0.937827
0.93543
0.933891
0.932998
0.93254
0.93232
0.932164
0.93193
0.931506
0.930815
0.92981
0.92848
0.926839
0.924927
0.922802
0.920536
0.918205
0.915884
0.913642
0.91154
0.909638
0.907992
0.906652
0.905657
0.905033
0.904793
0.904944
0.905483
0.906399
0.907668
0.909254
0.911105
0.913162
0.91536
0.91763
0.919893
0.922061
0.924045
0.925755
0.927114
0.928058
0.928541
0.960853
0.961096
0.961589
0.962344
0.963371
0.964681
0.966277
0.968155
0.97031
0.972733
0.975416
0.978346
0.981511
0.9849
0.98851
0.992349
0.996441
1.00082
1.00556
1.01071
1.01634
1.02254
1.02934
1.03679
1.04487
1.05355
1.06278
1.07249
1.08256
1.0929
1.10338
1.11387
1.12426
1.13441
1.14424
1.15363
1.16252
1.17082
1.17849
1.18548
1.19175
1.19726
1.202
1.20594
1.20907
1.21138
1.21286
1.2135
1.2133
1.21227
1.21039
1.20767
1.20411
1.19972
1.19451
1.18849
1.18167
1.17407
1.16572
1.15666
1.14692
1.13656
1.12565
1.11425
1.10248
1.09043
1.07823
1.06603
1.05399
1.04227
1.03104
1.02045
1.01066
1.00178
0.993888
0.987041
0.981258
0.976529
0.972789
0.969932
0.967817
0.966285
0.965172
0.964323
0.963597
0.962874
0.962061
0.961087
0.959911
0.958515
0.956903
0.955102
0.953151
0.951103
0.949016
0.946947
0.944953
0.943087
0.941398
0.939933
0.938731
0.937825
0.937235
0.936977
0.937053
0.937461
0.938188
0.939213
0.940503
0.942016
0.943701
0.945503
0.94736
0.949206
0.950969
0.952577
0.953961
0.955058
0.95582
0.956209
0.993904
0.994148
0.994641
0.995389
0.996398
0.997674
0.99922
1.00103
1.00311
1.00545
1.00804
1.01087
1.01394
1.01725
1.02079
1.02458
1.02863
1.03299
1.03768
1.04277
1.04829
1.05429
1.06082
1.06788
1.07546
1.08355
1.09208
1.10101
1.11024
1.11968
1.12923
1.13879
1.14824
1.1575
1.16647
1.17505
1.18319
1.19081
1.19786
1.20428
1.21006
1.21514
1.21951
1.22314
1.22603
1.22815
1.2295
1.23006
1.22985
1.22885
1.22706
1.22449
1.22113
1.21701
1.21212
1.20649
1.20012
1.19305
1.18529
1.17689
1.16789
1.15834
1.1483
1.13786
1.12709
1.11609
1.10499
1.0939
1.08296
1.0723
1.06207
1.05239
1.04338
1.03513
1.02772
1.02119
1.01555
1.01079
1.00687
1.00369
1.00116
0.999151
0.99754
0.996202
0.995025
0.993909
0.992775
0.991563
0.990232
0.988764
0.987157
0.985425
0.983597
0.98171
0.979807
0.977934
0.976135
0.974455
0.972935
0.97161
0.970515
0.969675
0.969108
0.968825
0.96883
0.969119
0.96968
0.970492
0.971529
0.972753
0.974123
0.97559
0.977101
0.978602
0.980032
0.981334
0.982452
0.983338
0.983953
0.984267
1.02671
1.02695
1.02744
1.02817
1.02916
1.0304
1.03189
1.03365
1.03565
1.03791
1.04041
1.04316
1.04614
1.04936
1.05282
1.05654
1.06053
1.06481
1.06942
1.07438
1.07975
1.08553
1.09176
1.09844
1.10556
1.11309
1.121
1.12922
1.1377
1.14634
1.15507
1.1638
1.17243
1.18088
1.18907
1.19693
1.20438
1.21136
1.21783
1.22374
1.22905
1.23373
1.23776
1.2411
1.24375
1.24569
1.24692
1.24741
1.24718
1.24621
1.24451
1.24208
1.23893
1.23506
1.23049
1.22522
1.21929
1.21271
1.20551
1.19773
1.18941
1.1806
1.17137
1.16179
1.15192
1.14187
1.13174
1.12162
1.11164
1.10191
1.09255
1.08366
1.07533
1.06766
1.06068
1.05445
1.04897
1.04423
1.0402
1.03681
1.03398
1.03162
1.02963
1.02792
1.02639
1.02496
1.02357
1.02216
1.02069
1.01915
1.01753
1.01584
1.0141
1.01233
1.01057
1.00885
1.0072
1.00566
1.00427
1.00306
1.00204
1.00125
1.0007
1.00039
1.00032
1.0005
1.00092
1.00155
1.00237
1.00335
1.00445
1.00563
1.00685
1.00807
1.00922
1.01027
1.01118
1.01189
1.01239
1.01264
1.05927
1.05951
1.05999
1.0607
1.06166
1.06286
1.06431
1.06601
1.06795
1.07013
1.07255
1.0752
1.0781
1.08123
1.0846
1.08823
1.09213
1.09631
1.10079
1.10561
1.11078
1.11632
1.12225
1.12856
1.13523
1.14226
1.14959
1.15719
1.16499
1.17292
1.18092
1.1889
1.19679
1.20452
1.21202
1.21921
1.22603
1.23244
1.23837
1.2438
1.24868
1.25298
1.25668
1.25975
1.26218
1.26396
1.26506
1.26549
1.26524
1.26431
1.2627
1.26041
1.25744
1.25382
1.24954
1.24463
1.2391
1.23298
1.22631
1.2191
1.21141
1.20329
1.1948
1.18599
1.17694
1.16774
1.15846
1.14921
1.14007
1.13116
1.12256
1.11436
1.10664
1.09947
1.0929
1.08695
1.08164
1.07696
1.07288
1.06936
1.06633
1.06372
1.06145
1.05946
1.05766
1.05598
1.05438
1.0528
1.05122
1.04962
1.04798
1.04632
1.04463
1.04295
1.04129
1.03968
1.03815
1.03673
1.03544
1.03431
1.03335
1.03259
1.03204
1.0317
1.03157
1.03166
1.03194
1.03241
1.03305
1.03381
1.03469
1.03564
1.03662
1.03759
1.03852
1.03936
1.04009
1.04066
1.04106
1.04126
1.0916
1.09183
1.0923
1.09299
1.09392
1.09509
1.09649
1.09812
1.1
1.1021
1.10444
1.10701
1.10982
1.11285
1.11613
1.11966
1.12344
1.1275
1.13184
1.13648
1.14144
1.14673
1.15235
1.1583
1.16457
1.17112
1.17793
1.18495
1.19214
1.19944
1.20678
1.21409
1.22132
1.2284
1.23526
1.24185
1.2481
1.25398
1.25942
1.26441
1.26889
1.27284
1.27623
1.27905
1.28127
1.28289
1.28388
1.28425
1.28399
1.28309
1.28156
1.2794
1.27662
1.27323
1.26923
1.26465
1.25951
1.25382
1.24763
1.24096
1.23385
1.22636
1.21853
1.21043
1.20212
1.19367
1.18516
1.17667
1.16829
1.16009
1.15217
1.14458
1.13741
1.13069
1.12449
1.11881
1.11368
1.10909
1.10501
1.10142
1.09825
1.09547
1.09301
1.0908
1.08879
1.08693
1.08516
1.08346
1.08178
1.08012
1.07846
1.07681
1.07516
1.07354
1.07196
1.07044
1.069
1.06766
1.06645
1.06537
1.06446
1.06372
1.06317
1.0628
1.06261
1.06261
1.06278
1.06311
1.06359
1.06418
1.06486
1.06561
1.06638
1.06716
1.0679
1.06857
1.06915
1.06961
1.06993
1.07009
1.1237
1.12392
1.12437
1.12504
1.12594
1.12707
1.12843
1.13001
1.13181
1.13385
1.1361
1.13859
1.1413
1.14424
1.14741
1.15082
1.15448
1.1584
1.16258
1.16704
1.17178
1.17681
1.18213
1.18774
1.19361
1.19972
1.20605
1.21255
1.21919
1.22591
1.23266
1.23937
1.24601
1.25249
1.25878
1.26482
1.27056
1.27594
1.28094
1.28551
1.28962
1.29325
1.29636
1.29894
1.30097
1.30244
1.30333
1.30364
1.30337
1.3025
1.30105
1.29902
1.29641
1.29323
1.2895
1.28523
1.28045
1.27517
1.26942
1.26325
1.25668
1.24976
1.24254
1.23508
1.22743
1.21966
1.21184
1.20403
1.19631
1.18876
1.18143
1.17439
1.1677
1.16141
1.15554
1.15013
1.14519
1.1407
1.13666
1.13304
1.1298
1.12691
1.1243
1.12194
1.11978
1.11778
1.11588
1.11407
1.11232
1.11062
1.10894
1.10729
1.10567
1.10409
1.10257
1.10111
1.09974
1.09847
1.09731
1.09628
1.0954
1.09467
1.09411
1.09371
1.09347
1.09339
1.09346
1.09368
1.09401
1.09445
1.09497
1.09554
1.09615
1.09676
1.09734
1.09788
1.09833
1.0987
1.09895
1.09908
1.15557
1.15579
1.15622
1.15687
1.15774
1.15883
1.16014
1.16166
1.1634
1.16536
1.16754
1.16994
1.17255
1.17539
1.17845
1.18174
1.18527
1.18903
1.19304
1.19731
1.20183
1.2066
1.21163
1.2169
1.2224
1.22811
1.23399
1.24002
1.24616
1.25235
1.25856
1.26474
1.27083
1.27679
1.28256
1.2881
1.29336
1.2983
1.30288
1.30707
1.31085
1.31417
1.31702
1.31938
1.32123
1.32256
1.32336
1.32362
1.32333
1.3225
1.32113
1.31921
1.31677
1.3138
1.31031
1.30634
1.30188
1.29698
1.29165
1.28593
1.27985
1.27346
1.2668
1.25992
1.25287
1.24571
1.2385
1.2313
1.22418
1.21719
1.2104
1.20385
1.19761
1.19169
1.18615
1.18099
1.17623
1.17187
1.16789
1.16428
1.16101
1.15805
1.15535
1.15289
1.15062
1.14851
1.14652
1.14464
1.14283
1.14108
1.13938
1.13774
1.13614
1.13459
1.13311
1.13171
1.13038
1.12916
1.12804
1.12705
1.12619
1.12546
1.12489
1.12445
1.12416
1.12402
1.124
1.12411
1.12433
1.12464
1.12502
1.12545
1.12592
1.12638
1.12684
1.12725
1.12761
1.1279
1.1281
1.1282
1.18722
1.18743
1.18785
1.18848
1.18932
1.19037
1.19163
1.1931
1.19477
1.19666
1.19876
1.20107
1.20359
1.20632
1.20927
1.21243
1.21581
1.21942
1.22326
1.22732
1.23162
1.23614
1.24089
1.24584
1.25099
1.25632
1.26179
1.26738
1.27306
1.27878
1.28451
1.29019
1.29579
1.30127
1.30656
1.31165
1.31647
1.32101
1.32521
1.32906
1.33252
1.33556
1.33817
1.34033
1.34201
1.34321
1.34392
1.34414
1.34384
1.34305
1.34174
1.33994
1.33765
1.33487
1.33162
1.32791
1.32377
1.31922
1.31427
1.30897
1.30335
1.29743
1.29128
1.28492
1.27841
1.2718
1.26515
1.2585
1.25191
1.24543
1.23912
1.23302
1.22717
1.22161
1.21636
1.21145
1.20687
1.20264
1.19875
1.19518
1.19191
1.18892
1.18617
1.18364
1.1813
1.17912
1.17706
1.17512
1.17327
1.17149
1.16978
1.16813
1.16655
1.16503
1.16358
1.16221
1.16093
1.15974
1.15865
1.15768
1.15683
1.15611
1.15552
1.15505
1.15472
1.15451
1.15442
1.15444
1.15456
1.15476
1.15502
1.15533
1.15567
1.15603
1.15637
1.15669
1.15696
1.15718
1.15734
1.15742
1.21867
1.21887
1.21928
1.21988
1.22069
1.2217
1.22291
1.22432
1.22594
1.22775
1.22977
1.23199
1.23441
1.23703
1.23986
1.24289
1.24613
1.24958
1.25324
1.25711
1.26118
1.26546
1.26993
1.27458
1.2794
1.28437
1.28947
1.29466
1.29992
1.30521
1.31049
1.31573
1.32088
1.32592
1.33079
1.33545
1.33989
1.34405
1.34791
1.35143
1.3546
1.35739
1.35978
1.36174
1.36327
1.36436
1.36499
1.36516
1.36486
1.36409
1.36286
1.36116
1.35901
1.35641
1.35338
1.34993
1.34607
1.34184
1.33725
1.33233
1.32712
1.32165
1.31595
1.31007
1.30406
1.29795
1.29179
1.28563
1.27952
1.27351
1.26763
1.26194
1.25645
1.25122
1.24625
1.24156
1.23718
1.23309
1.22929
1.22578
1.22253
1.21954
1.21677
1.21421
1.21182
1.20959
1.2075
1.20551
1.20363
1.20183
1.20012
1.19847
1.1969
1.1954
1.19397
1.19263
1.19137
1.19021
1.18915
1.18819
1.18735
1.18662
1.18602
1.18552
1.18515
1.18489
1.18473
1.18468
1.1847
1.18481
1.18497
1.18518
1.18542
1.18568
1.18593
1.18617
1.18637
1.18654
1.18665
1.18671
1.24991
1.25011
1.2505
1.25108
1.25185
1.25282
1.25399
1.25535
1.2569
1.25864
1.26058
1.26271
1.26503
1.26754
1.27025
1.27315
1.27625
1.27953
1.28301
1.28669
1.29054
1.29458
1.29879
1.30316
1.30767
1.31231
1.31705
1.32187
1.32675
1.33164
1.33652
1.34135
1.3461
1.35073
1.35521
1.3595
1.36357
1.36739
1.37093
1.37417
1.37707
1.37962
1.3818
1.38359
1.38498
1.38596
1.38652
1.38665
1.38634
1.3856
1.38444
1.38284
1.38082
1.37839
1.37556
1.37234
1.36875
1.36482
1.36055
1.35599
1.35116
1.34609
1.34081
1.33537
1.3298
1.32413
1.31843
1.31272
1.30704
1.30145
1.29597
1.29064
1.28549
1.28055
1.27585
1.27138
1.26718
1.26323
1.25954
1.25611
1.25291
1.24994
1.24717
1.2446
1.24219
1.23993
1.23781
1.23581
1.23391
1.2321
1.23038
1.22874
1.22717
1.22569
1.22428
1.22296
1.22173
1.22059
1.21954
1.2186
1.21775
1.21702
1.2164
1.21588
1.21547
1.21516
1.21495
1.21482
1.21477
1.2148
1.21488
1.215
1.21516
1.21533
1.2155
1.21567
1.21582
1.21594
1.21603
1.21607
1.28096
1.28115
1.28152
1.28208
1.28283
1.28376
1.28488
1.28618
1.28766
1.28934
1.29119
1.29323
1.29545
1.29786
1.30045
1.30321
1.30616
1.30929
1.3126
1.31608
1.31972
1.32353
1.32749
1.33159
1.33581
1.34014
1.34456
1.34904
1.35355
1.35808
1.36259
1.36705
1.37143
1.3757
1.37982
1.38376
1.3875
1.39101
1.39426
1.39723
1.39989
1.40222
1.40421
1.40585
1.40711
1.40799
1.40847
1.40857
1.40826
1.40755
1.40644
1.40494
1.40304
1.40077
1.39812
1.39512
1.39178
1.38812
1.38416
1.37992
1.37544
1.37073
1.36584
1.36079
1.35562
1.35037
1.34507
1.33976
1.33448
1.32927
1.32415
1.31915
1.31432
1.30966
1.3052
1.30095
1.29692
1.29312
1.28955
1.2862
1.28306
1.28013
1.27738
1.27481
1.27241
1.27014
1.26801
1.266
1.26409
1.26228
1.26056
1.25892
1.25737
1.2559
1.25451
1.25321
1.25199
1.25086
1.24983
1.24889
1.24805
1.24731
1.24667
1.24613
1.24568
1.24533
1.24507
1.24489
1.24478
1.24473
1.24474
1.24479
1.24487
1.24497
1.24509
1.2452
1.2453
1.24538
1.24544
1.24547
1.31183
1.312
1.31236
1.3129
1.31361
1.31451
1.31558
1.31682
1.31825
1.31985
1.32162
1.32357
1.3257
1.32799
1.33046
1.3331
1.3359
1.33887
1.34201
1.3453
1.34874
1.35233
1.35605
1.35989
1.36384
1.36788
1.372
1.37616
1.38035
1.38455
1.38872
1.39284
1.39687
1.40081
1.4046
1.40823
1.41167
1.41489
1.41787
1.42059
1.42303
1.42517
1.42698
1.42847
1.42961
1.4304
1.43083
1.43089
1.43058
1.42989
1.42884
1.42742
1.42565
1.42352
1.42105
1.41825
1.41513
1.41172
1.40804
1.4041
1.39993
1.39556
1.39102
1.38633
1.38153
1.37665
1.37173
1.36679
1.36186
1.35699
1.3522
1.34752
1.34297
1.33857
1.33434
1.33029
1.32644
1.32278
1.31933
1.31607
1.31301
1.31012
1.30742
1.30487
1.30248
1.30022
1.29809
1.29608
1.29417
1.29237
1.29065
1.28903
1.28749
1.28603
1.28466
1.28337
1.28216
1.28105
1.28002
1.27909
1.27825
1.2775
1.27684
1.27628
1.27581
1.27542
1.27511
1.27488
1.27471
1.27461
1.27456
1.27455
1.27457
1.27461
1.27467
1.27473
1.27479
1.27485
1.27488
1.2749
1.34251
1.34268
1.34302
1.34354
1.34422
1.34507
1.3461
1.34729
1.34865
1.35018
1.35188
1.35374
1.35577
1.35795
1.3603
1.36281
1.36548
1.36829
1.37126
1.37437
1.37762
1.38099
1.38449
1.38809
1.39178
1.39555
1.39938
1.40326
1.40715
1.41103
1.41489
1.4187
1.42243
1.42605
1.42955
1.43289
1.43605
1.43901
1.44175
1.44424
1.44648
1.44843
1.45009
1.45144
1.45247
1.45318
1.45355
1.45358
1.45326
1.45261
1.45161
1.45027
1.4486
1.44661
1.4443
1.44168
1.43878
1.4356
1.43217
1.42851
1.42463
1.42057
1.41634
1.41198
1.40752
1.40298
1.39839
1.39379
1.38919
1.38464
1.38015
1.37575
1.37146
1.3673
1.36329
1.35944
1.35576
1.35225
1.34891
1.34576
1.34277
1.33995
1.33729
1.33478
1.33241
1.33017
1.32806
1.32605
1.32416
1.32236
1.32066
1.31904
1.31752
1.31607
1.31471
1.31344
1.31225
1.31114
1.31012
1.30919
1.30835
1.30759
1.30693
1.30634
1.30584
1.30542
1.30508
1.3048
1.30459
1.30444
1.30433
1.30427
1.30424
1.30424
1.30425
1.30427
1.3043
1.30432
1.30434
1.30435
1.37302
1.37319
1.37351
1.374
1.37466
1.37547
1.37645
1.37759
1.37889
1.38035
1.38197
1.38374
1.38567
1.38776
1.38999
1.39237
1.3949
1.39757
1.40037
1.4033
1.40636
1.40954
1.41282
1.41619
1.41964
1.42316
1.42673
1.43033
1.43394
1.43755
1.44112
1.44464
1.44808
1.45143
1.45465
1.45772
1.46063
1.46336
1.46587
1.46816
1.4702
1.47199
1.4735
1.47473
1.47566
1.47629
1.4766
1.47661
1.47629
1.47566
1.47471
1.47345
1.47188
1.47001
1.46785
1.46541
1.4627
1.45974
1.45654
1.45313
1.44952
1.44573
1.4418
1.43774
1.43359
1.42935
1.42508
1.42078
1.41648
1.41222
1.408
1.40387
1.39982
1.39589
1.39209
1.38842
1.3849
1.38153
1.37832
1.37527
1.37236
1.36961
1.36701
1.36454
1.36221
1.36
1.35791
1.35592
1.35404
1.35226
1.35057
1.34898
1.34746
1.34603
1.34469
1.34343
1.34225
1.34115
1.34014
1.33921
1.33836
1.3376
1.33692
1.33632
1.3358
1.33535
1.33497
1.33466
1.33441
1.33422
1.33407
1.33396
1.33389
1.33384
1.33382
1.3338
1.3338
1.33381
1.33381
1.33381
1.40337
1.40353
1.40384
1.40431
1.40493
1.40571
1.40665
1.40773
1.40897
1.41036
1.4119
1.41359
1.41543
1.41741
1.41953
1.42178
1.42418
1.4267
1.42935
1.43212
1.43499
1.43798
1.44105
1.44421
1.44744
1.45072
1.45405
1.4574
1.46075
1.46409
1.4674
1.47066
1.47384
1.47692
1.47989
1.48273
1.48541
1.48791
1.49022
1.49231
1.49418
1.49582
1.49719
1.49831
1.49915
1.49971
1.49998
1.49996
1.49964
1.49904
1.49813
1.49694
1.49546
1.49371
1.49168
1.4894
1.48687
1.4841
1.48112
1.47794
1.47458
1.47105
1.46739
1.4636
1.45973
1.45578
1.45178
1.44776
1.44374
1.43974
1.43579
1.43189
1.42808
1.42436
1.42075
1.41726
1.41389
1.41066
1.40757
1.40462
1.40181
1.39913
1.39659
1.39418
1.39189
1.38971
1.38765
1.38569
1.38383
1.38207
1.3804
1.37882
1.37732
1.37591
1.37458
1.37333
1.37216
1.37108
1.37007
1.36914
1.3683
1.36753
1.36684
1.36622
1.36568
1.36521
1.36481
1.36446
1.36418
1.36395
1.36376
1.36362
1.36351
1.36343
1.36337
1.36333
1.3633
1.36329
1.36328
1.36328
1.43356
1.43371
1.43401
1.43446
1.43505
1.43579
1.43668
1.43772
1.4389
1.44022
1.44169
1.44329
1.44504
1.44691
1.44892
1.45106
1.45333
1.45571
1.45821
1.46081
1.46352
1.46632
1.46921
1.47216
1.47518
1.47824
1.48134
1.48446
1.48757
1.49067
1.49374
1.49675
1.49969
1.50254
1.50528
1.50789
1.51035
1.51265
1.51477
1.51669
1.51841
1.5199
1.52115
1.52216
1.52292
1.52341
1.52364
1.5236
1.52329
1.5227
1.52184
1.52072
1.51932
1.51768
1.51578
1.51364
1.51127
1.50869
1.5059
1.50293
1.4998
1.49651
1.49309
1.48956
1.48594
1.48225
1.47851
1.47475
1.47098
1.46723
1.46351
1.45984
1.45623
1.45271
1.44929
1.44596
1.44275
1.43966
1.43669
1.43384
1.43112
1.42852
1.42604
1.42369
1.42144
1.41931
1.41728
1.41536
1.41353
1.41179
1.41014
1.40858
1.4071
1.40571
1.40439
1.40315
1.402
1.40092
1.39992
1.39899
1.39815
1.39737
1.39668
1.39605
1.39549
1.395
1.39457
1.39421
1.39389
1.39363
1.39341
1.39324
1.3931
1.39299
1.3929
1.39284
1.39279
1.39276
1.39274
1.39274
1.4636
1.46375
1.46403
1.46446
1.46502
1.46573
1.46658
1.46756
1.46868
1.46994
1.47133
1.47286
1.47451
1.47629
1.47819
1.48022
1.48235
1.4846
1.48696
1.48941
1.49196
1.49458
1.49729
1.50005
1.50287
1.50573
1.50862
1.51151
1.51441
1.51728
1.52012
1.52291
1.52563
1.52826
1.53079
1.53319
1.53546
1.53758
1.53952
1.54129
1.54285
1.54421
1.54536
1.54627
1.54695
1.54739
1.54758