/*--------------------------------*- C++ -*----------------------------------*\
| =========                 |                                                 |
| \\      /  F ield         | OpenFOAM: The Open Source CFD Toolbox           |
|  \\    /   O peration     | Version:  2406                                  |
|   \\  /    A nd           | Website:  www.openfoam.com                      |
|    \\/     M anipulation  |                                                 |
\*---------------------------------------------------------------------------*/
FoamFile
{
    version     2.0;
    format      ascii;
    arch        "LSB;label=32;scalar=64";
    class       volScalarField;
    location    "4.45";
    object      C;
}
// * * * * * * * * * * * * * * * * * * * * * * * * * * * * * * * * * * * * * //

dimensions      [1 -3 0 0 0 0 0];

internalField   nonuniform List<scalar> 
14400
(
0.377284
0.372585
0.365516
0.357993
0.35136
0.346516
0.34404
0.344279
0.347406
0.353436
0.36223
0.373466
0.386577
0.400606
0.4138
0.422067
0.417902
0.407492
0.395444
0.384251
0.37531
0.369501
0.367443
0.36962
0.376439
0.388276
0.405494
0.428457
0.457531
0.493067
0.535351
0.584477
0.639981
0.699257
0.743474
0.772328
0.796759
0.818225
0.837054
0.853502
0.867769
0.880014
0.890361
0.898911
0.905739
0.910907
0.914459
0.916427
0.916829
0.915673
0.912955
0.908661
0.902763
0.895223
0.885988
0.874988
0.862136
0.847323
0.830413
0.811233
0.789571
0.765154
0.73764
0.701067
0.647819
0.586705
0.530877
0.481904
0.43978
0.404173
0.374676
0.350882
0.332421
0.318972
0.310268
0.306096
0.306294
0.310745
0.319365
0.332099
0.348891
0.36966
0.394233
0.422182
0.452117
0.476427
0.4896
0.494978
0.494417
0.487048
0.469167
0.445027
0.421897
0.401295
0.383762
0.369492
0.358477
0.350561
0.345456
0.342736
0.341842
0.342105
0.342815
0.343372
0.343549
0.343617
0.344216
0.346095
0.349966
0.356432
0.36597
0.378933
0.395546
0.415904
0.439912
0.467137
0.496102
0.518642
0.530312
0.535409
0.392929
0.386191
0.377345
0.368517
0.360972
0.355521
0.352689
0.352789
0.355977
0.362262
0.371509
0.38341
0.397423
0.412624
0.427217
0.436007
0.432515
0.420313
0.40664
0.394306
0.384549
0.378153
0.375691
0.377622
0.384339
0.396207
0.413585
0.436831
0.466309
0.502365
0.545282
0.595128
0.651145
0.708203
0.748326
0.775715
0.799725
0.820862
0.839435
0.855682
0.869791
0.881911
0.89216
0.900631
0.9074
0.912523
0.916044
0.917992
0.918387
0.917235
0.914532
0.910264
0.904406
0.896919
0.887752
0.876839
0.864097
0.849421
0.832681
0.813716
0.792325
0.768251
0.741166
0.707514
0.657637
0.596335
0.540009
0.490467
0.447796
0.411703
0.381793
0.357667
0.338955
0.325337
0.316546
0.312371
0.312649
0.317263
0.326133
0.339199
0.356408
0.377671
0.40279
0.431259
0.461438
0.484267
0.495777
0.500918
0.50066
0.494781
0.479449
0.455505
0.431884
0.410763
0.392826
0.378301
0.367194
0.359364
0.354531
0.352264
0.351975
0.352918
0.354212
0.355006
0.354934
0.354408
0.354322
0.355593
0.359006
0.365195
0.374641
0.387685
0.40454
0.425279
0.449766
0.477414
0.506087
0.525917
0.535817
0.540507
0.422943
0.412638
0.400544
0.38933
0.380094
0.373503
0.369997
0.369838
0.37315
0.379935
0.390063
0.403231
0.418914
0.436118
0.452238
0.458515
0.456788
0.44436
0.428469
0.414236
0.403
0.395494
0.392252
0.393704
0.400224
0.41216
0.429858
0.453668
0.48394
0.521002
0.565098
0.616248
0.673362
0.723012
0.756257
0.782399
0.805565
0.826062
0.844141
0.86
0.873803
0.885679
0.895735
0.904054
0.910705
0.915741
0.9192
0.921112
0.921492
0.920346
0.917673
0.913458
0.907677
0.900294
0.891262
0.88052
0.867992
0.853582
0.837174
0.818626
0.79776
0.774359
0.748141
0.718232
0.675114
0.615382
0.558347
0.507701
0.463943
0.426879
0.396146
0.371354
0.352139
0.338182
0.329217
0.325033
0.325471
0.330413
0.339779
0.353511
0.37155
0.393793
0.419995
0.449423
0.479262
0.498048
0.507513
0.512255
0.51241
0.508017
0.497565
0.476298
0.451792
0.42969
0.410976
0.395953
0.384662
0.377001
0.372721
0.371391
0.372382
0.37483
0.377526
0.378909
0.378219
0.376275
0.374672
0.374656
0.377126
0.382754
0.392017
0.405227
0.422553
0.444032
0.469436
0.497857
0.523588
0.538128
0.546251
0.550294
0.456874
0.449062
0.434013
0.419974
0.408546
0.400413
0.395984
0.395475
0.39898
0.406491
0.417874
0.432782
0.450617
0.469896
0.482766
0.485672
0.485159
0.477446
0.460256
0.443851
0.430662
0.421609
0.417254
0.41802
0.424262
0.43631
0.454491
0.479138
0.510572
0.549064
0.594653
0.646664
0.701138
0.739806
0.76744
0.79206
0.814072
0.833681
0.851065
0.866376
0.879742
0.891269
0.901046
0.909146
0.915627
0.920535
0.923905
0.925762
0.926121
0.924987
0.922357
0.918218
0.912549
0.905318
0.896482
0.885988
0.873768
0.859741
0.843809
0.825852
0.805732
0.783284
0.758322
0.730659
0.69603
0.644415
0.586098
0.533783
0.488426
0.449922
0.41796
0.392173
0.372201
0.357731
0.348502
0.344306
0.344983
0.350417
0.360526
0.375249
0.394513
0.418181
0.44593
0.476659
0.502472
0.515821
0.523893
0.52818
0.528709
0.52559
0.519034
0.504952
0.48106
0.457975
0.438223
0.4225
0.410926
0.403505
0.400059
0.400176
0.403204
0.408234
0.413686
0.416301
0.414327
0.409604
0.405406
0.403346
0.404359
0.409138
0.418143
0.431609
0.449603
0.472079
0.498406
0.526187
0.544166
0.554098
0.560763
0.564124
0.489711
0.487153
0.475881
0.459821
0.446093
0.436174
0.430665
0.429758
0.433521
0.441941
0.454871
0.471695
0.491133
0.507477
0.51389
0.515889
0.515871
0.513294
0.501156
0.482945
0.467555
0.456624
0.450876
0.45078
0.456685
0.468898
0.487724
0.513469
0.546396
0.586718
0.634114
0.68646
0.727628
0.756341
0.78147
0.80433
0.824982
0.843525
0.860063
0.874697
0.887518
0.898608
0.908034
0.915856
0.92212
0.926867
0.930123
0.931911
0.932243
0.931123
0.928548
0.924508
0.918983
0.911946
0.90336
0.893181
0.881352
0.867806
0.852466
0.835242
0.816031
0.794723
0.771204
0.74537
0.717009
0.677893
0.622234
0.568733
0.521495
0.481139
0.447563
0.420456
0.399475
0.384316
0.374729
0.370514
0.371511
0.3776
0.388692
0.404717
0.42556
0.450947
0.480099
0.509856
0.527487
0.537232
0.544057
0.547864
0.548655
0.546549
0.541798
0.534397
0.518886
0.495422
0.474493
0.457963
0.44598
0.438825
0.436474
0.438518
0.444236
0.452924
0.462942
0.467423
0.463496
0.454187
0.446315
0.441559
0.440634
0.444303
0.453013
0.466851
0.48561
0.509224
0.535834
0.554787
0.56538
0.573205
0.578582
0.581314
0.523677
0.523007
0.518952
0.507417
0.492279
0.480568
0.473984
0.47269
0.476751
0.486142
0.500782
0.51887
0.535205
0.54329
0.546279
0.548124
0.548655
0.547891
0.543601
0.53021
0.513483
0.500609
0.493287
0.49221
0.497753
0.510193
0.529809
0.556868
0.591448
0.633657
0.681487
0.721603
0.750354
0.774912
0.797767
0.818807
0.838003
0.855373
0.870964
0.88483
0.897027
0.907609
0.916627
0.924123
0.930133
0.934688
0.93781
0.939516
0.939816
0.938713
0.936206
0.932283
0.926929
0.920122
0.911833
0.902023
0.890651
0.877666
0.863009
0.846618
0.828428
0.808373
0.786399
0.762476
0.736615
0.707805
0.666648
0.612811
0.563467
0.520883
0.485352
0.456626
0.434389
0.418358
0.408314
0.404072
0.405471
0.412371
0.424669
0.44228
0.465007
0.492296
0.522221
0.54287
0.553515
0.561523
0.567239
0.570563
0.571497
0.570152
0.566755
0.56166
0.55431
0.540101
0.519086
0.502172
0.489608
0.482669
0.481603
0.485895
0.494119
0.505581
0.511544
0.513467
0.512082
0.506743
0.496053
0.488789
0.485595
0.487961
0.496415
0.510785
0.529874
0.553536
0.570634
0.580811
0.588575
0.59476
0.599046
0.601235
0.558314
0.557999
0.557479
0.553952
0.545301
0.532698
0.525562
0.524004
0.528327
0.53828
0.55408
0.566823
0.574196
0.577251
0.579811
0.581672
0.582732
0.583029
0.582733
0.578562
0.567286
0.553333
0.544483
0.542443
0.54767
0.560396
0.580875
0.609373
0.645179
0.687849
0.723511
0.750209
0.773207
0.795186
0.81588
0.835129
0.852847
0.869002
0.88359
0.896631
0.908149
0.918176
0.926742
0.933875
0.939601
0.943941
0.946912
0.948527
0.948792
0.947709
0.945277
0.941488
0.936329
0.929781
0.921824
0.912429
0.901564
0.889196
0.875285
0.859794
0.842688
0.823942
0.803545
0.781518
0.757924
0.732887
0.704299
0.664107
0.614187
0.56937
0.531717
0.50115
0.477434
0.46034
0.449732
0.445455
0.44734
0.455194
0.468856
0.488233
0.512865
0.540938
0.562156
0.573511
0.581612
0.588104
0.592814
0.595652
0.596619
0.595807
0.59341
0.589724
0.585148
0.579269
0.568399
0.553994
0.54081
0.534047
0.534208
0.540527
0.547019
0.550936
0.551241
0.551087
0.551858
0.552156
0.548934
0.543301
0.53802
0.539153
0.547376
0.56231
0.578991
0.592195
0.600426
0.607291
0.61335
0.618215
0.621606
0.623345
0.593266
0.593197
0.593155
0.59334
0.592156
0.588029
0.583447
0.581959
0.586368
0.594418
0.601988
0.606652
0.60915
0.6117
0.614042
0.616019
0.617575
0.61876
0.619737
0.620774
0.61896
0.612836
0.603613
0.601177
0.606309
0.619347
0.640443
0.67004
0.70431
0.733319
0.755973
0.7767
0.797077
0.816744
0.835439
0.852981
0.869256
0.884195
0.897765
0.909954
0.920764
0.930204
0.938289
0.945034
0.950454
0.954563
0.957371
0.958887
0.959114
0.958055
0.955707
0.952063
0.947116
0.940851
0.933253
0.924303
0.913982
0.902268
0.889141
0.874585
0.85859
0.841161
0.822322
0.802127
0.780674
0.758118
0.734686
0.707988
0.671614
0.626233
0.586879
0.554453
0.529106
0.510742
0.499451
0.49513
0.497599
0.506509
0.521499
0.542496
0.567796
0.586947
0.59768
0.604976
0.611318
0.616466
0.62026
0.622613
0.623518
0.623047
0.621355
0.618678
0.61533
0.611694
0.608022
0.60169
0.594702
0.589698
0.588436
0.589289
0.589701
0.588157
0.587415
0.587361
0.588061
0.589474
0.591733
0.592092
0.592205
0.594701
0.601217
0.609921
0.618087
0.623671
0.629233
0.634578
0.639318
0.643142
0.645819
0.647195
0.628287
0.628368
0.628602
0.62913
0.630167
0.631769
0.631893
0.632608
0.63522
0.638448
0.640064
0.641871
0.644045
0.646358
0.648638
0.650788
0.652787
0.654699
0.656679
0.658984
0.661986
0.664276
0.664578
0.666116
0.671812
0.685052
0.705095
0.72778
0.74916
0.76717
0.785249
0.803543
0.821657
0.839275
0.85615
0.872101
0.886999
0.900758
0.913321
0.924656
0.934747
0.943587
0.951176
0.957518
0.96262
0.966486
0.969123
0.970535
0.970724
0.96969
0.967431
0.963943
0.95922
0.953253
0.946033
0.937549
0.927792
0.916753
0.904426
0.890813
0.875926
0.85979
0.842453
0.823994
0.804529
0.784224
0.763306
0.74207
0.718967
0.688434
0.650108
0.616577
0.589716
0.569847
0.557778
0.55339
0.556551
0.56653
0.582065
0.603099
0.617758
0.626144
0.631944
0.637396
0.642216
0.646184
0.649148
0.651023
0.651793
0.651508
0.650285
0.648304
0.645798
0.643045
0.64034
0.638003
0.635781
0.63299
0.63035
0.627356
0.625043
0.623596
0.622899
0.622882
0.623551
0.624926
0.627102
0.630235
0.634167
0.637904
0.642014
0.645698
0.649553
0.65385
0.658257
0.662469
0.666202
0.669218
0.671332
0.67242
0.663225
0.663387
0.663756
0.664412
0.665456
0.666948
0.668857
0.670792
0.672167
0.673391
0.674902
0.676721
0.678802
0.681046
0.683364
0.685709
0.688086
0.690568
0.693298
0.696495
0.700467
0.70562
0.712373
0.718911
0.727404
0.739523
0.753959
0.768406
0.782854
0.798287
0.814309
0.830564
0.846734
0.862548
0.877786
0.892274
0.905883
0.918515
0.930104
0.940603
0.949981
0.95822
0.965309
0.971243
0.976019
0.979638
0.9821
0.983406
0.983556
0.982549
0.980384
0.977058
0.972567
0.966908
0.960076
0.952069
0.942885
0.932525
0.920997
0.908316
0.894509
0.879619
0.863708
0.846868
0.829224
0.810944
0.792245
0.773398
0.754734
0.735973
0.712397
0.685316
0.658392
0.637106
0.624442
0.619825
0.623479
0.634016
0.645384
0.654156
0.658764
0.66255
0.666555
0.670448
0.673966
0.676905
0.679123
0.680538
0.681122
0.680907
0.679974
0.678454
0.676515
0.674346
0.672136
0.670022
0.667973
0.665848
0.66348
0.661254
0.659476
0.658287
0.657702
0.657716
0.658336
0.659576
0.661467
0.664018
0.667115
0.670475
0.67371
0.676969
0.680367
0.68392
0.687477
0.690838
0.693803
0.696195
0.697871
0.698734
0.698002
0.6982
0.698622
0.699307
0.700296
0.701596
0.703145
0.704764
0.706271
0.707772
0.709432
0.711309
0.713397
0.71566
0.718064
0.720596
0.723281
0.726191
0.729449
0.733232
0.737768
0.743321
0.750146
0.75839
0.767987
0.77839
0.789591
0.801846
0.814968
0.828814
0.843136
0.857671
0.872167
0.886397
0.90017
0.913327
0.925742
0.937317
0.947978
0.95767
0.966355
0.974004
0.980598
0.986125
0.990576
0.993947
0.996233
0.997433
0.997545
0.996567
0.994498
0.991337
0.987083
0.981736
0.975296
0.967766
0.959152
0.949465
0.938721
0.926946
0.914177
0.900468
0.885891
0.870544
0.854554
0.838083
0.821331
0.804543
0.788004
0.772045
0.757032
0.740868
0.723839
0.708233
0.696787
0.691123
0.690272
0.692324
0.694606
0.695064
0.696544
0.698736
0.701279
0.703877
0.706294
0.708346
0.709903
0.710883
0.711252
0.711022
0.710249
0.709023
0.70746
0.70569
0.703833
0.701975
0.700131
0.698276
0.696414
0.694705
0.693321
0.692372
0.691907
0.691945
0.692499
0.693575
0.695171
0.697257
0.699739
0.702458
0.70525
0.708103
0.711025
0.713987
0.716891
0.719602
0.721978
0.723887
0.725223
0.725911
0.732579
0.73279
0.733223
0.733897
0.734824
0.735994
0.737363
0.738847
0.74038
0.741992
0.743747
0.745684
0.747815
0.750134
0.752636
0.75533
0.75825
0.761465
0.765075
0.769216
0.774051
0.77975
0.786459
0.794248
0.803066
0.812728
0.823174
0.834418
0.846359
0.858864
0.871751
0.884818
0.897864
0.910704
0.92317
0.935122
0.946441
0.957032
0.96682
0.975745
0.983764
0.990842
0.996954
1.00208
1.00621
1.00934
1.01145
1.01255
1.01262
1.01168
1.0097
1.00671
1.00269
0.997656
0.991604
0.984547
0.976493
0.967462
0.957476
0.946569
0.934785
0.922185
0.908845
0.894864
0.880365
0.865501
0.850454
0.835438
0.820696
0.806499
0.793137
0.780897
0.770154
0.760315
0.751557
0.745033
0.740257
0.736378
0.734147
0.73336
0.733613
0.734572
0.735946
0.737486
0.738985
0.740284
0.741261
0.741839
0.741979
0.741681
0.740978
0.739929
0.738613
0.73712
0.735533
0.733914
0.732301
0.730713
0.729193
0.727831
0.726732
0.725974
0.725608
0.725659
0.726141
0.727054
0.728386
0.7301
0.732126
0.734367
0.73673
0.739166
0.741643
0.744113
0.746498
0.748701
0.750619
0.752153
0.753224
0.753775
0.766946
0.767157
0.767585
0.768235
0.769109
0.770195
0.771465
0.77288
0.774412
0.776069
0.777879
0.779866
0.782046
0.784426
0.787016
0.789837
0.792926
0.796343
0.800169
0.804507
0.809469
0.815168
0.821691
0.829078
0.837301
0.846281
0.855961
0.866291
0.877187
0.888532
0.900185
0.911984
0.923769
0.935383
0.946685
0.957549
0.967868
0.977551
0.986524
0.994727
1.00211
1.00865
1.01429
1.01904
1.02286
1.02575
1.02769
1.02868
1.02872
1.02781
1.02593
1.0231
1.01932
1.01459
1.00892
1.00232
0.994812
0.986413
0.977152
0.967068
0.95621
0.944641
0.932439
0.9197
0.906542
0.893103
0.879547
0.866058
0.852842
0.840119
0.828114
0.817042
0.807088
0.798272
0.790661
0.784137
0.778851
0.774865
0.772168
0.770617
0.769973
0.769993
0.770448
0.771134
0.771879
0.772542
0.773017
0.773232
0.773145
0.772746
0.772052
0.7711
0.769944
0.768645
0.767263
0.765849
0.764444
0.763083
0.761813
0.760696
0.759801
0.759185
0.758891
0.758942
0.75935
0.760115
0.761219
0.762631
0.764299
0.766155
0.768136
0.770189
0.772269
0.774323
0.776288
0.778087
0.779643
0.780883
0.781746
0.782189
0.801101
0.801308
0.801724
0.802349
0.803181
0.804212
0.805423
0.806796
0.808318
0.809993
0.811833
0.813856
0.816076
0.818507
0.821165
0.824075
0.827274
0.830811
0.834753
0.839172
0.844151
0.849762
0.856061
0.863071
0.870777
0.879136
0.888096
0.897598
0.907564
0.917894
0.928472
0.939165
0.949843
0.960374
0.970638
0.980522
0.98993
0.998779
1.007
1.01453
1.02132
1.02733
1.03254
1.03691
1.04044
1.04309
1.04488
1.04577
1.04578
1.0449
1.04312
1.04045
1.0369
1.03246
1.02716
1.02101
1.01402
1.00622
0.997651
0.988341
0.978346
0.967731
0.95657
0.944956
0.932999
0.920823
0.908572
0.896406
0.884496
0.873021
0.862157
0.852068
0.842882
0.834663
0.827457
0.821261
0.816123
0.812062
0.809043
0.806966
0.80567
0.80498
0.804719
0.804724
0.804854
0.804988
0.805034
0.804926
0.804622
0.804107
0.803384
0.802476
0.801418
0.800253
0.799024
0.797775
0.796542
0.795363
0.794279
0.793338
0.792589
0.792075
0.791827
0.791867
0.792204
0.792835
0.793745
0.794907
0.796281
0.797819
0.799469
0.801185
0.802919
0.804624
0.806242
0.807715
0.808983
0.809989
0.810687
0.811045
0.835049
0.835251
0.835653
0.836256
0.837056
0.838047
0.83922
0.840563
0.842073
0.84375
0.845605
0.847649
0.849895
0.85236
0.855062
0.858025
0.861283
0.864877
0.868857
0.873279
0.8782
0.883668
0.88972
0.896367
0.903601
0.91139
0.919688
0.928441
0.937577
0.94701
0.956641
0.966363
0.976064
0.985634
0.994969
1.00397
1.01255
1.02064
1.02816
1.03506
1.0413
1.04683
1.05162
1.05564
1.05888
1.06132
1.06295
1.06375
1.06373
1.06288
1.06119
1.05868
1.05535
1.05121
1.04626
1.04053
1.03404
1.02681
1.01888
1.0103
1.0011
0.991365
0.981154
0.970557
0.959674
0.948617
0.937513
0.926497
0.915715
0.905311
0.895427
0.886192
0.877707
0.870042
0.863242
0.857327
0.852319
0.848215
0.844979
0.842532
0.840762
0.839537
0.838723
0.838191
0.837824
0.837522
0.837206
0.836816
0.836312
0.835674
0.8349
0.834001
0.832999
0.831923
0.830807
0.829683
0.828586
0.827547
0.826602
0.825789
0.825143
0.824698
0.824477
0.824496
0.824764
0.825275
0.826018
0.826971
0.8281
0.829369
0.830737
0.832162
0.8336
0.835009
0.836342
0.837549
0.838584
0.839402
0.83997
0.84026
0.868796
0.868992
0.869382
0.869965
0.87074
0.871702
0.872844
0.874164
0.875659
0.877331
0.879188
0.881239
0.883497
0.885977
0.888697
0.89168
0.894955
0.898555
0.902519
0.906888
0.911701
0.916991
0.922781
0.929078
0.93587
0.943133
0.950827
0.958901
0.967293
0.975927
0.98472
0.993581
1.00242
1.01113
1.01963
1.02784
1.03567
1.04306
1.04994
1.05627
1.06198
1.06706
1.07146
1.07515
1.07813
1.08036
1.08184
1.08256
1.08251
1.08169
1.0801
1.07774
1.07462
1.07075
1.06614
1.06082
1.05479
1.0481
1.04078
1.03286
1.02441
1.01547
1.00612
0.996443
0.986522
0.976459
0.966365
0.956356
0.946554
0.93708
0.928049
0.919564
0.911713
0.904557
0.89814
0.892488
0.88761
0.8835
0.880124
0.877421
0.875307
0.873683
0.872446
0.871492
0.870728
0.87007
0.869452
0.868819
0.868135
0.867379
0.866542
0.865629
0.864653
0.863634
0.862597
0.861566
0.86057
0.859637
0.858794
0.858072
0.857498
0.857096
0.856885
0.856878
0.857079
0.857484
0.858083
0.858857
0.85978
0.860822
0.861948
0.863124
0.864311
0.865472
0.866567
0.867555
0.8684
0.869068
0.869529
0.869765
0.902348
0.902538
0.902916
0.903483
0.904237
0.905174
0.906293
0.90759
0.909067
0.910727
0.912576
0.914621
0.916876
0.919353
0.922069
0.925044
0.928302
0.93187
0.935777
0.940052
0.944725
0.949815
0.955337
0.961292
0.967669
0.974445
0.981586
0.989044
0.996765
1.00469
1.01273
1.02082
1.02889
1.03684
1.04459
1.05208
1.05923
1.06599
1.07228
1.07807
1.08331
1.08797
1.092
1.09539
1.09811
1.10015
1.10149
1.10213
1.10206
1.10127
1.09977
1.09755
1.09464
1.09103
1.08674
1.0818
1.07621
1.07002
1.06326
1.05597
1.04819
1.03999
1.03142
1.02257
1.01351
1.00433
0.995131
0.986008
0.977066
0.968406
0.960123
0.952305
0.945022
0.938333
0.932275
0.926872
0.922134
0.918051
0.914596
0.911721
0.909362
0.907444
0.905884
0.904604
0.903525
0.90258
0.901711
0.900873
0.90003
0.899163
0.89826
0.89732
0.89635
0.895365
0.894379
0.893415
0.892493
0.891635
0.890866
0.890207
0.88968
0.889303
0.889091
0.889052
0.889189
0.889499
0.889972
0.890593
0.89134
0.892189
0.893111
0.894074
0.895049
0.896001
0.896897
0.897705
0.898395
0.898939
0.899314
0.899506
0.93571
0.935895
0.936263
0.936815
0.93755
0.938466
0.939561
0.940837
0.942293
0.943935
0.945766
0.947795
0.950032
0.952489
0.955182
0.958125
0.961339
0.964845
0.968665
0.97282
0.97733
0.982207
0.987459
0.993084
0.999069
1.00539
1.01203
1.01892
1.02604
1.03332
1.04069
1.0481
1.05547
1.06273
1.06982
1.07666
1.0832
1.08937
1.09513
1.10043
1.10523
1.10949
1.11319
1.11629
1.11878
1.12064
1.12185
1.12242
1.12232
1.12156
1.12015
1.11807
1.11535
1.11199
1.108
1.10341
1.09824
1.09252
1.08628
1.07956
1.0724
1.06487
1.05701
1.04891
1.04062
1.03223
1.02382
1.01548
1.0073
0.999354
0.991734
0.984508
0.977739
0.971476
0.965753
0.960593
0.956003
0.951975
0.948488
0.945505
0.942977
0.940845
0.939045
0.937513
0.936188
0.935013
0.93394
0.93293
0.931951
0.930983
0.930014
0.92904
0.928064
0.927094
0.926141
0.925221
0.92435
0.923546
0.922826
0.922209
0.921711
0.921345
0.921123
0.921049
0.921126
0.921351
0.921714
0.922203
0.9228
0.923484
0.924231
0.925014
0.925809
0.926585
0.927316
0.927974
0.928535
0.928977
0.929282
0.929438
0.968888
0.969067
0.969426
0.969965
0.970682
0.971577
0.97265
0.973902
0.975335
0.976952
0.978758
0.980761
0.982969
0.985392
0.988043
0.990935
0.994085
0.997507
1.00122
1.00523
1.00957
1.01422
1.01921
1.02451
1.03013
1.03603
1.0422
1.04859
1.05515
1.06185
1.06862
1.07542
1.08216
1.08881
1.09529
1.10154
1.10752
1.11317
1.11844
1.12329
1.12769
1.13159
1.13497
1.13781
1.14008
1.14177
1.14287
1.14336
1.14324
1.14252
1.14118
1.13924
1.1367
1.13357
1.12987
1.12561
1.12082
1.11553
1.10977
1.10358
1.09699
1.09007
1.08286
1.07542
1.06783
1.06014
1.05244
1.04479
1.03728
1.02998
1.02295
1.01626
1.00995
1.00408
0.99867
0.993744
0.989308
0.985358
0.981876
0.978835
0.976196
0.973913
0.971937
0.970216
0.968701
0.967345
0.966108
0.964955
0.96386
0.962804
0.961773
0.960763
0.959772
0.958805
0.95787
0.956978
0.956141
0.955372
0.954685
0.954093
0.95361
0.953245
0.953005
0.952895
0.952916
0.953063
0.95333
0.953705
0.954172
0.954715
0.955313
0.955944
0.956586
0.957214
0.957807
0.95834
0.958795
0.959153
0.9594
0.959526
1.00189
1.00206
1.00241
1.00294
1.00364
1.00451
1.00556
1.00679
1.00819
1.00978
1.01155
1.01352
1.01569
1.01807
1.02066
1.02349
1.02656
1.02988
1.03347
1.03733
1.04148
1.04591
1.05064
1.05564
1.0609
1.06642
1.07215
1.07807
1.08414
1.09031
1.09654
1.10277
1.10896
1.11505
1.12098
1.12671
1.13218
1.13735
1.14217
1.14661
1.15063
1.1542
1.15729
1.15989
1.16196
1.16349
1.16448
1.16491
1.16478
1.16408
1.16282
1.16101
1.15863
1.15572
1.15228
1.14834
1.14391
1.13902
1.1337
1.12798
1.12192
1.11555
1.10893
1.1021
1.09513
1.08807
1.081
1.07398
1.06707
1.06033
1.05383
1.04761
1.04173
1.03622
1.0311
1.0264
1.02213
1.01827
1.01482
1.01176
1.00906
1.00667
1.00457
1.00271
1.00105
0.999557
0.99819
0.996923
0.995731
0.994599
0.993513
0.992466
0.991456
0.990484
0.989557
0.98868
0.987863
0.987115
0.986447
0.98587
0.985391
0.985018
0.984758
0.984611
0.984579
0.984657
0.984838
0.985113
0.98547
0.985892
0.986363
0.986864
0.987376
0.98788
0.988356
0.988785
0.989152
0.98944
0.989639
0.989741
1.03471
1.03488
1.03522
1.03573
1.03641
1.03727
1.03829
1.03949
1.04087
1.04242
1.04416
1.04608
1.0482
1.05052
1.05305
1.0558
1.05877
1.06199
1.06544
1.06915
1.0731
1.07732
1.08178
1.08649
1.09143
1.09658
1.10191
1.1074
1.11301
1.11871
1.12444
1.13018
1.13586
1.14144
1.14688
1.15212
1.15713
1.16187
1.16628
1.17035
1.17403
1.17729
1.18012
1.18248
1.18437
1.18576
1.18665
1.18703
1.18688
1.18621
1.18503
1.18332
1.18111
1.1784
1.17521
1.17155
1.16745
1.16293
1.15801
1.15275
1.14716
1.14129
1.1352
1.12892
1.12251
1.11602
1.10951
1.10305
1.09667
1.09045
1.08442
1.07864
1.07314
1.06796
1.06312
1.05864
1.05453
1.05078
1.04739
1.04433
1.0416
1.03915
1.03697
1.03501
1.03324
1.03164
1.03017
1.02881
1.02754
1.02635
1.02521
1.02413
1.0231
1.02212
1.02119
1.02032
1.01952
1.01878
1.01812
1.01755
1.01707
1.01668
1.0164
1.01621
1.01613
1.01615
1.01625
1.01644
1.0167
1.01702
1.01738
1.01777
1.01818
1.01857
1.01895
1.01929
1.01959
1.01982
1.01998
1.02006
1.06736
1.06753
1.06786
1.06836
1.06902
1.06985
1.07085
1.07202
1.07336
1.07488
1.07657
1.07845
1.08051
1.08277
1.08522
1.08788
1.09076
1.09385
1.09716
1.10071
1.10447
1.10847
1.11269
1.11712
1.12174
1.12655
1.13152
1.13661
1.14181
1.14707
1.15236
1.15763
1.16285
1.16798
1.17297
1.17778
1.18237
1.18671
1.19075
1.19447
1.19784
1.20082
1.20341
1.20556
1.20728
1.20854
1.20934
1.20966
1.2095
1.20886
1.20774
1.20615
1.20409
1.20157
1.1986
1.19521
1.19141
1.18723
1.18269
1.17783
1.17267
1.16727
1.16165
1.15587
1.14996
1.14399
1.13799
1.13202
1.12613
1.12036
1.11477
1.10938
1.10423
1.09936
1.09478
1.09051
1.08656
1.08293
1.07961
1.07659
1.07385
1.07137
1.06914
1.06711
1.06527
1.06359
1.06204
1.06062
1.05928
1.05803
1.05686
1.05575
1.0547
1.0537
1.05277
1.0519
1.0511
1.05036
1.04971
1.04913
1.04864
1.04824
1.04793
1.04771
1.04759
1.04755
1.04758
1.0477
1.04787
1.0481
1.04837
1.04867
1.04898
1.04929
1.04958
1.04985
1.05008
1.05026
1.05039
1.05045
1.09985
1.10001
1.10033
1.10081
1.10146
1.10227
1.10324
1.10438
1.10568
1.10716
1.1088
1.11063
1.11263
1.11481
1.11719
1.11976
1.12252
1.12549
1.12866
1.13204
1.13562
1.1394
1.14338
1.14754
1.15188
1.15637
1.16099
1.16572
1.17054
1.1754
1.18028
1.18514
1.18994
1.19465
1.19924
1.20365
1.20786
1.21183
1.21554
1.21895
1.22203
1.22476
1.22712
1.22908
1.23064
1.23179
1.2325
1.23277
1.2326
1.23199
1.23094
1.22944
1.22752
1.22518
1.22242
1.21928
1.21576
1.21189
1.20769
1.2032
1.19844
1.19345
1.18827
1.18293
1.17749
1.17198
1.16644
1.16092
1.15546
1.15011
1.14491
1.13988
1.13505
1.13047
1.12613
1.12206
1.11827
1.11476
1.11153
1.10856
1.10584
1.10336
1.10109
1.09903
1.09714
1.0954
1.0938
1.09232
1.09094
1.08965
1.08844
1.0873
1.08623
1.08523
1.08429
1.08341
1.08261
1.08187
1.08121
1.08063
1.08013
1.07971
1.07938
1.07913
1.07896
1.07886
1.07884
1.07889
1.07899
1.07915
1.07934
1.07955
1.07978
1.08002
1.08024
1.08045
1.08063
1.08077
1.08086
1.08091
1.13217
1.13233
1.13264
1.13311
1.13374
1.13452
1.13547
1.13657
1.13784
1.13927
1.14086
1.14262
1.14456
1.14667
1.14896
1.15143
1.15408
1.15692
1.15995
1.16316
1.16656
1.17014
1.17389
1.1778
1.18186
1.18605
1.19036
1.19476
1.19922
1.20372
1.20822
1.2127
1.21713
1.22146
1.22567
1.22972
1.23359
1.23723
1.24063
1.24375
1.24657
1.24906
1.25122
1.25301
1.25443
1.25546
1.25609
1.25632
1.25615
1.25556
1.25457
1.25317
1.25138
1.24919
1.24663
1.24371
1.24045
1.23687
1.23299
1.22883
1.22444
1.21983
1.21504
1.21011
1.20508
1.19999
1.19486
1.18975
1.18469
1.17972
1.17487
1.17016
1.16564
1.16132
1.15721
1.15334
1.14971
1.14632
1.14318
1.14027
1.13759
1.13512
1.13286
1.13077
1.12885
1.12708
1.12544
1.12392
1.12251
1.12118
1.11995
1.11879
1.1177
1.11668
1.11574
1.11486
1.11405
1.11331
1.11264
1.11205
1.11154
1.1111
1.11074
1.11046
1.11025
1.11011
1.11004
1.11002
1.11007
1.11015
1.11027
1.11042
1.11058
1.11075
1.11092
1.11107
1.11121
1.11131
1.11139
1.11143
1.16434
1.16449
1.16479
1.16525
1.16586
1.16662
1.16753
1.1686
1.16983
1.17121
1.17275
1.17445
1.17632
1.17835
1.18055
1.18292
1.18546
1.18817
1.19105
1.19411
1.19732
1.2007
1.20423
1.2079
1.21171
1.21562
1.21963
1.22372
1.22786
1.23202
1.23619
1.24032
1.2444
1.24839
1.25226
1.25599
1.25953
1.26288
1.26599
1.26885
1.27143
1.27371
1.27568
1.27731
1.2786
1.27953
1.28009
1.28029
1.2801
1.27954
1.2786
1.27729
1.27562
1.27358
1.27121
1.2685
1.26547
1.26215
1.25856
1.25471
1.25064
1.24638
1.24196
1.2374
1.23274
1.22803
1.22328
1.21854
1.21384
1.20921
1.20468
1.20027
1.19602
1.19195
1.18806
1.18438
1.1809
1.17764
1.1746
1.17176
1.16913
1.16669
1.16443
1.16235
1.16041
1.15862
1.15696
1.15542
1.15398
1.15263
1.15138
1.1502
1.1491
1.14807
1.14712
1.14623
1.14542
1.14467
1.144
1.14339
1.14286
1.14241
1.14202
1.14171
1.14147
1.14129
1.14117
1.14111
1.14109
1.14112
1.14118
1.14127
1.14138
1.14149
1.14161
1.14172
1.14181
1.14189
1.14195
1.14197
1.19636
1.1965
1.1968
1.19724
1.19782
1.19856
1.19944
1.20047
1.20166
1.20299
1.20448
1.20612
1.20791
1.20986
1.21197
1.21424
1.21666
1.21925
1.22199
1.22488
1.22793
1.23111
1.23443
1.23788
1.24144
1.2451
1.24884
1.25263
1.25648
1.26033
1.26418
1.268
1.27176
1.27544
1.279
1.28243
1.28568
1.28875
1.29161
1.29423
1.29659
1.29868
1.30047
1.30196
1.30313
1.30397
1.30447
1.30462
1.30443
1.3039
1.30301
1.30178
1.30022
1.29832
1.29611
1.29359
1.29078
1.2877
1.28437
1.28081
1.27705
1.2731
1.269
1.26478
1.26047
1.25609
1.25169
1.24728
1.24291
1.23859
1.23436
1.23023
1.22624
1.22239
1.21871
1.2152
1.21188
1.20875
1.2058
1.20305
1.20047
1.19807
1.19584
1.19377
1.19184
1.19004
1.18837
1.18681
1.18536
1.184
1.18273
1.18154
1.18043
1.17939
1.17843
1.17754
1.17671
1.17596
1.17528
1.17466
1.17412
1.17364
1.17324
1.1729
1.17262
1.17241
1.17225
1.17214
1.17208
1.17206
1.17207
1.17211
1.17216
1.17223
1.1723
1.17238
1.17244
1.17249
1.17253
1.17255
1.22823
1.22837
1.22865
1.22908
1.22964
1.23035
1.2312
1.2322
1.23334
1.23462
1.23605
1.23762
1.23935
1.24122
1.24323
1.2454
1.24771
1.25017
1.25277
1.25551
1.25838
1.26139
1.26451
1.26774
1.27108
1.27449
1.27797
1.28151
1.28507
1.28865
1.29221
1.29574
1.29921
1.3026
1.30588
1.30903
1.31203
1.31484
1.31746
1.31986
1.32203
1.32393
1.32557
1.32693
1.32799
1.32874
1.32918
1.32931
1.32911
1.3286
1.32776
1.32661
1.32515
1.32338
1.32132
1.31898
1.31637
1.31351
1.31042
1.30712
1.30363
1.29997
1.29617
1.29226
1.28825
1.28419
1.2801
1.276
1.27192
1.26789
1.26393
1.26006
1.2563
1.25267
1.24918
1.24585
1.24267
1.23966
1.23682
1.23415
1.23164
1.22929
1.22709
1.22504
1.22312
1.22133
1.21966
1.2181
1.21664
1.21527
1.21399
1.2128
1.21168
1.21064
1.20967
1.20877
1.20794
1.20718
1.20649
1.20586
1.20531
1.20481
1.20439
1.20402
1.20371
1.20347
1.20327
1.20312
1.20302
1.20296
1.20293
1.20292
1.20294
1.20296
1.203
1.20304
1.20308
1.20311
1.20314
1.20315
1.25996
1.26009
1.26036
1.26077
1.26132
1.262
1.26282
1.26378
1.26487
1.2661
1.26747
1.26898
1.27063
1.27242
1.27435
1.27641
1.27861
1.28095
1.28341
1.286
1.28872
1.29154
1.29448
1.29751
1.30063
1.30382
1.30706
1.31035
1.31366
1.31698
1.32028
1.32354
1.32674
1.32987
1.33289
1.33579
1.33854
1.34113
1.34354
1.34574
1.34772
1.34946
1.35096
1.35219
1.35315
1.35383
1.35422
1.35431
1.35411
1.35362
1.35283
1.35175
1.35038
1.34873
1.34681
1.34463
1.34221
1.33955
1.33668
1.33361
1.33037
1.32698
1.32345
1.31982
1.3161
1.31232
1.30851
1.30469
1.30089
1.29712
1.29341
1.28977
1.28623
1.28281
1.2795
1.27633
1.2733
1.27041
1.26768
1.26509
1.26265
1.26036
1.2582
1.25618
1.25428
1.25251
1.25084
1.24928
1.24782
1.24646
1.24518
1.24398
1.24286
1.24181
1.24084
1.23993
1.2391
1.23833
1.23763
1.237
1.23643
1.23592
1.23547
1.23508
1.23475
1.23447
1.23425
1.23407
1.23393
1.23383
1.23376
1.23372
1.23369
1.23369
1.2337
1.23371
1.23372
1.23374
1.23375
1.23376
1.29155
1.29168
1.29194
1.29233
1.29286
1.29351
1.2943
1.29522
1.29627
1.29745
1.29876
1.30021
1.30178
1.30349
1.30532
1.30729
1.30938
1.31159
1.31392
1.31637
1.31893
1.32159
1.32435
1.32719
1.33011
1.33308
1.33611
1.33917
1.34224
1.34532
1.34837
1.35139
1.35435
1.35724
1.36002
1.36269
1.36523
1.3676
1.36981
1.37183
1.37364
1.37524
1.3766
1.37772
1.37859
1.3792
1.37954
1.37961
1.37941
1.37894
1.37819
1.37717
1.37589
1.37435
1.37256
1.37053
1.36827
1.3658
1.36313
1.36029
1.35727
1.35412
1.35084