/*--------------------------------*- C++ -*----------------------------------*\
| =========                 |                                                 |
| \\      /  F ield         | OpenFOAM: The Open Source CFD Toolbox           |
|  \\    /   O peration     | Version:  2406                                  |
|   \\  /    A nd           | Website:  www.openfoam.com                      |
|    \\/     M anipulation  |                                                 |
\*---------------------------------------------------------------------------*/
FoamFile
{
    version     2.0;
    format      ascii;
    arch        "LSB;label=32;scalar=64";
    class       volScalarField;
    location    "4.45";
    object      C_0_0;
}
// * * * * * * * * * * * * * * * * * * * * * * * * * * * * * * * * * * * * * //

dimensions      [1 -3 0 0 0 0 0];

internalField   nonuniform List<scalar> 
14400
(
0.378544
0.373786
0.366649
0.359064
0.352383
0.347507
0.345014
0.345255
0.3484
0.354465
0.363311
0.374617
0.387814
0.401944
0.41525
0.423588
0.419431
0.408946
0.39681
0.385542
0.376541
0.370691
0.368611
0.370784
0.377619
0.389491
0.406764
0.429803
0.458974
0.494627
0.537043
0.586306
0.641917
0.701176
0.745193
0.773915
0.798318
0.819759
0.838567
0.854997
0.869249
0.88148
0.891816
0.900356
0.907177
0.912338
0.915885
0.917849
0.918249
0.917091
0.914374
0.910081
0.904186
0.89665
0.88742
0.876426
0.863583
0.848781
0.831883
0.812718
0.791073
0.766677
0.739186
0.702828
0.64979
0.588526
0.532538
0.483416
0.441158
0.405434
0.375838
0.351962
0.333437
0.319939
0.311202
0.307012
0.307208
0.31167
0.320317
0.333091
0.349939
0.370778
0.395433
0.423473
0.453499
0.477798
0.49092
0.496291
0.495729
0.488384
0.470498
0.446285
0.423076
0.402402
0.38481
0.370493
0.359446
0.351511
0.346398
0.343681
0.342798
0.343076
0.343798
0.34436
0.344531
0.344586
0.345169
0.347036
0.350903
0.357374
0.366929
0.379921
0.396577
0.416991
0.441068
0.468368
0.497402
0.519925
0.53155
0.536641
0.394259
0.38743
0.378503
0.369608
0.362013
0.35653
0.353681
0.353782
0.356988
0.363309
0.372611
0.384582
0.398681
0.413978
0.428666
0.437484
0.434039
0.421787
0.408027
0.395617
0.385801
0.379364
0.376879
0.378806
0.385539
0.397443
0.414876
0.4382
0.467775
0.503951
0.547006
0.597008
0.653174
0.71007
0.749969
0.777299
0.80128
0.822392
0.840945
0.857175
0.871269
0.883376
0.893613
0.902075
0.908836
0.913952
0.917468
0.919413
0.919805
0.918652
0.915949
0.911683
0.905827
0.898344
0.889182
0.878276
0.865543
0.850877
0.834149
0.815198
0.793824
0.76977
0.742708
0.709231
0.659563
0.598164
0.541694
0.492005
0.449198
0.412986
0.382976
0.358768
0.339991
0.326324
0.3175
0.313306
0.313581
0.318208
0.327104
0.340212
0.357478
0.378813
0.404016
0.432573
0.462823
0.485619
0.49709
0.502224
0.501963
0.496096
0.48079
0.456789
0.433087
0.411892
0.393894
0.379322
0.368182
0.360334
0.355495
0.353234
0.35296
0.353921
0.355234
0.356036
0.355955
0.35541
0.355303
0.356558
0.359965
0.366157
0.375619
0.388693
0.40559
0.426387
0.450944
0.478668
0.507391
0.527174
0.537046
0.541731
0.424248
0.41391
0.401739
0.390459
0.381171
0.374547
0.371024
0.370865
0.374197
0.381021
0.391204
0.404446
0.420215
0.437509
0.453683
0.459945
0.458247
0.445842
0.429889
0.415589
0.404295
0.396747
0.393481
0.394929
0.401464
0.413436
0.431192
0.45508
0.485451
0.522634
0.56687
0.618168
0.675387
0.724779
0.757849
0.783968
0.80711
0.827585
0.845645
0.861488
0.875276
0.88714
0.897185
0.905495
0.912138
0.917168
0.920622
0.92253
0.922907
0.921761
0.919088
0.914874
0.909095
0.901716
0.892689
0.881954
0.869434
0.855034
0.838638
0.820103
0.799254
0.775872
0.749678
0.719871
0.67697
0.617256
0.560089
0.509291
0.465393
0.428207
0.397371
0.372496
0.353214
0.339207
0.330208
0.326007
0.326442
0.331396
0.340789
0.354565
0.372662
0.39498
0.42127
0.450789
0.480652
0.49937
0.508815
0.51355
0.5137
0.509301
0.498882
0.47763
0.453037
0.430857
0.412081
0.397012
0.38569
0.378012
0.373729
0.372408
0.373421
0.375899
0.378626
0.380027
0.379319
0.377341
0.375708
0.375669
0.378128
0.383756
0.393033
0.406272
0.423641
0.445178
0.470656
0.499162
0.524863
0.539346
0.547466
0.551507
0.458087
0.450339
0.435252
0.421155
0.409677
0.40151
0.397063
0.396554
0.40008
0.407632
0.419075
0.434061
0.451983
0.471333
0.484162
0.487066
0.486568
0.478936
0.461733
0.44527
0.432023
0.422927
0.418546
0.419305
0.425562
0.437647
0.455887
0.480614
0.512149
0.550763
0.596489
0.648625
0.703007
0.741455
0.76902
0.793616
0.815605
0.835195
0.852561
0.867856
0.881208
0.892724
0.902491
0.910582
0.917055
0.921957
0.925323
0.927177
0.927533
0.926397
0.923767
0.91963
0.913963
0.906736
0.897905
0.887417
0.875205
0.861187
0.845265
0.827322
0.807216
0.784785
0.759842
0.732198
0.697756
0.646397
0.587932
0.535451
0.489946
0.451315
0.419249
0.393376
0.373336
0.358815
0.349551
0.345337
0.346011
0.351458
0.361595
0.376362
0.395687
0.419432
0.447272
0.478084
0.50382
0.517114
0.525181
0.529462
0.529984
0.526858
0.520299
0.506265
0.482345
0.459192
0.439383
0.423615
0.412011
0.404574
0.401129
0.401262
0.404321
0.409392
0.414903
0.41755
0.415543
0.41076
0.40652
0.404427
0.405423
0.410198
0.419215
0.432709
0.450743
0.473272
0.499661
0.527469
0.545381
0.555299
0.561964
0.565323
0.490896
0.488385
0.477187
0.461076
0.447293
0.43734
0.431811
0.430904
0.434689
0.443153
0.456148
0.473058
0.492575
0.508852
0.515231
0.517254
0.517253
0.514734
0.502709
0.484457
0.469007
0.458026
0.452251
0.452146
0.458065
0.470315
0.489203
0.515031
0.548059
0.588504
0.636026
0.688428
0.72935
0.757926
0.78303
0.805869
0.826502
0.845026
0.861548
0.876168
0.888977
0.900055
0.909472
0.917286
0.923543
0.928284
0.931536
0.93332
0.93365
0.932529
0.929954
0.925915
0.920392
0.913358
0.904777
0.894604
0.882782
0.869245
0.853915
0.836702
0.817504
0.796211
0.772707
0.746891
0.71858
0.679685
0.624128
0.570483
0.523099
0.482616
0.448935
0.421742
0.400691
0.385479
0.375856
0.371622
0.372617
0.378718
0.389839
0.405909
0.426814
0.452279
0.481509
0.511247
0.528779
0.538514
0.545333
0.549133
0.549916
0.547802
0.543043
0.535666
0.520207
0.496693
0.475722
0.459151
0.447138
0.439968
0.437621
0.439686
0.445446
0.454172
0.464285
0.468727
0.46484
0.455434
0.447522
0.442723
0.441775
0.445435
0.454158
0.468022
0.486817
0.510475
0.537135
0.556017
0.566565
0.57439
0.579767
0.582498
0.524854
0.52418
0.52019
0.508744
0.493555
0.481818
0.47521
0.473915
0.477997
0.487436
0.502141
0.52031
0.536555
0.544586
0.547601
0.549467
0.550014
0.549261
0.545068
0.531824
0.515043
0.502113
0.494766
0.493676
0.499231
0.511709
0.531391
0.558539
0.593214
0.63555
0.683497
0.723361
0.751929
0.776469
0.799306
0.820327
0.839506
0.856861
0.872438
0.88629
0.898476
0.909049
0.918057
0.925545
0.931549
0.936098
0.939216
0.940919
0.941217
0.940113
0.937605
0.933683
0.928332
0.921528
0.913242
0.903439
0.892073
0.879095
0.864447
0.848067
0.829888
0.809846
0.787886
0.763977
0.738132
0.709443
0.66853
0.614639
0.565169
0.522463
0.486829
0.458016
0.435707
0.419621
0.409539
0.405278
0.406675
0.413589
0.425915
0.443571
0.46636
0.493719
0.523682
0.544203
0.554795
0.562795
0.568504
0.57182
0.572746
0.571391
0.567985
0.562878
0.55557
0.541408
0.520391
0.503443
0.490851
0.483891
0.482838
0.487148
0.495422
0.506843
0.512761
0.514651
0.513299
0.508004
0.497354
0.490037
0.486823
0.489172
0.497644
0.512037
0.531151
0.554823
0.571857
0.581975
0.589743
0.595929
0.600216
0.602405
0.559486
0.559169
0.558646
0.555191
0.546618
0.534039
0.52687
0.525313
0.529653
0.539649
0.555488
0.568152
0.575461
0.578537
0.581118
0.582998
0.584075
0.584384
0.584099
0.58005
0.568937
0.554936
0.546086
0.544021
0.549257
0.562024
0.582576
0.611175
0.647037
0.689812
0.725253
0.751765
0.77475
0.796716
0.817395
0.836629
0.854333
0.870474
0.885051
0.89808
0.909588
0.919606
0.928163
0.935289
0.941009
0.945344
0.948311
0.949923
0.950186
0.949102
0.94667
0.942882
0.937724
0.931179
0.923226
0.913835
0.902977
0.890615
0.876712
0.86123
0.844134
0.825399
0.805013
0.782998
0.759417
0.734393
0.705978
0.666035
0.616004
0.571066
0.533323
0.502667
0.478877
0.461725
0.451075
0.446778
0.448663
0.456531
0.470222
0.489637
0.514334
0.542469
0.563534
0.57479
0.582882
0.589366
0.594068
0.596897
0.597855
0.597033
0.594626
0.590927
0.586337
0.580493
0.569662
0.555327
0.542132
0.535328
0.535522
0.541814
0.548222
0.552087
0.552331
0.552182
0.552946
0.553305
0.550135
0.544584
0.539326
0.540421
0.548681
0.563626
0.580233
0.593386
0.601567
0.608439
0.614501
0.619369
0.622761
0.624501
0.594434
0.594365
0.594321
0.594505
0.593382
0.589307
0.584797
0.583344
0.587747
0.595751
0.603282
0.60789
0.610407
0.612976
0.615337
0.617331
0.618902
0.620102
0.621093
0.622146
0.62046
0.614469
0.605354
0.60286
0.608009
0.621087
0.642254
0.671995
0.706145
0.735008
0.757504
0.778224
0.798591
0.818248
0.836931
0.854461
0.870724
0.885652
0.899211
0.91139
0.92219
0.931622
0.9397
0.946439
0.951854
0.955958
0.958762
0.960275
0.9605
0.95944
0.957091
0.953449
0.948502
0.94224
0.934645
0.9257
0.915384
0.903676
0.890556
0.876007
0.86002
0.842601
0.823771
0.803586
0.782144
0.759596
0.736172
0.709658
0.67351
0.628035
0.588638
0.556118
0.530697
0.512267
0.500927
0.496587
0.499062
0.507984
0.523004
0.544009
0.569363
0.588348
0.598959
0.606246
0.612578
0.617718
0.621503
0.623847
0.624742
0.624261
0.622558
0.619869
0.616507
0.612856
0.609189
0.602895
0.595927
0.590925
0.589633
0.59045
0.5908
0.589244
0.588502
0.588448
0.589146
0.590557
0.592826
0.593246
0.593391
0.595915
0.602426
0.611101
0.619224
0.624789
0.630359
0.63571
0.640455
0.644282
0.64696
0.648337
0.629453
0.629534
0.629767
0.630294
0.631329
0.632956
0.633136
0.633877
0.636486
0.639685
0.641278
0.643103
0.645295
0.647625
0.649922
0.652088
0.654102
0.656028
0.658023
0.660343
0.663361
0.665759
0.666155
0.667815
0.673601
0.686868
0.706897
0.729475
0.750733
0.76867
0.786746
0.805035
0.823143
0.840753
0.857619
0.87356
0.888449
0.902198
0.914752
0.926078
0.936161
0.944993
0.952576
0.958912
0.964009
0.967871
0.970505
0.971914
0.972101
0.971066
0.968807
0.965319
0.960597
0.954632
0.947415
0.938935
0.929183
0.918148
0.905828
0.892221
0.877341
0.861212
0.843884
0.825432
0.805975
0.785677
0.764765
0.743535
0.720592
0.69022
0.652039
0.618389
0.591472
0.571523
0.559388
0.554984
0.558172
0.568146
0.583716
0.60465
0.619168
0.627426
0.633215
0.638657
0.643467
0.647425
0.65038
0.652246
0.653006
0.652711
0.651477
0.649484
0.646965
0.644197
0.641476
0.639117
0.636899
0.634118
0.631444
0.628435
0.626127
0.624681
0.623982
0.623965
0.624632
0.626004
0.628177
0.631302
0.635247
0.639014
0.643107
0.646779
0.650649
0.654956
0.659371
0.663588
0.667326
0.670344
0.67246
0.67355
0.664389
0.664551
0.66492
0.665576
0.66662
0.668114
0.670019
0.671958
0.673344
0.674588
0.676114
0.677948
0.680045
0.682305
0.684638
0.686997
0.689389
0.691885
0.694629
0.69784
0.701827
0.706994
0.713786
0.720436
0.728984
0.741103
0.755495
0.769854
0.784313
0.799751
0.815774
0.832028
0.848193
0.864001
0.879232
0.893713
0.907313
0.919938
0.931519
0.942011
0.951382
0.959614
0.966698
0.972626
0.977398
0.981013
0.983472
0.984775
0.984923
0.983915
0.98175
0.978424
0.973935
0.968277
0.961448
0.953444
0.944263
0.933908
0.922385
0.90971
0.895908
0.881024
0.865119
0.848285
0.830646
0.812371
0.793676
0.774832
0.756168
0.737487
0.71405
0.687153
0.660301
0.638908
0.626147
0.62152
0.625255
0.635695
0.646883
0.655542
0.660049
0.663822
0.667816
0.671699
0.675207
0.678136
0.680345
0.681751
0.682325
0.682099
0.681156
0.679624
0.677673
0.675491
0.673266
0.671137
0.669075
0.666937
0.664566
0.662337
0.660559
0.659369
0.658783
0.658795
0.659413
0.660651
0.662539
0.665088
0.668183
0.671542
0.674783
0.678049
0.681456
0.685017
0.68858
0.691946
0.694915
0.697309
0.698987
0.699851
0.699164
0.699363
0.699784
0.70047
0.70146
0.702762
0.704312
0.705936
0.707453
0.708967
0.710641
0.712531
0.714633
0.71691
0.719328
0.721874
0.724572
0.727495
0.730766
0.734563
0.739112
0.744678
0.751518
0.759767
0.769371
0.779785
0.791001
0.803267
0.816398
0.830249
0.844573
0.859107
0.8736
0.887827
0.901594
0.914745
0.927154
0.938722
0.949377
0.959063
0.967741
0.975385
0.981974
0.987496
0.991944
0.995311
0.997594
0.998791
0.998901
0.997923
0.995853
0.992693
0.98844
0.983094
0.976656
0.969129
0.960518
0.950835
0.940094
0.928324
0.91556
0.901855
0.887283
0.871941
0.855954
0.839486
0.822737
0.805949
0.789408
0.773441
0.75842
0.742368
0.725435
0.709891
0.698448
0.692728
0.691796
0.693762
0.695928
0.696348
0.697817
0.699997
0.702529
0.705117
0.707524
0.709568
0.711115
0.712085
0.712444
0.712205
0.711422
0.710185
0.70861
0.706828
0.704959
0.703089
0.701234
0.69937
0.697502
0.695789
0.694403
0.693452
0.692985
0.693021
0.693573
0.694647
0.696242
0.698326
0.700807
0.703526
0.706322
0.70918
0.712108
0.715076
0.717985
0.7207
0.723079
0.724991
0.726328
0.727017
0.73374
0.733951
0.734385
0.735059
0.735988
0.737161
0.738532
0.740022
0.741564
0.743186
0.744952
0.746902
0.749045
0.751376
0.753891
0.756597
0.75953
0.762756
0.766379
0.770532
0.775379
0.78109
0.78781
0.795607
0.804434
0.814105
0.824562
0.835814
0.847763
0.860272
0.873161
0.886229
0.899274
0.91211
0.924573
0.93652
0.947834
0.95842
0.968202
0.977123
0.985136
0.992209
0.998317
1.00344
1.00757
1.01069
1.0128
1.0139
1.01397
1.01302
1.01105
1.00805
1.00404
0.999002
0.992952
0.985897
0.977846
0.968817
0.958835
0.947931
0.936151
0.923555
0.910218
0.89624
0.881744
0.866882
0.851836
0.836818
0.822073
0.807869
0.794497
0.782243
0.771495
0.761715
0.752993
0.746438
0.741569
0.73766
0.735428
0.73463
0.734872
0.735821
0.737185
0.738715
0.740206
0.741494
0.742462
0.743031
0.743162
0.742855
0.742141
0.741082
0.739756
0.738252
0.736654
0.735025
0.733402
0.731807
0.730281
0.728915
0.727812
0.727052
0.726683
0.726732
0.727212
0.728123
0.729454
0.731167
0.733193
0.735434
0.737799
0.740239
0.74272
0.745194
0.747584
0.74979
0.75171
0.753247
0.754319
0.75487
0.768104
0.768316
0.768744
0.769396
0.770272
0.771361
0.772635
0.774055
0.775594
0.77726
0.77908
0.781078
0.783268
0.78566
0.788261
0.791093
0.794194
0.797622
0.80146
0.805808
0.810782
0.816491
0.823024
0.830419
0.83865
0.84764
0.857327
0.867665
0.878567
0.889917
0.901572
0.913372
0.925156
0.936768
0.948067
0.958928
0.969243
0.978921
0.98789
0.996089
1.00347
1.01
1.01564
1.02038
1.0242
1.02709
1.02903
1.03002
1.03006
1.02914
1.02727
1.02444
1.02065
1.01592
1.01026
1.00366
0.996152
0.987754
0.978496
0.968415
0.95756
0.945994
0.933794
0.921057
0.9079
0.894462
0.880905
0.867415
0.854195
0.841466
0.829453
0.818371
0.80841
0.799584
0.791961
0.785429
0.780136
0.776138
0.773433
0.771873
0.77122
0.771231
0.771676
0.772353
0.773088
0.773742
0.774209
0.774414
0.774318
0.77391
0.773207
0.772245
0.77108
0.769771
0.768379
0.766956
0.765543
0.764175
0.762899
0.761777
0.760878
0.76026
0.759962
0.760011
0.760418
0.76118
0.762284
0.763695
0.765362
0.767219
0.769202
0.771257
0.77334
0.775398
0.777365
0.779167
0.780725
0.781966
0.782831
0.783274
0.802257
0.802464
0.802881
0.803507
0.804342
0.805376
0.806591
0.807969
0.809498
0.81118
0.813029
0.815062
0.817291
0.819732
0.822401
0.825321
0.82853
0.832078
0.83603
0.84046
0.845448
0.851069
0.857377
0.864395
0.872109
0.880475
0.889442
0.898951
0.908922
0.919257
0.929836
0.940531
0.951209
0.961739
0.972
0.981882
0.991287
1.00013
1.00835
1.01587
1.02266
1.02867
1.03387
1.03825
1.04177
1.04442
1.0462
1.0471
1.0471
1.04622
1.04444
1.04177
1.03822
1.03379
1.02849
1.02233
1.01535
1.00755
0.99898
0.989672
0.97968
0.969066
0.957907
0.946294
0.934337
0.922161
0.90991
0.897741
0.885827
0.874346
0.863476
0.85338
0.844185
0.835958
0.828742
0.822538
0.817392
0.813322
0.810295
0.808208
0.806904
0.806205
0.805935
0.805932
0.806052
0.806178
0.806216
0.806099
0.805786
0.805262
0.80453
0.803613
0.802546
0.801372
0.800135
0.798878
0.797637
0.796452
0.795362
0.794417
0.793664
0.793146
0.792896
0.792933
0.793268
0.793897
0.794806
0.795967
0.797341
0.798879
0.800531
0.802248
0.803985
0.805691
0.807312
0.808787
0.810056
0.811064
0.811763
0.812122
0.836202
0.836403
0.836807
0.837411
0.838214
0.839208
0.840385
0.841733
0.843249
0.844933
0.846796
0.848848
0.851103
0.853577
0.856288
0.859261
0.862528
0.866131
0.870121
0.874553
0.879482
0.884959
0.891019
0.897674
0.904916
0.912711
0.921016
0.929774
0.938915
0.948351
0.957985
0.967708
0.977409
0.986979
0.996312
1.00531
1.01389
1.02197
1.02949
1.03639
1.04262
1.04815
1.05294
1.05696
1.0602
1.06263
1.06426
1.06506
1.06504
1.06419
1.0625
1.05999
1.05666
1.05252
1.04757
1.04184
1.03535
1.02813
1.0202
1.01161
1.00242
0.992683
0.982473
0.971876
0.960993
0.949936
0.93883
0.927812
0.917025
0.906616
0.896727
0.887485
0.878993
0.871321
0.864512
0.85859
0.853573
0.849461
0.846217
0.843761
0.841983
0.84075
0.839928
0.839387
0.839011
0.838701
0.838377
0.837978
0.837466
0.836821
0.836038
0.835131
0.83412
0.833037
0.831912
0.830782
0.829677
0.828632
0.827682
0.826864
0.826214
0.825765
0.825541
0.825558
0.825823
0.826333
0.827075
0.828027
0.829156
0.830425
0.831794
0.833219
0.83466
0.83607
0.837404
0.838613
0.839649
0.840469
0.841037
0.841327
0.869945
0.870141
0.870532
0.871117
0.871894
0.872859
0.874006
0.87533
0.87683
0.878508
0.880372
0.882431
0.884696
0.887185
0.889913
0.892905
0.896189
0.899798
0.90377
0.908148
0.912969
0.918267
0.924065
0.930368
0.937168
0.944437
0.952136
0.960215
0.968611
0.977248
0.986044
0.994906
1.00374
1.01246
1.02096
1.02916
1.03699
1.04438
1.05126
1.05758
1.0633
1.06837
1.07276
1.07646
1.07943
1.08166
1.08314
1.08386
1.0838
1.08298
1.08139
1.07903
1.07591
1.07204
1.06744
1.06211
1.05609
1.0494
1.04208
1.03416
1.02571
1.01677
1.00742
0.997745
0.987823
0.977759
0.967663
0.957651
0.947846
0.938367
0.92933
0.92084
0.912982
0.905819
0.899395
0.893735
0.88885
0.884732
0.881349
0.878638
0.876516
0.874884
0.873638
0.872677
0.871904
0.871239
0.870612
0.869972
0.86928
0.868516
0.867671
0.866751
0.865767
0.864741
0.863696
0.862659
0.861657
0.860717
0.859869
0.859143
0.858564
0.858159
0.857946
0.857936
0.858134
0.858538
0.859135
0.859908
0.860831
0.861873
0.863
0.864176
0.865364
0.866526
0.867622
0.868612
0.869458
0.870126
0.870588
0.870824
0.903493
0.903683
0.904062
0.904631
0.905387
0.906327
0.907449
0.908751
0.910233
0.911899
0.913753
0.915806
0.918067
0.920552
0.923275
0.926259
0.929525
0.9331
0.937015
0.941298
0.945978
0.951076
0.956605
0.962566
0.96895
0.975731
0.982877
0.99034
0.998065
1.00599
1.01404
1.02213
1.03019
1.03814
1.0459
1.05339
1.06054
1.06729
1.07359
1.07937
1.08461
1.08926
1.09329
1.09668
1.0994
1.10144
1.10278
1.10342
1.10334
1.10255
1.10105
1.09884
1.09592
1.09231
1.08802
1.08308
1.0775
1.07131
1.06455
1.05725
1.04948
1.04127
1.03271
1.02386
1.01479
1.00561
0.996411
0.987285
0.978339
0.969675
0.961387
0.953563
0.946275
0.939579
0.933514
0.928105
0.92336
0.91927
0.915807
0.912925
0.910558
0.908632
0.907065
0.905777
0.904691
0.903738
0.902862
0.902016
0.901166
0.900291
0.899381
0.898434
0.897457
0.896464
0.895472
0.894501
0.893573
0.89271
0.891936
0.891273
0.890742
0.890361
0.890146
0.890104
0.890239
0.890548
0.89102
0.891639
0.892386
0.893235
0.894156
0.89512
0.896095
0.897048
0.897945
0.898754
0.899444
0.899988
0.900364
0.900556
0.93685
0.937035
0.937404
0.937958
0.938695
0.939613
0.940712
0.941992
0.943453
0.9451
0.946936
0.948972
0.951215
0.953679
0.956378
0.959329
0.962551
0.966064
0.969891
0.974053
0.978569
0.983453
0.988711
0.994342
1.00033
1.00666
1.0133
1.0202
1.02732
1.0346
1.04198
1.04939
1.05676
1.06402
1.07111
1.07795
1.08449
1.09066
1.09642
1.10172
1.10651
1.11077
1.11447
1.11757
1.12005
1.12191
1.12313
1.12369
1.12359
1.12283
1.12141
1.11934
1.11662
1.11326
1.10927
1.10468
1.09951
1.09379
1.08755
1.08082
1.07367
1.06614
1.05828
1.05017
1.04188
1.03349
1.02508
1.01674
1.00855
1.00061
0.992981
0.985751
0.978976
0.972707
0.966978
0.961811
0.957214
0.95318
0.949686
0.946696
0.944161
0.942021
0.940214
0.938675
0.937343
0.936161
0.935081
0.934063
0.933077
0.932102
0.931126
0.930146
0.929163
0.928186
0.927227
0.926301
0.925425
0.924615
0.923891
0.92327
0.922768
0.922399
0.922173
0.922097
0.922172
0.922394
0.922756
0.923244
0.92384
0.924523
0.92527
0.926054
0.926848
0.927625
0.928357
0.929016
0.929577
0.93002
0.930325
0.930481
0.970022
0.970202
0.970562
0.971102
0.971821
0.972719
0.973795
0.975051
0.976488
0.97811
0.979921
0.98193
0.984143
0.986572
0.98923
0.992129
0.995285
0.998713
1.00243
1.00645
1.01079
1.01546
1.02045
1.02576
1.03138
1.03729
1.04346
1.04985
1.05642
1.06312
1.06989
1.07669
1.08344
1.09008
1.09656
1.10282
1.1088
1.11444
1.11971
1.12456
1.12895
1.13285
1.13623
1.13907
1.14134
1.14303
1.14412
1.14462
1.1445
1.14377
1.14244
1.14049
1.13795
1.13482
1.13112
1.12686
1.12208
1.11679
1.11102
1.10483
1.09824
1.09132
1.08411
1.07667
1.06908
1.06139
1.05368
1.04604
1.03852
1.03121
1.02418
1.01748
1.01117
1.00529
0.99988
0.994947
0.990505
0.986549
0.983061
0.980013
0.977367
0.975077
0.973094
0.971366
0.969844
0.968482
0.967238
0.966079
0.964977
0.963914
0.962877
0.96186
0.960863
0.95989
0.958949
0.958051
0.957209
0.956435
0.955744
0.955148
0.954661
0.954292
0.95405
0.953937
0.953956
0.954101
0.954367
0.95474
0.955207
0.955749
0.956346
0.956978
0.957619
0.958248
0.95884
0.959374
0.959829
0.960188
0.960435
0.960561
1.00301
1.00319
1.00354
1.00407
1.00477
1.00565
1.0067
1.00793
1.00934
1.01093
1.01271
1.01468
1.01685
1.01924
1.02184
1.02467
1.02775
1.03107
1.03467
1.03854
1.04269
1.04713
1.05186
1.05686
1.06214
1.06765
1.07339
1.07931
1.08538
1.09156
1.09779
1.10403
1.11022
1.1163
1.12224
1.12796
1.13343
1.1386
1.14343
1.14786
1.15188
1.15545
1.15854
1.16113
1.1632
1.16474
1.16573
1.16616
1.16602
1.16533
1.16407
1.16225
1.15988
1.15696
1.15352
1.14958
1.14515
1.14025
1.13494
1.12922
1.12316
1.11679
1.11016
1.10333
1.09636
1.0893
1.08223
1.0752
1.06829
1.06155
1.05504
1.04882
1.04294
1.03742
1.0323
1.02759
1.02331
1.01945
1.016
1.01293
1.01022
1.00783
1.00572
1.00385
1.00219
1.00068
0.99931
0.998036
0.996839
0.9957
0.994607
0.993554
0.992538
0.991562
0.990628
0.989746
0.988924
0.988172
0.9875
0.986918
0.986436
0.98606
0.985797
0.985648
0.985613
0.985689
0.985869
0.986143
0.986498
0.986919
0.987389
0.98789
0.988403
0.988906
0.989382
0.989812
0.990178
0.990467
0.990666
0.990767
1.03583
1.036
1.03634
1.03686
1.03754
1.0384
1.03942
1.04063
1.04201
1.04356
1.0453
1.04723
1.04936
1.05168
1.05422
1.05697
1.05995
1.06317
1.06663
1.07034
1.0743
1.07852
1.08299
1.0877
1.09265
1.0978
1.10314
1.10863
1.11424
1.11994
1.12568
1.13141
1.1371
1.14268
1.14812
1.15336
1.15838
1.16311
1.16752
1.17159
1.17526
1.17853
1.18135
1.18372
1.18561
1.187
1.18788
1.18826
1.18811
1.18744
1.18625
1.18455
1.18234
1.17963
1.17644
1.17278
1.16867
1.16415
1.15924
1.15397
1.14838
1.14252
1.13642
1.13014
1.12372
1.11724
1.11073
1.10426
1.09788
1.09165
1.08562
1.07983
1.07433
1.06915
1.0643
1.05982
1.0557
1.05194
1.04854
1.04549
1.04275
1.04029
1.0381
1.03614
1.03437
1.03276
1.03128
1.02992
1.02864
1.02744
1.0263
1.02521
1.02418
1.02319
1.02226
1.02138
1.02057
1.01983
1.01917
1.01859
1.0181
1.01772
1.01743
1.01724
1.01716
1.01717
1.01728
1.01746
1.01772
1.01804
1.0184
1.01879
1.01919
1.01959
1.01997
1.02031
1.0206
1.02084
1.02099
1.02108
1.06848
1.06864
1.06897
1.06947
1.07014
1.07097
1.07198
1.07315
1.07449
1.07601
1.07771
1.07959
1.08166
1.08392
1.08638
1.08904
1.09192
1.09502
1.09834
1.10189
1.10566
1.10966
1.11388
1.11832
1.12295
1.12776
1.13273
1.13783
1.14302
1.14829
1.15358
1.15885
1.16408
1.1692
1.17419
1.179
1.18359
1.18793
1.19197
1.19569
1.19906
1.20204
1.20463
1.20678
1.2085
1.20976
1.21056
1.21088
1.21072
1.21008
1.20896
1.20736
1.2053
1.20278
1.19981
1.19642
1.19262
1.18844
1.1839
1.17904
1.17388
1.16847
1.16285
1.15707
1.15116
1.14519
1.13919
1.13322
1.12732
1.12155
1.11595
1.11056
1.10541
1.10053
1.09595
1.09167
1.08772
1.08408
1.08075
1.07773
1.07498
1.0725
1.07026
1.06823
1.06638
1.06469
1.06314
1.06171
1.06037
1.05912
1.05793
1.05682
1.05576
1.05476
1.05383
1.05295
1.05214
1.05141
1.05075
1.05017
1.04967
1.04927
1.04896
1.04874
1.04861
1.04856
1.0486
1.04871
1.04889
1.04912
1.04939
1.04968
1.04999
1.0503
1.05059
1.05086
1.05109
1.05127
1.0514
1.05146
1.10095
1.10112
1.10144
1.10193
1.10257
1.10338
1.10436
1.1055
1.10681
1.10828
1.10993
1.11176
1.11376
1.11595
1.11833
1.12091
1.12368
1.12665
1.12982
1.1332
1.13679
1.14058
1.14456
1.14873
1.15307
1.15756
1.16219
1.16692
1.17174
1.1766
1.18148
1.18635
1.19115
1.19586
1.20044
1.20486
1.20907
1.21304
1.21675
1.22015
1.22323
1.22596
1.22832
1.23029
1.23185
1.23299
1.2337
1.23397
1.2338
1.23319
1.23214
1.23064
1.22872
1.22637
1.22362
1.22047
1.21695
1.21308
1.20888
1.20439
1.19963
1.19464
1.18946
1.18412
1.17868
1.17316
1.16762
1.1621
1.15664
1.15129
1.14608
1.14104
1.13621
1.13162
1.12728
1.12321
1.11942
1.1159
1.11266
1.10968
1.10696
1.10447
1.10221
1.10013
1.09824
1.0965
1.09489
1.0934
1.09202
1.09072
1.08951
1.08836
1.08729
1.08628
1.08533
1.08446
1.08365
1.08291
1.08225
1.08166
1.08116
1.08073
1.0804
1.08014
1.07997
1.07988
1.07985
1.0799
1.08
1.08015
1.08034
1.08056
1.08079
1.08102
1.08125
1.08145
1.08163
1.08177
1.08187
1.08192
1.13327
1.13343
1.13374
1.13421
1.13484
1.13563
1.13658
1.13768
1.13895
1.14038
1.14198
1.14375
1.14569
1.1478
1.15009
1.15257
1.15523
1.15807
1.1611
1.16432
1.16772
1.1713
1.17505
1.17897
1.18303
1.18723
1.19154
1.19594
1.2004
1.2049
1.20941
1.21389
1.21832
1.22265
1.22686
1.23092
1.23478
1.23843
1.24182
1.24494
1.24776
1.25026
1.25241
1.2542
1.25562
1.25665
1.25728
1.25751
1.25734
1.25675
1.25576
1.25436
1.25256
1.25038
1.24782
1.2449
1.24163
1.23805
1.23417
1.23001
1.22561
1.221
1.21622
1.21129
1.20626
1.20116
1.19603
1.19092
1.18586
1.18088
1.17602
1.17131
1.16679
1.16246
1.15835
1.15448
1.15084
1.14745
1.1443
1.14139
1.1387
1.13623
1.13395
1.13186
1.12994
1.12816
1.12652
1.12499
1.12357
1.12225
1.121
1.11984
1.11875
1.11773
1.11678
1.11589
1.11508
1.11434
1.11367
1.11307
1.11255
1.11211
1.11175
1.11147
1.11125
1.11111
1.11104
1.11103
1.11107
1.11115
1.11127
1.11142
1.11158
1.11175
1.11192
1.11207
1.1122
1.11231
1.11238
1.11242
1.16543
1.16558
1.16589
1.16634
1.16695
1.16772
1.16863
1.1697
1.17093
1.17231
1.17386
1.17557
1.17743
1.17947
1.18167
1.18405
1.18659
1.18931
1.19219
1.19525
1.19847
1.20185
1.20539
1.20906
1.21287
1.21679
1.2208
1.22489
1.22903
1.2332
1.23736
1.2415
1.24558
1.24957
1.25344
1.25717
1.26071
1.26406
1.26717
1.27003
1.27261
1.27489
1.27686
1.27849
1.27978
1.28071
1.28127
1.28146
1.28128
1.28071
1.27978
1.27847
1.27679
1.27476
1.27238
1.26966
1.26664
1.26332
1.25972
1.25588
1.25181
1.24754
1.24312
1.23856
1.2339
1.22918
1.22443
1.21969
1.21498
1.21035
1.20582
1.20141
1.19716
1.19308
1.18919
1.1855
1.18202
1.17876
1.1757
1.17286
1.17023
1.16778
1.16552
1.16343
1.16149
1.1597
1.15803
1.15648
1.15504
1.15369
1.15243
1.15124
1.15014
1.14911
1.14815
1.14726
1.14644
1.14569
1.14501
1.14441
1.14387
1.14341
1.14303
1.14271
1.14247
1.14229
1.14217
1.1421
1.14209
1.14211
1.14217
1.14226
1.14237
1.14248
1.1426
1.14271
1.1428
1.14288
1.14293
1.14296
1.19744
1.19759
1.19788
1.19832
1.19891
1.19965
1.20053
1.20157
1.20275
1.20409
1.20558
1.20722
1.20902
1.21097
1.21308
1.21535
1.21778
1.22037
1.22312
1.22601
1.22906
1.23225
1.23557
1.23902
1.24259
1.24625
1.24999
1.25379
1.25763
1.26149
1.26534
1.26916
1.27293
1.2766
1.28017
1.28359
1.28685
1.28992
1.29277
1.29539
1.29775
1.29984
1.30164
1.30312
1.30429
1.30513
1.30563
1.30579
1.30559
1.30506
1.30417
1.30294
1.30137
1.29948
1.29727
1.29475
1.29194
1.28886
1.28552
1.28196
1.27819
1.27425
1.27015
1.26593
1.26161
1.25724
1.25283
1.24842
1.24404
1.23972
1.23548
1.23135
1.22736
1.22351
1.21982
1.21631
1.21299
1.20985
1.2069
1.20414
1.20156
1.19915
1.19692
1.19484
1.1929
1.1911
1.18943
1.18786
1.1864
1.18504
1.18376
1.18257
1.18146
1.18042
1.17945
1.17855
1.17773
1.17697
1.17628
1.17567
1.17512
1.17464
1.17423
1.17389
1.17361
1.1734
1.17323
1.17313
1.17306
1.17304
1.17305
1.17309
1.17314
1.17321
1.17329
1.17336
1.17342
1.17347
1.17351
1.17353
1.2293
1.22944
1.22973
1.23015
1.23072
1.23143
1.23228
1.23328
1.23442
1.23571
1.23714
1.23872
1.24044
1.24231
1.24433
1.2465
1.24882
1.25128
1.25388
1.25663
1.25951
1.26251
1.26564
1.26887
1.27221
1.27563
1.27911
1.28265
1.28621
1.28979
1.29336
1.29689
1.30036
1.30375
1.30703
1.31018
1.31318
1.31599
1.31861
1.32101
1.32318
1.32508
1.32672
1.32808
1.32913
1.32989
1.33033
1.33046
1.33026
1.32974
1.32891
1.32775
1.32629
1.32452
1.32246
1.32012
1.31751
1.31465
1.31156
1.30825
1.30476
1.3011
1.2973
1.29339
1.28938
1.28532
1.28122
1.27712
1.27304
1.26901
1.26504
1.26117
1.25741
1.25377
1.25028
1.24694
1.24376
1.24075
1.23791
1.23523
1.23271
1.23036
1.22816
1.2261
1.22418
1.22238
1.22071
1.21914
1.21767
1.2163
1.21502
1.21382
1.2127
1.21165
1.21068
1.20978
1.20895
1.20818
1.20749
1.20686
1.2063
1.2058
1.20537
1.20501
1.2047
1.20445
1.20425
1.2041
1.204
1.20394
1.2039
1.2039
1.20391
1.20394
1.20397
1.20401
1.20405
1.20408
1.20411
1.20412
1.26102
1.26116
1.26143
1.26184
1.26239
1.26307
1.26389
1.26485
1.26595
1.26718
1.26856
1.27007
1.27172
1.27351
1.27544
1.2775
1.27971
1.28205
1.28451
1.28711
1.28982
1.29266
1.29559
1.29863
1.30175
1.30494
1.30819
1.31148
1.31479
1.31811
1.32141
1.32467
1.32788
1.331
1.33402
1.33692
1.33968
1.34227
1.34467
1.34687
1.34885
1.3506
1.35209
1.35332
1.35428
1.35496
1.35535
1.35545
1.35525
1.35475
1.35396
1.35288
1.35151
1.34986
1.34794
1.34576
1.34333
1.34067
1.3378
1.33474
1.33149
1.3281
1.32457
1.32093
1.31721
1.31344
1.30962
1.3058
1.30199
1.29822
1.29451
1.29087
1.28733
1.28389
1.28059
1.27741
1.27437
1.27149
1.26875
1.26615
1.26371
1.26141
1.25925
1.25723
1.25533
1.25355
1.25188
1.25032
1.24885
1.24748
1.2462
1.24499
1.24387
1.24282
1.24184
1.24094
1.2401
1.23933
1.23862
1.23799
1.23741
1.2369
1.23645
1.23606
1.23573
1.23545
1.23522
1.23504
1.2349
1.2348
1.23473
1.23468
1.23466
1.23466
1.23466
1.23467
1.23469
1.2347
1.23471
1.23472
1.29261
1.29274
1.293
1.29339
1.29392
1.29458
1.29536
1.29628
1.29733
1.29852
1.29983
1.30128
1.30286
1.30457
1.3064
1.30837
1.31046
1.31268
1.31502
1.31747
1.32003
1.32269
1.32545
1.32829
1.33121
1.33419
1.33722
1.34028
1.34336
1.34643
1.34949
1.35251
1.35547
1.35836
1.36114
1.36381
1.36635
1.36873
1.37093
1.37295
1.37476
1.37636
1.37772
1.37884
1.37971
1.38032
1.38066
1.38073
1.38053
1.38005
1.37931
1.37829
1.377
1.37546
1.37367
1.37164
1.36938
1.36691
1.36424
1.36139
1.35838
1.35523