/*--------------------------------*- C++ -*----------------------------------*\
| =========                 |                                                 |
| \\      /  F ield         | OpenFOAM: The Open Source CFD Toolbox           |
|  \\    /   O peration     | Version:  2406                                  |
|   \\  /    A nd           | Website:  www.openfoam.com                      |
|    \\/     M anipulation  |                                                 |
\*---------------------------------------------------------------------------*/
FoamFile
{
    version     2.0;
    format      ascii;
    arch        "LSB;label=32;scalar=64";
    class       volScalarField;
    location    "5.45";
    object      D;
}
// * * * * * * * * * * * * * * * * * * * * * * * * * * * * * * * * * * * * * //

dimensions      [0 2 -1 0 0 0 0];

internalField   nonuniform List<scalar> 
14400
(
6.23132e-05
6.21201e-05
6.18404e-05
6.15631e-05
6.13323e-05
6.11639e-05
6.1062e-05
6.10282e-05
6.10666e-05
6.11861e-05
6.14028e-05
6.17427e-05
6.22418e-05
6.29299e-05
6.37331e-05
6.4138e-05
6.32679e-05
6.21901e-05
6.13064e-05
6.06322e-05
6.01163e-05
5.97137e-05
5.93937e-05
5.91369e-05
5.89319e-05
5.8773e-05
5.86596e-05
5.85954e-05
5.85895e-05
5.86588e-05
5.88347e-05
5.91793e-05
5.98376e-05
6.12642e-05
6.58636e-05
0.000101608
0.000138238
0.00013824
0.00013824
0.00013824
0.00013824
0.00013824
0.00013824
0.00013824
0.00013824
0.00013824
0.00013824
0.00013824
0.00013824
0.00013824
0.00013824
0.00013824
0.00013824
0.00013824
0.00013824
0.00013824
0.00013824
0.00013824
0.00013824
0.00013824
0.00013824
0.000137388
7.44236e-05
6.35008e-05
6.0869e-05
5.98388e-05
5.934e-05
5.90909e-05
5.89844e-05
5.89695e-05
5.90172e-05
5.9109e-05
5.92316e-05
5.93748e-05
5.9531e-05
5.96947e-05
5.98641e-05
6.00412e-05
6.02339e-05
6.04584e-05
6.07427e-05
6.11361e-05
6.17323e-05
6.27413e-05
6.48039e-05
7.12959e-05
0.000127041
0.00013824
0.000136539
7.61223e-05
6.61906e-05
6.33459e-05
6.20961e-05
6.1426e-05
6.10398e-05
6.08186e-05
6.07041e-05
6.0663e-05
6.06734e-05
6.07175e-05
6.07781e-05
6.08362e-05
6.08716e-05
6.08677e-05
6.08184e-05
6.07319e-05
6.06262e-05
6.0521e-05
6.04344e-05
6.03821e-05
6.03799e-05
6.04473e-05
6.06129e-05
6.09263e-05
6.14846e-05
6.25162e-05
6.47333e-05
7.17422e-05
0.000131609
0.00013824
6.26844e-05
6.23745e-05
6.19832e-05
6.16301e-05
6.13534e-05
6.11585e-05
6.10426e-05
6.10036e-05
6.1044e-05
6.11733e-05
6.14112e-05
6.17933e-05
6.23828e-05
6.32905e-05
6.46772e-05
6.63102e-05
6.42096e-05
6.25687e-05
6.14671e-05
6.07028e-05
6.01464e-05
5.97247e-05
5.9396e-05
5.91363e-05
5.89319e-05
5.87763e-05
5.86684e-05
5.86119e-05
5.86165e-05
5.87009e-05
5.88997e-05
5.92829e-05
6.00155e-05
6.16243e-05
6.70295e-05
0.000117327
0.00013824
0.00013824
0.00013824
0.00013824
0.00013824
0.00013824
0.00013824
0.00013824
0.00013824
0.00013824
0.00013824
0.00013824
0.00013824
0.00013824
0.00013824
0.00013824
0.00013824
0.00013824
0.00013824
0.00013824
0.00013824
0.00013824
0.00013824
0.00013824
0.00013824
0.000138188
8.65941e-05
6.47162e-05
6.11578e-05
5.99625e-05
5.94063e-05
5.91274e-05
5.90016e-05
5.89723e-05
5.90083e-05
5.90901e-05
5.9204e-05
5.93399e-05
5.94901e-05
5.96499e-05
5.98176e-05
5.99958e-05
6.01933e-05
6.0427e-05
6.07271e-05
6.1148e-05
6.17975e-05
6.29323e-05
6.53861e-05
7.34734e-05
0.000134801
0.00013824
0.000138192
9.12293e-05
6.78111e-05
6.37419e-05
6.22559e-05
6.15043e-05
6.10804e-05
6.08395e-05
6.07152e-05
6.06716e-05
6.06857e-05
6.07397e-05
6.08157e-05
6.08923e-05
6.09443e-05
6.0947e-05
6.08911e-05
6.07888e-05
6.06657e-05
6.05466e-05
6.04516e-05
6.03969e-05
6.03982e-05
6.04758e-05
6.06611e-05
6.10108e-05
6.16455e-05
6.28851e-05
6.60041e-05
8.00903e-05
0.000137823
0.00013824
6.38472e-05
6.30567e-05
6.23363e-05
6.17975e-05
6.14184e-05
6.11675e-05
6.10227e-05
6.09731e-05
6.10179e-05
6.11678e-05
6.14493e-05
6.19179e-05
6.26944e-05
6.41005e-05
6.74193e-05
8.13255e-05
6.72458e-05
6.34857e-05
6.18254e-05
6.08615e-05
6.02193e-05
5.97573e-05
5.94098e-05
5.91432e-05
5.89394e-05
5.87899e-05
5.86926e-05
5.86516e-05
5.86781e-05
5.87945e-05
5.90442e-05
5.95196e-05
6.04539e-05
6.26568e-05
7.07474e-05
0.000135994
0.00013824
0.00013824
0.00013824
0.00013824
0.00013824
0.00013824
0.00013824
0.00013824
0.00013824
0.00013824
0.00013824
0.00013824
0.00013824
0.00013824
0.00013824
0.00013824
0.00013824
0.00013824
0.00013824
0.00013824
0.00013824
0.00013824
0.00013824
0.00013824
0.00013824
0.00013824
0.000111904
6.67826e-05
6.17267e-05
6.02279e-05
5.95528e-05
5.92101e-05
5.90435e-05
5.89847e-05
5.89973e-05
5.90596e-05
5.91567e-05
5.92785e-05
5.94178e-05
5.95704e-05
5.97355e-05
5.99169e-05
6.01244e-05
6.03772e-05
6.07099e-05
6.11876e-05
6.19511e-05
6.33947e-05
6.73233e-05
9.02739e-05
0.00013819
0.00013824
0.00013824
0.000121268
7.08759e-05
6.46094e-05
6.26224e-05
6.16911e-05
6.11847e-05
6.09011e-05
6.07558e-05
6.07068e-05
6.07295e-05
6.08064e-05
6.09192e-05
6.10429e-05
6.114e-05
6.11615e-05
6.10862e-05
6.09397e-05
6.0772e-05
6.06191e-05
6.05041e-05
6.04429e-05
6.04511e-05
6.05503e-05
6.07774e-05
6.12056e-05
6.20055e-05
6.37044e-05
6.90872e-05
0.000112676
0.00013824
0.00013824
6.85563e-05
6.47779e-05
6.30781e-05
6.2142e-05
6.15756e-05
6.12301e-05
6.10384e-05
6.09721e-05
6.1025e-05
6.12099e-05
6.15656e-05
6.21826e-05
6.32861e-05
6.56137e-05
7.31716e-05
0.000132852
7.73602e-05
6.54311e-05
6.24835e-05
6.11526e-05
6.03634e-05
5.98327e-05
5.94524e-05
5.91726e-05
5.8968e-05
5.88264e-05
5.87449e-05
5.87281e-05
5.87902e-05
5.89604e-05
5.9301e-05
5.99595e-05
6.14036e-05
6.61966e-05
0.000109296
0.00013824
0.00013824
0.00013824
0.00013824
0.00013824
0.00013824
0.00013824
0.00013824
0.00013824
0.00013824
0.00013824
0.00013824
0.00013824
0.00013824
0.00013824
0.00013824
0.00013824
0.00013824
0.00013824
0.00013824
0.00013824
0.00013824
0.00013824
0.00013824
0.00013824
0.00013824
0.00013824
0.000135538
7.07104e-05
6.28916e-05
6.07362e-05
5.98205e-05
5.93607e-05
5.9125e-05
5.90189e-05
5.89958e-05
5.9029e-05
5.91022e-05
5.92045e-05
5.93292e-05
5.94729e-05
5.9636e-05
5.98236e-05
6.00481e-05
6.03322e-05
6.07179e-05
6.12888e-05
6.22394e-05
6.41759e-05
7.02451e-05
0.000120418
0.00013824
0.00013824
0.00013824
0.000138146
8.65879e-05
6.69501e-05
6.33938e-05
6.20702e-05
6.14066e-05
6.10458e-05
6.08635e-05
6.08053e-05
6.08445e-05
6.0965e-05
6.11527e-05
6.13822e-05
6.15987e-05
6.16727e-05
6.1541e-05
6.12766e-05
6.10067e-05
6.07835e-05
6.06288e-05
6.0554e-05
6.0573e-05
6.07093e-05
6.1011e-05
6.15863e-05
6.27192e-05
6.54775e-05
7.70058e-05
0.000137483
0.00013824
0.00013824
0.000112003
7.04265e-05
6.47217e-05
6.28375e-05
6.19181e-05
6.14142e-05
6.1147e-05
6.10552e-05
6.1123e-05
6.13682e-05
6.18551e-05
6.27607e-05
6.46363e-05
7.03823e-05
0.000115195
0.00013824
0.000123036
7.01202e-05
6.37607e-05
6.16884e-05
6.06371e-05
5.99896e-05
5.95532e-05
5.92492e-05
5.90397e-05
5.89073e-05
5.88474e-05
5.88661e-05
5.89829e-05
5.92405e-05
5.97383e-05
6.07466e-05
6.33664e-05
7.59665e-05
0.000137841
0.00013824
0.00013824
0.00013824
0.00013824
0.00013824
0.00013824
0.00013824
0.00013824
0.00013824
0.00013824
0.00013824
0.00013824
0.00013824
0.00013824
0.00013824
0.00013824
0.00013824
0.00013824
0.00013824
0.00013824
0.00013824
0.00013824
0.00013824
0.00013824
0.00013824
0.00013824
0.00013824
0.00013824
0.00011256
6.68755e-05
6.18124e-05
6.02989e-05
5.96195e-05
5.92716e-05
5.90952e-05
5.90216e-05
5.90158e-05
5.90581e-05
5.91365e-05
5.92443e-05
5.9379e-05
5.95423e-05
5.97419e-05
5.99934e-05
6.03264e-05
6.07971e-05
6.15253e-05
6.28322e-05
6.60412e-05
8.14854e-05
0.000137981
0.00013824
0.00013824
0.00013824
0.00013824
0.000133756
7.25704e-05
6.50487e-05
6.2839e-05
6.18626e-05
6.13566e-05
6.11071e-05
6.10324e-05
6.11018e-05
6.1305e-05
6.16487e-05
6.21351e-05
6.27517e-05
6.3025e-05
6.26772e-05
6.20185e-05
6.14976e-05
6.11259e-05
6.08934e-05
6.07913e-05
6.08277e-05
6.10292e-05
6.14698e-05
6.23516e-05
6.43403e-05
7.10005e-05
0.000128483
0.00013824
0.00013824
0.00013824
0.000138239
0.000107843
6.981e-05
6.44187e-05
6.26559e-05
6.18495e-05
6.1446e-05
6.13109e-05
6.14071e-05
6.17672e-05
6.25197e-05
6.41306e-05
6.87236e-05
9.65607e-05
0.000138228
0.00013824
0.000138232
9.67516e-05
6.72789e-05
6.27919e-05
6.11674e-05
6.02994e-05
5.97612e-05
5.94122e-05
5.91899e-05
5.90671e-05
5.90367e-05
5.91091e-05
5.93158e-05
5.97269e-05
6.0538e-05
6.2406e-05
6.89933e-05
0.000131576
0.00013824
0.00013824
0.00013824
0.00013824
0.00013824
0.00013824
0.00013824
0.00013824
0.00013824
0.00013824
0.00013824
0.00013824
0.00013824
0.00013824
0.00013824
0.00013824
0.00013824
0.00013824
0.00013824
0.00013824
0.00013824
0.00013824
0.00013824
0.00013824
0.00013824
0.00013824
0.00013824
0.00013824
0.00013824
0.00013814
8.22104e-05
6.42416e-05
6.11583e-05
6.00603e-05
5.95284e-05
5.92464e-05
5.91017e-05
5.9044e-05
5.90474e-05
5.90974e-05
5.9187e-05
5.93141e-05
5.94824e-05
5.9703e-05
5.99977e-05
6.04091e-05
6.1023e-05
6.20433e-05
6.4119e-05
7.07355e-05
0.000126994
0.00013824
0.00013824
0.00013824
0.00013824
0.00013824
0.00013824
0.000125444
7.1121e-05
6.47149e-05
6.28614e-05
6.20171e-05
6.16254e-05
6.15136e-05
6.16444e-05
6.20196e-05
6.27426e-05
6.39896e-05
6.6847e-05
6.8478e-05
6.66632e-05
6.38357e-05
6.25644e-05
6.18325e-05
6.14345e-05
6.12728e-05
6.13444e-05
6.16781e-05
6.24227e-05
6.41545e-05
7.0016e-05
0.000116901
0.00013824
0.00013824
0.00013824
0.00013824
0.00013824
0.000138237
0.000103314
6.96645e-05
6.44468e-05
6.28707e-05
6.21424e-05
6.19176e-05
6.20757e-05
6.27063e-05
6.41626e-05
6.85631e-05
9.09891e-05
0.000138194
0.00013824
0.00013824
0.00013824
0.00013795
7.98855e-05
6.54977e-05
6.22791e-05
6.0916e-05
6.01684e-05
5.97317e-05
5.94806e-05
5.93671e-05
5.9381e-05
5.95439e-05
5.99227e-05
6.0658e-05
6.23376e-05
6.82225e-05
0.000122412
0.00013824
0.00013824
0.00013824
0.00013824
0.00013824
0.00013824
0.00013824
0.00013824
0.00013824
0.00013824
0.00013824
0.00013824
0.00013824
0.00013824
0.00013824
0.00013824
0.00013824
0.00013824
0.00013824
0.00013824
0.00013824
0.00013824
0.00013824
0.00013824
0.00013824
0.00013824
0.00013824
0.00013824
0.00013824
0.00013824
0.00013824
0.000135362
7.03677e-05
6.29032e-05
6.0864e-05
5.99891e-05
5.95328e-05
5.92796e-05
5.91485e-05
5.91005e-05
5.91163e-05
5.91863e-05
5.93089e-05
5.94903e-05
5.97471e-05
6.01131e-05
6.06596e-05
6.15478e-05
6.32671e-05
6.83124e-05
0.00010529
0.000138239
0.00013824
0.00013824
0.00013824
0.00013824
0.00013824
0.00013824
0.00013824
0.000123679
7.14769e-05
6.5601e-05
6.35764e-05
6.27848e-05
6.25561e-05
6.28584e-05
6.36925e-05
6.5824e-05
7.04562e-05
9.87033e-05
0.000121745
9.68986e-05
7.01573e-05
6.54799e-05
6.34661e-05
6.26183e-05
6.22837e-05
6.24613e-05
6.31592e-05
6.48178e-05
7.0458e-05
0.000115946
0.00013824
0.00013824
0.00013824
0.00013824
0.00013824
0.00013824
0.00013824
0.000138237
0.000110733
7.08685e-05
6.59274e-05
6.38692e-05
6.33991e-05
6.37263e-05
6.53427e-05
7.0028e-05
9.97501e-05
0.000138201
0.00013824
0.00013824
0.00013824
0.00013824
0.00013824
0.000137276
7.58992e-05
6.53647e-05
6.2303e-05
6.09891e-05
6.03596e-05
6.0043e-05
5.9939e-05
6.00311e-05
6.03769e-05
6.12044e-05
6.28808e-05
6.86153e-05
0.000120897
0.00013824
0.00013824
0.00013824
0.00013824
0.00013824
0.00013824
0.00013824
0.00013824
0.00013824
0.00013824
0.00013824
0.00013824
0.00013824
0.00013824
0.00013824
0.00013824
0.00013824
0.00013824
0.00013824
0.00013824
0.00013824
0.00013824
0.00013824
0.00013824
0.00013824
0.00013824
0.00013824
0.00013824
0.00013824
0.00013824
0.00013824
0.00013824
0.00013824
0.000129463
6.90381e-05
6.26974e-05
6.08993e-05
6.00857e-05
5.96363e-05
5.93873e-05
5.92639e-05
5.92343e-05
5.92825e-05
5.94057e-05
5.96142e-05
5.99359e-05
6.04285e-05
6.12388e-05
6.27627e-05
6.67795e-05
8.90988e-05
0.0001382
0.00013824
0.00013824
0.00013824
0.00013824
0.00013824
0.00013824
0.00013824
0.00013824
0.00013824
0.000131469
7.89882e-05
6.89266e-05
6.6174e-05
6.52611e-05
6.65117e-05
6.9409e-05
8.2672e-05
0.000129057
0.000138235
0.00013824
0.000138233
0.000127746
8.03349e-05
6.90181e-05
6.60772e-05
6.47998e-05
6.55807e-05
6.8163e-05
7.45941e-05
0.00012693
0.00013824
0.00013824
0.00013824
0.00013824
0.00013824
0.00013824
0.00013824
0.00013824
0.00013824
0.00013824
0.0001279
8.36302e-05
6.99556e-05
6.85808e-05
6.95533e-05
7.80886e-05
0.000122096
0.000138235
0.00013824
0.00013824
0.00013824
0.00013824
0.00013824
0.00013824
0.00013824
0.000137416
8.20424e-05
6.68915e-05
6.29138e-05
6.17542e-05
6.12498e-05
6.11605e-05
6.14475e-05
6.22797e-05
6.52818e-05
7.16672e-05
0.000128912
0.00013824
0.00013824
0.00013824
0.00013824
0.00013824
0.00013824
0.00013824
0.00013824
0.00013824
0.00013824
0.00013824
0.00013824
0.00013824
0.00013824
0.00013824
0.00013824
0.00013824
0.00013824
0.00013824
0.00013824
0.00013824
0.00013824
0.00013824
0.00013824
0.00013824
0.00013824
0.00013824
0.00013824
0.00013824
0.00013824
0.00013824
0.00013824
0.00013824
0.00013824
0.00013824
0.000127156
6.92369e-05
6.31457e-05
6.12858e-05
6.03585e-05
5.98786e-05
5.9622e-05
5.95229e-05
5.9544e-05
5.96764e-05
5.99401e-05
6.03917e-05
6.11436e-05
6.26224e-05
6.64167e-05
8.35901e-05
0.000138088
0.00013824
0.00013824
0.00013824
0.00013824
0.00013824
0.00013824
0.00013824
0.00013824
0.00013824
0.00013824
0.00013824
0.000137843
0.000114936
8.51166e-05
7.6016e-05
8.89043e-05
0.000119445
0.000138077
0.00013824
0.00013824
0.00013824
0.00013824
0.00013824
0.000137971
0.000117491
8.61463e-05
7.40815e-05
8.14712e-05
0.000110651
0.00013703
0.00013824
0.00013824
0.00013824
0.00013824
0.00013824
0.00013824
0.00013824
0.00013824
0.00013824
0.00013824
0.00013824
0.00013824
0.000138108
0.000126475
0.000114173
0.000123941
0.000137763
0.00013824
0.00013824
0.00013824
0.00013824
0.00013824
0.00013824
0.00013824
0.00013824
0.00013824
0.00013824
0.0001381
0.000104778
6.96474e-05
6.63652e-05
6.48121e-05
6.48064e-05
6.61161e-05
6.88418e-05
9.83429e-05
0.000136814
0.00013824
0.00013824
0.00013824
0.00013824
0.00013824
0.00013824
0.00013824
0.00013824
0.00013824
0.00013824
0.00013824
0.00013824
0.00013824
0.00013824
0.00013824
0.00013824
0.00013824
0.00013824
0.00013824
0.00013824
0.00013824
0.00013824
0.00013824
0.00013824
0.00013824
0.00013824
0.00013824
0.00013824
0.00013824
0.00013824
0.00013824
0.00013824
0.00013824
0.00013824
0.00013824
0.00013824
0.00013824
0.000131884
7.23992e-05
6.50406e-05
6.20453e-05
6.09482e-05
6.03701e-05
6.01401e-05
6.01207e-05
6.02802e-05
6.06671e-05
6.1456e-05
6.29015e-05
6.72926e-05
8.8282e-05
0.000138089
0.00013824
0.00013824
0.00013824
0.00013824
0.00013824
0.00013824
0.00013824
0.00013824
0.00013824
0.00013824
0.00013824
0.00013824
0.00013824
0.00013824
0.000138123
0.000137233
0.000138188
0.00013824
0.00013824
0.00013824
0.00013824
0.00013824
0.00013824
0.00013824
0.00013824
0.00013824
0.000138152
0.000136597
0.000137999
0.00013824
0.00013824
0.00013824
0.00013824
0.00013824
0.00013824
0.00013824
0.00013824
0.00013824
0.00013824
0.00013824
0.00013824
0.00013824
0.00013824
0.00013824
0.00013824
0.00013824
0.00013824
0.00013824
0.00013824
0.00013824
0.00013824
0.00013824
0.00013824
0.00013824
0.00013824
0.00013824
0.00013824
0.00013824
0.00013824
0.000138239
0.000131044
0.000104195
8.56118e-05
8.69971e-05
0.000105321
0.00013039
0.000138237
0.00013824
0.00013824
0.00013824
0.00013824
0.00013824
0.00013824
0.00013824
0.00013824
0.00013824
0.00013824
0.00013824
0.00013824
0.00013824
0.00013824
0.00013824
0.00013824
0.00013824
0.00013824
0.00013824
0.00013824
0.00013824
0.00013824
0.00013824
0.00013824
0.00013824
0.00013824
0.00013824
0.00013824
0.00013824
0.00013824
0.00013824
0.00013824
0.00013824
0.00013824
0.00013824
0.00013824
0.00013824
0.00013824
0.00013824
0.000137096
9.27879e-05
6.79743e-05
6.41063e-05
6.21375e-05
6.15814e-05
6.14791e-05
6.17139e-05
6.24401e-05
6.47764e-05
6.92567e-05
0.000105271
0.000138201
0.00013824
0.00013824
0.00013824
0.00013824
0.00013824
0.00013824
0.00013824
0.00013824
0.00013824
0.00013824
0.00013824
0.00013824
0.00013824
0.00013824
0.00013824
0.00013824
0.00013824
0.00013824
0.00013824
0.00013824
0.00013824
0.00013824
0.00013824
0.00013824
0.00013824
0.00013824
0.00013824
0.00013824
0.00013824
0.00013824
0.00013824
0.00013824
0.00013824
0.00013824
0.00013824
0.00013824
0.00013824
0.00013824
0.00013824
0.00013824
0.00013824
0.00013824
0.00013824
0.00013824
0.00013824
0.00013824
0.00013824
0.00013824
0.00013824
0.00013824
0.00013824
0.00013824
0.00013824
0.00013824
0.00013824
0.00013824
0.00013824
0.00013824
0.00013824
0.00013824
0.00013824
0.00013824
0.000138239
0.000138173
0.000138192
0.000138239
0.00013824
0.00013824
0.00013824
0.00013824
0.00013824
0.00013824
0.00013824
0.00013824
0.00013824
0.00013824
0.00013824
0.00013824
0.00013824
0.00013824
0.00013824
0.00013824
0.00013824
0.00013824
0.00013824
0.00013824
0.00013824
0.00013824
0.00013824
0.00013824
0.00013824
0.00013824
0.00013824
0.00013824
0.00013824
0.00013824
0.00013824
0.00013824
0.00013824
0.00013824
0.00013824
0.00013824
0.00013824
0.00013824
0.00013824
0.00013824
0.00013824
0.00013824
0.00013823
0.000123837
8.37229e-05
6.8298e-05
6.66078e-05
6.61531e-05
6.67305e-05
6.87038e-05
8.69532e-05
0.000128133
0.000138239
0.00013824
0.00013824
0.00013824
0.00013824
0.00013824
0.00013824
0.00013824
0.00013824
0.00013824
0.00013824
0.00013824
0.00013824
0.00013824
0.00013824
0.00013824
0.00013824
0.00013824
0.00013824
0.00013824
0.00013824
0.00013824
0.00013824
0.00013824
0.00013824
0.00013824
0.00013824
0.00013824
0.00013824
0.00013824
0.00013824
0.00013824
0.00013824
0.00013824
0.00013824
0.00013824
0.00013824
0.00013824
0.00013824
0.00013824
0.00013824
0.00013824
0.00013824
0.00013824
0.00013824
0.00013824
0.00013824
0.00013824
0.00013824
0.00013824
0.00013824
0.00013824
0.00013824
0.00013824
0.00013824
0.00013824
0.00013824
0.00013824
0.00013824
0.00013824
0.00013824
0.00013824
0.00013824
0.00013824
0.00013824
0.00013824
0.00013824
0.00013824
0.00013824
0.00013824
0.00013824
0.00013824
0.00013824
0.00013824
0.00013824
0.00013824
0.00013824
0.00013824
0.00013824
0.00013824
0.00013824
0.00013824
0.00013824
0.00013824
0.00013824
0.00013824
0.00013824
0.00013824
0.00013824
0.00013824
0.00013824
0.00013824
0.00013824
0.00013824
0.00013824
0.00013824
0.00013824
0.00013824
0.00013824
0.00013824
0.00013824
0.00013824
0.00013824
0.00013824
0.00013824
0.00013824
0.00013824
0.00013824
0.00013824
0.00013824
0.00013824
0.00013824
0.000138171
0.000128957
0.000112341
0.000104885
0.000111915
0.000129312
0.0001382
0.00013824
0.00013824
0.00013824
0.00013824
0.00013824
0.00013824
0.00013824
0.00013824
0.00013824
0.00013824
0.00013824
0.00013824
0.00013824
0.00013824
0.00013824
0.00013824
0.00013824
0.00013824
0.00013824
0.00013824
0.00013824
0.00013824
0.00013824
0.00013824
0.00013824
0.00013824
0.00013824
0.00013824
0.00013824
0.00013824
0.00013824
0.00013824
0.00013824
0.00013824
0.00013824
0.00013824
0.00013824
0.00013824
0.00013824
0.00013824
0.00013824
0.00013824
0.00013824
0.00013824
0.00013824
0.00013824
0.00013824
0.00013824
0.00013824
0.00013824
0.00013824
0.00013824
0.00013824
0.00013824
0.00013824
0.00013824
0.00013824
0.00013824
0.00013824
0.00013824
0.00013824
0.00013824
0.00013824
0.00013824
0.00013824
0.00013824
0.00013824
0.00013824
0.00013824
0.00013824
0.00013824
0.00013824
0.00013824
0.00013824
0.00013824
0.00013824
0.00013824
0.00013824
0.00013824
0.00013824
0.00013824
0.00013824
0.00013824
0.00013824
0.00013824
0.00013824
0.00013824
0.00013824
0.00013824
0.00013824
0.00013824
0.00013824
0.00013824
0.00013824
0.00013824
0.00013824
0.00013824
0.00013824
0.00013824
0.00013824
0.00013824
0.00013824
0.00013824
0.00013824
0.00013824
0.00013824
0.00013824
0.00013824
0.00013824
0.00013824
0.00013824
0.00013824
0.00013824
0.00013824
0.00013824
0.00013824
0.000138239
0.00013824
0.00013824
0.00013824
0.00013824
0.00013824
0.00013824
0.00013824
0.00013824
0.00013824
0.00013824
0.00013824
0.00013824
0.00013824
0.00013824
0.00013824
0.00013824
0.00013824
0.00013824
0.00013824
0.00013824
0.00013824
0.00013824
0.00013824
0.00013824
0.00013824
0.00013824
0.00013824
0.00013824
0.00013824
0.00013824
0.00013824
0.00013824
0.00013824
0.00013824
0.00013824
0.00013824
0.00013824
0.00013824
0.00013824
0.00013824
0.00013824
0.00013824
0.00013824
0.00013824
0.00013824
0.00013824
0.00013824
0.00013824
0.00013824
0.00013824
0.00013824
0.00013824
0.00013824
0.00013824
0.00013824
0.00013824
0.00013824
0.00013824
0.00013824
0.00013824
0.00013824
0.00013824
0.00013824
0.00013824
0.00013824
0.00013824
0.00013824
0.00013824
0.00013824
0.00013824
0.00013824
0.00013824
0.00013824
0.00013824
0.00013824
0.00013824
0.00013824
0.00013824
0.00013824
0.00013824
0.00013824
0.00013824
0.00013824
0.00013824
0.00013824
0.00013824
0.00013824
0.00013824
0.00013824
0.00013824
0.00013824
0.00013824
0.00013824
0.00013824
0.00013824
0.00013824
0.00013824
0.00013824
0.00013824
0.00013824
0.00013824
0.00013824
0.00013824
0.00013824
0.00013824
0.00013824
0.00013824
0.00013824
0.00013824
0.00013824
0.00013824
0.00013824
0.00013824
0.00013824
0.00013824
0.00013824
0.00013824
0.00013824
0.00013824
0.00013824
0.00013824
0.00013824
0.00013824
0.00013824
0.00013824
0.00013824
0.00013824
0.00013824
0.00013824
0.00013824
0.00013824
0.00013824
0.00013824
0.00013824
0.00013824
0.00013824
0.00013824
0.00013824
0.00013824
0.00013824
0.00013824
0.00013824
0.00013824
0.00013824
0.00013824
0.00013824
0.00013824
0.00013824
0.00013824
0.00013824
0.00013824
0.00013824
0.00013824
0.00013824
0.00013824
0.00013824
0.00013824
0.00013824
0.00013824
0.00013824
0.00013824
0.00013824
0.00013824
0.00013824
0.00013824
0.00013824
0.00013824
0.00013824
0.00013824
0.00013824
0.00013824
0.00013824
0.00013824
0.00013824
0.00013824
0.00013824
0.00013824
0.00013824
0.00013824
0.00013824
0.00013824
0.00013824
0.00013824
0.00013824
0.00013824
0.00013824
0.00013824
0.00013824
0.00013824
0.00013824
0.00013824
0.00013824
0.00013824
0.00013824
0.00013824
0.00013824
0.00013824
0.00013824
0.00013824
0.00013824
0.00013824
0.00013824
0.00013824
0.00013824
0.00013824
0.00013824
0.00013824
0.00013824
0.00013824
0.00013824
0.00013824
0.00013824
0.00013824
0.00013824
0.00013824
0.00013824
0.00013824
0.00013824
0.00013824
0.00013824
0.00013824
0.00013824
0.00013824
0.00013824
0.00013824
0.00013824
0.00013824
0.00013824
0.00013824
0.00013824
0.00013824
0.00013824
0.00013824
0.00013824
0.00013824
0.00013824
0.00013824
0.00013824
0.00013824
0.00013824
0.00013824
0.00013824
0.00013824
0.00013824
0.00013824
0.00013824
0.00013824
0.00013824
0.00013824
0.00013824
0.00013824
0.00013824
0.00013824
0.00013824
0.00013824
0.00013824
0.00013824
0.00013824
0.00013824
0.00013824
0.00013824
0.00013824
0.00013824
0.00013824
0.00013824
0.00013824
0.00013824
0.00013824
0.00013824
0.00013824
0.00013824
0.00013824
0.00013824
0.00013824
0.00013824
0.00013824
0.00013824
0.00013824
0.00013824
0.00013824
0.00013824
0.00013824
0.00013824
0.00013824
0.00013824
0.00013824
0.00013824
0.00013824
0.00013824
0.00013824
0.00013824
0.00013824
0.00013824
0.00013824
0.00013824
0.00013824
0.00013824
0.00013824
0.00013824
0.00013824
0.00013824
0.00013824
0.00013824
0.00013824
0.00013824
0.00013824
0.00013824
0.00013824
0.00013824
0.00013824
0.00013824
0.00013824
0.00013824
0.00013824
0.00013824
0.00013824
0.00013824
0.00013824
0.00013824
0.00013824
0.00013824
0.00013824
0.00013824
0.00013824
0.00013824
0.00013824
0.00013824
0.00013824
0.00013824
0.00013824
0.00013824
0.00013824
0.00013824
0.00013824
0.00013824
0.00013824
0.00013824
0.00013824
0.00013824
0.00013824
0.00013824
0.00013824
0.00013824
0.00013824
0.00013824
0.00013824
0.00013824
0.00013824
0.00013824
0.00013824
0.00013824
0.00013824
0.00013824
0.00013824
0.00013824
0.00013824
0.00013824
0.00013824
0.00013824
0.00013824
0.00013824
0.00013824
0.00013824
0.00013824
0.00013824
0.00013824
0.00013824
0.00013824
0.00013824
0.00013824
0.00013824
0.00013824
0.00013824
0.00013824
0.00013824
0.00013824
0.00013824
0.00013824
0.00013824
0.00013824
0.00013824
0.00013824
0.00013824
0.00013824
0.00013824
0.00013824
0.00013824
0.00013824
0.00013824
0.00013824
0.00013824
0.00013824
0.00013824
0.00013824
0.00013824
0.00013824
0.00013824
0.00013824
0.00013824
0.00013824
0.00013824
0.00013824
0.00013824
0.00013824
0.00013824
0.00013824
0.00013824
0.00013824
0.00013824
0.00013824
0.00013824
0.00013824
0.00013824
0.00013824
0.00013824
0.00013824
0.00013824
0.00013824
0.00013824
0.00013824
0.00013824
0.00013824
0.00013824
0.00013824
0.00013824
0.00013824
0.00013824
0.00013824
0.00013824
0.00013824
0.00013824
0.00013824
0.00013824
0.00013824
0.00013824
0.00013824
0.00013824
0.00013824
0.00013824
0.00013824
0.00013824
0.00013824
0.00013824
0.00013824
0.00013824
0.00013824
0.00013824
0.00013824
0.00013824
0.00013824
0.00013824
0.00013824
0.00013824
0.00013824
0.00013824
0.00013824
0.00013824
0.00013824
0.00013824
0.00013824
0.00013824
0.00013824
0.00013824
0.00013824
0.00013824
0.00013824
0.00013824
0.00013824
0.00013824
0.00013824
0.00013824
0.00013824
0.00013824
0.00013824
0.00013824
0.00013824
0.00013824
0.00013824
0.00013824
0.00013824
0.00013824
0.00013824
0.00013824
0.00013824
0.00013824
0.00013824
0.00013824
0.00013824
0.00013824
0.00013824
0.00013824
0.00013824
0.00013824
0.00013824
0.00013824
0.00013824
0.00013824
0.00013824
0.00013824
0.00013824
0.00013824
0.00013824
0.00013824
0.00013824
0.00013824
0.00013824
0.00013824
0.00013824
0.00013824
0.00013824
0.00013824
0.00013824
0.00013824
0.00013824
0.00013824
0.00013824
0.00013824
0.00013824
0.00013824
0.00013824
0.00013824
0.00013824
0.00013824
0.00013824
0.00013824
0.00013824
0.00013824
0.00013824
0.00013824
0.00013824
0.00013824
0.00013824
0.00013824
0.00013824
0.00013824
0.00013824
0.00013824
0.00013824
0.00013824
0.00013824
0.00013824
0.00013824
0.00013824
0.00013824
0.00013824
0.00013824
0.00013824
0.00013824
0.00013824
0.00013824
0.00013824
0.00013824
0.00013824
0.00013824
0.00013824
0.00013824
0.00013824
0.00013824
0.00013824
0.00013824
0.00013824
0.00013824
0.00013824
0.00013824
0.00013824
0.00013824
0.00013824
0.00013824
0.00013824
0.00013824
0.00013824
0.00013824
0.00013824
0.00013824
0.00013824
0.00013824
0.00013824
0.00013824
0.00013824
0.00013824
0.00013824
0.00013824
0.00013824
0.00013824
0.00013824
0.00013824
0.00013824
0.00013824
0.00013824
0.00013824
0.00013824
0.00013824
0.00013824
0.00013824
0.00013824
0.00013824
0.00013824
0.00013824
0.00013824
0.00013824
0.00013824
0.00013824
0.00013824
0.00013824
0.00013824
0.00013824
0.00013824
0.00013824
0.00013824
0.00013824
0.00013824
0.00013824
0.00013824
0.00013824
0.00013824
0.00013824
0.00013824
0.00013824
0.00013824
0.00013824
0.00013824
0.00013824
0.00013824
0.00013824
0.00013824
0.00013824
0.00013824
0.00013824
0.00013824
0.00013824
0.00013824
0.00013824
0.00013824
0.00013824
0.00013824
0.00013824
0.00013824
0.00013824
0.00013824
0.00013824
0.00013824
0.00013824
0.00013824
0.00013824
0.00013824
0.00013824
0.00013824
0.00013824
0.00013824
0.00013824
0.00013824
0.00013824
0.00013824
0.00013824
0.00013824
0.00013824
0.00013824
0.00013824
0.00013824
0.00013824
0.00013824
0.00013824
0.00013824
0.00013824
0.00013824
0.00013824
0.00013824
0.00013824
0.00013824
0.00013824
0.00013824
0.00013824
0.00013824
0.00013824
0.00013824
0.00013824
0.00013824
0.00013824
0.00013824
0.00013824
0.00013824
0.00013824
0.00013824
0.00013824
0.00013824
0.00013824
0.00013824
0.00013824
0.00013824
0.00013824
0.00013824
0.00013824
0.00013824
0.00013824
0.00013824
0.00013824
0.00013824
0.00013824
0.00013824
0.00013824
0.00013824
0.00013824
0.00013824
0.00013824
0.00013824
0.00013824
0.00013824
0.00013824
0.00013824
0.00013824
0.00013824
0.00013824
0.00013824
0.00013824
0.00013824
0.00013824
0.00013824
0.00013824
0.00013824
0.00013824
0.00013824
0.00013824
0.00013824
0.00013824
0.00013824
0.00013824
0.00013824
0.00013824
0.00013824
0.00013824
0.00013824
0.00013824
0.00013824
0.00013824
0.00013824
0.00013824
0.00013824
0.00013824
0.00013824
0.00013824
0.00013824
0.00013824
0.00013824
0.00013824
0.00013824
0.00013824
0.00013824
0.00013824
0.00013824
0.00013824
0.00013824
0.00013824
0.00013824
0.00013824
0.00013824
0.00013824
0.00013824
0.00013824
0.00013824
0.00013824
0.00013824
0.00013824
0.00013824
0.00013824
0.00013824
0.00013824
0.00013824
0.00013824
0.00013824
0.00013824
0.00013824
0.00013824
0.00013824
0.00013824
0.00013824
0.00013824
0.00013824
0.00013824
0.00013824
0.00013824
0.00013824
0.00013824
0.00013824
0.00013824
0.00013824
0.00013824
0.00013824
0.00013824
0.00013824
0.00013824
0.00013824
0.00013824
0.00013824
0.00013824
0.00013824
0.00013824
0.00013824
0.00013824
0.00013824
0.00013824
0.00013824
0.00013824
0.00013824
0.00013824
0.00013824
0.00013824
0.00013824
0.00013824
0.00013824
0.00013824
0.00013824
0.00013824
0.00013824
0.00013824
0.00013824
0.00013824
0.00013824
0.00013824
0.00013824
0.00013824
0.00013824
0.00013824
0.00013824
0.00013824
0.00013824
0.00013824
0.00013824
0.00013824
0.00013824
0.00013824
0.00013824
0.00013824
0.00013824
0.00013824
0.00013824
0.00013824
0.00013824
0.00013824
0.00013824
0.00013824
0.00013824
0.00013824
0.00013824
0.00013824
0.00013824
0.00013824
0.00013824
0.00013824
0.00013824
0.00013824
0.00013824
0.00013824
0.00013824
0.00013824
0.00013824
0.00013824
0.00013824
0.00013824
0.00013824
0.00013824
0.00013824
0.00013824
0.00013824
0.00013824
0.00013824
0.00013824
0.00013824
0.00013824
0.00013824
0.00013824
0.00013824
0.00013824
0.00013824
0.00013824
0.00013824
0.00013824
0.00013824
0.00013824
0.00013824
0.00013824
0.00013824
0.00013824
0.00013824
0.00013824
0.00013824
0.00013824
0.00013824
0.00013824
0.00013824
0.00013824
0.00013824
0.00013824
0.00013824
0.00013824
0.00013824
0.00013824
0.00013824
0.00013824
0.00013824
0.00013824
0.00013824
0.00013824
0.00013824
0.00013824
0.00013824
0.00013824
0.00013824
0.00013824
0.00013824
0.00013824
0.00013824
0.00013824
0.00013824
0.00013824
0.00013824
0.00013824
0.00013824
0.00013824
0.00013824
0.00013824
0.00013824
0.00013824
0.00013824
0.00013824
0.00013824
0.00013824
0.00013824
0.00013824
0.00013824
0.00013824
0.00013824
0.00013824
0.00013824
0.00013824
0.00013824
0.00013824
0.00013824
0.00013824
0.00013824
0.00013824
0.00013824
0.00013824
0.00013824
0.00013824
0.00013824
0.00013824