/*--------------------------------*- C++ -*----------------------------------*\
| =========                 |                                                 |
| \\      /  F ield         | OpenFOAM: The Open Source CFD Toolbox           |
|  \\    /   O peration     | Version:  2406                                  |
|   \\  /    A nd           | Website:  www.openfoam.com                      |
|    \\/     M anipulation  |                                                 |
\*---------------------------------------------------------------------------*/
FoamFile
{
    version     2.0;
    format      ascii;
    arch        "LSB;label=32;scalar=64";
    class       volScalarField;
    location    "4.25";
    object      C;
}
// * * * * * * * * * * * * * * * * * * * * * * * * * * * * * * * * * * * * * //

dimensions      [1 -3 0 0 0 0 0];

internalField   nonuniform List<scalar> 
14400
(
0.404555
0.398565
0.389967
0.38108
0.373388
0.36783
0.364999
0.365247
0.368748
0.375521
0.385427
0.398142
0.413091
0.429284
0.444825
0.454473
0.450762
0.43894
0.424951
0.412054
0.401792
0.395076
0.392531
0.394638
0.401808
0.414416
0.43283
0.457419
0.488553
0.526578
0.571735
0.623935
0.68189
0.738211
0.777825
0.805003
0.828872
0.849859
0.868277
0.88437
0.898332
0.910313
0.920434
0.928791
0.935459
0.940496
0.943944
0.945835
0.946185
0.945004
0.942286
0.938017
0.932172
0.924711
0.915585
0.904725
0.892049
0.87745
0.860797
0.841925
0.820632
0.796658
0.769682
0.737119
0.688055
0.624696
0.566016
0.514152
0.469318
0.431294
0.399715
0.374188
0.354342
0.339845
0.330424
0.325857
0.325977
0.330665
0.33984
0.353445
0.371423
0.393671
0.419963
0.449758
0.481393
0.505331
0.517439
0.522641
0.522051
0.515138
0.497368
0.471962
0.447259
0.425158
0.406353
0.391089
0.379374
0.371049
0.365805
0.363183
0.362569
0.363204
0.364252
0.364957
0.364963
0.364669
0.364868
0.366435
0.370167
0.376722
0.38661
0.400198
0.417718
0.439246
0.464634
0.493297
0.523398
0.54543
0.556238
0.561197
0.421631
0.412915
0.402279
0.392003
0.383372
0.377201
0.374012
0.374125
0.377697
0.384741
0.39512
0.40852
0.424379
0.4417
0.458364
0.467511
0.464923
0.452071
0.436536
0.422522
0.411452
0.40415
0.401199
0.403061
0.410133
0.422783
0.441372
0.466258
0.497809
0.536371
0.582196
0.635219
0.694044
0.746203
0.781652
0.808289
0.831755
0.852428
0.870601
0.886502
0.900312
0.912172
0.922198
0.93048
0.93709
0.942084
0.945502
0.947374
0.947718
0.94654
0.943836
0.939594
0.933786
0.926377
0.917317
0.906542
0.893972
0.879504
0.863014
0.844348
0.823312
0.799662
0.77308
0.742455
0.697076
0.634953
0.575917
0.523391
0.477919
0.439345
0.407312
0.381424
0.361306
0.346626
0.337109
0.332533
0.332732
0.337587
0.347018
0.360973
0.379398
0.402192
0.4291
0.459422
0.490869
0.512711
0.523454
0.528431
0.52811
0.522387
0.507721
0.483091
0.457794
0.435094
0.415849
0.400315
0.388506
0.380277
0.375334
0.37322
0.373296
0.374732
0.376519
0.377579
0.377217
0.376174
0.375567
0.376439
0.37966
0.385908
0.39569
0.40936
0.427133
0.449077
0.47502
0.504175
0.53338
0.552159
0.561573
0.566156
0.450774
0.439949
0.426187
0.413544
0.403222
0.395912
0.392047
0.391905
0.395622
0.403199
0.414496
0.429206
0.446754
0.46599
0.483042
0.488976
0.487771
0.476396
0.459083
0.443277
0.430748
0.422336
0.418603
0.419986
0.42687
0.439609
0.458547
0.484024
0.516384
0.555956
0.602938
0.656947
0.715002
0.758935
0.789123
0.814748
0.837429
0.857496
0.875197
0.890726
0.904241
0.915867
0.925706
0.933842
0.940338
0.945247
0.948606
0.950442
0.950772
0.949601
0.946926
0.942735
0.937002
0.929694
0.920765
0.910156
0.897791
0.883579
0.867408
0.84914
0.828605
0.805598
0.779865
0.751114
0.712545
0.656018
0.595856
0.541923
0.49519
0.455539
0.422613
0.396009
0.37535
0.360305
0.350597
0.346003
0.346358
0.351543
0.361484
0.376128
0.395431
0.419294
0.447439
0.478904
0.508499
0.525732
0.534931
0.53952
0.539557
0.535057
0.525169
0.504712
0.478598
0.454867
0.434826
0.418782
0.406789
0.39875
0.39441
0.393328
0.394848
0.398023
0.401559
0.403619
0.402228
0.399418
0.397061
0.396484
0.398663
0.404296
0.413872
0.427702
0.445953
0.468654
0.495594
0.525567
0.550135
0.563637
0.5717
0.575698
0.482742
0.47625
0.46048
0.445228
0.432751
0.423916
0.419118
0.418627
0.422567
0.430922
0.443524
0.460037
0.479681
0.500408
0.512394
0.51541
0.51512
0.509054
0.491941
0.474146
0.459689
0.449723
0.444872
0.445564
0.45218
0.465066
0.484537
0.510889
0.544412
0.585379
0.633905
0.688942
0.739077
0.773158
0.800028
0.824149
0.845717
0.864931
0.881964
0.896965
0.910058
0.921347
0.930918
0.938842
0.945174
0.949959
0.953232
0.955016
0.955326
0.954166
0.951534
0.947416
0.941793
0.934632
0.925894
0.915524
0.903457
0.889614
0.8739
0.856198
0.836372
0.814259
0.789666
0.762361
0.730693
0.684939
0.625123
0.569656
0.52123
0.480054
0.445829
0.418169
0.396706
0.381113
0.371117
0.366496
0.367084
0.372763
0.383453
0.399105
0.419665
0.445004
0.474695
0.506942
0.530622
0.543065
0.551016
0.555161
0.555542
0.552258
0.545529
0.532477
0.50873
0.484216
0.463247
0.44651
0.434242
0.426462
0.423015
0.423492
0.427259
0.433272
0.440044
0.444443
0.440663
0.434589
0.429385
0.42655
0.427159
0.431882
0.441174
0.455243
0.474137
0.497703
0.525335
0.552849
0.569402
0.579236
0.585891
0.589238
0.515204
0.513516
0.503645
0.486516
0.471709
0.46115
0.455223
0.454317
0.458556
0.467905
0.48208
0.500642
0.521785
0.536836
0.542579
0.545047
0.545376
0.54359
0.533782
0.51486
0.498277
0.486419
0.480185
0.479992
0.486273
0.499378
0.519584
0.547086
0.582043
0.624505
0.67404
0.725784
0.762161
0.789036
0.813681
0.836103
0.85636
0.874545
0.890763
0.905111
0.917679
0.928546
0.937778
0.945433
0.951556
0.956185
0.959348
0.961065
0.961349
0.960203
0.957625
0.953604
0.948121
0.941149
0.932653
0.922588
0.910899
0.897521
0.882378
0.86538
0.846425
0.825399
0.80218
0.776644
0.748692
0.714018
0.663166
0.606545
0.556182
0.513148
0.477273
0.448234
0.425708
0.409388
0.399008
0.39435
0.395248
0.401578
0.41325
0.43019
0.452314
0.479362
0.510338
0.53894
0.554547
0.564201
0.570907
0.574565
0.575191
0.572903
0.567951
0.560725
0.546358
0.522608
0.500997
0.483468
0.470817
0.463308
0.460997
0.463461
0.470148
0.47969
0.490725
0.494265
0.491271
0.480897
0.472154
0.466391
0.464998
0.468562
0.477552
0.491959
0.511578
0.535745
0.562678
0.580151
0.590167
0.598008
0.603392
0.606124
0.548968
0.548233
0.54543
0.535526
0.519414
0.507418
0.500235
0.498891
0.503483
0.513972
0.529622
0.549368
0.564047
0.57104
0.574545
0.576822
0.577702
0.577215
0.574767
0.564088
0.546262
0.53242
0.52471
0.523457
0.529346
0.542762
0.56393
0.592844
0.629372
0.672934
0.72155
0.757183
0.782974
0.807104
0.829557
0.850223
0.869073
0.886128
0.901431
0.915037
0.927002
0.937379
0.946216
0.953555
0.959432
0.963875
0.966909
0.968547
0.968801
0.967673
0.96516
0.961254
0.955938
0.94919
0.940981
0.931275
0.92003
0.907194
0.892711
0.876519
0.858548
0.838733
0.81701
0.793341
0.767733
0.740275
0.703896
0.651585
0.600035
0.555116
0.51734
0.486621
0.462783
0.445558
0.434697
0.429994
0.431279
0.438411
0.451278
0.469732
0.493608
0.522219
0.552489
0.570493
0.580434
0.588285
0.593845
0.597001
0.597755
0.596213
0.5926
0.587268
0.580518
0.567268
0.547274
0.529293
0.516208
0.50886
0.507872
0.512376
0.521794
0.531677
0.53659
0.537386
0.537119
0.532805
0.52367
0.515159
0.511699
0.513913
0.522705
0.5375
0.557478
0.580126
0.595978
0.605195
0.613016
0.619238
0.623544
0.625742
0.583467
0.583118
0.582544
0.580399
0.573141
0.561749
0.553488
0.551877
0.556728
0.568134
0.583697
0.595106
0.601234
0.604739
0.607738
0.609993
0.611397
0.61199
0.611957
0.610108
0.601699
0.58709
0.578469
0.575961
0.581432
0.595251
0.617614
0.648042
0.685531
0.726811
0.758828
0.782487
0.805188
0.826847
0.847221
0.866159
0.883582
0.899461
0.913796
0.926604
0.937912
0.947751
0.956151
0.963139
0.968741
0.972977
0.975864
0.977414
0.977635
0.976527
0.974089
0.970313
0.965186
0.958691
0.950806
0.941503
0.93075
0.918514
0.904755
0.889435
0.872517
0.853972
0.833787
0.811978
0.788608
0.763816
0.737732
0.702076
0.652375
0.606191
0.566439
0.533765
0.508397
0.490107
0.478667
0.47391
0.475654
0.483721
0.497968
0.518007
0.543566
0.572579
0.590929
0.600475
0.608357
0.614659
0.619188
0.621841
0.622613
0.621593
0.618968
0.615027
0.610155
0.604707
0.594802
0.581889
0.56902
0.561609
0.562046
0.56735
0.572223
0.574839
0.574227
0.574179
0.574807
0.576014
0.574052
0.569994
0.565683
0.566435
0.57525
0.589812
0.604781
0.616807
0.624337
0.631328
0.637466
0.642382
0.645804
0.647557
0.618316
0.618227
0.61815
0.618291
0.618232
0.615175
0.611874
0.611095
0.615413
0.622546
0.629336
0.633067
0.635985
0.638944
0.641676
0.644016
0.645902
0.647392
0.648664
0.65002
0.650578
0.646795
0.640528
0.636692
0.642011
0.656202
0.679616
0.710481
0.740976
0.766993
0.78768
0.808269
0.828445
0.847875
0.866319
0.883608
0.899636
0.914339
0.927687
0.939671
0.950293
0.959563
0.967497
0.974109
0.979415
0.983427
0.986157
0.987612
0.987796
0.986712
0.984356
0.980723
0.975803
0.969583
0.962048
0.953179
0.942955
0.931356
0.91836
0.903949
0.888113
0.870852
0.852189
0.832174
0.810904
0.788533
0.765283
0.741315
0.708834
0.665636
0.624701
0.589911
0.562949
0.543486
0.531361
0.526544
0.528812
0.537857
0.553585
0.574587
0.600021
0.616235
0.624674
0.631737
0.63786
0.642806
0.646405
0.648562
0.649263
0.648577
0.646652
0.643719
0.640081
0.636117
0.632276
0.62683
0.620308
0.615313
0.613586
0.613649
0.612733
0.611113
0.610347
0.610295
0.610943
0.612328
0.614619
0.61627
0.617099
0.619978
0.626375
0.634432
0.641551
0.647106
0.652842
0.658312
0.663139
0.667021
0.669733
0.671125
0.653255
0.653325
0.653538
0.654037
0.655033
0.656831
0.658199
0.65946
0.661928
0.664345
0.66594
0.668143
0.670696
0.673375
0.676007
0.678491
0.680803
0.683013
0.685286
0.687891
0.691212
0.695447
0.697617
0.70093
0.708425
0.722258
0.741375
0.761808
0.780614
0.798149
0.816244
0.834465
0.852445
0.869891
0.886572
0.90232
0.917013
0.930572
0.942944
0.9541
0.964024
0.972712
0.980164
0.986386
0.991382
0.99516
0.997724
0.999079
0.999227
0.998168
0.9959
0.992419
0.987718
0.98179
0.974624
0.966209
0.956536
0.945594
0.933379
0.919888
0.905132
0.889135
0.871942
0.853626
0.834302
0.81413
0.793328
0.772173
0.750947
0.723851
0.690419
0.654378
0.626469
0.605888
0.592924
0.588055
0.590895
0.600531
0.617312
0.634982
0.647063
0.653173
0.658718
0.663938
0.66854
0.672302
0.675064
0.676738
0.677301
0.676799
0.675345
0.673114
0.670333
0.667275
0.664232
0.661456
0.659071
0.656391
0.653253
0.650151
0.647914
0.646468
0.645752
0.645712
0.646341
0.64767
0.649777
0.652753
0.656712
0.66086
0.664719
0.668405
0.672562
0.677054
0.681613
0.68594
0.689757
0.69283
0.694981
0.696086
0.688122
0.68828
0.68864
0.689287
0.690326
0.691833
0.693694
0.6957
0.697301
0.698904
0.700722
0.70287
0.705282
0.707852
0.710487
0.713136
0.715807
0.718571
0.721576
0.725048
0.729292
0.734699
0.741818
0.750428
0.759973
0.771857
0.785015
0.798431
0.813088
0.82863
0.844683
0.860901
0.876981
0.89267
0.907758
0.922085
0.935525
0.94799
0.959416
0.969759
0.978992
0.987096
0.994063
0.999888
1.00457
1.00811
1.0105
1.01175
1.01186
1.01083
1.00866
1.00533
1.00086
0.995235
0.988448
0.980499
0.971385
0.961107
0.949672
0.937092
0.923393
0.908614
0.892817
0.876087
0.858546
0.840357
0.821726
0.80291
0.784223
0.766035
0.745874
0.722215
0.697184
0.676089
0.662133
0.657205
0.660491
0.66841
0.676503
0.682806
0.685791
0.68932
0.693087
0.696757
0.700061
0.702795
0.704812
0.706025
0.706403
0.705974
0.704816
0.703057
0.700862
0.698419
0.695915
0.693493
0.691189
0.688835
0.68638
0.684095
0.682303
0.681092
0.68048
0.680461
0.68104
0.682233
0.684065
0.686543
0.689601
0.692936
0.696278
0.699662
0.703232
0.706936
0.710617
0.714077
0.717118
0.719563
0.721273
0.722153
0.722832
0.723031
0.723455
0.724146
0.72515
0.726478
0.728064
0.729785
0.73148
0.733242
0.735173
0.737333
0.739711
0.742263
0.744952
0.747761
0.750716
0.753887
0.7574
0.761432
0.766209
0.77199
0.77903
0.787401
0.797067
0.807605
0.819058
0.831425
0.844673
0.858602
0.872956
0.887473
0.901909
0.916048
0.929707
0.942735
0.955013
0.966448
0.976971
0.98653
0.995087
1.00262
1.0091
1.01453
1.0189
1.02219
1.02442
1.02557
1.02564
1.02464
1.02256
1.0194
1.01516
1.00984
1.00343
0.995953
0.987398
0.977778
0.967109
0.955416
0.942734
0.929113
0.914623
0.899358
0.88344
0.867025
0.850308
0.83352
0.816938
0.800884
0.785731
0.771569
0.756098
0.741518
0.730165
0.723665
0.721687
0.722065
0.721914
0.722005
0.723261
0.725228
0.727553
0.72994
0.732153
0.734006
0.735365
0.736146
0.736313
0.735876
0.734888
0.733437
0.731639
0.729624
0.727517
0.725413
0.723351
0.721315
0.719335
0.717546
0.716111
0.715119
0.714614
0.714612
0.715124
0.716157
0.717708
0.719751
0.722212
0.724937
0.72779
0.730733
0.733768
0.73684
0.739842
0.742634
0.745074
0.74703
0.748396
0.749099
0.757343
0.757558
0.758002
0.758693
0.759649
0.760864
0.7623
0.763895
0.765591
0.767411
0.769396
0.771579
0.773963
0.776539
0.779296
0.782241
0.785408
0.788862
0.792705
0.797072
0.802122
0.808022
0.814911
0.822842
0.831778
0.841573
0.852176
0.863537
0.875577
0.88815
0.901067
0.914127
0.927134
0.939907
0.952286
0.964136
0.975344
0.985819
0.99549
1.0043
1.01221
1.01918
1.0252
1.03024
1.0343
1.03735
1.03941
1.04046
1.0405
1.03953
1.03754
1.03455
1.03054
1.02552
1.0195
1.01248
1.00447
0.995497
0.985571
0.974729
0.963013
0.95048
0.937204
0.923281
0.90883
0.893997
0.878959
0.863923
0.849125
0.834829
0.821322
0.808881
0.797808
0.788187
0.779845
0.772834
0.767204
0.763172
0.760907
0.759954
0.760018
0.76078
0.761956
0.763299
0.764604
0.76571
0.766495
0.766881
0.766826
0.76633
0.765422
0.764164
0.762633
0.760922
0.759116
0.757289
0.755487
0.753741
0.752098
0.750644
0.749474
0.74866
0.748244
0.748249
0.748688
0.749562
0.750857
0.752543
0.754557
0.756809
0.759212
0.761712
0.764266
0.766816
0.769276
0.771543
0.773513
0.775087
0.776184
0.776747
0.791639
0.791857
0.7923
0.792976
0.793888
0.79503
0.796378
0.797903
0.79958
0.801413
0.803421
0.805623
0.808025
0.810633
0.813452
0.8165
0.819813
0.823448
0.827486
0.832028
0.837185
0.843064
0.849751
0.857279
0.865629
0.874734
0.884536
0.894969
0.905948
0.917352
0.929034
0.940834
0.952593
0.964159
0.975394
0.986178
0.996406
1.00599
1.01487
1.02297
1.03027
1.03671
1.04227
1.04694
1.05069
1.05352
1.05541
1.05636
1.05637
1.05543
1.05354
1.05071
1.04693
1.04221
1.03656
1.02999
1.02252
1.01416
1.00495
0.994916
0.984109
0.97259
0.960433
0.947732
0.934601
0.921174
0.90761
0.894088
0.880808
0.867987
0.855846
0.844599
0.834428
0.825423
0.817583
0.810925
0.805504
0.801391
0.798585
0.796887
0.796077
0.795919
0.796192
0.796694
0.797255
0.797734
0.798025
0.798055
0.797782
0.797194
0.796308
0.795161
0.793808
0.792312
0.790737
0.78914
0.787568
0.786062
0.784672
0.783457
0.782483
0.781802
0.781451
0.781453
0.781818
0.782544
0.783617
0.785007
0.786665
0.78853
0.790539
0.792635
0.794769
0.796881
0.798902
0.800751
0.802348
0.80362
0.804505
0.804958
0.825716
0.825932
0.826366
0.827021
0.827897
0.828988
0.83028
0.831758
0.833411
0.83524
0.837254
0.839465
0.841882
0.844515
0.847378
0.850493
0.853895
0.85763
0.861764
0.866369
0.871524
0.877299
0.883749
0.890895
0.898724
0.907198
0.916263
0.925856
0.935895
0.946277
0.956883
0.967583
0.978245
0.988741
0.998954
1.00877
1.01811
1.02688
1.03502
1.04246
1.04917
1.05511
1.06024
1.06455
1.06801
1.07061
1.07235
1.0732
1.07318
1.07227
1.07048
1.06781
1.06425
1.05983
1.05455
1.04841
1.04145
1.03369
1.02515
1.01588
1.00592
0.995337
0.984205
0.972614
0.960667
0.948489
0.936218
0.924009
0.912033
0.900464
0.889478
0.879239
0.869882
0.861493
0.854113
0.84777
0.842495
0.838302
0.835154
0.832933
0.831483
0.830628
0.830198
0.830031
0.829986
0.829946
0.829817
0.829533
0.829052
0.828358
0.827454
0.826365
0.825126
0.823782
0.82238
0.820966
0.819582
0.818269
0.817069
0.81603
0.815199
0.814614
0.814307
0.814295
0.814586
0.815179
0.81606
0.817201
0.818566
0.820108
0.821776
0.823521
0.825294
0.827039
0.828699
0.83021
0.831509
0.832541
0.833256
0.833623
0.859577
0.859788
0.860211
0.860846
0.861692
0.862745
0.863996
0.865439
0.867067
0.868882
0.87089
0.8731
0.875522
0.878168
0.881053
0.884201
0.887641
0.891415
0.895571
0.900161
0.905242
0.910861
0.917051
0.923826
0.931176
0.93907
0.947463
0.956297
0.965498
0.974978
0.984638
0.994369
1.00406
1.01361
1.0229
1.03186
1.04038
1.0484
1.05585
1.06269
1.06885
1.07431
1.07904
1.083
1.08619
1.08858
1.09016
1.09093
1.09088
1.09
1.08831
1.08579
1.08245
1.07831
1.07338
1.06766
1.06119
1.05398
1.04608
1.03752
1.02835
1.01863
1.00844
0.99785
0.986966
0.975896
0.964763
0.9537
0.94285
0.932357
0.922363
0.912997
0.904369
0.896555
0.889604
0.883548
0.878404
0.874167
0.870797
0.86821
0.866292
0.864913
0.86394
0.863245
0.862714
0.862247
0.861764
0.861207
0.860535
0.859729
0.858787
0.857719
0.856549
0.85531
0.854036
0.852762
0.851526
0.850361
0.849306
0.848396
0.847667
0.847149
0.846866
0.846832
0.847054
0.847527
0.848241
0.849172
0.850291
0.85156
0.852937
0.85438
0.855845
0.857282
0.858644
0.85988
0.860939
0.861777
0.862357
0.862654
0.893227
0.893432
0.893844
0.89446
0.895281
0.896303
0.897521
0.898933
0.900536
0.902331
0.904325
0.906524
0.908938
0.91158
0.914466
0.917615
0.921055
0.924818
0.928941
0.933463
0.938422
0.94385
0.949768
0.956182
0.963082
0.970442
0.978222
0.98637
0.994821
1.0035
1.01232
1.02119
1.03003
1.03872
1.0472
1.05537
1.06315
1.07049
1.07731
1.08358
1.08924
1.09425
1.0986
1.10224
1.10516
1.10735
1.10879
1.10948
1.1094
1.10856
1.10695
1.10458
1.10146
1.09759
1.09299
1.08767
1.08166
1.07498
1.06767
1.05977
1.05133
1.04241
1.03306
1.02338
1.01345
1.00337
0.993237
0.983178
0.973309
0.963751
0.954619
0.946019
0.938041
0.930752
0.9242
0.918415
0.913406
0.909165
0.905656
0.902817
0.900561
0.898791
0.897403
0.896296
0.895377
0.894563
0.893787
0.892995
0.892153
0.891238
0.890243
0.889173
0.888043
0.886873
0.88569
0.884521
0.883396
0.882345
0.881396
0.88058
0.879923
0.879449
0.879176
0.879114
0.879269
0.879635
0.880204
0.880955
0.881865
0.882902
0.884032
0.885218
0.886422
0.887602
0.888717
0.889726
0.890588
0.89127
0.891741
0.891982
0.926671
0.926871
0.927271
0.927871
0.928669
0.929663
0.930853
0.932236
0.933812
0.935583
0.937554
0.939732
0.942127
0.944749
0.947614
0.950739
0.954146
0.957862
0.961913
0.966328
0.971133
0.976349
0.981989
0.988053
0.994529
1.00139
1.00861
1.01614
1.02392
1.03188
1.03995
1.04806
1.05612
1.06406
1.0718
1.07926
1.08637
1.09309
1.09933
1.10508
1.11026
1.11487
1.11885
1.12219
1.12487
1.12687
1.12818
1.12879
1.12869
1.12788
1.12636
1.12413
1.12121
1.1176
1.11331
1.10837
1.10279
1.09661
1.08985
1.08257
1.0748
1.0666
1.05803
1.04917
1.04009
1.03088
1.02164
1.01247
1.00346
0.994718
0.986342
0.978419
0.971023
0.964213
0.958031
0.952504
0.94764
0.94343
0.939847
0.93684
0.934345
0.932287
0.930586
0.92916
0.927934
0.926841
0.925823
0.924835
0.923843
0.922827
0.921775
0.920689
0.919575
0.918449
0.917329
0.916236
0.915194
0.914225
0.913355
0.912605
0.911997
0.911549
0.911274
0.91118
0.911271
0.911542
0.911984
0.912581
0.913312
0.914152
0.915071
0.916039
0.917022
0.917986
0.918896
0.919718
0.92042
0.920973
0.921356
0.921552
0.959915
0.960109
0.960499
0.961082
0.961859
0.962829
0.963991
0.965345
0.966892
0.968634
0.970576
0.972724
0.975087
0.977675
0.980501
0.98358
0.986929
0.990569
0.99452
0.998802
1.00343
1.00843
1.01379
1.01951
1.02559
1.03199
1.0387
1.04566
1.05283
1.06014
1.06755
1.07497
1.08235
1.0896
1.09668
1.10349
1.11
1.11614
1.12186
1.12712
1.13188
1.1361
1.13975
1.14281
1.14526
1.14708
1.14827
1.1488
1.14868
1.1479
1.14647
1.14438
1.14165
1.13828
1.13429
1.1297
1.12453
1.11881
1.11257
1.10585
1.09869
1.09115
1.08329
1.07516
1.06685
1.05843
1.04998
1.04159
1.03334
1.02532
1.01761
1.01029
1.00342
0.997045
0.991207
0.985929
0.981219
0.97707
0.97346
0.97035
0.967692
0.965427
0.963492
0.961823
0.960359
0.959044
0.95783
0.956678
0.955558
0.95445
0.953342
0.952231
0.95112
0.950019
0.94894
0.947901
0.946917
0.946008
0.945193
0.944488
0.943911
0.943475
0.94319
0.943062
0.943093
0.943278
0.943608
0.944072
0.94465
0.945321
0.946062
0.946845
0.947642
0.948424
0.949163
0.94983
0.950399
0.950848
0.951158
0.951316
0.992964
0.993153
0.993532
0.9941
0.994857
0.995803
0.996938
0.998262
0.999777
1.00149
1.00339
1.0055
1.00782
1.01036
1.01314
1.01615
1.01942
1.02297
1.0268
1.03093
1.03537
1.04013
1.04522
1.05061
1.05631
1.0623
1.06853
1.07497
1.08159
1.08832
1.09512
1.10193
1.10869
1.11533
1.1218
1.12804
1.134
1.13962
1.14486
1.14967
1.15403
1.15789
1.16124
1.16404
1.16628
1.16794
1.169
1.16947
1.16933
1.16859
1.16723
1.16527
1.16272
1.15958
1.15587
1.15161
1.14682
1.14153
1.13576
1.12956
1.12297
1.11603
1.10881
1.10135
1.09373
1.08601
1.07826
1.07056
1.06299
1.05561
1.0485
1.04172
1.03532
1.02934
1.02382
1.01879
1.01424
1.01017
1.00657
1.00341
1.00065
0.998238
0.996133
0.994282
0.992635
0.991146
0.989776
0.98849
0.987262
0.986073
0.984911
0.983772
0.982655
0.981566
0.980513
0.979509
0.978566
0.977698
0.976919
0.976244
0.975684
0.975251
0.97495
0.974786
0.97476
0.974867
0.9751
0.975448
0.975894
0.976422
0.97701
0.977636
0.978276
0.978906
0.979501
0.980039
0.980499
0.980861
0.981111
0.981239
1.02582
1.02601
1.02638
1.02693
1.02767
1.02859
1.02969
1.03099
1.03247
1.03414
1.036
1.03807
1.04034
1.04282
1.04553
1.04846
1.05164
1.05508
1.05877
1.06274
1.06699
1.07152
1.07633
1.08142
1.08676
1.09235
1.09814
1.10411
1.11023
1.11644
1.12269
1.12895
1.13514
1.14123
1.14716
1.15287
1.15833
1.16347
1.16827
1.17268
1.17667
1.18021
1.18327
1.18583
1.18787
1.18938
1.19034
1.19075
1.19059
1.18988
1.1886
1.18676
1.18438
1.18146
1.17801
1.17405
1.16961
1.16471
1.15939
1.15366
1.14759
1.1412
1.13456
1.1277
1.1207
1.11361
1.10649
1.09942
1.09244
1.08564
1.07906
1.07276
1.06679
1.06118
1.05596
1.05116
1.04677
1.04281
1.03925
1.03607
1.03325
1.03074
1.02852
1.02654
1.02475
1.02313
1.02164
1.02024
1.01893
1.01767
1.01646
1.01529
1.01416
1.01308
1.01204
1.01106
1.01014
1.0093
1.00854
1.00788
1.00733
1.00689
1.00657
1.00637
1.00629
1.00633
1.00648
1.00672
1.00706
1.00746
1.00792
1.00841
1.00892
1.00942
1.0099
1.01033
1.0107
1.01099
1.01119
1.01129
1.0585
1.05868
1.05904
1.05957
1.06029
1.06119
1.06227
1.06353
1.06497
1.0666
1.06842
1.07043
1.07264
1.07506
1.07769
1.08053
1.08361
1.08692
1.09047
1.09427
1.09833
1.10263
1.10718
1.11196
1.11697
1.12218
1.12758
1.13312
1.13877
1.1445
1.15026
1.15601
1.16171
1.16729
1.17273
1.17797
1.18297
1.18768
1.19208
1.19612
1.19977
1.20301
1.2058
1.20814
1.21
1.21137
1.21223
1.21258
1.21241
1.21173
1.21052
1.2088
1.20658
1.20385
1.20065
1.19698
1.19287
1.18833
1.18341
1.17812
1.17252
1.16664
1.16051
1.15421
1.14776
1.14124
1.13468
1.12816
1.12173
1.11544
1.10934
1.10347
1.09789
1.09262
1.08769
1.08311
1.07889
1.07504
1.07154
1.06837
1.06553
1.06297
1.06067
1.05859
1.05671
1.05498
1.0534
1.05192
1.05053
1.04922
1.04796
1.04677
1.04563
1.04454
1.04351
1.04254
1.04164
1.04081
1.04007
1.03942
1.03887
1.03842
1.03807
1.03784
1.03771
1.03768
1.03776
1.03791
1.03815
1.03845
1.0388
1.03918
1.03957
1.03996
1.04034
1.04068
1.04097
1.0412
1.04136
1.04144
1.09099
1.09117
1.09152
1.09204
1.09274
1.09361
1.09465
1.09588
1.09728
1.09887
1.10063
1.10259
1.10474
1.10708
1.10963
1.11238
1.11534
1.11852
1.12193
1.12556
1.12941
1.13349
1.13778
1.14228
1.14698
1.15184
1.15686
1.162
1.16724
1.17253
1.17785
1.18314
1.18838
1.19351
1.1985
1.2033
1.20788
1.21221
1.21623
1.21993
1.22328
1.22624
1.2288
1.23093
1.23262
1.23386
1.23463
1.23493
1.23475
1.2341
1.23296
1.23135
1.22927
1.22674
1.22376
1.22035
1.21654
1.21234
1.20779
1.2029
1.19773
1.1923
1.18666
1.18084
1.17491
1.16889
1.16285
1.15683
1.15088
1.14504
1.13938
1.13391
1.12868
1.12373
1.11906
1.11469
1.11064
1.10691
1.10349
1.10036
1.09752
1.09494
1.09259
1.09045
1.0885
1.08671
1.08505
1.0835
1.08206
1.0807
1.07941
1.0782
1.07704
1.07595
1.07491
1.07395
1.07306
1.07224
1.0715
1.07085
1.0703
1.06983
1.06947
1.0692
1.06902
1.06894
1.06895
1.06903
1.06918
1.06939
1.06964
1.06992
1.07022
1.07052
1.07081
1.07108
1.07131
1.07149
1.07161
1.07168
1.12332
1.12348
1.12382
1.12433
1.125
1.12585
1.12687
1.12805
1.12942
1.13095
1.13267
1.13456
1.13664
1.1389
1.14136
1.14401
1.14686
1.14991
1.15316
1.15662
1.16027
1.16413
1.16818
1.17241
1.17681
1.18135
1.18602
1.1908
1.19565
1.20055
1.20545
1.21033
1.21515
1.21987
1.22445
1.22886
1.23306
1.23703
1.24072
1.24411
1.24717
1.24988
1.25222
1.25416
1.2557
1.25682
1.25751
1.25776
1.25758
1.25694
1.25587
1.25436
1.25242
1.25006
1.24729
1.24413
1.24059
1.23671
1.23249
1.22798
1.2232
1.21818
1.21297
1.20761
1.20213
1.19657
1.19099
1.18542
1.1799
1.17449
1.16921
1.16411
1.15921
1.15454
1.15012
1.14597
1.14208
1.13848
1.13514
1.13207
1.12925
1.12667
1.1243
1.12213
1.12013
1.11829
1.11658
1.11499
1.11351
1.11211
1.1108
1.10956
1.10839
1.10729
1.10625
1.10529
1.1044
1.10359
1.10285
1.1022
1.10163
1.10115
1.10076
1.10046
1.10025
1.10011
1.10006
1.10007
1.10015
1.10028
1.10045
1.10065
1.10087
1.1011
1.10131
1.10152
1.10169
1.10183
1.10192
1.10197
1.15547
1.15563
1.15596
1.15645
1.1571
1.15792
1.15891
1.16006
1.16137
1.16286
1.16452
1.16635
1.16835
1.17053
1.1729
1.17544
1.17817
1.18108
1.18419
1.18747
1.19094
1.19458
1.1984
1.20237
1.20649
1.21073
1.21508
1.21952
1.22402
1.22855
1.23308
1.23758
1.24202
1.24636
1.25057
1.25462
1.25848
1.26212
1.2655
1.26861
1.27141
1.27389
1.27603
1.2778
1.2792
1.28021
1.28082
1.28103
1.28084
1.28023
1.27922
1.27781
1.27599
1.27379
1.27122
1.26828
1.265
1.2614
1.2575
1.25332
1.2489
1.24426
1.23945
1.23449
1.22942
1.22428
1.21911
1.21395
1.20883
1.2038
1.19888
1.1941
1.18951
1.18511
1.18092
1.17696
1.17325
1.16977
1.16653
1.16353
1.16075
1.15818
1.15582
1.15363
1.15161
1.14974
1.148
1.14638
1.14486
1.14344
1.14211
1.14085
1.13967
1.13856
1.13753
1.13656
1.13567
1.13486
1.13412
1.13346
1.13288
1.13238
1.13197
1.13164
1.13138
1.13121
1.1311
1.13106
1.13107
1.13113
1.13123
1.13136
1.13151
1.13167
1.13183
1.13198
1.13211
1.13221
1.13228
1.13232
1.18746
1.18762
1.18793
1.18841
1.18904
1.18983
1.19078
1.19189
1.19316
1.1946
1.1962
1.19796
1.19989
1.20198
1.20425
1.20669
1.2093
1.21208
1.21503
1.21815
1.22143
1.22487
1.22846
1.23218
1.23604
1.24
1.24406
1.24818
1.25235
1.25655
1.26074
1.26489
1.26898
1.27298
1.27686
1.28058
1.28412
1.28746
1.29057
1.29341
1.29598
1.29825
1.3002
1.30181
1.30308
1.30399
1.30454
1.30471
1.30451
1.30393
1.30297
1.30165
1.29995
1.2979
1.2955
1.29278
1.28973
1.28639
1.28277
1.2789
1.27481
1.27052
1.26606
1.26147
1.25678
1.25202
1.24723
1.24243
1.23768
1.23299
1.22839
1.22393
1.21961
1.21545
1.21149
1.20773
1.20417
1.20082
1.19769
1.19476
1.19204
1.1895
1.18715
1.18497
1.18294
1.18106
1.1793
1.17766
1.17612
1.17468
1.17333
1.17207
1.17088
1.16976
1.16872
1.16776
1.16686
1.16605
1.1653
1.16464
1.16405
1.16353
1.1631
1.16274
1.16245
1.16223
1.16208
1.16198
1.16194
1.16194
1.16199
1.16206
1.16215
1.16225
1.16236
1.16246
1.16255
1.16263
1.16268
1.1627
1.21929
1.21944
1.21975
1.22021
1.22082
1.22158
1.2225
1.22357
1.22479
1.22617
1.22771
1.2294
1.23125
1.23326
1.23543
1.23776
1.24025
1.2429
1.2457
1.24866
1.25176
1.255
1.25838
1.26187
1.26548
1.26918
1.27296
1.2768
1.28067
1.28455
1.28843
1.29226
1.29604
1.29972
1.30329
1.30672
1.30997
1.31304
1.31589
1.31849
1.32085
1.32292
1.3247
1.32617
1.32732
1.32814
1.32863
1.32877
1.32856
1.328
1.3271
1.32585
1.32427
1.32236
1.32012
1.31759
1.31476
1.31166
1.3083
1.30471
1.30092
1.29695
1.29282
1.28856
1.28421
1.27979
1.27534
1.27089
1.26646
1.26208
1.25779
1.2536
1.24953
1.24562
1.24186
1.23828
1.23488
1.23166
1.22863
1.22579
1.22313
1.22064
1.21832
1.21615
1.21413
1.21224
1.21048
1.20883
1.20729
1.20584
1.20448
1.2032
1.20201
1.20089
1.19985
1.19888
1.19798
1.19716
1.19641
1.19574
1.19513
1.1946
1.19415
1.19376
1.19344
1.19319
1.19299
1.19285
1.19277
1.19272
1.19271
1.19273
1.19277
1.19283
1.19289
1.19295
1.19301
1.19306
1.1931
1.19311
1.25097
1.25112
1.25141
1.25185
1.25244
1.25317
1.25405
1.25508
1.25626
1.25759
1.25906
1.26069
1.26246
1.26439
1.26646
1.26868
1.27105
1.27356
1.27622
1.27902
1.28195
1.285
1.28818
1.29146
1.29483
1.29829
1.30181
1.30537
1.30897
1.31257
1.31615
1.3197
1.32318
1.32658
1.32987
1.33302
1.33602
1.33883
1.34144
1.34384
1.34599
1.34789
1.34951
1.35085
1.35189
1.35263
1.35306
1.35317
1.35296
1.35242
1.35157
1.3504
1.34892
1.34713
1.34505
1.34269
1.34006
1.33718
1.33406
1.33073
1.32721
1.32352
1.31969
1.31574
1.3117
1.3076
1.30346
1.29931
1.29518
1.29109
1.28707
1.28314
1.27932
1.27562
1.27206
1.26865
1.2654
1.26231
1.25939
1.25664
1.25405
1.25161
1.24933
1.24719
1.24518
1.24331
1.24155
1.2399
1.23835
1.2369
1.23554
1.23426
1.23307
1.23195
1.2309
1.22993
1.22903
1.2282
1.22745
1.22676
1.22615
1.2256
1.22513
1.22472
1.22437
1.22408
1.22385
1.22368
1.22355
1.22346
1.22341
1.22338
1.22338
1.2234
1.22342
1.22345
1.22348
1.22351
1.22353
1.22354
1.2825
1.28264
1.28293
1.28335
1.28391
1.28462
1.28547
1.28646
1.28759
1.28886
1.29027
1.29182
1.29352
1.29536
1.29733
1.29945
1.3017
1.30409
1.3066
1.30925
1.31201
1.31489
1.31787
1.32094
1.3241
1.32732
1.33061
1.33392
1.33726
1.3406
1.34392
1.3472
1.35042
1.35355
1.35658
1.35948
1.36224
1.36482
1.36722
1.36942
1.37139
1.37312
1.37461
1.37583
1.37677
1.37743
1.37781
1.37789
1.37767
1.37716
1.37635
1.37525
1.37386
1.3722
1.37026
1.36806
1.36561
1.36293
1.36003
1.35694
1.35367
1.35025
1.34669
1.34302
1.33926
1.33544
1.33159
1.32772
1.32386
1.32004
1.31627
1.31258
1.30898
1.30548
1.30211
1.29887
1.29576
1.2928
1.28999
1.28732
1.28481
1.28243
1.28019
1.27809
1.27611
1.27425
1.27251
1.27087
1.26932
1.26788
1.26652
1.26524
1.26404
1.26292
1.26188
1.26091
1.26001
1.25917
1.25841
1.25772
1.2571
1.25654
1.25604
1.25561
1.25524
1.25492
1.25466
1.25445
1.25429
1.25416
1.25407
1.25401
1.25397
1.25395
1.25395
1.25395
1.25396
1.25397
1.25398
1.25398
1.31389
1.31403
1.3143
1.31471
1.31525
1.31593
1.31674
1.31768
1.31877
1.31998
1.32133
1.32282
1.32444
1.32619
1.32807
1.33008
1.33222
1.33448
1.33686
1.33936
1.34196
1.34466
1.34746
1.35034
1.3533
1.35631
1.35937
1.36245
1.36556
1.36865
1.37173
1.37476
1.37774
1.38063
1.38342
1.38609
1.38863
1.39101
1.39321
1.39522
1.39703
1.39861
1.39997
1.40107
1.40193
1.40252
1.40285
1.40291
1.40269
1.4022
1.40143
1.4004
1.39909
1.39753
1.39572
1.39367
1.39139
1.3889
1.3862
1.38333
1.38029
1.3771
1.37379
1.37038
1.36688
1.36332
1.35973
1.35612
1.35251
1.34893
1.3454
1.34192
1.33853
1.33522
1.33203
1.32894
1.32598
1.32314
1.32044
1.31786
1.31542