/*--------------------------------*- C++ -*----------------------------------*\
| =========                 |                                                 |
| \\      /  F ield         | OpenFOAM: The Open Source CFD Toolbox           |
|  \\    /   O peration     | Version:  2406                                  |
|   \\  /    A nd           | Website:  www.openfoam.com                      |
|    \\/     M anipulation  |                                                 |
\*---------------------------------------------------------------------------*/
FoamFile
{
    version     2.0;
    format      ascii;
    arch        "LSB;label=32;scalar=64";
    class       volScalarField;
    location    "4.25";
    object      C_0;
}
// * * * * * * * * * * * * * * * * * * * * * * * * * * * * * * * * * * * * * //

dimensions      [1 -3 0 0 0 0 0];

internalField   nonuniform List<scalar> 
14400
(
0.405295
0.399269
0.390629
0.381705
0.373983
0.368406
0.365564
0.365812
0.369323
0.376115
0.38605
0.398805
0.413803
0.430054
0.445657
0.455339
0.451647
0.439791
0.425749
0.412805
0.402508
0.395768
0.39321
0.395317
0.402496
0.415125
0.433572
0.458204
0.489391
0.527479
0.572709
0.624991
0.68302
0.73921
0.778691
0.805849
0.829704
0.850678
0.869085
0.88517
0.899123
0.911098
0.921213
0.929566
0.936229
0.941263
0.944708
0.946597
0.946946
0.945764
0.943046
0.938778
0.932934
0.925476
0.916352
0.905496
0.892825
0.878231
0.861585
0.842722
0.821438
0.797477
0.770515
0.738044
0.689081
0.625685
0.566943
0.51501
0.47011
0.432025
0.400392
0.374819
0.354935
0.340411
0.33097
0.326392
0.326511
0.331205
0.340395
0.354023
0.372031
0.394318
0.420654
0.450495
0.48217
0.506096
0.518177
0.523373
0.522782
0.51588
0.498119
0.472687
0.447944
0.425803
0.406964
0.391674
0.379939
0.371602
0.366355
0.363737
0.363131
0.363778
0.364836
0.365544
0.365546
0.365241
0.365428
0.366986
0.370713
0.37727
0.387168
0.400773
0.418318
0.439877
0.465301
0.493998
0.524119
0.546131
0.556919
0.561875
0.4224
0.413637
0.402953
0.392638
0.383977
0.377786
0.374587
0.374699
0.378281
0.385345
0.395753
0.409194
0.425103
0.442482
0.459202
0.468354
0.465787
0.452926
0.437343
0.423284
0.412179
0.404853
0.40189
0.403751
0.410833
0.423505
0.442126
0.467057
0.498661
0.537286
0.583182
0.636275
0.695153
0.747176
0.78251
0.809132
0.832584
0.853245
0.871408
0.887301
0.901102
0.912956
0.922977
0.931254
0.93786
0.94285
0.946265
0.948136
0.948478
0.947299
0.944596
0.940354
0.934548
0.927141
0.918084
0.907312
0.894746
0.880284
0.863801
0.845142
0.824116
0.800478
0.77391
0.74335
0.698084
0.635967
0.576868
0.524269
0.478729
0.440091
0.408003
0.382068
0.361912
0.347203
0.337666
0.333079
0.333276
0.338137
0.347584
0.361563
0.38002
0.402853
0.429808
0.460177
0.491652
0.513463
0.524187
0.529159
0.528835
0.523114
0.508471
0.483836
0.458495
0.435753
0.416472
0.40091
0.389082
0.380842
0.375896
0.373787
0.373875
0.375325
0.377126
0.378194
0.377823
0.376766
0.376144
0.377004
0.380218
0.386467
0.396259
0.409946
0.427745
0.449721
0.475702
0.504897
0.534097
0.552844
0.56225
0.56683
0.451515
0.440684
0.426878
0.414197
0.403845
0.396515
0.392641
0.392498
0.396225
0.403823
0.415151
0.429902
0.447501
0.466793
0.483866
0.489791
0.4886
0.477262
0.459909
0.444059
0.431497
0.423061
0.419316
0.420699
0.427593
0.440356
0.459328
0.48485
0.517267
0.556903
0.603953
0.658017
0.716063
0.759859
0.789977
0.815586
0.838254
0.85831
0.876001
0.891522
0.905029
0.916649
0.926483
0.934613
0.941106
0.946012
0.949368
0.951202
0.951531
0.950359
0.947685
0.943493
0.937762
0.930456
0.92153
0.910924
0.898563
0.884357
0.868192
0.849931
0.829405
0.806408
0.780688
0.751951
0.713501
0.657098
0.596853
0.54284
0.496034
0.456317
0.423332
0.396678
0.37598
0.360905
0.351175
0.34657
0.346923
0.352116
0.362071
0.376741
0.396077
0.419983
0.448179
0.479697
0.509271
0.526462
0.535657
0.540241
0.540275
0.535772
0.525895
0.505469
0.479322
0.45555
0.435473
0.419399
0.407386
0.399336
0.394995
0.393921
0.395457
0.398654
0.402213
0.404294
0.402881
0.400048
0.397668
0.397073
0.399243
0.404876
0.414461
0.428309
0.446587
0.469321
0.4963
0.526303
0.550828
0.564307
0.572368
0.576365
0.483434
0.476975
0.461189
0.445905
0.433401
0.424547
0.419739
0.419249
0.423199
0.431576
0.444209
0.460765
0.480456
0.501221
0.513184
0.516206
0.515921
0.509896
0.492794
0.474959
0.460468
0.450481
0.445619
0.44631
0.452938
0.465848
0.485356
0.511756
0.545339
0.586375
0.634974
0.690071
0.740043
0.774017
0.800872
0.82498
0.846536
0.86574
0.882764
0.897757
0.910843
0.922126
0.931692
0.939611
0.945939
0.950722
0.953992
0.955775
0.956083
0.954922
0.95229
0.948173
0.942551
0.935392
0.926656
0.916289
0.904227
0.890389
0.87468
0.856984
0.837166
0.815062
0.790479
0.763184
0.731577
0.685967
0.62615
0.570622
0.522123
0.480877
0.446589
0.418876
0.397371
0.381746
0.371728
0.367095
0.367681
0.373367
0.384074
0.399751
0.420346
0.445729
0.475468
0.507744
0.531362
0.543786
0.551733
0.555874
0.556251
0.552963
0.546227
0.533202
0.509481
0.484932
0.463927
0.447159
0.43487
0.427079
0.423632
0.42412
0.427911
0.433954
0.440756
0.445218
0.441374
0.43527
0.430034
0.427175
0.427771
0.432493
0.441794
0.455881
0.474802
0.498401
0.526065
0.553546
0.570061
0.579896
0.586551
0.589897
0.51589
0.514219
0.504383
0.487227
0.472394
0.46182
0.455882
0.454975
0.459227
0.4686
0.482806
0.501411
0.522601
0.537622
0.543348
0.545827
0.546165
0.544391
0.534642
0.515707
0.499097
0.487221
0.480977
0.480784
0.487076
0.500207
0.520452
0.548006
0.583026
0.625552
0.675138
0.726761
0.76302
0.78988
0.814514
0.836925
0.857172
0.875348
0.891558
0.905899
0.91846
0.929321
0.938549
0.946199
0.952318
0.956944
0.960105
0.961821
0.962103
0.960957
0.958379
0.954358
0.948876
0.941906
0.933412
0.92335
0.911665
0.898291
0.883153
0.86616
0.847212
0.826193
0.802982
0.777453
0.749509
0.714938
0.664258
0.607582
0.557142
0.514031
0.478088
0.448991
0.42642
0.410066
0.399662
0.394993
0.395889
0.402225
0.413915
0.430881
0.453039
0.480132
0.511156
0.539702
0.55526
0.564914
0.571616
0.57527
0.575892
0.573599
0.56864
0.56141
0.547074
0.523351
0.501716
0.484154
0.471483
0.463964
0.461653
0.464128
0.470848
0.480423
0.491448
0.494971
0.491993
0.481629
0.472851
0.467056
0.465649
0.469212
0.47821
0.492634
0.512282
0.536465
0.563372
0.580805
0.590817
0.598659
0.604044
0.606776
0.549648
0.548912
0.546139
0.536271
0.520138
0.508137
0.500938
0.499592
0.504199
0.514719
0.530389
0.550176
0.564819
0.571784
0.575302
0.57759
0.578479
0.578
0.575594
0.564977
0.547129
0.533276
0.525558
0.524303
0.530202
0.543646
0.564858
0.593824
0.630416
0.674006
0.722527
0.758054
0.783812
0.807933
0.830378
0.851035
0.869877
0.886924
0.90222
0.915819
0.927778
0.93815
0.946982
0.954317
0.960191
0.964632
0.967663
0.9693
0.969552
0.968424
0.965911
0.962005
0.95669
0.949943
0.941736
0.932033
0.920791
0.907959
0.893481
0.877293
0.859328
0.839518
0.817801
0.794138
0.768535
0.74108
0.704818
0.652669
0.601065
0.55607
0.51822
0.487439
0.463551
0.446292
0.435407
0.430691
0.431972
0.439113
0.451998
0.470477
0.494379
0.523021
0.553272
0.57121
0.581143
0.588991
0.594547
0.597699
0.598447
0.5969
0.593281
0.587943
0.581197
0.567976
0.548032
0.530016
0.516917
0.509561
0.50857
0.513077
0.522529
0.532357
0.537241
0.538005
0.53777
0.533484
0.524402
0.515856
0.512393
0.514607
0.523406
0.538212
0.558222
0.580814
0.596632
0.605835
0.613658
0.619881
0.624188
0.626386
0.584143
0.583793
0.583218
0.581105
0.573878
0.562529
0.554233
0.552619
0.557486
0.568942
0.584479
0.595861
0.601958
0.605475
0.608486
0.61075
0.612163
0.612764
0.612738
0.610943
0.602594
0.588001
0.579382
0.576869
0.582343
0.596192
0.618609
0.649078
0.686631
0.727769
0.759694
0.783316
0.806011
0.827663
0.84803
0.866961
0.884377
0.90025
0.914578
0.92738
0.938684
0.948518
0.956913
0.963897
0.969496
0.97373
0.976615
0.978163
0.978383
0.977274
0.974836
0.97106
0.965934
0.95944
0.951557
0.942256
0.931507
0.919273
0.905518
0.890202
0.873289
0.854748
0.834568
0.812763
0.789396
0.764606
0.738537
0.702993
0.653445
0.607218
0.567389
0.53465
0.509231
0.490905
0.479442
0.474671
0.476411
0.484487
0.498755
0.518816
0.544378
0.573391
0.591671
0.601184
0.609061
0.615359
0.619883
0.622532
0.623299
0.622273
0.619642
0.615695
0.610815
0.605368
0.595496
0.58262
0.569768
0.562351
0.562782
0.568052
0.572886
0.575459
0.574838
0.574791
0.575416
0.576633
0.574712
0.570691
0.566414
0.56717
0.575989
0.590532
0.605456
0.617444
0.624966
0.63196
0.638101
0.643018
0.646441
0.648194
0.618989
0.618899
0.618821
0.618961
0.618928
0.615898
0.612623
0.611862
0.616179
0.623293
0.630062
0.633774
0.636703
0.639672
0.642415
0.644763
0.646658
0.648156
0.649434
0.650797
0.651407
0.647676
0.641496
0.637654
0.642961
0.657186
0.680679
0.711515
0.741899
0.767821
0.788494
0.809081
0.829252
0.848678
0.867117
0.8844
0.900422
0.915119
0.928462
0.940441
0.951058
0.960324
0.968254
0.974863
0.980166
0.984175
0.986903
0.988356
0.98854
0.987455
0.985099
0.981465
0.976546
0.970328
0.962794
0.953927
0.943706
0.932109
0.919116
0.904709
0.888876
0.871619
0.852959
0.832948
0.811681
0.789312
0.766063
0.742113
0.709739
0.666719
0.625716
0.590865
0.563853
0.54436
0.532214
0.527381
0.529641
0.538692
0.554449
0.57547
0.600844
0.616994
0.625385
0.632441
0.638559
0.643501
0.647094
0.649246
0.649942
0.64925
0.64732
0.64438
0.640735
0.636763
0.632914
0.627492
0.620983
0.615987
0.614252
0.614293
0.613344
0.611723
0.610956
0.610904
0.611551
0.612936
0.615225
0.616909
0.617757
0.620643
0.627036
0.635075
0.642166
0.647725
0.653465
0.658937
0.663766
0.66765
0.670362
0.671755
0.653924
0.653994
0.654207
0.654705
0.6557
0.657497
0.658897
0.660172
0.662635
0.665029
0.666632
0.668846
0.671409
0.674096
0.676738
0.679229
0.68155
0.683767
0.686047
0.688658
0.691985
0.696255
0.698475
0.70182
0.709358
0.723213
0.742294
0.762666
0.781411
0.798947
0.817043
0.835262
0.85324
0.870681
0.887358
0.903101
0.91779
0.931343
0.943711
0.954862
0.964783
0.973467
0.980916
0.987134
0.992128
0.995903
0.998465
0.999819
0.999966
0.998906
0.996638
0.993157
0.988457
0.98253
0.975365
0.966952
0.957281
0.946341
0.934128
0.92064
0.905888
0.889893
0.872703
0.854389
0.835067
0.814897
0.794096
0.772941
0.751722
0.724738
0.691448
0.655385
0.627437
0.606843
0.593866
0.588979
0.591795
0.601422
0.618242
0.635798
0.647816
0.653883
0.659422
0.664637
0.669234
0.67299
0.675747
0.677416
0.677974
0.677466
0.676007
0.673769
0.670982
0.667916
0.664864
0.662079
0.659686
0.657004
0.653859
0.650758
0.648522
0.647075
0.646358
0.646318
0.646946
0.648274
0.650379
0.653352
0.657308
0.66146
0.665317
0.669007
0.67317
0.677667
0.68223
0.686559
0.690378
0.693452
0.695604
0.69671
0.688789
0.688946
0.689307
0.689953
0.690991
0.692498
0.694359
0.696367
0.697974
0.699586
0.701412
0.703568
0.705989
0.708567
0.71121
0.713867
0.716544
0.719315
0.722327
0.725804
0.730054
0.735466
0.742586
0.75123
0.760807
0.772682
0.7858
0.799212
0.813871
0.829415
0.845468
0.861684
0.877763
0.893448
0.908534
0.922856
0.936293
0.948754
0.960176
0.970515
0.979744
0.987845
0.994809
1.00063
1.00531
1.00884
1.01124
1.01249
1.0126
1.01157
1.00939
1.00607
1.0016
0.995969
0.989183
0.981236
0.972123
0.961848
0.950414
0.937837
0.92414
0.909364
0.893568
0.87684
0.859301
0.841113
0.822482
0.803667
0.78498
0.766793
0.746718
0.723136
0.698174
0.677112
0.663156
0.658209
0.661447
0.66929
0.677309
0.683536
0.6865
0.690023
0.693785
0.697449
0.700748
0.703477
0.705489
0.706697
0.70707
0.706635
0.705472
0.703707
0.701506
0.699056
0.696545
0.694116
0.691804
0.689446
0.686988
0.684702
0.682909
0.681698
0.681084
0.681065
0.681642
0.682834
0.684665
0.687141
0.690198
0.693532
0.696876
0.700263
0.703837
0.707544
0.711228
0.71469
0.717732
0.720179
0.72189
0.72277
0.723497
0.723696
0.724119
0.724811
0.725814
0.727143
0.728731
0.730454
0.732154
0.733922
0.73586
0.738027
0.740412
0.742972
0.745668
0.748484
0.751445
0.754622
0.758141
0.762178
0.76696
0.772745
0.779788
0.788163
0.797829
0.80837
0.819827
0.832195
0.845444
0.859375
0.873729
0.888245
0.902679
0.916816
0.930472
0.943497
0.955771
0.967203
0.977723
0.987278
0.995832
1.00336
1.00984
1.01527
1.01963
1.02293
1.02515
1.0263
1.02637
1.02537
1.02329
1.02013
1.01589
1.01057
1.00416
0.996684
0.988129
0.978511
0.967844
0.956153
0.943473
0.929853
0.915365
0.900101
0.884184
0.867771
0.851053
0.834266
0.817684
0.80163
0.786478
0.772348
0.75692
0.742369
0.731022
0.72451
0.722506
0.722842
0.72263
0.722714
0.723963
0.725925
0.728244
0.730626
0.732834
0.734682
0.736036
0.736812
0.736974
0.736532
0.735538
0.734082
0.732278
0.730257
0.728144
0.726033
0.723966
0.721927
0.719943
0.718152
0.716715
0.715723
0.715216
0.715213
0.715724
0.716756
0.718305
0.720348
0.722808
0.725533
0.728387
0.731332
0.734369
0.737444
0.740448
0.743242
0.745683
0.74764
0.749007
0.74971
0.758005
0.758221
0.758664
0.759356
0.760312
0.761528
0.762966
0.764564
0.766264
0.768089
0.77008
0.772269
0.77466
0.777242
0.780005
0.782956
0.786129
0.789588
0.793437
0.797808
0.802863
0.808766
0.815659
0.823593
0.83253
0.842328
0.852933
0.864295
0.876337
0.88891
0.901827
0.914887
0.927893
0.940664
0.95304
0.964888
0.976093
0.986565
0.996234
1.00504
1.01295
1.01992
1.02593
1.03097
1.03502
1.03808
1.04014
1.04118
1.04122
1.04025
1.03827
1.03527
1.03126
1.02624
1.02022
1.0132
1.0052
0.996223
0.986299
0.975458
0.963744
0.951212
0.937937
0.924015
0.909565
0.894733
0.879695
0.864658
0.84986
0.835564
0.822056
0.809613
0.79853
0.788904
0.780561
0.773545
0.767911
0.76388
0.761611
0.760654
0.760713
0.76147
0.76264
0.763978
0.765278
0.766379
0.76716
0.767541
0.767481
0.76698
0.766067
0.764803
0.763268
0.761551
0.75974
0.757908
0.756101
0.754351
0.752705
0.751249
0.750078
0.749261
0.748844
0.748848
0.749286
0.750158
0.751453
0.753138
0.755152
0.757404
0.759808
0.762308
0.764864
0.767416
0.769877
0.772146
0.774117
0.775692
0.776789
0.777353
0.792298
0.792517
0.79296
0.793636
0.794549
0.795692
0.797043
0.79857
0.800251
0.802088
0.804102
0.806308
0.808716
0.811329
0.814154
0.817207
0.820525
0.824166
0.828209
0.832755
0.837915
0.843799
0.850489
0.858019
0.866371
0.875478
0.885282
0.895717
0.906697
0.918102
0.929784
0.941583
0.953341
0.964905
0.976139
0.98692
0.997147
1.00673
1.0156
1.02371
1.031
1.03744
1.043
1.04766
1.05141
1.05424
1.05613
1.05708
1.05708
1.05614
1.05426
1.05142
1.04764
1.04293
1.03728
1.03071
1.02324
1.01488
1.00567
0.995637
0.984832
0.973313
0.961157
0.948457
0.935326
0.9219
0.908335
0.894813
0.881533
0.86871
0.856568
0.845318
0.835142
0.826133
0.818289
0.811628
0.806204
0.802089
0.79928
0.797578
0.796763
0.796601
0.796869
0.797367
0.797923
0.798397
0.798684
0.798709
0.798432
0.797839
0.796948
0.795797
0.794439
0.792938
0.791358
0.789756
0.78818
0.786671
0.785277
0.78406
0.783084
0.782402
0.782049
0.78205
0.782413
0.783138
0.78421
0.785599
0.787258
0.789123
0.791131
0.793229
0.795364
0.797478
0.799499
0.801349
0.802948
0.80422
0.805105
0.805559
0.826373
0.826589
0.827024
0.82768
0.828557
0.829649
0.830943
0.832423
0.83408
0.835913
0.837931
0.840146
0.842568
0.845206
0.848074
0.851194
0.8546
0.85834
0.862478
0.867087
0.872245
0.878024
0.884477
0.891625
0.899457
0.907932
0.916999
0.926593
0.936633
0.947016
0.957622
0.968322
0.978983
0.989478
0.999689
1.00951
1.01884
1.02761
1.03574
1.04319
1.0499
1.05583
1.06096
1.06527
1.06873
1.07133
1.07306
1.07392
1.07389
1.07298
1.07119
1.06852
1.06496
1.06054
1.05526
1.04912
1.04216
1.0344
1.02586
1.01659
1.00663
0.996052
0.984921
0.97333
0.961384
0.949205
0.936934
0.924725
0.912747
0.901177
0.890189
0.879948
0.870587
0.862195
0.854811
0.848465
0.843187
0.838991
0.835841
0.833616
0.832161
0.831303
0.830868
0.830697
0.830648
0.830603
0.83047
0.830181
0.829696
0.828997
0.828089
0.826996
0.825752
0.824404
0.822998
0.82158
0.820192
0.818875
0.817672
0.816631
0.815797
0.815211
0.814902
0.814889
0.815179
0.815771
0.816651
0.817792
0.819156
0.820698
0.822367
0.824112
0.825885
0.827631
0.829292
0.830804
0.832104
0.833136
0.833852
0.834219
0.860231
0.860442
0.860866
0.861502
0.862349
0.863403
0.864656
0.866101
0.867732
0.869551
0.871563
0.873777
0.876203
0.878853
0.881742
0.884894
0.888339
0.892117
0.896276
0.900871
0.905955
0.911576
0.917769
0.924546
0.931898
0.939794
0.948189
0.957024
0.966226
0.975707
0.985367
0.995098
1.00479
1.01433
1.02363
1.03258
1.0411
1.04912
1.05657
1.0634
1.06957
1.07503
1.07975
1.08372
1.0869
1.08929
1.09087
1.09164
1.09158
1.09071
1.08901
1.08649
1.08316
1.07902
1.07408
1.06837
1.06189
1.05469
1.04679
1.03823
1.02906
1.01934
1.00914
0.998557
0.987673
0.976603
0.965469
0.954406
0.943555
0.93306
0.923064
0.913696
0.905065
0.897248
0.890294
0.884235
0.879088
0.874848
0.871475
0.868884
0.866963
0.86558
0.864603
0.863904
0.863369
0.862898
0.862411
0.86185
0.861174
0.860364
0.859417
0.858344
0.857171
0.855928
0.854649
0.853372
0.852132
0.850965
0.849906
0.848994
0.848263
0.847743
0.847459
0.847423
0.847644
0.848116
0.848829
0.84976
0.850878
0.852147
0.853524
0.854968
0.856432
0.857871
0.859234
0.860469
0.861529
0.862367
0.862948
0.863245
0.893877
0.894083
0.894495
0.895113
0.895934
0.896957
0.898178
0.899592
0.901197
0.902996
0.904993
0.907195
0.909613
0.912259
0.915148
0.918302
0.921746
0.925513
0.929639
0.934164
0.939126
0.944557
0.950477
0.956894
0.963796
0.971157
0.978939
0.987087
0.995539
1.00422
1.01304
1.02191
1.03074
1.03944
1.04792
1.05608
1.06387
1.0712
1.07803
1.08429
1.08995
1.09496
1.0993
1.10294
1.10587
1.10805
1.10949
1.11018
1.1101
1.10926
1.10765
1.10528
1.10215
1.09828
1.09368
1.08836
1.08235
1.07568
1.06837
1.06047
1.05203
1.0431
1.03376
1.02408
1.01415
1.00406
0.993935
0.983875
0.974005
0.964445
0.955311
0.946709
0.938728
0.931437
0.924882
0.919094
0.914082
0.909838
0.906327
0.903484
0.901225
0.899451
0.89806
0.896949
0.896025
0.895207
0.894427
0.893632
0.892786
0.891867
0.890868
0.889794
0.88866
0.887486
0.8863
0.885128
0.884
0.882945
0.881994
0.881176
0.880517
0.880041
0.879766
0.879703
0.879856
0.880222
0.880789
0.88154
0.882449
0.883486
0.884616
0.885802
0.887006
0.888186
0.889302
0.890311
0.891174
0.891856
0.892328
0.892569
0.927318
0.927519
0.927919
0.92852
0.929319
0.930315
0.931506
0.932891
0.934469
0.936243
0.938217
0.940398
0.942796
0.945422
0.94829
0.951419
0.95483
0.958548
0.962602
0.96702
0.971828
0.977047
0.982689
0.988755
0.995233
1.0021
1.00932
1.01685
1.02463
1.03259
1.04066
1.04877
1.05683
1.06477
1.07251
1.07997
1.08708
1.09379
1.10004
1.10578
1.11097
1.11557
1.11955
1.12289
1.12557
1.12757
1.12887
1.12948
1.12938
1.12857
1.12705
1.12482
1.1219
1.11829
1.114
1.10906
1.10348
1.0973
1.09054
1.08326
1.07549
1.06729
1.05872
1.04986
1.04078
1.03157
1.02233
1.01315
1.00414
0.995403
0.987026
0.9791
0.971702
0.964889
0.958705
0.953175
0.948308
0.944096
0.940509
0.937499
0.935002
0.93294
0.931235
0.929806
0.928576
0.92748
0.926458
0.925466
0.924471
0.92345
0.922395
0.921305
0.920188
0.919058
0.917935
0.916839
0.915793
0.914822
0.91395
0.913198
0.912588
0.912137
0.911861
0.911766
0.911855
0.912125
0.912566
0.913162
0.913893
0.914732
0.915652
0.91662
0.917603
0.918567
0.919477
0.920299
0.921001
0.921555
0.921938
0.922133
0.960558
0.960753
0.961143
0.961727
0.962506
0.963477
0.96464
0.965996
0.967545
0.96929
0.971234
0.973385
0.975751
0.978342
0.981171
0.984253
0.987606
0.991248
0.995202
0.999487
1.00412
1.00911
1.01448
1.0202
1.02628
1.03269
1.0394
1.04636
1.05353
1.06084
1.06825
1.07567
1.08305
1.0903
1.09737
1.10419
1.1107
1.11684
1.12256
1.12782
1.13257
1.13679
1.14044
1.1435
1.14595
1.14777
1.14895
1.14949
1.14937
1.14859
1.14715
1.14506
1.14233
1.13896
1.13497
1.13038
1.12521
1.11949
1.11325
1.10653
1.09937
1.09183
1.08397
1.07585
1.06753
1.05911
1.05066
1.04227
1.03402
1.026
1.01829
1.01096
1.00409
0.997713
0.991873
0.986593
0.98188
0.977728
0.974115
0.971003
0.968341
0.966073
0.964135
0.962462
0.960995
0.959676
0.958459
0.957304
0.95618
0.955068
0.953957
0.952842
0.951728
0.950624
0.949542
0.948499
0.947513
0.946602
0.945784
0.945077
0.944498
0.94406
0.943774
0.943645
0.943674
0.943857
0.944187
0.94465
0.945227
0.945899
0.946639
0.947421
0.948219
0.949001
0.94974
0.950407
0.950976
0.951425
0.951735
0.951894
0.993604
0.993793
0.994173
0.994741
0.995499
0.996446
0.997583
0.998909
1.00043
1.00214
1.00404
1.00616
1.00848
1.01102
1.0138
1.01682
1.02009
1.02364
1.02747
1.0316
1.03605
1.04081
1.0459
1.0513
1.057
1.06298
1.06922
1.07566
1.08228
1.08901
1.09582
1.10262
1.10938
1.11602
1.12249
1.12873
1.13469
1.14031
1.14554
1.15036
1.15472
1.15858
1.16192
1.16472
1.16696
1.16862
1.16968
1.17015
1.17001
1.16926
1.16791
1.16595
1.1634
1.16026
1.15655
1.15229
1.1475
1.1422
1.13643
1.13023
1.12364
1.11671
1.10948
1.10202
1.0944
1.08668
1.07893
1.07123
1.06366
1.05628
1.04917
1.04238
1.03598
1.03
1.02448
1.01944
1.01489
1.01082
1.00722
1.00405
1.00129
0.998876
0.996769
0.994914
0.993264
0.991772
0.990398
0.989109
0.987878
0.986686
0.985521
0.984379
0.983259
0.982166
0.981111
0.980104
0.979158
0.978287
0.977506
0.976829
0.976268
0.975832
0.97553
0.975365
0.975337
0.975443
0.975676
0.976022
0.976468
0.976996
0.977583
0.978209
0.978849
0.979479
0.980074
0.980612
0.981072
0.981434
0.981684
0.981812
1.02646
1.02664
1.02701
1.02757
1.0283
1.02923
1.03034
1.03163
1.03311
1.03478
1.03665
1.03872
1.04099
1.04348
1.04618
1.04912
1.0523
1.05574
1.05944
1.06341
1.06766
1.07219
1.07701
1.08209
1.08744
1.09302
1.09882
1.1048
1.11091
1.11712
1.12338
1.12963
1.13583
1.14192
1.14784
1.15356
1.15901
1.16416
1.16895
1.17336
1.17735
1.18089
1.18395
1.18651
1.18855
1.19005
1.19101
1.19142
1.19126
1.19055
1.18927
1.18743
1.18505
1.18213
1.17868
1.17472
1.17028
1.16538
1.16005
1.15433
1.14826
1.14187
1.13522
1.12837
1.12137
1.11427
1.10716
1.10008
1.0931
1.0863
1.07972
1.07342
1.06744
1.06183
1.05661
1.0518
1.04742
1.04345
1.03989
1.03671
1.03388
1.03138
1.02915
1.02716
1.02537
1.02375
1.02225
1.02086
1.01954
1.01828
1.01706
1.01589
1.01476
1.01367
1.01263
1.01165
1.01073
1.00988
1.00913
1.00847
1.00791
1.00747
1.00715
1.00695
1.00687
1.0069
1.00705
1.0073
1.00763
1.00803
1.00849
1.00898
1.00949
1.00999
1.01047
1.0109
1.01126
1.01155
1.01176
1.01186
1.05913
1.05931
1.05967
1.06021
1.06092
1.06182
1.0629
1.06416
1.06561
1.06724
1.06906
1.07107
1.07329
1.07571
1.07834
1.08119
1.08427
1.08758
1.09113
1.09494
1.09899
1.10329
1.10784
1.11263
1.11764
1.12285
1.12825
1.13379
1.13944
1.14518
1.15094
1.15669
1.16238
1.16797
1.1734
1.17864
1.18364
1.18835
1.19275
1.19679
1.20044
1.20368
1.20647
1.20881
1.21067
1.21203
1.2129
1.21325
1.21308
1.21239
1.21119
1.20947
1.20724
1.20452
1.20131
1.19764
1.19353
1.18899
1.18407
1.17878
1.17318
1.16729
1.16117
1.15486
1.14842
1.14189
1.13534
1.12882
1.12238
1.11609
1.10999
1.10412
1.09854
1.09326
1.08833
1.08375
1.07953
1.07567
1.07217
1.069
1.06616
1.06359
1.06129
1.05921
1.05732
1.0556
1.05401
1.05253
1.05114
1.04982
1.04856
1.04737
1.04622
1.04513
1.0441
1.04312
1.04222
1.04139
1.04065
1.04
1.03944
1.03899
1.03865
1.03841
1.03828
1.03825
1.03832
1.03848
1.03872
1.03901
1.03936
1.03974
1.04014
1.04053
1.0409
1.04124
1.04153
1.04177
1.04192
1.04201
1.09162
1.0918
1.09214
1.09267
1.09336
1.09424
1.09529
1.09651
1.09792
1.0995
1.10127
1.10323
1.10538
1.10772
1.11027
1.11302
1.11599
1.11918
1.12258
1.12621
1.13007
1.13415
1.13844
1.14294
1.14764
1.15251
1.15753
1.16267
1.16791
1.1732
1.17851
1.18381
1.18904
1.19417
1.19916
1.20397
1.20855
1.21287
1.2169
1.2206
1.22394
1.2269
1.22946
1.23159
1.23328
1.23452
1.23529
1.23559
1.23541
1.23475
1.23362
1.232
1.22993
1.22739
1.22441
1.221
1.21719
1.21299
1.20844
1.20356
1.19838
1.19295
1.18731
1.18149
1.17555
1.16954
1.16349
1.15747
1.15152
1.14569
1.14002
1.13455
1.12932
1.12436
1.11969
1.11533
1.11127
1.10754
1.10411
1.10099
1.09814
1.09556
1.09321
1.09107
1.08911
1.08731
1.08565
1.08411
1.08266
1.0813
1.08001
1.07879
1.07763
1.07653
1.0755
1.07453
1.07364
1.07282
1.07208
1.07143
1.07087
1.0704
1.07004
1.06976
1.06959
1.06951
1.06951
1.06959
1.06974
1.06995
1.0702
1.07048
1.07078
1.07108
1.07137
1.07164
1.07187
1.07205
1.07217
1.07224
1.12394
1.12411
1.12445
1.12495
1.12563
1.12648
1.12749
1.12868
1.13004
1.13158
1.1333
1.13519
1.13727
1.13954
1.142
1.14465
1.1475
1.15055
1.1538
1.15726
1.16092
1.16478
1.16883
1.17306
1.17746
1.18201
1.18668
1.19146
1.19631
1.2012
1.20611
1.21099
1.2158
1.22052
1.22511
1.22952
1.23372
1.23768
1.24137
1.24476
1.24782
1.25053
1.25287
1.25482
1.25635
1.25747
1.25816
1.25841
1.25823
1.25759
1.25652
1.25501
1.25307
1.25071
1.24794
1.24478
1.24124
1.23735
1.23314
1.22862
1.22384
1.21883
1.21362
1.20825
1.20277
1.19721
1.19162
1.18605
1.18054
1.17513
1.16985
1.16474
1.15984
1.15517
1.15075
1.14659
1.14271
1.1391
1.13576
1.13269
1.12987
1.12728
1.12491
1.12274
1.12074
1.11889
1.11718
1.11559
1.1141
1.1127
1.11139
1.11014
1.10897
1.10787
1.10683
1.10587
1.10498
1.10416
1.10342
1.10277
1.1022
1.10172
1.10133
1.10102
1.10081
1.10067
1.10062
1.10063
1.10071
1.10084
1.10101
1.10121
1.10143
1.10165
1.10187
1.10207
1.10225
1.10238
1.10248
1.10253
1.15609
1.15625
1.15658
1.15707
1.15772
1.15854
1.15953
1.16068
1.162
1.16348
1.16514
1.16697
1.16898
1.17116
1.17353
1.17607
1.1788
1.18172
1.18482
1.18811
1.19158
1.19523
1.19904
1.20301
1.20713
1.21138
1.21573
1.22017
1.22467
1.2292
1.23373
1.23823
1.24267
1.24701
1.25122
1.25527
1.25913
1.26277
1.26615
1.26926
1.27206
1.27454
1.27667
1.27844
1.27984
1.28085
1.28147
1.28168
1.28148
1.28088
1.27986
1.27845
1.27663
1.27443
1.27186
1.26892
1.26564
1.26204
1.25813
1.25396
1.24953
1.2449
1.24008
1.23512
1.23005
1.22491
1.21974
1.21458
1.20946
1.20442
1.1995
1.19473
1.19013
1.18573
1.18154
1.17758
1.17386
1.17038
1.16714
1.16414
1.16136
1.15879
1.15642
1.15423
1.15221
1.15033
1.14859
1.14697
1.14545
1.14403
1.14269
1.14143
1.14025
1.13914
1.1381
1.13713
1.13624
1.13542
1.13468
1.13402
1.13344
1.13295
1.13253
1.1322
1.13194
1.13176
1.13165
1.13161
1.13162
1.13169
1.13179
1.13192
1.13207
1.13223
1.13238
1.13253
1.13266
1.13276
1.13283
1.13287
1.18807
1.18823
1.18855
1.18902
1.18965
1.19044
1.1914
1.19251
1.19378
1.19522
1.19681
1.19858
1.20051
1.20261
1.20488
1.20731
1.20992
1.21271
1.21566
1.21878
1.22206
1.2255
1.22909
1.23282
1.23668
1.24064
1.2447
1.24882
1.25299
1.25719
1.26138
1.26553
1.26962
1.27362
1.2775
1.28122
1.28477
1.2881
1.29121
1.29405
1.29662
1.29889
1.30083
1.30245
1.30372
1.30463
1.30518
1.30535
1.30515
1.30457
1.30361
1.30228
1.30059
1.29853
1.29614
1.29341
1.29036
1.28702
1.2834
1.27953
1.27544
1.27115
1.26669
1.2621
1.25741
1.25264
1.24785
1.24306
1.2383
1.23361
1.22901
1.22454
1.22022
1.21607
1.2121
1.20834
1.20478
1.20143
1.19829
1.19536
1.19264
1.1901
1.18775
1.18556
1.18353
1.18164
1.17989
1.17824
1.1767
1.17526
1.17391
1.17264
1.17145
1.17034
1.16929
1.16833
1.16743
1.16661
1.16586
1.1652
1.1646
1.16409
1.16365
1.16329
1.163
1.16278
1.16263
1.16253
1.16249
1.16249
1.16254
1.16261
1.1627
1.1628
1.16291
1.16301
1.1631
1.16317
1.16322
1.16325
1.2199
1.22005
1.22036
1.22081
1.22142
1.22219
1.2231
1.22418
1.2254
1.22678
1.22832
1.23002
1.23187
1.23388
1.23605
1.23838
1.24087
1.24352
1.24632
1.24928
1.25238
1.25563
1.25901
1.2625
1.26611
1.26981
1.27359
1.27743
1.2813
1.28519
1.28906
1.2929
1.29667
1.30036
1.30392
1.30735
1.31061
1.31367
1.31652
1.31913
1.32148
1.32355
1.32533
1.3268
1.32795
1.32877
1.32926
1.3294
1.32919
1.32863
1.32773
1.32648
1.3249
1.32298
1.32075
1.31821
1.31538
1.31228
1.30892
1.30534
1.30154
1.29757
1.29344
1.28918
1.28483
1.28041
1.27596
1.2715
1.26707
1.26269
1.2584
1.25421
1.25014
1.24623
1.24247
1.23888
1.23548
1.23226
1.22923
1.22639
1.22372
1.22123
1.21891
1.21674
1.21472
1.21283
1.21106
1.20941
1.20786
1.20641
1.20505
1.20377
1.20258
1.20146
1.20041
1.19944
1.19855
1.19772
1.19697
1.19629
1.19569
1.19516
1.1947
1.19431
1.19399
1.19374
1.19354
1.1934
1.19331
1.19327
1.19326
1.19327
1.19332
1.19337
1.19343
1.1935
1.19356
1.1936
1.19364
1.19366
1.25157
1.25172
1.25201
1.25245
1.25304
1.25378
1.25466
1.25569
1.25687
1.2582
1.25967
1.2613
1.26307
1.265
1.26707
1.26929
1.27166
1.27418
1.27684
1.27964
1.28257
1.28562
1.2888
1.29208
1.29545
1.29891
1.30243
1.306
1.30959
1.3132
1.31678
1.32033
1.32381
1.32721
1.3305
1.33365
1.33664
1.33946
1.34207
1.34446
1.34661
1.34851
1.35013
1.35147
1.35252
1.35326
1.35368
1.35379
1.35358
1.35304
1.35219
1.35102
1.34953
1.34775
1.34567
1.3433
1.34067
1.33779
1.33468
1.33135
1.32783
1.32414
1.32031
1.31636
1.31232
1.30821
1.30407
1.29992
1.29579
1.2917
1.28768
1.28375
1.27992
1.27622
1.27266
1.26925
1.266
1.26291
1.25999
1.25723
1.25463
1.2522
1.24991
1.24777
1.24576
1.24388
1.24212
1.24047
1.23892
1.23747
1.23611
1.23483
1.23363
1.23251
1.23146
1.23049
1.22959
1.22876
1.228
1.22731
1.2267
1.22615
1.22567
1.22526
1.22492
1.22463
1.2244
1.22422
1.22409
1.224
1.22395
1.22392
1.22392
1.22393
1.22396
1.22399
1.22402
1.22405
1.22407
1.22408
1.2831
1.28324
1.28352
1.28395
1.28451
1.28522
1.28607
1.28705
1.28819
1.28946
1.29087
1.29243
1.29412
1.29596
1.29794
1.30006
1.30231
1.3047
1.30721
1.30986
1.31262
1.3155
1.31848
1.32156
1.32471
1.32794
1.33122
1.33454
1.33788
1.34122
1.34454
1.34782
1.35104
1.35417
1.3572
1.3601
1.36286
1.36544
1.36784
1.37004
1.37201
1.37374
1.37522
1.37644
1.37739
1.37805
1.37842
1.3785
1.37829
1.37778
1.37697
1.37587
1.37448
1.37281
1.37087
1.36867
1.36622
1.36354
1.36064
1.35755
1.35428
1.35085
1.34729
1.34362
1.33987
1.33605
1.33219
1.32832
1.32446
1.32064
1.31687
1.31317
1.30957
1.30608
1.3027
1.29946
1.29635
1.29339
1.29057
1.28791
1.28539
1.28301
1.28077
1.27866
1.27668
1.27482
1.27308
1.27143
1.26989
1.26844
1.26708
1.2658
1.2646
1.26348
1.26243
1.26146
1.26056
1.25972
1.25896
1.25827
1.25764
1.25708
1.25658
1.25615
1.25578
1.25546
1.2552
1.25499
1.25482
1.2547
1.25461
1.25454
1.25451
1.25449
1.25448
1.25449
1.25449
1.2545
1.25451
1.25452
1.31449
1.31462
1.31489
1.3153
1.31584
1.31652
1.31733
1.31828
1.31936
1.32058
1.32193
1.32342
1.32504
1.32679
1.32867
1.33068
1.33282
1.33508
1.33746
1.33996
1.34256
1.34527
1.34807
1.35095
1.35391
1.35692
1.35998
1.36306
1.36617
1.36926
1.37234
1.37537
1.37835
1.38124
1.38403
1.38671
1.38924
1.39162
1.39382
1.39583
1.39764
1.39922
1.40057
1.40168
1.40254
1.40313
1.40346
1.40351
1.4033
1.4028
1.40204
1.401
1.3997
1.39814
1.39633
1.39427
1.39199
1.3895
1.38681
1.38393
1.38089
1.3777
1.37439
1.37098
1.36748
1.36392
1.36032
1.35671
1.35311
1.34952
1.34599
1.34251
1.33912
1.33581
1.33261
1.32952
1.32656
1.32372
1.32102