/*--------------------------------*- C++ -*----------------------------------*\
| =========                 |                                                 |
| \\      /  F ield         | OpenFOAM: The Open Source CFD Toolbox           |
|  \\    /   O peration     | Version:  2406                                  |
|   \\  /    A nd           | Website:  www.openfoam.com                      |
|    \\/     M anipulation  |                                                 |
\*---------------------------------------------------------------------------*/
FoamFile
{
    version     2.0;
    format      ascii;
    arch        "LSB;label=32;scalar=64";
    class       volScalarField;
    location    "4.25";
    object      C_0_0;
}
// * * * * * * * * * * * * * * * * * * * * * * * * * * * * * * * * * * * * * //

dimensions      [1 -3 0 0 0 0 0];

internalField   nonuniform List<scalar> 
14400
(
0.406038
0.399976
0.391294
0.382332
0.37458
0.368983
0.366131
0.366379
0.369899
0.376711
0.386676
0.39947
0.414518
0.430827
0.446491
0.456208
0.452534
0.440646
0.42655
0.41356
0.403227
0.396463
0.393893
0.395998
0.403187
0.415838
0.434316
0.458991
0.490232
0.528383
0.573686
0.626048
0.684153
0.740211
0.779559
0.806697
0.830537
0.851499
0.869896
0.885971
0.899917
0.911884
0.921994
0.930342
0.937001
0.942031
0.945474
0.947361
0.947709
0.946526
0.943808
0.939541
0.933698
0.926242
0.917121
0.906269
0.893602
0.879014
0.862375
0.84352
0.822247
0.798298
0.771351
0.73897
0.690108
0.626677
0.567873
0.515871
0.470905
0.432758
0.401071
0.375453
0.355531
0.340979
0.331518
0.32693
0.327046
0.331747
0.340952
0.354603
0.372643
0.394968
0.421348
0.451235
0.48295
0.506862
0.518916
0.524107
0.523515
0.516623
0.498872
0.473414
0.448632
0.426451
0.407578
0.39226
0.380506
0.372158
0.366907
0.364293
0.363696
0.364353
0.365421
0.366134
0.366131
0.365815
0.36599
0.367538
0.371261
0.37782
0.387727
0.401351
0.41892
0.440511
0.46597
0.494702
0.524842
0.546834
0.557602
0.562554
0.423173
0.414361
0.403629
0.393274
0.384584
0.378373
0.375164
0.375276
0.378868
0.385951
0.39639
0.40987
0.42583
0.443267
0.460043
0.469201
0.466654
0.453785
0.438153
0.424049
0.412908
0.405559
0.402584
0.404444
0.411536
0.42423
0.442884
0.467859
0.499517
0.538205
0.58417
0.637333
0.696264
0.748151
0.783371
0.809978
0.833415
0.854064
0.872217
0.888101
0.901895
0.913742
0.923757
0.932029
0.938631
0.943618
0.947031
0.948899
0.94924
0.948061
0.945357
0.941116
0.935311
0.927906
0.918852
0.908084
0.895522
0.881066
0.864589
0.845939
0.824922
0.801296
0.774743
0.744245
0.699093
0.636985
0.577822
0.525151
0.479541
0.44084
0.408696
0.382714
0.36252
0.347782
0.338225
0.333628
0.333822
0.33869
0.348152
0.362155
0.380644
0.403518
0.430518
0.460934
0.492437
0.514217
0.524922
0.529889
0.529563
0.523843
0.509222
0.484584
0.459199
0.436414
0.417098
0.401508
0.38966
0.381409
0.376461
0.374356
0.374455
0.37592
0.377735
0.378812
0.378432
0.37736
0.376722
0.37757
0.380778
0.387028
0.39683
0.410535
0.428359
0.450368
0.476388
0.505621
0.534816
0.553531
0.562928
0.567506
0.452257
0.441421
0.427571
0.414851
0.404471
0.397121
0.393236
0.393094
0.396831
0.40445
0.415808
0.4306
0.44825
0.467599
0.484693
0.490609
0.489431
0.478131
0.460739
0.444845
0.432248
0.423789
0.420033
0.421415
0.42832
0.441105
0.460112
0.48568
0.518153
0.557854
0.604971
0.65909
0.717124
0.760785
0.790834
0.816427
0.839081
0.859126
0.876807
0.892319
0.905819
0.917433
0.927261
0.935387
0.941876
0.946778
0.950132
0.951964
0.952291
0.951119
0.948445
0.944254
0.938524
0.93122
0.922297
0.911694
0.899338
0.885137
0.868978
0.850724
0.830207
0.807221
0.781513
0.752791
0.714459
0.65818
0.597852
0.54376
0.496881
0.457097
0.424053
0.39735
0.376612
0.361506
0.351756
0.34714
0.34749
0.35269
0.362662
0.377356
0.396726
0.420674
0.448921
0.480492
0.510046
0.527194
0.536384
0.540964
0.540995
0.536489
0.526623
0.506229
0.480049
0.456236
0.436122
0.420018
0.407986
0.399925
0.395582
0.394516
0.396068
0.399287
0.402869
0.404972
0.403537
0.40068
0.398278
0.397665
0.399826
0.405459
0.415053
0.428919
0.447224
0.469992
0.497008
0.527042
0.551522
0.564979
0.573039
0.577035
0.484129
0.477702
0.461902
0.446585
0.434053
0.425181
0.420363
0.419873
0.423835
0.432233
0.444898
0.461494
0.481234
0.502036
0.513976
0.517005
0.516725
0.510741
0.493649
0.475775
0.461251
0.451242
0.446369
0.44706
0.453699
0.466634
0.486179
0.512628
0.546271
0.587376
0.636048
0.691202
0.741011
0.774878
0.801718
0.825813
0.847358
0.866551
0.883566
0.898551
0.91163
0.922907
0.932468
0.940382
0.946707
0.951486
0.954754
0.956535
0.956841
0.95568
0.953048
0.948932
0.943311
0.936154
0.92742
0.917056
0.904998
0.891165
0.875461
0.857773
0.837962
0.815866
0.791294
0.76401
0.732464
0.686996
0.627179
0.571591
0.523019
0.481703
0.447353
0.419586
0.398038
0.382382
0.372342
0.367697
0.368281
0.373974
0.384698
0.400401
0.42103
0.446457
0.476244
0.508549
0.532104
0.544509
0.552452
0.556589
0.556962
0.553669
0.546927
0.533929
0.510235
0.485651
0.464609
0.447809
0.4355
0.427699
0.424251
0.42475
0.428565
0.43464
0.441471
0.445996
0.442089
0.435954
0.430685
0.427802
0.428386
0.433107
0.442415
0.456522
0.475471
0.499102
0.526798
0.554245
0.570722
0.580558
0.587213
0.590559
0.516578
0.514925
0.505122
0.487941
0.473082
0.462492
0.456543
0.455636
0.459901
0.469297
0.483533
0.502183
0.523419
0.53841
0.544121
0.546611
0.546957
0.545194
0.535504
0.516556
0.499921
0.488026
0.481772
0.481579
0.487883
0.50104
0.521325
0.548931
0.584015
0.626606
0.676242
0.727738
0.76388
0.790725
0.815348
0.837749
0.857986
0.876153
0.892354
0.906688
0.919243
0.930099
0.939321
0.946967
0.953083
0.957706
0.960864
0.962578
0.962859
0.961713
0.959135
0.955114
0.949633
0.942665
0.934173
0.924114
0.912432
0.899063
0.88393
0.866943
0.848001
0.82699
0.803786
0.778265
0.750328
0.715859
0.665351
0.608622
0.558105
0.514918
0.478906
0.449751
0.427134
0.410746
0.40032
0.395638
0.396531
0.402876
0.414583
0.431575
0.453767
0.480905
0.511978
0.540467
0.555976
0.565628
0.572327
0.575977
0.576595
0.574296
0.569331
0.562098
0.547792
0.524097
0.502438
0.484842
0.472151
0.464622
0.462311
0.464799
0.471549
0.48116
0.492172
0.49568
0.492717
0.482364
0.473551
0.467723
0.466303
0.469864
0.47887
0.493311
0.512989
0.537189
0.564068
0.581461
0.591469
0.599313
0.604697
0.607429
0.550331
0.549593
0.546849
0.537018
0.520864
0.508859
0.501643
0.500295
0.504917
0.515467
0.531157
0.550986
0.565593
0.572531
0.576062
0.57836
0.579259
0.578787
0.576424
0.565868
0.547999
0.534136
0.526411
0.525154
0.531062
0.544533
0.56579
0.594809
0.631467
0.675088
0.723503
0.758923
0.78465
0.808764
0.8312
0.851849
0.870683
0.887721
0.90301
0.916603
0.928556
0.938923
0.947751
0.955082
0.960952
0.96539
0.968419
0.970054
0.970306
0.969176
0.966663
0.962758
0.957443
0.950698
0.942494
0.932793
0.921554
0.908726
0.894252
0.878069
0.860109
0.840305
0.818595
0.794937
0.769338
0.741888
0.705741
0.65376
0.602101
0.557028
0.519103
0.488259
0.464323
0.447027
0.436118
0.43139
0.432668
0.439817
0.452721
0.471225
0.495153
0.523827
0.554056
0.571928
0.581854
0.589699
0.595251
0.598399
0.599142
0.59759
0.593965
0.588619
0.581877
0.568686
0.548793
0.530741
0.517629
0.510264
0.50927
0.51378
0.523265
0.53304
0.537894
0.538626
0.538423
0.534166
0.525137
0.516556
0.513088
0.515304
0.524109
0.538926
0.558968
0.581505
0.597286
0.606477
0.614302
0.620526
0.624833
0.627032
0.584822
0.584471
0.583893
0.581813
0.574618
0.563312
0.55498
0.553364
0.558248
0.569751
0.585263
0.596617
0.602685
0.606214
0.609235
0.61151
0.612931
0.61354
0.613521
0.611779
0.60349
0.588917
0.580298
0.577782
0.583258
0.597137
0.619608
0.650117
0.687735
0.728726
0.760557
0.784145
0.806834
0.82848
0.84884
0.867764
0.885174
0.90104
0.915362
0.928158
0.939456
0.949286
0.957677
0.964657
0.970253
0.974484
0.977367
0.978914
0.979132
0.978023
0.975585
0.971809
0.966684
0.960192
0.95231
0.943011
0.932264
0.920034
0.906283
0.890971
0.874062
0.855526
0.83535
0.813549
0.790186
0.765398
0.739341
0.70391
0.654524
0.608251
0.568343
0.535538
0.510068
0.491707
0.48022
0.475435
0.477171
0.485255
0.499545
0.51963
0.545194
0.574204
0.592413
0.601896
0.609768
0.616061
0.620581
0.623225
0.623986
0.622955
0.620318
0.616364
0.611477
0.606031
0.596192
0.583354
0.570519
0.563096
0.56352
0.568755
0.57355
0.576081
0.57545
0.575405
0.576028
0.577253
0.575374
0.57139
0.567146
0.567908
0.57673
0.591253
0.606133
0.618083
0.625598
0.632594
0.638737
0.643655
0.647079
0.648833
0.619664
0.619573
0.619494
0.619633
0.619625
0.616623
0.613373
0.612631
0.616947
0.624042
0.630792
0.634483
0.637424
0.640403
0.643156
0.645513
0.647416
0.648922
0.650207
0.651577
0.652237
0.648558
0.642466
0.638621
0.643915
0.658175
0.681745
0.71255
0.742824
0.768649
0.78931
0.809894
0.830062
0.849483
0.867916
0.885193
0.901209
0.915901
0.929239
0.941212
0.951825
0.961087
0.969013
0.975618
0.980918
0.984925
0.987651
0.989103
0.989285
0.9882
0.985843
0.98221
0.977292
0.971074
0.963542
0.954677
0.944458
0.932864
0.919874
0.90547
0.889641
0.872388
0.853732
0.833724
0.812459
0.790091
0.766843
0.74291
0.710645
0.667805
0.626733
0.591823
0.56476
0.545236
0.533069
0.528221
0.530471
0.539529
0.555317
0.576357
0.601668
0.617755
0.626098
0.633148
0.63926
0.644197
0.647786
0.649932
0.650623
0.649926
0.647989
0.645043
0.641391
0.637411
0.633554
0.628157
0.62166
0.616664
0.614919
0.614939
0.613956
0.612335
0.611567
0.611515
0.61216
0.613545
0.615833
0.617549
0.618417
0.62131
0.627698
0.635721
0.642782
0.648345
0.654089
0.659564
0.664395
0.66828
0.670994
0.672387
0.654596
0.654665
0.654878
0.655375
0.656369
0.658166
0.659597
0.660886
0.663345
0.665716
0.667326
0.66955
0.672123
0.67482
0.67747
0.67997
0.682298
0.684523
0.686809
0.689427
0.692761
0.697063
0.699334
0.702711
0.710292
0.724168
0.743214
0.763527
0.78221
0.799747
0.817843
0.83606
0.854035
0.871473
0.888146
0.903884
0.918568
0.932117
0.94448
0.955627
0.965543
0.974224
0.981669
0.987884
0.992875
0.996648
0.999209
1.00056
1.00071
0.999646
0.997378
0.993897
0.989198
0.983271
0.976108
0.967696
0.958027
0.94709
0.934879
0.921394
0.906644
0.890653
0.873465
0.855154
0.835834
0.815665
0.794865
0.77371
0.752499
0.725625
0.692477
0.656398
0.628409
0.6078
0.594809
0.589904
0.592698
0.602314
0.619175
0.636616
0.648569
0.654595
0.660129
0.665337
0.669929
0.67368
0.676432
0.678096
0.678648
0.678136
0.67667
0.674426
0.671632
0.668559
0.665499
0.662704
0.660303
0.657619
0.654467
0.651367
0.649131
0.647685
0.646967
0.646927
0.647554
0.64888
0.650983
0.653954
0.657906
0.662062
0.665917
0.669611
0.673781
0.678282
0.682848
0.687179
0.691
0.694076
0.696228
0.697335
0.689458
0.689615
0.689975
0.690622
0.691659
0.693166
0.695027
0.697036
0.698649
0.70027
0.702103
0.704269
0.706698
0.709284
0.711935
0.714599
0.717284
0.720061
0.723079
0.726563
0.730818
0.736235
0.743355
0.752033
0.761641
0.773509
0.786585
0.799995
0.814656
0.830201
0.846254
0.86247
0.878546
0.894229
0.909311
0.923629
0.937062
0.949519
0.960937
0.971272
0.980497
0.988595
0.995556
1.00137
1.00605
1.00958
1.01198
1.01322
1.01333
1.0123
1.01013
1.0068
1.00233
0.996705
0.989921
0.981974
0.972863
0.96259
0.951158
0.938583
0.924889
0.910115
0.894321
0.877595
0.860058
0.84187
0.823241
0.804426
0.785738
0.767552
0.747563
0.724056
0.699166
0.678138
0.66418
0.659214
0.662404
0.670171
0.678117
0.684266
0.687212
0.690729
0.694485
0.698143
0.701437
0.704161
0.706168
0.70737
0.707738
0.707298
0.706129
0.704359
0.702151
0.699695
0.697177
0.69474
0.692422
0.690059
0.687598
0.685311
0.683517
0.682305
0.681691
0.68167
0.682247
0.683438
0.685267
0.687741
0.690796
0.694131
0.697476
0.700866
0.704443
0.708154
0.711841
0.715305
0.718349
0.720796
0.722508
0.723389
0.724163
0.724362
0.724786
0.725477
0.726481
0.72781
0.729399
0.731125
0.73283
0.734604
0.736549
0.738724
0.741116
0.743683
0.746386
0.749208
0.752176
0.755359
0.758884
0.762927
0.767713
0.773502
0.780549
0.788928
0.798593
0.809136
0.820597
0.832966
0.846217
0.860148
0.874502
0.889018
0.90345
0.917585
0.931238
0.94426
0.956531
0.96796
0.978476
0.988028
0.996579
1.0041
1.01058
1.01601
1.02037
1.02366
1.02588
1.02703
1.0271
1.0261
1.02402
1.02086
1.01662
1.0113
1.0049
0.997416
0.988863
0.979246
0.968581
0.956892
0.944213
0.930595
0.916109
0.900846
0.884931
0.868518
0.851801
0.835014
0.818432
0.802378
0.787226
0.773126
0.757744
0.743222
0.73188
0.725357
0.723327
0.723619
0.723347
0.723425
0.724668
0.726624
0.728937
0.731314
0.733516
0.735359
0.736708
0.737479
0.737636
0.737189
0.73619
0.734728
0.732919
0.730892
0.728773
0.726656
0.724584
0.72254
0.720553
0.71876
0.717322
0.716328
0.715821
0.715817
0.716327
0.717357
0.718905
0.720947
0.723405
0.726131
0.728986
0.731933
0.734973
0.73805
0.741056
0.743851
0.746294
0.748252
0.74962
0.750323
0.758669
0.758885
0.759329
0.760021
0.760977
0.762195
0.763635
0.765235
0.766939
0.768769
0.770766
0.772961
0.775358
0.777946
0.780716
0.783673
0.786852
0.790317
0.79417
0.798546
0.803605
0.809513
0.816409
0.824346
0.833285
0.843084
0.853692
0.865056
0.877098
0.889672
0.902589
0.915649
0.928653
0.941422
0.953797
0.965641
0.976844
0.987313
0.996979
1.00578
1.01369
1.02066
1.02667
1.03171
1.03576
1.03881
1.04086
1.04191
1.04195
1.04097
1.03899
1.03599
1.03199
1.02697
1.02095
1.01393
1.00593
0.996951
0.987029
0.976189
0.964476
0.951945
0.938672
0.924751
0.910301
0.89547
0.880432
0.865396
0.850597
0.836301
0.822792
0.810347
0.799254
0.789624
0.781279
0.774258
0.76862
0.764591
0.762318
0.761356
0.761409
0.762161
0.763326
0.764659
0.765955
0.767051
0.767827
0.768202
0.768138
0.767632
0.766714
0.765445
0.763904
0.762182
0.760366
0.758529
0.756717
0.754963
0.753314
0.751856
0.750683
0.749865
0.749446
0.749449
0.749886
0.750757
0.752051
0.753735
0.755748
0.758
0.760405
0.762907
0.765464
0.768018
0.770481
0.772751
0.774723
0.776298
0.777397
0.77796
0.79296
0.793179
0.793622
0.794299
0.795213
0.796357
0.79771
0.79924
0.800924
0.802766
0.804784
0.806996
0.809409
0.812028
0.814858
0.817917
0.82124
0.824886
0.828933
0.833484
0.838648
0.844535
0.851228
0.858761
0.867115
0.876225
0.88603
0.896466
0.907448
0.918853
0.930535
0.942334
0.954091
0.965654
0.976885
0.987664
0.997889
1.00747
1.01634
1.02444
1.03173
1.03817
1.04373
1.04839
1.05214
1.05496
1.05685
1.0578
1.0578
1.05686
1.05497
1.05214
1.04836
1.04365
1.038
1.03143
1.02396
1.0156
1.00639
0.996361
0.985556
0.974038
0.961883
0.949184
0.936054
0.922627
0.909063
0.89554
0.882259
0.869436
0.857292
0.846039
0.835858
0.826845
0.818997
0.812333
0.806906
0.802789
0.799977
0.798271
0.797452
0.797285
0.797548
0.798041
0.798592
0.799063
0.799345
0.799365
0.799083
0.798486
0.79759
0.796434
0.795071
0.793565
0.791981
0.790375
0.788794
0.787281
0.785885
0.784665
0.783687
0.783003
0.782649
0.782649
0.783011
0.783735
0.784806
0.786194
0.787852
0.789717
0.791726
0.793825
0.795961
0.798076
0.800098
0.801949
0.803549
0.804822
0.805707
0.806161
0.827032
0.827248
0.827683
0.82834
0.829218
0.830311
0.831608
0.833091
0.83475
0.836587
0.838609
0.840829
0.843256
0.845899
0.848772
0.851897
0.855307
0.859052
0.863194
0.867807
0.872969
0.878751
0.885206
0.892357
0.900191
0.908668
0.917737
0.927332
0.937373
0.947756
0.958362
0.969062
0.979722
0.990216
1.00043
1.01024
1.01957
1.02834
1.03647
1.04392
1.05062
1.05655
1.06168
1.06599
1.06944
1.07204
1.07378
1.07463
1.07461
1.0737
1.0719
1.06923
1.06568
1.06125
1.05597
1.04984
1.04288
1.03511
1.02658
1.0173
1.00735
0.996768
0.985638
0.974048
0.962102
0.949923
0.937651
0.925442
0.913464
0.901892
0.890903
0.880658
0.871294
0.862898
0.855511
0.849162
0.843881
0.839683
0.836529
0.834301
0.832842
0.831979
0.83154
0.831364
0.831311
0.831262
0.831125
0.830831
0.830342
0.829638
0.828726
0.827628
0.82638
0.825027
0.823617
0.822195
0.820803
0.819483
0.818278
0.817234
0.816398
0.81581
0.815499
0.815485
0.815774
0.816365
0.817243
0.818384
0.819748
0.82129
0.822959
0.824705
0.826478
0.828226
0.829887
0.831399
0.8327
0.833733
0.834449
0.834816
0.860887
0.861098
0.861522
0.862159
0.863008
0.864063
0.865318
0.866765
0.8684
0.870222
0.872237
0.874455
0.876885
0.879539
0.882434
0.88559
0.889039
0.892821
0.896984
0.901582
0.906669
0.912294
0.918489
0.925269
0.932623
0.940521
0.948917
0.957753
0.966955
0.976437
0.986097
0.995828
1.00552
1.01506
1.02436
1.03331
1.04183
1.04984
1.05729
1.06412
1.07029
1.07574
1.08047
1.08443
1.08761
1.09
1.09158
1.09234
1.09229
1.09141
1.08971
1.0872
1.08386
1.07972
1.07479
1.06907
1.0626
1.0554
1.04749
1.03893
1.02976
1.02005
1.00985
0.999266
0.988382
0.977312
0.966178
0.955114
0.944261
0.933765
0.923768
0.914398
0.905763
0.897943
0.890986
0.884924
0.879774
0.875531
0.872155
0.869561
0.867636
0.866249
0.865268
0.864565
0.864026
0.86355
0.86306
0.862494
0.861814
0.861
0.860048
0.858972
0.857795
0.856547
0.855265
0.853984
0.852741
0.85157
0.850509
0.849594
0.848861
0.84834
0.848053
0.848017
0.848236
0.848707
0.849419
0.850349
0.851467
0.852736
0.854113
0.855557
0.857022
0.858461
0.859824
0.861061
0.862121
0.86296
0.863541
0.863838
0.89453
0.894737
0.895149
0.895767
0.89659
0.897614
0.898837
0.900253
0.901861
0.903663
0.905663
0.907869
0.91029
0.91294
0.915833
0.91899
0.922438
0.926209
0.930338
0.934867
0.939832
0.945265
0.951188
0.957607
0.964511
0.971874
0.979657
0.987807
0.996259
1.00494
1.01376
1.02263
1.03146
1.04016
1.04863
1.0568
1.06458
1.07192
1.07874
1.085
1.09066
1.09567
1.10001
1.10365
1.10657
1.10876
1.11019
1.11088
1.1108
1.10995
1.10835
1.10598
1.10285
1.09898
1.09438
1.08906
1.08305
1.07638
1.06907
1.06117
1.05273
1.0438
1.03446
1.02478
1.01485
1.00476
0.994634
0.984573
0.974702
0.965141
0.956005
0.947401
0.939418
0.932124
0.925566
0.919775
0.91476
0.910513
0.906999
0.904153
0.90189
0.900113
0.898718
0.897603
0.896676
0.895854
0.89507
0.894271
0.893421
0.892498
0.891495
0.890417
0.889279
0.888102
0.886911
0.885736
0.884605
0.883547
0.882594
0.881773
0.881112
0.880634
0.880357
0.880293
0.880445
0.88081
0.881376
0.882127
0.883035
0.884072
0.885202
0.886388
0.887592
0.888773
0.889889
0.890898
0.891762
0.892444
0.892916
0.893157
0.927968
0.928168
0.928569
0.929171
0.929971
0.930968
0.932161
0.933548
0.935129
0.936905
0.938882
0.941067
0.943468
0.946097
0.948968
0.9521
0.955515
0.959237
0.963294
0.967715
0.972526
0.977747
0.983391
0.989459
0.995939
1.00281
1.01003
1.01756
1.02534
1.0333
1.04137
1.04948
1.05754
1.06548
1.07322
1.08067
1.08779
1.0945
1.10074
1.10648
1.11167
1.11627
1.12025
1.12359
1.12627
1.12826
1.12957
1.13017
1.13007
1.12926
1.12774
1.12551
1.12259
1.11898
1.11469
1.10975
1.10417
1.09799
1.09124
1.08395
1.07618
1.06798
1.05941
1.05055
1.04147
1.03226
1.02302
1.01384
1.00483
0.99609
0.987711
0.979784
0.972383
0.965568
0.959381
0.953848
0.948979
0.944763
0.941174
0.938161
0.93566
0.933595
0.931886
0.930453
0.92922
0.92812
0.927095
0.926099
0.9251
0.924076
0.923017
0.921923
0.920802
0.919669
0.918542
0.917443
0.916395
0.915421
0.914546
0.913792
0.91318
0.912728
0.912449
0.912353
0.912441
0.91271
0.91315
0.913746
0.914476
0.915315
0.916234
0.917202
0.918185
0.919149
0.92006
0.920882
0.921585
0.922139
0.922522
0.922717
0.961204
0.961399
0.96179
0.962375
0.963154
0.964126
0.965292
0.966649
0.9682
0.969947
0.971894
0.974048
0.976417
0.979011
0.981843
0.984928
0.988284
0.99193
0.995886
1.00017
1.00481
1.00981
1.01517
1.0209
1.02698
1.03339
1.0401
1.04706
1.05423
1.06155
1.06895
1.07638
1.08375
1.09101
1.09807
1.10489
1.1114
1.11754
1.12326
1.12851
1.13327
1.13748
1.14113
1.14419
1.14664
1.14846
1.14964
1.15017
1.15005
1.14927
1.14784
1.14575
1.14301
1.13965
1.13566
1.13107
1.1259
1.12017
1.11393
1.10721
1.10006
1.09252
1.08465
1.07653
1.06822
1.05979
1.05134
1.04295
1.0347
1.02668
1.01897
1.01164
1.00476
0.998383
0.992541
0.987258
0.982542
0.978388
0.974772
0.971656
0.968992
0.966721
0.964779
0.963103
0.961632
0.960311
0.95909
0.957931
0.956804
0.955688
0.954573
0.953455
0.952338
0.95123
0.950146
0.9491
0.948111
0.947197
0.946377
0.945668
0.945087
0.944647
0.944359
0.944228
0.944256
0.944439
0.944768
0.94523
0.945807
0.946478
0.947218
0.948
0.948797
0.94958
0.950319
0.950986
0.951555
0.952004
0.952314
0.952473
0.994245
0.994435
0.994815
0.995385
0.996144
0.997092
0.99823
0.999557
1.00108
1.00279
1.0047
1.00681
1.00914
1.01169
1.01446
1.01748
1.02076
1.02431
1.02815
1.03228
1.03673
1.0415
1.04658
1.05199
1.05769
1.06367
1.06991
1.07635
1.08297
1.08971
1.09651
1.10332
1.11007
1.11672
1.12319
1.12942
1.13538
1.141
1.14623
1.15105
1.1554
1.15926
1.16261
1.16541
1.16764
1.1693
1.17036
1.17083
1.17069
1.16994
1.16859
1.16663
1.16407
1.16094
1.15723
1.15296
1.14817
1.14288
1.13711
1.13091
1.12432
1.11738
1.11016
1.1027
1.09508
1.08735
1.07961
1.07191
1.06433
1.05695
1.04983
1.04305
1.03664
1.03066
1.02514
1.0201
1.01555
1.01147
1.00787
1.0047
1.00193
0.999517
0.997406
0.995549
0.993895
0.9924
0.991023
0.98973
0.988496
0.987301
0.986133
0.984987
0.983864
0.982769
0.98171
0.9807
0.979751
0.978879
0.978096
0.977416
0.976853
0.976416
0.976112
0.975945
0.975916
0.976022
0.976253
0.976599
0.977044
0.977571
0.978158
0.978784
0.979424
0.980053
0.980649
0.981187
0.981647
0.982009
0.982259
0.982387
1.0271
1.02728
1.02765
1.02821
1.02894
1.02987
1.03098
1.03227
1.03376
1.03543
1.0373
1.03937
1.04164
1.04413
1.04684
1.04978
1.05297
1.05641
1.06011
1.06408
1.06833
1.07287
1.07768
1.08277
1.08812
1.09371
1.0995
1.10548
1.11159
1.1178
1.12406
1.13031
1.13651
1.1426
1.14853
1.15424
1.15969
1.16484
1.16963
1.17404
1.17803
1.18157
1.18462
1.18718
1.18922
1.19073
1.19169
1.19209
1.19194
1.19122
1.18994
1.1881
1.18572
1.1828
1.17935
1.17539
1.17095
1.16605
1.16072
1.155
1.14893
1.14254
1.13589
1.12904
1.12203
1.11494
1.10782
1.10074
1.09377
1.08696
1.08038
1.07407
1.0681
1.06248
1.05726
1.05245
1.04807
1.04409
1.04053
1.03735
1.03452
1.03201
1.02978
1.02779
1.026
1.02437
1.02287
1.02147
1.02015
1.01889
1.01767
1.0165
1.01536
1.01427
1.01323
1.01224
1.01132
1.01047
1.00971
1.00905
1.00849
1.00805
1.00773
1.00752
1.00744
1.00748
1.00762
1.00787
1.0082
1.0086
1.00906
1.00955
1.01006
1.01056
1.01104
1.01147
1.01184
1.01213
1.01233
1.01243
1.05976
1.05994
1.0603
1.06084
1.06156
1.06246
1.06354
1.0648
1.06625
1.06788
1.0697
1.07172
1.07394
1.07636
1.07899
1.08184
1.08492
1.08824
1.0918
1.0956
1.09965
1.10396
1.10851
1.1133
1.11831
1.12353
1.12892
1.13446
1.14012
1.14585
1.15161
1.15737
1.16306
1.16864
1.17408
1.17932
1.18431
1.18903
1.19342
1.19746
1.20111
1.20435
1.20714
1.20948
1.21134
1.2127
1.21356
1.21391
1.21374
1.21306
1.21185
1.21013
1.2079
1.20518
1.20197
1.1983
1.19419
1.18965
1.18473
1.17945
1.17384
1.16795
1.16183
1.15552
1.14908
1.14255
1.136
1.12947
1.12304
1.11674
1.11064
1.10477
1.09919
1.09391
1.08897
1.08439
1.08017
1.07631
1.0728
1.06964
1.06678
1.06422
1.06191
1.05983
1.05794
1.05621
1.05462
1.05314
1.05174
1.05042
1.04917
1.04796
1.04682
1.04572
1.04469
1.04371
1.0428
1.04197
1.04123
1.04057
1.04002
1.03957
1.03922
1.03898
1.03885
1.03882
1.03889
1.03905
1.03928
1.03958
1.03993
1.04031
1.0407
1.04109
1.04147
1.04181
1.0421
1.04233
1.04249
1.04257
1.09225
1.09242
1.09277
1.0933
1.09399
1.09487
1.09592
1.09715
1.09855
1.10014
1.10191
1.10387
1.10602
1.10837
1.11092
1.11367
1.11664
1.11983
1.12324
1.12687
1.13073
1.13481
1.1391
1.1436
1.1483
1.15317
1.15819
1.16334
1.16857
1.17387
1.17918
1.18448
1.18971
1.19484
1.19983
1.20463
1.20922
1.21354
1.21756
1.22126
1.2246
1.22757
1.23012
1.23225
1.23394
1.23518
1.23595
1.23625
1.23607
1.23541
1.23427
1.23266
1.23058
1.22805
1.22507
1.22166
1.21785
1.21365
1.20909
1.20421
1.19904
1.19361
1.18796
1.18215
1.17621
1.17019
1.16414
1.15812
1.15217
1.14633
1.14066
1.13519
1.12996
1.125
1.12033
1.11596
1.11191
1.10817
1.10474
1.10161
1.09876
1.09618
1.09382
1.09168
1.08972
1.08792
1.08626
1.08471
1.08326
1.0819
1.0806
1.07938
1.07822
1.07712
1.07608
1.07512
1.07422
1.0734
1.07266
1.072
1.07144
1.07097
1.07061
1.07033
1.07016
1.07007
1.07008
1.07016
1.07031
1.07051
1.07076
1.07105
1.07135
1.07165
1.07194
1.0722
1.07243
1.07261
1.07273
1.0728
1.12456
1.12473
1.12507
1.12558
1.12625
1.1271
1.12812
1.12931
1.13067
1.13221
1.13393
1.13583
1.13791
1.14018
1.14264
1.14529
1.14814
1.1512
1.15445
1.15791
1.16157
1.16543
1.16948
1.17372
1.17811
1.18266
1.18734
1.19211
1.19697
1.20186
1.20677
1.21165
1.21646
1.22118
1.22577
1.23018
1.23438
1.23834
1.24203
1.24542
1.24848
1.25119
1.25352
1.25547
1.25701
1.25813
1.25881
1.25907
1.25888
1.25824
1.25717
1.25566
1.25372
1.25136
1.24859
1.24542
1.24189
1.238
1.23378
1.22927
1.22449
1.21947
1.21426
1.20889
1.20341
1.19785
1.19227
1.18669
1.18118
1.17576
1.17048
1.16538
1.16047
1.1558
1.15138
1.14722
1.14333
1.13972
1.13638
1.13331
1.13048
1.12789
1.12552
1.12334
1.12134
1.11949
1.11778
1.11619
1.1147
1.1133
1.11198
1.11073
1.10956
1.10845
1.10741
1.10645
1.10555
1.10473
1.104
1.10334
1.10277
1.10229
1.10189
1.10159
1.10137
1.10124
1.10118
1.10119
1.10127
1.1014
1.10157
1.10177
1.10199
1.10221
1.10243
1.10263
1.1028
1.10294
1.10304
1.10309
1.15671
1.15687
1.1572
1.15769
1.15834
1.15916
1.16015
1.1613
1.16262
1.16411
1.16577
1.1676
1.16961
1.17179
1.17416
1.17671
1.17944
1.18236
1.18546
1.18875
1.19222
1.19587
1.19969
1.20366
1.20778
1.21203
1.21638
1.22082
1.22532
1.22985
1.23438
1.23888
1.24332
1.24766
1.25187
1.25592
1.25978
1.26342
1.2668
1.26991
1.27271
1.27519
1.27732
1.27909
1.28049
1.2815
1.28211
1.28232
1.28213
1.28152
1.28051
1.27909
1.27728
1.27508
1.2725
1.26956
1.26628
1.26268
1.25877
1.2546
1.25017
1.24554
1.24072
1.23576
1.23069
1.22555
1.22038
1.21521
1.21009
1.20505
1.20013
1.19536
1.19076
1.18635
1.18216
1.1782
1.17448
1.171
1.16776
1.16475
1.16197
1.1594
1.15702
1.15483
1.15281
1.15093
1.14919
1.14756
1.14604
1.14461
1.14327
1.14201
1.14083
1.13972
1.13868
1.13771
1.13681
1.13599
1.13525
1.13459
1.13401
1.13351
1.13309
1.13276
1.1325
1.13232
1.13221
1.13217
1.13218
1.13224
1.13234
1.13247
1.13262
1.13278
1.13294
1.13308
1.13321
1.13332
1.13339
1.13342
1.18869
1.18884
1.18916
1.18963
1.19027
1.19106
1.19201
1.19313
1.1944
1.19584
1.19744
1.1992
1.20113
1.20323
1.2055
1.20794
1.21055
1.21334
1.21629
1.21941
1.2227
1.22614
1.22973
1.23346
1.23732
1.24128
1.24534
1.24946
1.25364
1.25783
1.26202
1.26618
1.27027
1.27426
1.27814
1.28186
1.28541
1.28875
1.29185
1.29469
1.29726
1.29953
1.30147
1.30309
1.30436
1.30527
1.30581
1.30599
1.30578
1.3052
1.30425
1.30292
1.30122
1.29917
1.29677
1.29404
1.291
1.28765
1.28404
1.28017
1.27607
1.27178
1.26732
1.26273
1.25803
1.25327
1.24848
1.24368
1.23892
1.23423
1.22963
1.22516
1.22084
1.21669
1.21272
1.20895
1.20539
1.20204
1.1989
1.19597
1.19324
1.1907
1.18835
1.18616
1.18413
1.18224
1.18047
1.17883
1.17729
1.17585
1.17449
1.17322
1.17203
1.17091
1.16986
1.16889
1.168
1.16718
1.16643
1.16576
1.16516
1.16465
1.16421
1.16385
1.16356
1.16334
1.16318
1.16309
1.16304
1.16305
1.16309
1.16316
1.16325
1.16335
1.16346
1.16356
1.16365
1.16372
1.16377
1.1638
1.22051
1.22066
1.22096
1.22142
1.22203
1.2228
1.22372
1.22479
1.22602
1.2274
1.22894
1.23063
1.23249
1.2345
1.23667
1.23901
1.2415
1.24415
1.24695
1.24991
1.25301
1.25626
1.25964
1.26314
1.26674
1.27045
1.27423
1.27806
1.28194
1.28582
1.2897
1.29353
1.29731
1.30099
1.30456
1.30799
1.31124
1.31431
1.31715
1.31976
1.32211
1.32418
1.32596
1.32743
1.32859
1.32941
1.32989
1.33003
1.32982
1.32926
1.32836
1.32711
1.32552
1.32361
1.32138
1.31884
1.31601
1.31291
1.30955
1.30596
1.30217
1.29819
1.29406
1.2898
1.28545
1.28103
1.27658
1.27212
1.26769
1.26331
1.25901
1.25482
1.25075
1.24683
1.24308
1.23949
1.23608
1.23286
1.22983
1.22698
1.22432
1.22183
1.2195
1.21733
1.2153
1.21341
1.21164
1.20999
1.20844
1.20699
1.20563
1.20435
1.20315
1.20203
1.20098
1.20001
1.19911
1.19828
1.19753
1.19685
1.19624
1.19571
1.19525
1.19486
1.19454
1.19429
1.19409
1.19395
1.19386
1.19381
1.1938
1.19382
1.19386
1.19392
1.19398
1.19404
1.1941
1.19415
1.19418
1.1942
1.25218
1.25232
1.25262
1.25306
1.25365
1.25438
1.25527
1.2563
1.25748
1.2588
1.26028
1.26191
1.26368
1.26561
1.26768
1.26991
1.27228
1.2748
1.27746
1.28026
1.28319
1.28624
1.28942
1.2927
1.29608
1.29954
1.30306
1.30663
1.31022
1.31382
1.31741
1.32096
1.32444
1.32784
1.33112
1.33428
1.33727
1.34008
1.3427
1.34509
1.34724
1.34914
1.35076
1.3521
1.35314
1.35388
1.35431
1.35441
1.3542
1.35367
1.35281
1.35164
1.35015
1.34837
1.34629
1.34392
1.34129
1.33841
1.33529
1.33196
1.32844
1.32475
1.32092
1.31697
1.31293
1.30882
1.30468
1.30053
1.2964
1.29231
1.28829
1.28435
1.28052
1.27682
1.27326
1.26985
1.26659
1.2635
1.26058
1.25782
1.25522
1.25278
1.2505
1.24835
1.24634
1.24446
1.2427
1.24105
1.2395
1.23804
1.23668
1.23539
1.23419
1.23307
1.23202
1.23105
1.23014
1.22931
1.22855
1.22787
1.22725
1.2267
1.22622
1.22581
1.22546
1.22517
1.22494
1.22476
1.22463
1.22454
1.22449
1.22446
1.22446
1.22448
1.2245
1.22453
1.22456
1.22459
1.22461
1.22462
1.2837
1.28384
1.28412
1.28455
1.28511
1.28582
1.28667
1.28766
1.28879
1.29006
1.29148
1.29303
1.29473
1.29657
1.29855
1.30067
1.30292
1.30531
1.30783
1.31047
1.31324
1.31611
1.3191
1.32217
1.32533
1.32856
1.33184
1.33516
1.3385
1.34184
1.34516
1.34844
1.35166
1.35479
1.35782
1.36072
1.36348
1.36606
1.36846
1.37065
1.37263
1.37436
1.37584
1.37706
1.378
1.37867
1.37904
1.37912
1.3789
1.37839
1.37758
1.37648
1.37509
1.37342
1.37148
1.36928
1.36683
1.36415
1.36125
1.35816
1.35489
1.35146
1.3479
1.34423
1.34047
1.33665
1.33279
1.32893
1.32507
1.32124
1.31747
1.31377
1.31017
1.30667
1.30329
1.30005
1.29694
1.29398
1.29116
1.28849
1.28597
1.28359
1.28135
1.27924
1.27726
1.2754
1.27365
1.272
1.27046
1.269
1.26764
1.26636
1.26516
1.26404
1.26299
1.26201
1.26111
1.26027
1.25951
1.25881
1.25819
1.25762
1.25713
1.25669
1.25632
1.25601
1.25574
1.25553
1.25536
1.25524
1.25514
1.25508
1.25504
1.25502
1.25502
1.25502
1.25503
1.25504
1.25505
1.25505
1.31508
1.31521
1.31548
1.31589
1.31643
1.31711
1.31792
1.31887
1.31996
1.32118
1.32253
1.32402
1.32564
1.32739
1.32927
1.33128
1.33342
1.33569
1.33807
1.34057
1.34317
1.34588
1.34868
1.35156
1.35452
1.35753
1.36059
1.36368
1.36678
1.36988
1.37295
1.37599
1.37896
1.38185
1.38465
1.38732
1.38985
1.39223
1.39443
1.39644
1.39825
1.39983
1.40119
1.40229
1.40315
1.40374
1.40407
1.40412
1.4039
1.40341
1.40264
1.40161
1.4003
1.39874
1.39693
1.39488
1.3926
1.3901
1.38741
1.38453
1.38149
1.3783
1.37499
1.37157
1.36808
1.36452
1.36092
1.35731
1.3537
1.35012
1.34658
1.3431
1.3397
1.3364
1.3332
1.33011
1.32714
1.3243
1.32159
1.31902
1.31657