/*--------------------------------*- C++ -*----------------------------------*\
| =========                 |                                                 |
| \\      /  F ield         | OpenFOAM: The Open Source CFD Toolbox           |
|  \\    /   O peration     | Version:  2406                                  |
|   \\  /    A nd           | Website:  www.openfoam.com                      |
|    \\/     M anipulation  |                                                 |
\*---------------------------------------------------------------------------*/
FoamFile
{
    version     2.0;
    format      ascii;
    arch        "LSB;label=32;scalar=64";
    class       volScalarField;
    location    "7.25";
    object      C;
}
// * * * * * * * * * * * * * * * * * * * * * * * * * * * * * * * * * * * * * //

dimensions      [1 -3 0 0 0 0 0];

internalField   nonuniform List<scalar> 
14400
(
0.235751
0.234625
0.232666
0.230302
0.227974
0.226055
0.224821
0.224447
0.225001
0.226446
0.228638
0.231312
0.234076
0.236415
0.237731
0.237465
0.235367
0.231821
0.227495
0.223082
0.219189
0.216318
0.214876
0.21521
0.217618
0.222383
0.229775
0.240072
0.253563
0.270559
0.291389
0.316406
0.345971
0.380425
0.420014
0.464672
0.512879
0.551493
0.577323
0.597868
0.615599
0.630778
0.643606
0.65424
0.6628
0.669379
0.674045
0.676847
0.677816
0.676966
0.674299
0.669796
0.663425
0.655139
0.644867
0.632518
0.617973
0.601081
0.581645
0.559413
0.529699
0.487139
0.43882
0.394488
0.355351
0.321363
0.292213
0.267521
0.246904
0.23
0.216477
0.206035
0.198403
0.193348
0.190666
0.190197
0.191822
0.195462
0.201073
0.208634
0.218129
0.229521
0.242722
0.25754
0.273568
0.289863
0.303416
0.310091
0.30912
0.301245
0.290073
0.27853
0.267583
0.2577
0.249128
0.241976
0.236255
0.231899
0.22878
0.226716
0.225496
0.224894
0.22471
0.224808
0.225152
0.225824
0.227005
0.228938
0.231889
0.236118
0.241854
0.249285
0.258545
0.269701
0.282738
0.297517
0.313684
0.330376
0.344928
0.352651
0.243183
0.241753
0.239338
0.236503
0.233767
0.231538
0.230111
0.229663
0.230265
0.231882
0.234373
0.237474
0.240783
0.243739
0.245615
0.245594
0.243113
0.238893
0.233861
0.228827
0.224433
0.221181
0.219469
0.219628
0.221949
0.226702
0.234154
0.244578
0.258259
0.275506
0.296648
0.322038
0.352031
0.386956
0.427013
0.471961
0.519757
0.556188
0.580476
0.600683
0.618152
0.633128
0.6458
0.656313
0.664782
0.671292
0.675909
0.67868
0.679634
0.678785
0.676133
0.671663
0.665342
0.657124
0.646944
0.634713
0.620321
0.603624
0.58444
0.562537
0.534708
0.494045
0.445463
0.400696
0.361085
0.326635
0.297057
0.271982
0.251028
0.233833
0.220063
0.209418
0.201631
0.196468
0.19373
0.19326
0.194941
0.198699
0.204492
0.212299
0.222108
0.233887
0.247553
0.262922
0.279599
0.296628
0.31039
0.316582
0.316354
0.308854
0.297304
0.285275
0.273881
0.263629
0.254775
0.247431
0.241607
0.237233
0.234171
0.232228
0.231164
0.230723
0.230661
0.230804
0.2311
0.231651
0.232675
0.234458
0.237299
0.24148
0.247244
0.254787
0.264246
0.275689
0.289101
0.304343
0.321066
0.338365
0.352597
0.358938
0.258567
0.256396
0.252953
0.249107
0.24552
0.242661
0.240841
0.240242
0.240937
0.242895
0.245981
0.249941
0.254368
0.258648
0.261848
0.262573
0.259045
0.253266
0.246728
0.240424
0.235025
0.231016
0.228764
0.228576
0.230719
0.235449
0.24302
0.253694
0.267753
0.285501
0.307266
0.333395
0.364239
0.40011
0.441147
0.486772
0.532399
0.564318
0.586705
0.606236
0.623196
0.637783
0.650153
0.660432
0.668721
0.675097
0.679619
0.682329
0.683254
0.682407
0.679787
0.675379
0.669156
0.661073
0.65107
0.639071
0.624974
0.608654
0.589955
0.568674
0.543579
0.506809
0.45864
0.413188
0.372648
0.337274
0.306845
0.281006
0.259381
0.241606
0.227347
0.216303
0.20821
0.202838
0.199994
0.199527
0.201325
0.205319
0.211471
0.219767
0.230197
0.242739
0.257316
0.273742
0.291587
0.309699
0.323219
0.328708
0.329324
0.32377
0.311779
0.298834
0.286576
0.275604
0.2662
0.258482
0.252461
0.248063
0.245138
0.243463
0.242752
0.242674
0.242893
0.24314
0.243322
0.24359
0.244257
0.245701
0.248291
0.252354
0.258161
0.265918
0.275765
0.287769
0.301905
0.318012
0.335652
0.353543
0.366078
0.370694
0.282929
0.27922
0.273939
0.26843
0.263508
0.259681
0.257266
0.256437
0.257265
0.259722
0.263686
0.268921
0.275051
0.281466
0.287093
0.289759
0.283771
0.2752
0.26626
0.258033
0.251144
0.246015
0.242965
0.24226
0.244138
0.248831
0.256575
0.267624
0.282248
0.300745
0.323438
0.350663
0.382753
0.419977
0.46237
0.508882
0.548366
0.574624
0.595746
0.614359
0.630615
0.644654
0.656596
0.666542
0.674574
0.680757
0.685141
0.687764
0.688647
0.687802
0.685228
0.680912
0.674829
0.66694
0.657194
0.645525
0.631849
0.616065
0.598051
0.577669
0.554769
0.523704
0.478687
0.432182
0.390218
0.353463
0.321766
0.294791
0.272165
0.253527
0.238543
0.226913
0.218374
0.212702
0.209711
0.209257
0.211238
0.215588
0.222276
0.231295
0.242641
0.256301
0.272205
0.290155
0.309599
0.328713
0.340431
0.345336
0.346589
0.343936
0.333252
0.319256
0.305824
0.293832
0.283633
0.275377
0.269084
0.264683
0.262009
0.260805
0.260717
0.261301
0.262047
0.262495
0.262446
0.262177
0.262192
0.263032
0.265174
0.269013
0.274851
0.282906
0.293316
0.306135
0.32131
0.338618
0.35737
0.374691
0.383455
0.38682
0.317407
0.31078
0.302629
0.294752
0.28801
0.28289
0.279685
0.278552
0.279547
0.282644
0.287731
0.294591
0.302893
0.312082
0.320843
0.323507
0.316721
0.30451
0.292467
0.281792
0.273002
0.266435
0.262349
0.260968
0.262497
0.26714
0.275116
0.286662
0.302037
0.321529
0.345447
0.374108
0.407795
0.446625
0.490059
0.534417
0.56537
0.58753
0.607296
0.624839
0.640251
0.653621
0.665035
0.674565
0.682274
0.688215
0.692426
0.694937
0.695768
0.694926
0.692411
0.688212
0.682307
0.674664
0.665242
0.653986
0.640833
0.625704
0.608515
0.589172
0.567582
0.542165
0.504649
0.457543
0.413931
0.375438
0.342096
0.313626
0.289677
0.269898
0.253959
0.24156
0.232444
0.22639
0.223221
0.2228
0.225032
0.22986
0.23726
0.247227
0.259768
0.274871
0.292467
0.312331
0.333671
0.35202
0.360885
0.365562
0.367372
0.366491
0.360346
0.346402
0.331798
0.318576
0.307372
0.298434
0.291812
0.287453
0.285193
0.284737
0.285652
0.287351
0.289042
0.289887
0.289372
0.288141
0.287053
0.286914
0.288339
0.291798
0.29763
0.30605
0.317175
0.331029
0.347485
0.366143
0.385573
0.398324
0.40367
0.406309
0.357219
0.350117
0.338801
0.328138
0.319223
0.312547
0.308394
0.306896
0.308089
0.311943
0.318341
0.327026
0.337608
0.349181
0.35703
0.357205
0.35321
0.340061
0.325125
0.311805
0.300843
0.292582
0.287255
0.285056
0.286161
0.290749
0.299017
0.311185
0.327498
0.348227
0.373658
0.404066
0.439657
0.480329
0.524415
0.559042
0.582466
0.602742
0.621067
0.63745
0.651927
0.664546
0.675357
0.684409
0.691745
0.697402
0.70141
0.703792
0.704561
0.703724
0.701279
0.697218
0.691522
0.684168
0.675123
0.664346
0.651791
0.637404
0.621132
0.602922
0.582735
0.560559
0.531653
0.488841
0.443933
0.403501
0.368191
0.337886
0.312299
0.291104
0.273981
0.260637
0.250816
0.244303
0.24093
0.240566
0.243124
0.248555
0.256839
0.267975
0.281969
0.298796
0.318346
0.340209
0.362717
0.377176
0.384164
0.388654
0.390842
0.390866
0.388778
0.37989
0.364637
0.350092
0.337714
0.327986
0.320991
0.316737
0.315094
0.315738
0.318157
0.321648
0.324987
0.326671
0.325166
0.322281
0.319426
0.317817
0.318179
0.321063
0.326829
0.335669
0.347632
0.362678
0.380465
0.399943
0.41523
0.42238
0.426379
0.428438
0.393851
0.390891
0.381061
0.368305
0.357211
0.34884
0.343651
0.341756
0.343175
0.347869
0.355704
0.366181
0.378425
0.389011
0.391586
0.390514
0.388554
0.380544
0.364035
0.34822
0.334957
0.324812
0.318074
0.314936
0.315558
0.320095
0.328722
0.34164
0.359077
0.381275
0.408473
0.440836
0.47834
0.519943
0.556491
0.58126
0.601374
0.619906
0.636781
0.651968
0.665463
0.677278
0.687438
0.695968
0.702893
0.708238
0.712022
0.714259
0.71496
0.714129
0.711763
0.707857
0.702396
0.695364
0.686735
0.676484
0.664579
0.65099
0.635687
0.61865
0.599874
0.579381
0.55686
0.524756
0.480252
0.437999
0.400479
0.368023
0.340488
0.317604
0.29907
0.284601
0.273947
0.266901
0.263298
0.263017
0.26598
0.27214
0.281481
0.294001
0.309688
0.328477
0.350144
0.373819
0.393942
0.403605
0.409769
0.414046
0.416478
0.417187
0.416377
0.413253
0.403452
0.388364
0.374825
0.364308
0.356898
0.352809
0.352016
0.354149
0.358587
0.364737
0.370543
0.373948
0.370452
0.365144
0.35968
0.35609
0.354998
0.357089
0.362728
0.372042
0.384889
0.401115
0.419498
0.435275
0.443536
0.447933
0.451028
0.452625
0.427852
0.427612
0.42406
0.414214
0.401796
0.391791
0.385615
0.383347
0.385004
0.390536
0.399858
0.411516
0.422365
0.426276
0.425744
0.424687
0.422993
0.419939
0.408611
0.391149
0.375648
0.36351
0.355231
0.351063
0.351164
0.355668
0.364728
0.378527
0.397268
0.421133
0.45028
0.484543
0.522978
0.5593
0.584396
0.603704
0.621866
0.638726
0.654184
0.668178
0.680676
0.691667
0.70115
0.709131
0.715623
0.720635
0.724179
0.726263
0.726892
0.726068
0.723789
0.72005
0.714843
0.708155
0.699971
0.690276
0.679053
0.666289
0.651976
0.636116
0.618729
0.599855
0.579563
0.556429
0.522391
0.4792
0.439383
0.404522
0.374755
0.349919
0.329751
0.313977
0.302359
0.294698
0.290839
0.290668
0.294112
0.301129
0.3117
0.325813
0.343409
0.3643
0.387867
0.411492
0.424715
0.431733
0.437262
0.441284
0.443837
0.445026
0.445028
0.444096
0.440884
0.432171
0.418361
0.407484
0.399595
0.39569
0.395972
0.39993
0.406414
0.415539
0.421084
0.422814
0.421326
0.415825
0.407394
0.401742
0.398834
0.39995
0.405416
0.415273
0.428779
0.445466
0.45929
0.467249
0.471405
0.474788
0.477175
0.478409
0.462089
0.462038
0.462002
0.459064
0.451651
0.440816
0.434149
0.431624
0.433481
0.439489
0.449832
0.457976
0.461516
0.461055
0.46042
0.459496
0.458193
0.456471
0.452209
0.439698
0.423016
0.409
0.399134
0.3939
0.393478
0.397985
0.407557
0.42235
0.442545
0.468176
0.499265
0.534442
0.568035
0.591986
0.610005
0.627292
0.643658
0.658948
0.673049
0.685883
0.697398
0.707564
0.716362
0.723785
0.729831
0.7345
0.737796
0.739721
0.740276
0.739461
0.737274
0.733712
0.72877
0.722441
0.714718
0.705595
0.695068
0.683137
0.669812
0.655111
0.63907
0.621746
0.60322
0.583601
0.560104
0.525815
0.484994
0.447801
0.415617
0.388609
0.366601
0.349345
0.336627
0.328268
0.324121
0.324081
0.328081
0.336077
0.34804
0.363937
0.383615
0.406618
0.431258
0.447475
0.455186
0.461322
0.46626
0.469993
0.472559
0.47405
0.474615
0.474463
0.473862
0.471785
0.465747
0.456706
0.448389
0.444697
0.4461
0.451819
0.457832
0.461628
0.463123
0.463181
0.463824
0.462722
0.459361
0.453704
0.448959
0.449191
0.454374
0.464654
0.477353
0.487284
0.493401
0.496882
0.500044
0.502638
0.504475
0.505427
0.496377
0.496446
0.496646
0.497119
0.496086
0.492373
0.487717
0.485226
0.487155
0.491782
0.495744
0.497324
0.49656
0.495974
0.495386
0.494685
0.493811
0.492761
0.491594
0.487311
0.476169
0.461292
0.450018
0.44382
0.442946
0.447517
0.457666
0.473492
0.495202
0.522282
0.554282
0.582731
0.603955
0.620315
0.636336
0.651802
0.666527
0.68036
0.693182
0.704906
0.71547
0.724827
0.732949
0.739816
0.745415
0.74974
0.752785
0.754549
0.75503
0.754226
0.752135
0.748755
0.744084
0.738121
0.730865
0.722318
0.712485
0.70138
0.689023
0.675445
0.660695
0.64484
0.62797
0.610202
0.591683
0.568851
0.536179
0.498002
0.463496
0.43422
0.410226
0.391327
0.377373
0.368227
0.363756
0.363859
0.368477
0.377562
0.391028
0.408827
0.430512
0.454522
0.472018
0.480631
0.486819
0.49211
0.496463
0.499868
0.502356
0.504
0.50492
0.505279
0.505287
0.505196
0.504911
0.502188
0.498885
0.496831
0.497069
0.498528
0.499594
0.498767
0.498227
0.498348
0.499119
0.500605
0.502144
0.501836
0.501435
0.502561
0.506638
0.512511
0.518147
0.521578
0.524188
0.526831
0.529251
0.531245
0.532662
0.533396
0.530596
0.530721
0.531015
0.531561
0.532486
0.533615
0.533053
0.532523
0.533078
0.53389
0.533087
0.532078
0.531395
0.530894
0.530467
0.530045
0.529605
0.529167
0.52881
0.528672
0.526043
0.51876
0.507334
0.500819
0.499726
0.504444
0.5152
0.531786
0.554564
0.580921
0.602969
0.62009
0.634509
0.648969
0.663221
0.677054
0.690289
0.702781
0.714412
0.725091
0.734747
0.743326
0.750792
0.757114
0.762274
0.766258
0.769055
0.770661
0.771069
0.770277
0.768284
0.765088
0.760691
0.755094
0.748303
0.740325
0.731176
0.720876
0.709454
0.696951
0.683425
0.668949
0.653619
0.637554
0.620898
0.603825
0.582926
0.553812
0.518374
0.48713
0.461191
0.440531
0.425216
0.41521
0.410374
0.410611
0.415882
0.42613
0.441047
0.460616
0.483092
0.499826
0.508512
0.514209
0.519349
0.523835
0.527613
0.530661
0.532998
0.534676
0.535784
0.536445
0.53681
0.537049
0.537328
0.537836
0.53813
0.537622
0.536702
0.535144
0.533756
0.532945
0.532638
0.532863
0.533637
0.534988
0.536928
0.539615
0.542462
0.544795
0.547338
0.549396
0.550961
0.552868
0.55494
0.557003
0.558883
0.560431
0.56153
0.5621
0.56469
0.564829
0.565129
0.565625
0.566352
0.56728
0.568307
0.568942
0.568683
0.567891
0.567131
0.566499
0.566046
0.56574
0.565542
0.565425
0.565395
0.565493
0.565807
0.56648
0.567734
0.568163
0.565922
0.563114
0.562463
0.567427
0.578692
0.594507
0.611588
0.627259
0.639949
0.652295
0.665012
0.677831
0.690526
0.702902
0.714793
0.726063
0.736595
0.746299
0.7551
0.76294
0.769777
0.775575
0.780309
0.783962
0.786518
0.787969
0.788308
0.78753
0.785636
0.782623
0.778497
0.773261
0.766926
0.759506
0.751019
0.741493
0.730964
0.719481
0.707104
0.693912
0.680003
0.665495
0.65053
0.635277
0.619935
0.602185
0.578032
0.546878
0.519776
0.497374
0.480645
0.469773
0.464542
0.464855
0.470714
0.482164
0.497875
0.517923
0.531691
0.539078
0.543812
0.548346
0.552533
0.55627
0.559491
0.562166
0.564298
0.565921
0.567095
0.567907
0.568459
0.56886
0.569198
0.569513
0.569668
0.569469
0.568775
0.567887
0.567098
0.56662
0.566517
0.566828
0.567579
0.568782
0.570434
0.572514
0.574828
0.577138
0.579044
0.580715
0.582317
0.583991
0.585702
0.587357
0.588846
0.590065
0.590928
0.591375
0.598645
0.598776
0.599045
0.59946
0.600016
0.600665
0.601297
0.601694
0.601689
0.601398
0.601045
0.600742
0.600549
0.60048
0.600535
0.600719
0.601058
0.601604
0.602444
0.603708
0.605579
0.608297
0.612046
0.614714
0.618118
0.624165
0.633024
0.64335
0.653317
0.662819
0.673181
0.684126
0.695412
0.706819
0.71815
0.729234
0.73992
0.750081
0.759607
0.768409
0.776413
0.783559
0.7898
0.795099
0.799427
0.802761
0.805086
0.806389
0.806662
0.805901
0.804104
0.801273
0.797411
0.792528
0.786636
0.779752
0.7719
0.763113
0.75343
0.742904
0.731598
0.719593
0.706986
0.693892
0.68045
0.666819
0.653189
0.639782
0.625814
0.607205
0.584627
0.561292
0.54359
0.532118
0.5265
0.5267
0.532655
0.545041
0.558397
0.56767
0.572391
0.575766
0.579313
0.58283
0.586167
0.589219
0.591915
0.594215
0.596109
0.597614
0.598768
0.599628
0.600261
0.600733
0.601092
0.601351
0.601458
0.601343
0.600991
0.600532
0.60013
0.59992
0.59998
0.600355
0.601069
0.602127
0.603514
0.605178
0.607004
0.608841
0.610536
0.612102
0.613599
0.615076
0.61652
0.617878
0.61908
0.620055
0.620741
0.621096
0.63247
0.632585
0.632814
0.633154
0.633586
0.634067
0.634521
0.634847
0.634982
0.634969
0.634907
0.634876
0.634928
0.635095
0.635397
0.635858
0.636514
0.63742
0.638656
0.640329
0.642576
0.645552
0.649403
0.654228
0.659952
0.666138
0.672712
0.67985
0.687832
0.696516
0.705831
0.715616
0.725691
0.735881
0.746022
0.755964
0.765573
0.774733
0.783343
0.791317
0.798583
0.805082
0.810766
0.815595
0.819538
0.822571
0.824676
0.825839
0.826051
0.825308
0.823608
0.820952
0.817347
0.812804
0.807336
0.800966
0.793718
0.785628
0.776739
0.767105
0.756791
0.745877
0.734456
0.72264
0.710557
0.69836
0.68622
0.674336
0.662937
0.652244
0.639609
0.625444
0.611519
0.600552
0.594635
0.594296
0.59793
0.602713
0.60681
0.608219
0.609997
0.612284
0.614844
0.617492
0.620087
0.622526
0.624734
0.626668
0.628308
0.629657
0.630735
0.631577
0.632224
0.632717
0.633087
0.633342
0.63347
0.633455
0.633314
0.633119
0.632969
0.632951
0.633128
0.633542
0.634214
0.635144
0.636315
0.637681
0.639169
0.640686
0.642156
0.643558
0.644901
0.646194
0.647424
0.648555
0.649541
0.650332
0.650886
0.651172
0.666179
0.666279
0.666474
0.666757
0.667108
0.667496
0.667873
0.66819
0.668422
0.668588
0.668739
0.668926
0.669194
0.669575
0.670101
0.670803
0.67172
0.672906
0.67443
0.676377
0.678844
0.681933
0.685727
0.690263
0.695485
0.701244
0.707486
0.714261
0.721642
0.729583
0.738012
0.746815
0.755855
0.764993
0.774093
0.783026
0.791675
0.799936
0.807715
0.814933
0.821521
0.827421
0.832586
0.836976
0.840558
0.843308
0.845207
0.846239
0.846396
0.845672
0.844066
0.84158
0.838222
0.834004
0.828941
0.823056
0.816378
0.808942
0.800794
0.791987
0.782585
0.772667
0.762321
0.751652
0.74078
0.729843
0.718995
0.708407
0.69827
0.688789
0.680184
0.672549
0.664496
0.657097
0.651831
0.649204
0.648237
0.646905
0.646002
0.646176
0.647094
0.648528
0.650286
0.652207
0.654165
0.656062
0.657828
0.659416
0.660799
0.661971
0.662938
0.66372
0.664341
0.664826
0.665195
0.66546
0.665624
0.665692
0.66569
0.665664
0.665675
0.665785
0.66604
0.666473
0.667099
0.66792
0.66892
0.670064
0.671303
0.672579
0.673845
0.675073
0.676253
0.677376
0.678427
0.679378
0.680197
0.680847
0.6813
0.681533
0.699789
0.699876
0.700046
0.700291
0.700594
0.700935
0.701285
0.70162
0.701928
0.702223
0.702533
0.702896
0.703344
0.703911
0.704629
0.705531
0.706657
0.708055
0.709781
0.711903
0.71449
0.717609
0.72131
0.72561
0.730482
0.735866
0.741727
0.748067
0.75489
0.762162
0.769821
0.777775
0.785921
0.794144
0.80233
0.810372
0.818166
0.825619
0.832648
0.839179
0.845146
0.850496
0.855182
0.859164
0.862411
0.864898
0.866604
0.867515
0.867622
0.866918
0.865403
0.863081
0.859958
0.856048
0.851367
0.84594
0.839795
0.83297
0.825508
0.817463
0.808897
0.799883
0.790508
0.780867
0.771069
0.761238
0.751508
0.742026
0.732948
0.724431
0.716627
0.709644
0.703551
0.698369
0.693888
0.690042
0.686988
0.68494
0.683756
0.683388
0.683674
0.68445
0.685564
0.686885
0.688302
0.68973
0.691101
0.692368
0.693502
0.694489
0.695327
0.696024
0.696593
0.69705
0.697408
0.697679
0.697873
0.698002
0.698089
0.698169
0.698284
0.698475
0.698775
0.699209
0.699791
0.700518
0.701381
0.702352
0.703399
0.704484
0.705571
0.706635
0.70766
0.708631
0.70953
0.710334
0.711019
0.71156
0.711935
0.712126
0.733312
0.733391
0.733544
0.733765
0.734044
0.734365
0.734712
0.735075
0.735448
0.735842
0.736277
0.736779
0.737376
0.738097
0.738973
0.740036
0.741323
0.742874
0.744738
0.746964
0.749604
0.752703
0.756293
0.760386
0.764968
0.77001
0.775489
0.781388
0.787689
0.794356
0.801333
0.808546
0.815909
0.82333
0.830713
0.837965
0.844997
0.851727
0.85808
0.863987
0.869389
0.874235
0.878481
0.882087
0.885025
0.887268
0.888796
0.889596
0.889658
0.888976
0.887549
0.885381
0.882481
0.878861
0.87454
0.869541
0.863893
0.857633
0.850805
0.843459
0.835655
0.827463
0.818961
0.810238
0.801392
0.792531
0.783773
0.775242
0.767063
0.759362
0.75225
0.745813
0.740102
0.735125
0.730826
0.727187
0.724263
0.722112
0.720693
0.719945
0.719765
0.720034
0.720636
0.721466
0.72243
0.723454
0.724476
0.725453
0.726352
0.727156
0.727858
0.728456
0.728958
0.729372
0.729708
0.729976
0.730186
0.730353
0.730496
0.730641
0.730817
0.731054
0.731375
0.731799
0.732335
0.732982
0.733731
0.734565
0.735459
0.736385
0.737319
0.738237
0.739122
0.739958
0.740726
0.741409
0.741987
0.74244
0.742752
0.742911
0.766757
0.76683
0.766974
0.767183
0.767451
0.767767
0.768125
0.768518
0.768947
0.76942
0.769953
0.770566
0.771282
0.772128
0.77313
0.774317
0.775723
0.777382
0.779331
0.781611
0.784259
0.787306
0.790774
0.794672
0.798992
0.803719
0.80883
0.814307
0.820122
0.826239
0.832608
0.839166
0.84584
0.852554
0.859227
0.865778
0.872131
0.878213
0.883956
0.8893
0.894189
0.898575
0.902418
0.90568
0.908333
0.910351
0.911717
0.912415
0.912437
0.911777
0.910435
0.908415
0.905724
0.902377
0.898391
0.89379
0.888603
0.882866
0.876619
0.869912
0.862802
0.855352
0.847635
0.839732
0.831729
0.823722
0.815812
0.808104
0.800701
0.793703
0.787198
0.781255
0.775918
0.771204
0.767104
0.763617
0.760763
0.758552
0.75696
0.755936
0.755406
0.755284
0.755481
0.755911
0.756499
0.757179
0.757898
0.758614
0.759297
0.759926
0.760491
0.760985
0.761411
0.761773
0.762076
0.76233
0.762542
0.762727
0.762901
0.763081
0.76329
0.763548
0.763873
0.764277
0.764768
0.765344
0.765998
0.766718
0.767485
0.76828
0.769082
0.769872
0.770634
0.771352
0.772009
0.772589
0.773078
0.77346
0.773722
0.773855
0.800129
0.800199
0.800338
0.800543
0.800808
0.801129
0.801502
0.801926
0.802402
0.802939
0.80355
0.80425
0.80506
0.806003
0.807101
0.808381
0.80987
0.811598
0.813595
0.815891
0.818514
0.821487
0.824826
0.828536
0.832611
0.837041
0.841807
0.846887
0.852254
0.857872
0.863695
0.869669
0.875732
0.88182
0.887862
0.89379
0.899536
0.905037
0.910232
0.915067
0.919491
0.923459
0.926934
0.929882
0.932274
0.934088
0.935305
0.935911
0.935898
0.935261
0.933999
0.932118
0.929624
0.926531
0.922857
0.918626
0.913864
0.908607
0.902893
0.89677
0.890288
0.883509
0.876497
0.869324
0.86207
0.854816
0.84765
0.840661
0.833934
0.827551
0.821584
0.816091
0.811111
0.806667
0.802768
0.799416
0.79662
0.794374
0.792658
0.791432
0.790639
0.790216
0.790092
0.790199
0.790476
0.790866
0.791323
0.791809
0.792295
0.792761
0.793193
0.793583
0.793929
0.794232
0.794495
0.794724
0.794927
0.795114
0.795298
0.795493
0.795714
0.795976
0.796291
0.796669
0.797115
0.797627
0.798199
0.798823
0.799484
0.800168
0.800857
0.801536
0.802191
0.802806
0.803367
0.803862
0.804277
0.804599
0.80482
0.804933
0.83343
0.833499
0.833637
0.833841
0.834109
0.834439
0.834829
0.835281
0.835797
0.836385
0.837056
0.837824
0.838706
0.839722
0.840891
0.842235
0.843778
0.845545
0.847559
0.849843
0.85242
0.855304
0.858507
0.862033
0.865876
0.870027
0.874469
0.879181
0.884135
0.889299
0.89463
0.900082
0.905601
0.91113
0.916611
0.921983
0.927187
0.932167
0.936869
0.941245
0.945248
0.948838
0.951979
0.95464
0.956795
0.958422
0.959503
0.960026
0.959983
0.959369
0.958184
0.956432
0.954122
0.951266
0.947882
0.943991
0.939621
0.934804
0.929577
0.923984
0.918073
0.911898
0.905518
0.898999
0.89241
0.885823
0.879312
0.872955
0.866822
0.860982
0.855496
0.850413
0.845769
0.841587
0.837883
0.834661
0.831925
0.829666
0.827866
0.826493
0.825504
0.824848
0.824471
0.824318
0.824339
0.824486
0.824719
0.825004
0.825314
0.82563
0.825937
0.826225
0.82649
0.82673
0.826947
0.827144
0.827327
0.827504
0.827684
0.827878
0.828096
0.828349
0.828647
0.828995
0.829395
0.829849
0.83035
0.830891
0.831462
0.83205
0.832642
0.833225
0.833786
0.834313
0.834793
0.835215
0.835567
0.835841
0.836028
0.836123
0.866661
0.866731
0.86687
0.867076
0.867349
0.867689
0.868096
0.868571
0.869119
0.869747
0.870465
0.871284
0.872219
0.873287
0.874504
0.87589
0.877463
0.879244
0.881252
0.883504
0.886017
0.888802
0.891866
0.895212
0.898834
0.902722
0.906862
0.911232
0.915808
0.920558
0.925445
0.930427
0.935459
0.94049
0.945469
0.950343
0.955062
0.959574
0.963834
0.967795
0.971418
0.974664
0.977503
0.979904
0.981843
0.9833
0.984259
0.984708
0.984639
0.984049
0.982936
0.981306
0.979166
0.976529
0.973412
0.969836
0.965825
0.961411
0.956628
0.951517
0.946121
0.940491
0.934679
0.928745
0.922748
0.916752
0.910822
0.905023
0.899417
0.894061
0.889006
0.884296
0.879963
0.876031
0.872515
0.869421
0.866752
0.8645
0.862648
0.861171
0.860036
0.859202
0.858626
0.858264
0.858075
0.858019
0.858062
0.858173
0.858328
0.858508
0.858699
0.85889
0.859075
0.859252
0.859419
0.859578
0.859734
0.859891
0.860057
0.860238
0.860443
0.860679
0.860952
0.861266
0.861624
0.862023
0.86246
0.862929
0.863421
0.863927
0.864435
0.864936
0.865416
0.865867
0.866277
0.866636
0.866936
0.867168
0.867327
0.867407
0.899823
0.899894
0.900034
0.900244
0.900523
0.900872
0.901293
0.901788
0.902361
0.90302
0.903772
0.904628
0.9056
0.906703
0.90795
0.909357
0.910941
0.912717
0.9147
0.916904
0.919341
0.92202
0.924944
0.928114
0.931525
0.935166
0.939023
0.943078
0.947306
0.951679
0.956164
0.960724
0.965317
0.969901
0.97443
0.978859
0.983142
0.987235
0.991096
0.994684
0.997963
1.0009
1.00346
1.00563
1.00737
1.00868
1.00953
1.00991
1.00982
1.00925
1.00821
1.00669
1.00471
1.00227
0.999402
0.996114
0.992433
0.988387
0.984008
0.979334
0.974405
0.969265
0.963964
0.958552
0.953084
0.947615
0.942201
0.936899
0.931761
0.926838
0.922172
0.917802
0.913756
0.910059
0.906723
0.903757
0.901163
0.898933
0.897055
0.895508
0.894266
0.893297
0.892566
0.892038
0.891679
0.891455
0.891336
0.891298
0.891317
0.891376
0.89146
0.891561
0.891669
0.891782
0.891898
0.892016
0.892139
0.89227
0.892414
0.892575
0.892759
0.892972
0.893216
0.893495
0.89381
0.894159
0.894539
0.894944
0.895367
0.895802
0.896238
0.896666
0.897077
0.897462
0.897811
0.898117
0.898372
0.89857
0.898704
0.898773
0.932915
0.932986
0.933128
0.933342
0.933626
0.933984
0.934416
0.934927
0.935519
0.936199
0.936975
0.937855
0.938851
0.939973
0.941235
0.942648
0.944226
0.945981
0.947926
0.950072
0.952425
0.954993
0.957777
0.960776
0.963985
0.967393
0.970988
0.97475
0.97866
0.982689
0.986809
0.990987
0.995186
0.999367
1.00349
1.00752
1.01141
1.01513
1.01863
1.02188
1.02485
1.02751
1.02982
1.03178
1.03334
1.03451
1.03526
1.03558
1.03547
1.03493
1.03395
1.03254
1.0307
1.02845
1.02581
1.02279
1.01941
1.01569
1.01168
1.00741
1.0029
0.998201
0.993359
0.988416
0.983421
0.978422
0.973469
0.968611
0.963892
0.959357
0.955042
0.950982
0.947202
0.943724
0.940562
0.937722
0.935208
0.933014
0.93113
0.92954
0.928223
0.927153
0.926303
0.925644
0.925147
0.924784
0.924531
0.924365
0.924266
0.924217
0.924206
0.924223
0.924259
0.924311
0.924375
0.92445
0.924536
0.924637
0.924753
0.924889
0.925047
0.925232
0.925446
0.925689
0.925962
0.926264
0.926592
0.92694
0.927303
0.927675
0.928047
0.928413
0.928764
0.929092
0.929389
0.92965
0.929866
0.930034
0.930148
0.930206
0.965936
0.966008
0.966152
0.966368
0.966657
0.967021
0.967462
0.967983
0.968588
0.969282
0.970073
0.970968
0.971975
0.973105
0.974368
0.975774
0.977334
0.979057
0.980953
0.983031
0.985295
0.987749
0.990394
0.993228
0.996245
0.999434
1.00278
1.00628
1.00989
1.01361
1.0174
1.02123
1.02507
1.02889
1.03265
1.03632
1.03986
1.04324
1.04641
1.04936
1.05205
1.05446
1.05655
1.05831
1.05971
1.06076
1.06142
1.06169
1.06156
1.06104
1.06012
1.05881
1.05711
1.05503
1.05259
1.04981
1.04671
1.0433
1.03963
1.03571
1.03158
1.02728
1.02285
1.01833
1.01376
1.00918
1.00464
1.00018
0.99584
0.991654
0.987658
0.983881
0.980347
0.977074
0.974077
0.971362
0.968933
0.966785
0.964912
0.9633
0.961933
0.96079
0.959849
0.959087
0.95848
0.958004
0.957639
0.957365
0.957164
0.957021
0.956925
0.956865
0.956834
0.956827
0.95684
0.956871
0.95692
0.956986
0.957072
0.957179
0.957309
0.957464
0.957645
0.957853
0.958086
0.958344
0.958624
0.958921
0.959231
0.959547
0.959864
0.960175
0.960473
0.960752
0.961005
0.961226
0.96141
0.961552
0.961648
0.961697
0.998885
0.998958
0.999103
0.999321
0.999613
0.999981
1.00043
1.00096
1.00157
1.00227
1.00307
1.00397
1.00498
1.0061
1.00736
1.00875
1.01028
1.01196
1.0138
1.0158
1.01797
1.02031
1.02282
1.0255
1.02833
1.03132
1.03444
1.03768
1.04103
1.04445
1.04794
1.05146
1.05498
1.05847
1.0619
1.06525
1.06847
1.07154
1.07443
1.0771
1.07954
1.08172
1.08361
1.08519
1.08645
1.08738
1.08796
1.08819
1.08805
1.08755
1.08669
1.08546
1.08389
1.08197
1.07973
1.07716
1.07431
1.07118
1.06781
1.06422
1.06044
1.0565
1.05244
1.0483
1.04411
1.03991
1.03574
1.03163
1.02763
1.02376
1.02005
1.01654
1.01323
1.01015
1.00731
1.00472
1.00238
1.00028
0.998432
0.996815
0.995418
0.994224
0.993217
0.992375
0.991681
0.991114
0.990657
0.990291
0.990003
0.989778
0.989607
0.989478
0.989386
0.989323
0.989287
0.989275
0.989285
0.989317
0.98937
0.989447
0.989546
0.98967
0.989818
0.98999
0.990186
0.990403
0.990638
0.990889
0.991151
0.991419
0.991687
0.99195
0.992202
0.992438
0.992652
0.992839
0.992994
0.993114
0.993196
0.993237
1.03176
1.03184
1.03198
1.0322
1.03249
1.03286
1.03331
1.03384
1.03446
1.03516
1.03596
1.03686
1.03786
1.03898
1.04021
1.04158
1.04307
1.0447
1.04648
1.04841
1.05048
1.05271
1.05509
1.05761
1.06027
1.06306
1.06597
1.06898
1.07208
1.07524
1.07845
1.08169
1.08491
1.08811
1.09125
1.0943
1.09723
1.10003
1.10265
1.10508
1.10729
1.10926
1.11097
1.1124
1.11353
1.11436
1.11486
1.11505
1.1149
1.11442
1.11361
1.11247
1.11101
1.10924
1.10717
1.10481
1.10218
1.09931
1.09621
1.09291
1.08945
1.08583
1.08211
1.07831
1.07446
1.0706
1.06677
1.06299
1.05929
1.05571
1.05226
1.04898
1.04589
1.04299
1.0403
1.03782
1.03557
1.03354
1.03172
1.03011
1.0287
1.02747
1.02642
1.02552
1.02475
1.02411
1.02358
1.02314
1.02278
1.02248
1.02225
1.02206
1.02191
1.02179
1.02171
1.02166
1.02163
1.02163
1.02165
1.02169
1.02176
1.02185
1.02197
1.0221
1.02226
1.02244
1.02264
1.02285
1.02307
1.02329
1.02351
1.02374
1.02395
1.02415
1.02433
1.02448
1.02461
1.02472
1.02478
1.02482
1.06457
1.06464
1.06478
1.065
1.0653
1.06567
1.06612
1.06665
1.06726
1.06796
1.06875
1.06964
1.07063
1.07173
1.07294
1.07427
1.07572
1.0773
1.07902
1.08086
1.08284
1.08496
1.0872
1.08958
1.09208
1.09469
1.0974
1.10019
1.10306
1.10599
1.10895
1.11192
1.11488
1.11781
1.12068
1.12346
1.12614
1.12868
1.13107
1.13328
1.13528
1.13706
1.13861
1.13989
1.14091
1.14165
1.14209
1.14224
1.14209
1.14163
1.14087
1.13981
1.13845
1.13681
1.1349
1.13272
1.13031
1.12766
1.12481
1.12178
1.1186
1.11528
1.11186
1.10837
1.10483
1.10128
1.09774
1.09425
1.09083
1.08751
1.08431
1.08125
1.07834
1.07561
1.07306
1.07071
1.06854
1.06657
1.0648
1.06321
1.0618
1.06055
1.05946
1.05852
1.05771
1.05701
1.05641
1.05591
1.05549
1.05513
1.05484
1.05459
1.05439
1.05423
1.05411
1.05401
1.05395
1.05391
1.0539
1.05391
1.05395
1.05401
1.05409
1.0542
1.05432
1.05447
1.05462
1.05479
1.05497
1.05516
1.05535
1.05553
1.05571
1.05587
1.05602
1.05615
1.05626
1.05635
1.05641
1.05644
1.0973
1.09737
1.09752
1.09773
1.09803
1.09839
1.09884
1.09936
1.09997
1.10066
1.10145
1.10232
1.1033
1.10437
1.10555
1.10684
1.10825
1.10977
1.11142
1.11318
1.11507
1.11707
1.11919
1.12143
1.12377
1.12621
1.12873
1.13133
1.13399
1.1367
1.13942
1.14216
1.14488
1.14756
1.15019
1.15274
1.15518
1.1575
1.15967
1.16167
1.16349
1.16511
1.1665
1.16766
1.16858
1.16923
1.16962
1.16973
1.16957
1.16914
1.16842
1.16743
1.16617
1.16466
1.16289
1.16088
1.15865
1.15622
1.1536
1.15081
1.14788
1.14483
1.14168
1.13847
1.13521
1.13194
1.12867
1.12545
1.12228
1.11919
1.11621
1.11335
1.11063
1.10805
1.10564
1.1034
1.10132
1.09942
1.09769
1.09613
1.09472
1.09347
1.09237
1.09139
1.09054