/*--------------------------------*- C++ -*----------------------------------*\
| =========                 |                                                 |
| \\      /  F ield         | OpenFOAM: The Open Source CFD Toolbox           |
|  \\    /   O peration     | Version:  2406                                  |
|   \\  /    A nd           | Website:  www.openfoam.com                      |
|    \\/     M anipulation  |                                                 |
\*---------------------------------------------------------------------------*/
FoamFile
{
    version     2.0;
    format      ascii;
    arch        "LSB;label=32;scalar=64";
    class       volScalarField;
    location    "7.25";
    object      D;
}
// * * * * * * * * * * * * * * * * * * * * * * * * * * * * * * * * * * * * * //

dimensions      [0 2 -1 0 0 0 0];

internalField   nonuniform List<scalar> 
14400
(
6.74778e-05
6.73916e-05
6.72583e-05
6.71192e-05
6.69994e-05
6.69096e-05
6.68523e-05
6.68281e-05
6.68396e-05
6.68922e-05
6.69939e-05
6.71502e-05
6.73549e-05
6.75722e-05
6.77151e-05
6.76559e-05
6.73243e-05
6.68295e-05
6.62828e-05
6.57346e-05
6.51939e-05
6.46538e-05
6.4108e-05
6.35573e-05
6.30101e-05
6.24804e-05
6.19838e-05
6.15356e-05
6.11495e-05
6.08385e-05
6.0617e-05
6.05052e-05
6.05377e-05
6.0783e-05
6.14042e-05
6.29244e-05
6.826e-05
0.000115446
0.00013824
0.00013824
0.00013824
0.00013824
0.00013824
0.00013824
0.00013824
0.00013824
0.00013824
0.00013824
0.00013824
0.00013824
0.00013824
0.00013824
0.00013824
0.00013824
0.00013824
0.00013824
0.00013824
0.00013824
0.00013824
0.000138231
9.76868e-05
6.73288e-05
6.30066e-05
6.17547e-05
6.13105e-05
6.12344e-05
6.13881e-05
6.17162e-05
6.21936e-05
6.28047e-05
6.35331e-05
6.43516e-05
6.52159e-05
6.60625e-05
6.68167e-05
6.7409e-05
6.77936e-05
6.796e-05
6.79352e-05
6.77784e-05
6.75715e-05
6.74143e-05
6.74334e-05
6.78296e-05
6.90772e-05
7.31206e-05
9.45972e-05
0.00013815
0.000108113
7.37243e-05
6.83526e-05
6.65873e-05
6.57967e-05
6.54345e-05
6.53092e-05
6.53298e-05
6.54429e-05
6.56119e-05
6.58078e-05
6.60051e-05
6.61787e-05
6.63034e-05
6.63553e-05
6.63167e-05
6.61828e-05
6.59639e-05
6.56813e-05
6.5361e-05
6.50286e-05
6.47089e-05
6.44261e-05
6.42058e-05
6.4079e-05
6.4089e-05
6.43086e-05
6.48855e-05
6.62106e-05
6.98352e-05
8.62298e-05
0.000137937
6.73489e-05
6.72057e-05
6.69993e-05
6.67957e-05
6.66277e-05
6.65057e-05
6.64304e-05
6.6401e-05
6.64193e-05
6.64915e-05
6.66276e-05
6.68381e-05
6.71256e-05
6.74627e-05
6.775e-05
6.77791e-05
6.73508e-05
6.67285e-05
6.60895e-05
6.54894e-05
6.49273e-05
6.43873e-05
6.38564e-05
6.33302e-05
6.2813e-05
6.23153e-05
6.18503e-05
6.1432e-05
6.10737e-05
6.07886e-05
6.05924e-05
6.05078e-05
6.05739e-05
6.08694e-05
6.15848e-05
6.33337e-05
6.94221e-05
0.000126784
0.00013824
0.00013824
0.00013824
0.00013824
0.00013824
0.00013824
0.00013824
0.00013824
0.00013824
0.00013824
0.00013824
0.00013824
0.00013824
0.00013824
0.00013824
0.00013824
0.00013824
0.00013824
0.00013824
0.00013824
0.00013824
0.000138239
0.000109319
6.82054e-05
6.32457e-05
6.18583e-05
6.13513e-05
6.12333e-05
6.13518e-05
6.16451e-05
6.20837e-05
6.26493e-05
6.33235e-05
6.40793e-05
6.4875e-05
6.56533e-05
6.63477e-05
6.68973e-05
6.72614e-05
6.74316e-05
6.74329e-05
6.73199e-05
6.71695e-05
6.70771e-05
6.71682e-05
6.76524e-05
6.90542e-05
7.37782e-05
0.000103771
0.000138229
0.000121262
7.48733e-05
6.8616e-05
6.66103e-05
6.57071e-05
6.52765e-05
6.51025e-05
6.50849e-05
6.51674e-05
6.5313e-05
6.54938e-05
6.56851e-05
6.5862e-05
6.59968e-05
6.60608e-05
6.60302e-05
6.58976e-05
6.56768e-05
6.5395e-05
6.50821e-05
6.4765e-05
6.44677e-05
6.4213e-05
6.40253e-05
6.39353e-05
6.39884e-05
6.42632e-05
6.49277e-05
6.64598e-05
7.11215e-05
0.000100417
0.000138227
6.72977e-05
6.69958e-05
6.66159e-05
6.62771e-05
6.60159e-05
6.58348e-05
6.57272e-05
6.56881e-05
6.57176e-05
6.58231e-05
6.60193e-05
6.63288e-05
6.67782e-05
6.73807e-05
6.80644e-05
6.84517e-05
6.76292e-05
6.66444e-05
6.57888e-05
6.50782e-05
6.44713e-05
6.39276e-05
6.34195e-05
6.29333e-05
6.24661e-05
6.20227e-05
6.16126e-05
6.12472e-05
6.09391e-05
6.07022e-05
6.05547e-05
6.05239e-05
6.06593e-05
6.10667e-05
6.20313e-05
6.46955e-05
7.71033e-05
0.000137698
0.00013824
0.00013824
0.00013824
0.00013824
0.00013824
0.00013824
0.00013824
0.00013824
0.00013824
0.00013824
0.00013824
0.00013824
0.00013824
0.00013824
0.00013824
0.00013824
0.00013824
0.00013824
0.00013824
0.00013824
0.00013824
0.00013824
0.000127698
7.01011e-05
6.38679e-05
6.21173e-05
6.1455e-05
6.12449e-05
6.12922e-05
6.15185e-05
6.18854e-05
6.23691e-05
6.29481e-05
6.35955e-05
6.42743e-05
6.49369e-05
6.55304e-05
6.60071e-05
6.63361e-05
6.6512e-05
6.65573e-05
6.65198e-05
6.64679e-05
6.64917e-05
6.67185e-05
6.73788e-05
6.90896e-05
7.49121e-05
0.000119495
0.00013824
0.000136202
7.91346e-05
6.95356e-05
6.67772e-05
6.56e-05
6.50272e-05
6.47605e-05
6.46746e-05
6.47046e-05
6.4812e-05
6.497e-05
6.51556e-05
6.53441e-05
6.55041e-05
6.55962e-05
6.55821e-05
6.54473e-05
6.52148e-05
6.49259e-05
6.4619e-05
6.43233e-05
6.40613e-05
6.38535e-05
6.37226e-05
6.37001e-05
6.38361e-05
6.42247e-05
6.50812e-05
6.70643e-05
7.34738e-05
0.000123652
0.00013824
6.78563e-05
6.70778e-05
6.63256e-05
6.57535e-05
6.53517e-05
6.50881e-05
6.49371e-05
6.48844e-05
6.49271e-05
6.50742e-05
6.53492e-05
6.57965e-05
6.64967e-05
6.75989e-05
6.93817e-05
7.2075e-05
6.88128e-05
6.68062e-05
6.55186e-05
6.46216e-05
6.39414e-05
6.33834e-05
6.28959e-05
6.24522e-05
6.2041e-05
6.1661e-05
6.13169e-05
6.10175e-05
6.07746e-05
6.06033e-05
6.05253e-05
6.05759e-05
6.08223e-05
6.14203e-05
6.28608e-05
6.78523e-05
0.000111779
0.00013824
0.00013824
0.00013824
0.00013824
0.00013824
0.00013824
0.00013824
0.00013824
0.00013824
0.00013824
0.00013824
0.00013824
0.00013824
0.00013824
0.00013824
0.00013824
0.00013824
0.00013824
0.00013824
0.00013824
0.00013824
0.00013824
0.00013824
0.000138113
8.37492e-05
6.57868e-05
6.26756e-05
6.16667e-05
6.12948e-05
6.12326e-05
6.13638e-05
6.16346e-05
6.20135e-05
6.24751e-05
6.29929e-05
6.3535e-05
6.40645e-05
6.45426e-05
6.49361e-05
6.52247e-05
6.54069e-05
6.55032e-05
6.55548e-05
6.56233e-05
6.57965e-05
6.62155e-05
6.71738e-05
6.95652e-05
7.78826e-05
0.000135037
0.00013824
0.000138239
0.00011124
7.26832e-05
6.7352e-05
6.5606e-05
6.47979e-05
6.43965e-05
6.42198e-05
6.41853e-05
6.42497e-05
6.43868e-05
6.4576e-05
6.47941e-05
6.50061e-05
6.51553e-05
6.51707e-05
6.50189e-05
6.47471e-05
6.44264e-05
6.41101e-05
6.38288e-05
6.36023e-05
6.34484e-05
6.33889e-05
6.34583e-05
6.37194e-05
6.43023e-05
6.55555e-05
6.89372e-05
8.60279e-05
0.000138039
0.00013824
7.12629e-05
6.81007e-05
6.64124e-05
6.54216e-05
6.48087e-05
6.44333e-05
6.42261e-05
6.41553e-05
6.42126e-05
6.44104e-05
6.47869e-05
6.54263e-05
6.65262e-05
6.86672e-05
7.45898e-05
0.000105879
7.33721e-05
6.76237e-05
6.54412e-05
6.42436e-05
6.34504e-05
6.28587e-05
6.23796e-05
6.197e-05
6.16095e-05
6.12904e-05
6.10134e-05
6.07848e-05
6.06159e-05
6.05242e-05
6.05376e-05
6.07051e-05
6.11271e-05
6.20612e-05
6.44577e-05
7.44025e-05
0.000137121
0.00013824
0.00013824
0.00013824
0.00013824
0.00013824
0.00013824
0.00013824
0.00013824
0.00013824
0.00013824
0.00013824
0.00013824
0.00013824
0.00013824
0.00013824
0.00013824
0.00013824
0.00013824
0.00013824
0.00013824
0.00013824
0.00013824
0.00013824
0.00013824
0.000122126
6.95296e-05
6.36809e-05
6.20485e-05
6.14221e-05
6.12063e-05
6.12164e-05
6.13743e-05
6.16373e-05
6.19757e-05
6.2363e-05
6.27721e-05
6.31751e-05
6.35456e-05
6.38623e-05
6.4114e-05
6.43035e-05
6.44501e-05
6.45914e-05
6.47867e-05
6.51307e-05
6.58017e-05
6.7269e-05
7.18005e-05
0.000103079
0.000138233
0.00013824
0.00013824
0.000137217
8.00045e-05
6.88043e-05
6.59384e-05
6.47378e-05
6.41399e-05
6.38462e-05
6.37374e-05
6.37594e-05
6.38856e-05
6.40984e-05
6.43806e-05
6.46995e-05
6.49742e-05
6.50534e-05
6.48392e-05
6.44584e-05
6.40512e-05
6.36908e-05
6.34031e-05
6.32017e-05
6.31012e-05
6.31237e-05
6.33128e-05
6.37617e-05
6.46842e-05
6.67518e-05
7.35386e-05
0.00012803
0.00013824
0.00013824
9.91179e-05
7.24945e-05
6.74038e-05
6.55123e-05
6.45416e-05
6.39985e-05
6.37122e-05
6.36159e-05
6.36913e-05
6.39576e-05
6.44823e-05
6.54325e-05
6.7322e-05
7.27306e-05
0.000109279
0.000138218
9.70218e-05
7.01782e-05
6.57651e-05
6.40658e-05
6.30956e-05
6.2437e-05
6.19442e-05
6.15524e-05
6.123e-05
6.09631e-05
6.07484e-05
6.05907e-05
6.05023e-05
6.05057e-05
6.06411e-05
6.09865e-05
6.17263e-05
6.34512e-05
6.94118e-05
0.000123313
0.00013824
0.00013824
0.00013824
0.00013824
0.00013824
0.00013824
0.00013824
0.00013824
0.00013824
0.00013824
0.00013824
0.00013824
0.00013824
0.00013824
0.00013824
0.00013824
0.00013824
0.00013824
0.00013824
0.00013824
0.00013824
0.00013824
0.00013824
0.00013824
0.00013824
0.000138194
8.82076e-05
6.61829e-05
6.27875e-05
6.17028e-05
6.12633e-05
6.11197e-05
6.11487e-05
6.12908e-05
6.15092e-05
6.1776e-05
6.20676e-05
6.23629e-05
6.26442e-05
6.2899e-05
6.3123e-05
6.33225e-05
6.35177e-05
6.37462e-05
6.40726e-05
6.46132e-05
6.56207e-05
6.78425e-05
7.50642e-05
0.000131507
0.00013824
0.00013824
0.00013824
0.00013824
0.000128083
7.40276e-05
6.72052e-05
6.50969e-05
6.41478e-05
6.36815e-05
6.34774e-05
6.34563e-05
6.35891e-05
6.38624e-05
6.42777e-05
6.48371e-05
6.5455e-05
6.57476e-05
6.5284e-05
6.45864e-05
6.39615e-05
6.3489e-05
6.31557e-05
6.29597e-05
6.29109e-05
6.30344e-05
6.33951e-05
6.41763e-05
6.58981e-05
7.1184e-05
0.000108613
0.000138239
0.00013824
0.00013824
0.000138219
0.0001001
7.14649e-05
6.65299e-05
6.47636e-05
6.3916e-05
6.34995e-05
6.33628e-05
6.3465e-05
6.38414e-05
6.46332e-05
6.62359e-05
7.04169e-05
9.2302e-05
0.000138184
0.00013824
0.000134943
7.51211e-05
6.6842e-05
6.42639e-05
6.29809e-05
6.21911e-05
6.16483e-05
6.12502e-05
6.09492e-05
6.07229e-05
6.05644e-05
6.0478e-05
6.048e-05
6.06033e-05
6.0917e-05
6.15743e-05
6.30386e-05
6.76843e-05
0.0001022
0.000138238
0.00013824
0.00013824
0.00013824
0.00013824
0.00013824
0.00013824
0.00013824
0.00013824
0.00013824
0.00013824
0.00013824
0.00013824
0.00013824
0.00013824
0.00013824
0.00013824
0.00013824
0.00013824
0.00013824
0.00013824
0.00013824
0.00013824
0.00013824
0.00013824
0.00013824
0.00013824
0.000133638
7.13778e-05
6.42546e-05
6.22912e-05
6.14867e-05
6.11298e-05
6.10044e-05
6.10181e-05
6.11203e-05
6.12788e-05
6.14704e-05
6.16782e-05
6.18901e-05
6.20997e-05
6.23074e-05
6.2523e-05
6.27692e-05
6.30895e-05
6.35646e-05
6.43655e-05
6.59774e-05
7.07802e-05
0.00010521
0.000138237
0.00013824
0.00013824
0.00013824
0.00013824
0.00013824
0.000116106
7.25175e-05
6.65391e-05
6.46974e-05
6.39086e-05
6.35477e-05
6.34705e-05
6.36438e-05
6.40572e-05
6.47704e-05
6.60049e-05
6.80645e-05
6.98559e-05
6.76286e-05
6.56737e-05
6.44176e-05
6.36794e-05
6.32185e-05
6.29917e-05
6.30003e-05
6.3278e-05
6.39365e-05
6.54914e-05
7.00427e-05
9.57886e-05
0.00013822
0.00013824
0.00013824
0.00013824
0.00013824
0.00013821
9.58936e-05
7.08117e-05
6.60564e-05
6.44471e-05
6.3763e-05
6.35508e-05
6.37011e-05
6.42964e-05
6.57562e-05
6.95721e-05
8.52017e-05
0.000137976
0.00013824
0.00013824
0.00013824
0.000121023
7.1682e-05
6.53948e-05
6.32952e-05
6.22155e-05
6.15548e-05
6.1114e-05
6.08128e-05
6.06149e-05
6.05083e-05
6.04995e-05
6.06143e-05
6.09096e-05
6.15341e-05
6.28873e-05
6.67814e-05
8.92401e-05
0.000138204
0.00013824
0.00013824
0.00013824
0.00013824
0.00013824
0.00013824
0.00013824
0.00013824
0.00013824
0.00013824
0.00013824
0.00013824
0.00013824
0.00013824
0.00013824
0.00013824
0.00013824
0.00013824
0.00013824
0.00013824
0.00013824
0.00013824
0.00013824
0.00013824
0.00013824
0.00013824
0.00013824
0.00013824
0.00012021
6.95033e-05
6.37413e-05
6.20598e-05
6.13358e-05
6.0998e-05
6.08626e-05
6.08458e-05
6.0903e-05
6.10077e-05
6.11442e-05
6.13037e-05
6.14832e-05
6.16872e-05
6.19292e-05
6.22382e-05
6.26716e-05
6.33456e-05
6.45433e-05
6.72695e-05
7.78589e-05
0.000137127
0.00013824
0.00013824
0.00013824
0.00013824
0.00013824
0.00013824
0.00013824
0.000113744
7.24019e-05
6.66204e-05
6.49957e-05
6.42484e-05
6.40518e-05
6.43692e-05
6.51761e-05
6.67433e-05
7.1123e-05
8.38104e-05
0.000106605
8.05417e-05
7.04113e-05
6.61831e-05
6.47083e-05
6.38612e-05
6.35106e-05
6.36121e-05
6.42454e-05
6.56148e-05
7.03311e-05
9.52884e-05
0.000138203
0.00013824
0.00013824
0.00013824
0.00013824
0.00013824
0.00013824
0.000138214
0.000101517
7.15658e-05
6.65125e-05
6.50353e-05
6.46385e-05
6.49049e-05
6.60862e-05
7.05891e-05
9.0526e-05
0.000137973
0.00013824
0.00013824
0.00013824
0.00013824
0.000138238
0.000105322
6.98851e-05
6.45535e-05
6.27025e-05
6.17719e-05
6.1221e-05
6.08881e-05
6.07053e-05
6.06523e-05
6.07433e-05
6.10322e-05
6.16314e-05
6.29986e-05
6.69025e-05
8.6251e-05
0.000138145
0.00013824
0.00013824
0.00013824
0.00013824
0.00013824
0.00013824
0.00013824
0.00013824
0.00013824
0.00013824
0.00013824
0.00013824
0.00013824
0.00013824
0.00013824
0.00013824
0.00013824
0.00013824
0.00013824
0.00013824
0.00013824
0.00013824
0.00013824
0.00013824
0.00013824
0.00013824
0.00013824
0.00013824
0.00013824
0.000138239
0.000106764
6.85602e-05
6.34877e-05
6.19171e-05
6.12194e-05
6.08818e-05
6.07264e-05
6.06783e-05
6.07008e-05
6.07758e-05
6.08951e-05
6.10582e-05
6.12731e-05
6.15598e-05
6.196e-05
6.25656e-05
6.35886e-05
6.56796e-05
7.23515e-05
0.000127839
0.00013824
0.00013824
0.00013824
0.00013824
0.00013824
0.00013824
0.00013824
0.00013824
0.00013824
0.00012375
7.46145e-05
6.93996e-05
6.66823e-05
6.59797e-05
6.70312e-05
6.98716e-05
7.543e-05
0.000118272
0.000138001
0.000138238
0.000137745
0.000112902
7.34682e-05
6.89264e-05
6.60211e-05
6.51498e-05
6.55161e-05
6.78187e-05
7.2091e-05
0.000108342
0.00013822
0.00013824
0.00013824
0.00013824
0.00013824
0.00013824
0.00013824
0.00013824
0.00013824
0.000138235
0.000120497
7.58183e-05
7.02835e-05
6.90829e-05
6.99058e-05
7.3473e-05
0.000112187
0.000138183
0.00013824
0.00013824
0.00013824
0.00013824
0.00013824
0.00013824
0.000138233
9.98155e-05
6.93641e-05
6.42617e-05
6.25801e-05
6.17455e-05
6.13192e-05
6.11345e-05
6.11511e-05
6.14104e-05
6.20882e-05
6.34325e-05
6.80001e-05
9.28817e-05
0.000138163
0.00013824
0.00013824
0.00013824
0.00013824
0.00013824
0.00013824
0.00013824
0.00013824
0.00013824
0.00013824
0.00013824
0.00013824
0.00013824
0.00013824
0.00013824
0.00013824
0.00013824
0.00013824
0.00013824
0.00013824
0.00013824
0.00013824
0.00013824
0.00013824
0.00013824
0.00013824
0.00013824
0.00013824
0.00013824
0.00013824
0.00013824
0.000138236
0.00010091
6.82847e-05
6.34127e-05
6.18679e-05
6.1185e-05
6.08311e-05
6.06511e-05
6.05813e-05
6.05958e-05
6.0683e-05
6.0843e-05
6.109e-05
6.14563e-05
6.20108e-05
6.29452e-05
6.48333e-05
7.06062e-05
0.000114035
0.00013824
0.00013824
0.00013824
0.00013824
0.00013824
0.00013824
0.00013824
0.00013824
0.00013824
0.00013824
0.00013824
0.000135515
0.000105786
7.79485e-05
7.32161e-05
8.07555e-05
0.000110269
0.000136275
0.00013824
0.00013824
0.00013824
0.00013824
0.00013824
0.000134019
0.000103574
7.52416e-05
7.12836e-05
7.28121e-05
9.30281e-05
0.000128819
0.000138239
0.00013824
0.00013824
0.00013824
0.00013824
0.00013824
0.00013824
0.00013824
0.00013824
0.00013824
0.00013824
0.00013824
0.000136744
0.000117419
0.000103604
0.000113918
0.000134473
0.00013824
0.00013824
0.00013824
0.00013824
0.00013824
0.00013824
0.00013824
0.00013824
0.00013824
0.000138234
0.000107131
7.02939e-05
6.51282e-05
6.32499e-05
6.25488e-05
6.23262e-05
6.24826e-05
6.31505e-05
6.55323e-05
7.00029e-05
0.000110306
0.000138225
0.00013824
0.00013824
0.00013824
0.00013824
0.00013824
0.00013824
0.00013824
0.00013824
0.00013824
0.00013824
0.00013824
0.00013824
0.00013824
0.00013824
0.00013824
0.00013824
0.00013824
0.00013824
0.00013824
0.00013824
0.00013824
0.00013824
0.00013824
0.00013824
0.00013824
0.00013824
0.00013824
0.00013824
0.00013824
0.00013824
0.00013824
0.00013824
0.00013824
0.000138236
0.000103486
6.87283e-05
6.35879e-05
6.20667e-05
6.13212e-05
6.09228e-05
6.0718e-05
6.06586e-05
6.07168e-05
6.0891e-05
6.1209e-05
6.17362e-05
6.26028e-05
6.43845e-05
6.98387e-05
0.00010685
0.000138239
0.00013824
0.00013824
0.00013824
0.00013824
0.00013824
0.00013824
0.00013824
0.00013824
0.00013824
0.00013824
0.00013824
0.00013824
0.000138238
0.000137364
0.000134189
0.0001378
0.000138239
0.00013824
0.00013824
0.00013824
0.00013824
0.00013824
0.00013824
0.00013824
0.000138237
0.000136592
0.00012931
0.000134327
0.000138213
0.00013824
0.00013824
0.00013824
0.00013824
0.00013824
0.00013824
0.00013824
0.00013824
0.00013824
0.00013824
0.00013824
0.00013824
0.00013824
0.00013824
0.00013824
0.000138237
0.00013824
0.00013824
0.00013824
0.00013824
0.00013824
0.00013824
0.00013824
0.00013824
0.00013824
0.00013824
0.00013824
0.00013824
0.000138239
0.000125468
7.79928e-05
6.88146e-05
6.6892e-05
6.6442e-05
6.72588e-05
6.94283e-05
8.95888e-05
0.000130468
0.00013824
0.00013824
0.00013824
0.00013824
0.00013824
0.00013824
0.00013824
0.00013824
0.00013824
0.00013824
0.00013824
0.00013824
0.00013824
0.00013824
0.00013824
0.00013824
0.00013824
0.00013824
0.00013824
0.00013824
0.00013824
0.00013824
0.00013824
0.00013824
0.00013824
0.00013824
0.00013824
0.00013824
0.00013824
0.00013824
0.00013824
0.00013824
0.00013824
0.00013824
0.00013824
0.00013824
0.000138238
0.000114734
7.00134e-05
6.48081e-05
6.27217e-05
6.17811e-05
6.12886e-05
6.11086e-05
6.11349e-05
6.13535e-05
6.18386e-05
6.28016e-05
6.45172e-05
7.01291e-05
0.000109841
0.000138239
0.00013824
0.00013824
0.00013824
0.00013824
0.00013824
0.00013824
0.00013824
0.00013824
0.00013824
0.00013824
0.00013824
0.00013824
0.00013824
0.00013824
0.00013824
0.00013824
0.00013824
0.00013824
0.00013824
0.00013824
0.00013824
0.00013824
0.00013824
0.00013824
0.00013824
0.00013824
0.00013824
0.00013824
0.00013824
0.00013824
0.00013824
0.00013824
0.00013824
0.00013824
0.00013824
0.00013824
0.00013824
0.00013824
0.00013824
0.00013824
0.00013824
0.00013824
0.00013824
0.00013824
0.00013824
0.00013824
0.00013824
0.00013824
0.00013824
0.00013824
0.00013824
0.00013824
0.00013824
0.00013824
0.00013824
0.00013824
0.00013824
0.00013824
0.00013824
0.00013824
0.000137801
0.000120184
9.96495e-05
9.55544e-05
0.000107932
0.000128812
0.000138213
0.00013824
0.00013824
0.00013824
0.00013824
0.00013824
0.00013824
0.00013824
0.00013824
0.00013824
0.00013824
0.00013824
0.00013824
0.00013824
0.00013824
0.00013824
0.00013824
0.00013824
0.00013824
0.00013824
0.00013824
0.00013824
0.00013824
0.00013824
0.00013824
0.00013824
0.00013824
0.00013824
0.00013824
0.00013824
0.00013824
0.00013824
0.00013824
0.00013824
0.00013824
0.00013824
0.00013824
0.00013824
0.00013824
0.00013824
0.000130224
8.01187e-05
6.79512e-05
6.44672e-05
6.28886e-05
6.24343e-05
6.24091e-05
6.27505e-05
6.37343e-05
6.6927e-05
7.23947e-05
0.000123163
0.00013824
0.00013824
0.00013824
0.00013824
0.00013824
0.00013824
0.00013824
0.00013824
0.00013824
0.00013824
0.00013824
0.00013824
0.00013824
0.00013824
0.00013824
0.00013824
0.00013824
0.00013824
0.00013824
0.00013824
0.00013824
0.00013824
0.00013824
0.00013824
0.00013824
0.00013824
0.00013824
0.00013824
0.00013824
0.00013824
0.00013824
0.00013824
0.00013824
0.00013824
0.00013824
0.00013824
0.00013824
0.00013824
0.00013824
0.00013824
0.00013824
0.00013824
0.00013824
0.00013824
0.00013824
0.00013824
0.00013824
0.00013824
0.00013824
0.00013824
0.00013824
0.00013824
0.00013824
0.00013824
0.00013824
0.00013824
0.00013824
0.00013824
0.00013824
0.00013824
0.00013824
0.00013824
0.00013824
0.00013824
0.000138235
0.000138229
0.000138239
0.00013824
0.00013824
0.00013824
0.00013824
0.00013824
0.00013824
0.00013824
0.00013824
0.00013824
0.00013824
0.00013824
0.00013824
0.00013824
0.00013824
0.00013824
0.00013824
0.00013824
0.00013824
0.00013824
0.00013824
0.00013824
0.00013824
0.00013824
0.00013824
0.00013824
0.00013824
0.00013824
0.00013824
0.00013824
0.00013824
0.00013824
0.00013824
0.00013824
0.00013824
0.00013824
0.00013824
0.00013824
0.00013824
0.00013824
0.00013824
0.00013824
0.00013824
0.00013803
0.000116761
7.88437e-05
6.88009e-05
6.743e-05
6.72172e-05
6.80691e-05
7.112e-05
0.000102313
0.000135699
0.00013824
0.00013824
0.00013824
0.00013824
0.00013824
0.00013824
0.00013824
0.00013824
0.00013824
0.00013824
0.00013824
0.00013824
0.00013824
0.00013824
0.00013824
0.00013824
0.00013824
0.00013824
0.00013824
0.00013824
0.00013824
0.00013824
0.00013824
0.00013824
0.00013824
0.00013824
0.00013824
0.00013824
0.00013824
0.00013824
0.00013824
0.00013824
0.00013824
0.00013824
0.00013824
0.00013824
0.00013824
0.00013824
0.00013824
0.00013824
0.00013824
0.00013824
0.00013824
0.00013824
0.00013824
0.00013824
0.00013824
0.00013824
0.00013824
0.00013824
0.00013824
0.00013824
0.00013824
0.00013824
0.00013824
0.00013824
0.00013824
0.00013824
0.00013824
0.00013824
0.00013824
0.00013824
0.00013824
0.00013824
0.00013824
0.00013824
0.00013824
0.00013824
0.00013824
0.00013824
0.00013824
0.00013824
0.00013824
0.00013824
0.00013824
0.00013824
0.00013824
0.00013824
0.00013824
0.00013824
0.00013824
0.00013824
0.00013824
0.00013824
0.00013824
0.00013824
0.00013824
0.00013824
0.00013824
0.00013824
0.00013824
0.00013824
0.00013824
0.00013824
0.00013824
0.00013824
0.00013824
0.00013824
0.00013824
0.00013824
0.00013824
0.00013824
0.00013824
0.00013824
0.00013824
0.00013824
0.00013824
0.00013824
0.00013824
0.00013824
0.00013824
0.00013824
0.000137959
0.000126963
0.000112689
0.000108758
0.000118613
0.000134873
0.000138238
0.00013824
0.00013824
0.00013824
0.00013824
0.00013824
0.00013824
0.00013824
0.00013824
0.00013824
0.00013824
0.00013824
0.00013824
0.00013824
0.00013824
0.00013824
0.00013824
0.00013824
0.00013824
0.00013824
0.00013824
0.00013824
0.00013824
0.00013824
0.00013824
0.00013824
0.00013824
0.00013824
0.00013824
0.00013824
0.00013824
0.00013824
0.00013824
0.00013824
0.00013824
0.00013824
0.00013824
0.00013824
0.00013824
0.00013824
0.00013824
0.00013824
0.00013824
0.00013824
0.00013824
0.00013824
0.00013824
0.00013824
0.00013824
0.00013824
0.00013824
0.00013824
0.00013824
0.00013824
0.00013824
0.00013824
0.00013824
0.00013824
0.00013824
0.00013824
0.00013824
0.00013824
0.00013824
0.00013824
0.00013824
0.00013824
0.00013824
0.00013824
0.00013824
0.00013824
0.00013824
0.00013824
0.00013824
0.00013824
0.00013824
0.00013824
0.00013824
0.00013824
0.00013824
0.00013824
0.00013824
0.00013824
0.00013824
0.00013824
0.00013824
0.00013824
0.00013824
0.00013824
0.00013824
0.00013824
0.00013824
0.00013824
0.00013824
0.00013824
0.00013824
0.00013824
0.00013824
0.00013824
0.00013824
0.00013824
0.00013824
0.00013824
0.00013824
0.00013824
0.00013824
0.00013824
0.00013824
0.00013824
0.00013824
0.00013824
0.00013824
0.00013824
0.00013824
0.00013824
0.00013824
0.00013824
0.00013824
0.00013824
0.00013824
0.00013824
0.00013824
0.00013824
0.00013824
0.00013824
0.00013824
0.00013824
0.00013824
0.00013824
0.00013824
0.00013824
0.00013824
0.00013824
0.00013824
0.00013824
0.00013824
0.00013824
0.00013824
0.00013824
0.00013824
0.00013824
0.00013824
0.00013824
0.00013824
0.00013824
0.00013824
0.00013824
0.00013824
0.00013824
0.00013824
0.00013824
0.00013824
0.00013824
0.00013824
0.00013824
0.00013824
0.00013824
0.00013824
0.00013824
0.00013824
0.00013824
0.00013824
0.00013824
0.00013824
0.00013824
0.00013824
0.00013824
0.00013824
0.00013824
0.00013824
0.00013824
0.00013824
0.00013824
0.00013824
0.00013824
0.00013824
0.00013824
0.00013824
0.00013824
0.00013824
0.00013824
0.00013824
0.00013824
0.00013824
0.00013824
0.00013824
0.00013824
0.00013824
0.00013824
0.00013824
0.00013824
0.00013824
0.00013824
0.00013824
0.00013824
0.00013824
0.00013824
0.00013824
0.00013824
0.00013824
0.00013824
0.00013824
0.00013824
0.00013824
0.00013824
0.00013824
0.00013824
0.00013824
0.00013824
0.00013824
0.00013824
0.00013824
0.00013824
0.00013824
0.00013824
0.00013824
0.00013824
0.00013824
0.00013824
0.00013824
0.00013824
0.00013824
0.00013824
0.00013824
0.00013824
0.00013824
0.00013824
0.00013824
0.00013824
0.00013824
0.00013824
0.00013824
0.00013824
0.00013824
0.00013824
0.00013824
0.00013824
0.00013824
0.00013824
0.00013824
0.00013824
0.00013824
0.00013824
0.00013824
0.00013824
0.00013824
0.00013824
0.00013824
0.00013824
0.00013824
0.00013824
0.00013824
0.00013824
0.00013824
0.00013824
0.00013824
0.00013824
0.00013824
0.00013824
0.00013824
0.00013824
0.00013824
0.00013824
0.00013824
0.00013824
0.00013824
0.00013824
0.00013824
0.00013824
0.00013824
0.00013824
0.00013824
0.00013824
0.00013824
0.00013824
0.00013824
0.00013824
0.00013824
0.00013824
0.00013824
0.00013824
0.00013824
0.00013824
0.00013824
0.00013824
0.00013824
0.00013824
0.00013824
0.00013824
0.00013824
0.00013824
0.00013824
0.00013824
0.00013824
0.00013824
0.00013824
0.00013824
0.00013824
0.00013824
0.00013824
0.00013824
0.00013824
0.00013824
0.00013824
0.00013824
0.00013824
0.00013824
0.00013824
0.00013824
0.00013824
0.00013824
0.00013824
0.00013824
0.00013824
0.00013824
0.00013824
0.00013824
0.00013824
0.00013824
0.00013824
0.00013824
0.00013824
0.00013824
0.00013824
0.00013824
0.00013824
0.00013824
0.00013824
0.00013824
0.00013824
0.00013824
0.00013824
0.00013824
0.00013824
0.00013824
0.00013824
0.00013824
0.00013824
0.00013824
0.00013824
0.00013824
0.00013824
0.00013824
0.00013824
0.00013824
0.00013824
0.00013824
0.00013824
0.00013824
0.00013824
0.00013824
0.00013824
0.00013824
0.00013824
0.00013824
0.00013824
0.00013824
0.00013824
0.00013824
0.00013824
0.00013824
0.00013824
0.00013824
0.00013824
0.00013824
0.00013824
0.00013824
0.00013824
0.00013824
0.00013824
0.00013824
0.00013824
0.00013824
0.00013824
0.00013824
0.00013824
0.00013824
0.00013824
0.00013824
0.00013824
0.00013824
0.00013824
0.00013824
0.00013824
0.00013824
0.00013824
0.00013824
0.00013824
0.00013824
0.00013824
0.00013824
0.00013824
0.00013824
0.00013824
0.00013824
0.00013824
0.00013824
0.00013824
0.00013824
0.00013824
0.00013824
0.00013824
0.00013824
0.00013824
0.00013824
0.00013824
0.00013824
0.00013824
0.00013824
0.00013824
0.00013824
0.00013824
0.00013824
0.00013824
0.00013824
0.00013824
0.00013824
0.00013824
0.00013824
0.00013824
0.00013824
0.00013824
0.00013824
0.00013824
0.00013824
0.00013824
0.00013824
0.00013824
0.00013824
0.00013824
0.00013824
0.00013824
0.00013824
0.00013824
0.00013824
0.00013824
0.00013824
0.00013824
0.00013824
0.00013824
0.00013824
0.00013824
0.00013824
0.00013824
0.00013824
0.00013824
0.00013824
0.00013824
0.00013824
0.00013824
0.00013824
0.00013824
0.00013824
0.00013824
0.00013824
0.00013824
0.00013824
0.00013824
0.00013824
0.00013824
0.00013824
0.00013824
0.00013824
0.00013824
0.00013824
0.00013824
0.00013824
0.00013824
0.00013824
0.00013824
0.00013824
0.00013824
0.00013824
0.00013824
0.00013824
0.00013824
0.00013824
0.00013824
0.00013824
0.00013824
0.00013824
0.00013824
0.00013824
0.00013824
0.00013824
0.00013824
0.00013824
0.00013824
0.00013824
0.00013824
0.00013824
0.00013824
0.00013824
0.00013824
0.00013824
0.00013824
0.00013824
0.00013824
0.00013824
0.00013824
0.00013824
0.00013824
0.00013824
0.00013824
0.00013824
0.00013824
0.00013824
0.00013824
0.00013824
0.00013824
0.00013824
0.00013824
0.00013824
0.00013824
0.00013824
0.00013824
0.00013824
0.00013824
0.00013824
0.00013824
0.00013824
0.00013824
0.00013824
0.00013824
0.00013824
0.00013824
0.00013824
0.00013824
0.00013824
0.00013824
0.00013824
0.00013824
0.00013824
0.00013824
0.00013824
0.00013824
0.00013824
0.00013824
0.00013824
0.00013824
0.00013824
0.00013824
0.00013824
0.00013824
0.00013824
0.00013824
0.00013824
0.00013824
0.00013824
0.00013824
0.00013824
0.00013824
0.00013824
0.00013824
0.00013824
0.00013824
0.00013824
0.00013824
0.00013824
0.00013824
0.00013824
0.00013824
0.00013824
0.00013824
0.00013824
0.00013824
0.00013824
0.00013824
0.00013824
0.00013824
0.00013824
0.00013824
0.00013824
0.00013824
0.00013824
0.00013824
0.00013824
0.00013824
0.00013824
0.00013824
0.00013824
0.00013824
0.00013824
0.00013824
0.00013824
0.00013824
0.00013824
0.00013824
0.00013824
0.00013824
0.00013824
0.00013824
0.00013824
0.00013824
0.00013824
0.00013824
0.00013824
0.00013824
0.00013824
0.00013824
0.00013824
0.00013824
0.00013824
0.00013824
0.00013824
0.00013824
0.00013824
0.00013824
0.00013824
0.00013824
0.00013824
0.00013824
0.00013824
0.00013824
0.00013824
0.00013824
0.00013824
0.00013824
0.00013824
0.00013824
0.00013824
0.00013824
0.00013824
0.00013824
0.00013824
0.00013824
0.00013824
0.00013824
0.00013824
0.00013824
0.00013824
0.00013824
0.00013824
0.00013824
0.00013824
0.00013824
0.00013824
0.00013824
0.00013824
0.00013824
0.00013824
0.00013824
0.00013824
0.00013824
0.00013824
0.00013824
0.00013824
0.00013824
0.00013824
0.00013824
0.00013824
0.00013824
0.00013824
0.00013824
0.00013824
0.00013824
0.00013824
0.00013824
0.00013824
0.00013824
0.00013824
0.00013824
0.00013824
0.00013824
0.00013824
0.00013824
0.00013824
0.00013824
0.00013824
0.00013824
0.00013824
0.00013824
0.00013824
0.00013824
0.00013824
0.00013824
0.00013824
0.00013824
0.00013824
0.00013824
0.00013824
0.00013824
0.00013824
0.00013824
0.00013824
0.00013824
0.00013824
0.00013824
0.00013824
0.00013824
0.00013824
0.00013824
0.00013824
0.00013824
0.00013824
0.00013824
0.00013824
0.00013824
0.00013824
0.00013824
0.00013824
0.00013824
0.00013824
0.00013824
0.00013824
0.00013824
0.00013824
0.00013824
0.00013824
0.00013824
0.00013824
0.00013824
0.00013824
0.00013824
0.00013824
0.00013824
0.00013824
0.00013824
0.00013824
0.00013824
0.00013824
0.00013824
0.00013824
0.00013824
0.00013824
0.00013824
0.00013824
0.00013824
0.00013824
0.00013824
0.00013824
0.00013824
0.00013824
0.00013824
0.00013824
0.00013824
0.00013824
0.00013824
0.00013824
0.00013824
0.00013824
0.00013824
0.00013824
0.00013824
0.00013824
0.00013824
0.00013824
0.00013824
0.00013824
0.00013824
0.00013824
0.00013824
0.00013824
0.00013824
0.00013824
0.00013824
0.00013824
0.00013824
0.00013824
0.00013824
0.00013824
0.00013824
0.00013824
0.00013824
0.00013824
0.00013824
0.00013824
0.00013824
0.00013824
0.00013824
0.00013824
0.00013824
0.00013824
0.00013824
0.00013824
0.00013824
0.00013824
0.00013824
0.00013824
0.00013824
0.00013824
0.00013824
0.00013824
0.00013824
0.00013824
0.00013824
0.00013824
0.00013824
0.00013824
0.00013824
0.00013824
0.00013824
0.00013824
0.00013824
0.00013824
0.00013824
0.00013824
0.00013824
0.00013824
0.00013824
0.00013824
0.00013824
0.00013824
0.00013824
0.00013824
0.00013824
0.00013824
0.00013824
0.00013824
0.00013824
0.00013824