/*--------------------------------*- C++ -*----------------------------------*\
| =========                 |                                                 |
| \\      /  F ield         | OpenFOAM: The Open Source CFD Toolbox           |
|  \\    /   O peration     | Version:  2406                                  |
|   \\  /    A nd           | Website:  www.openfoam.com                      |
|    \\/     M anipulation  |                                                 |
\*---------------------------------------------------------------------------*/
FoamFile
{
    version     2.0;
    format      ascii;
    arch        "LSB;label=32;scalar=64";
    class       volScalarField;
    location    "7.1";
    object      C;
}
// * * * * * * * * * * * * * * * * * * * * * * * * * * * * * * * * * * * * * //

dimensions      [1 -3 0 0 0 0 0];

internalField   nonuniform List<scalar> 
14400
(
0.238513
0.237346
0.235317
0.232879
0.230485
0.228521
0.227274
0.226922
0.227538
0.229084
0.231411
0.234248
0.237191
0.239707
0.241171
0.240993
0.238902
0.235303
0.230902
0.226422
0.222493
0.219633
0.218262
0.218729
0.221343
0.226385
0.234132
0.244863
0.258871
0.276472
0.297999
0.323805
0.354248
0.38965
0.43021
0.475751
0.524513
0.562002
0.586739
0.607098
0.624677
0.63973
0.652455
0.663002
0.671492
0.678013
0.682634
0.685402
0.686347
0.685485
0.682814
0.678318
0.671965
0.663706
0.653473
0.641175
0.626694
0.609881
0.590542
0.568429
0.539898
0.498389
0.449072
0.403653
0.363489
0.328558
0.298553
0.273095
0.251799
0.234296
0.220252
0.209363
0.20136
0.196008
0.193108
0.192499
0.194062
0.197716
0.203414
0.211128
0.220839
0.232506
0.246038
0.261236
0.277689
0.294424
0.308233
0.314937
0.313987
0.30592
0.294393
0.282489
0.271209
0.261031
0.252209
0.244851
0.238969
0.234493
0.23129
0.229174
0.227926
0.227316
0.227135
0.227242
0.227598
0.228288
0.229499
0.231481
0.234508
0.238846
0.244729
0.25235
0.261845
0.273286
0.286658
0.301824
0.318422
0.335554
0.35028
0.357908
0.246164
0.244678
0.242176
0.239248
0.236432
0.234151
0.232706
0.232279
0.232944
0.234667
0.237303
0.240581
0.244089
0.247249
0.249307
0.249399
0.246905
0.242601
0.237465
0.232343
0.227899
0.224647
0.222997
0.223285
0.225806
0.230836
0.238642
0.2495
0.263703
0.28156
0.303409
0.3296
0.360493
0.396405
0.437493
0.483344
0.531237
0.566356
0.589844
0.609878
0.627203
0.642059
0.654631
0.665061
0.67346
0.679913
0.684486
0.687224
0.688155
0.687294
0.684639
0.680175
0.673871
0.665681
0.655538
0.643357
0.629027
0.612406
0.593315
0.571523
0.544707
0.505131
0.455792
0.410015
0.369385
0.333983
0.30354
0.277691
0.256052
0.238255
0.223963
0.212873
0.204715
0.199256
0.196301
0.195693
0.197314
0.201086
0.206964
0.214925
0.224951
0.237005
0.251002
0.26675
0.283846
0.301299
0.315269
0.321468
0.321253
0.313651
0.301769
0.289376
0.277641
0.26709
0.257985
0.250436
0.244453
0.239963
0.236823
0.234834
0.233752
0.233311
0.233258
0.233411
0.233717
0.234279
0.235324
0.237147
0.240055
0.244337
0.250244
0.257973
0.267666
0.279393
0.29314
0.308766
0.325909
0.343616
0.357929
0.364177
0.261992
0.259726
0.256152
0.252177
0.248485
0.245556
0.243708
0.243128
0.24389
0.245964
0.249212
0.253376
0.258041
0.262581
0.26604
0.266958
0.263351
0.257412
0.250713
0.24428
0.238803
0.234774
0.23257
0.232501
0.234838
0.239841
0.247765
0.258878
0.273467
0.291838
0.314324
0.341278
0.373055
0.40997
0.45216
0.498927
0.543364
0.573844
0.595993
0.615368
0.632198
0.646673
0.658949
0.669149
0.677372
0.683695
0.688174
0.690852
0.691755
0.690896
0.688273
0.683872
0.677664
0.669607
0.659641
0.647688
0.63365
0.617403
0.59879
0.577614
0.553177
0.517665
0.469278
0.422868
0.381283
0.344928
0.31361
0.286982
0.264661
0.246278
0.231495
0.220005
0.211543
0.205878
0.20282
0.202215
0.203954
0.207963
0.214201
0.222651
0.2333
0.246119
0.261029
0.277835
0.296089
0.314578
0.328183
0.333659
0.334276
0.328769
0.31653
0.30321
0.290595
0.279316
0.269658
0.261738
0.255564
0.251058
0.248066
0.246361
0.245648
0.245588
0.24583
0.246092
0.246277
0.24654
0.247208
0.248673
0.251313
0.255465
0.261404
0.269341
0.279419
0.291707
0.30618
0.322669
0.340718
0.358946
0.371336
0.3759
0.287043
0.283146
0.277656
0.271962
0.266896
0.262976
0.260519
0.259705
0.260605
0.263193
0.267344
0.272819
0.279237
0.285986
0.29199
0.295059
0.288821
0.279963
0.27078
0.262371
0.255368
0.250195
0.247175
0.246576
0.24864
0.253603
0.261703
0.273198
0.288364
0.307502
0.330939
0.359014
0.392058
0.430327
0.473768
0.520809
0.55853
0.583898
0.60491
0.623402
0.639546
0.653486
0.665343
0.675216
0.683186
0.689319
0.693664
0.696256
0.697118
0.696261
0.693685
0.689375
0.683307
0.675442
0.665731
0.654105
0.640483
0.624764
0.606828
0.586537
0.563759
0.533954
0.490068
0.442439
0.399346
0.361564
0.328948
0.301162
0.277826
0.258571
0.243057
0.230979
0.222071
0.216108
0.212905
0.212316
0.214237
0.218603
0.225379
0.234554
0.246122
0.260064
0.276306
0.294639
0.314486
0.33388
0.345485
0.350373
0.351614
0.349012
0.338362
0.324006
0.310208
0.297902
0.287449
0.278995
0.272558
0.26806
0.265337
0.264124
0.264062
0.264695
0.265493
0.265967
0.265908
0.265603
0.265584
0.266414
0.268583
0.27249
0.278447
0.286674
0.297312
0.310417
0.325933
0.343619
0.362758
0.380087
0.388615
0.391985
0.322431
0.315446
0.306982
0.298854
0.291923
0.286681
0.283419
0.282296
0.28337
0.286617
0.291921
0.299063
0.307701
0.317268
0.326409
0.329081
0.322538
0.309982
0.297631
0.286727
0.277789
0.271152
0.267078
0.265791
0.267499
0.272411
0.280749
0.292752
0.308687
0.328846
0.353539
0.383078
0.417732
0.457596
0.502024
0.545292
0.574747
0.596692
0.616346
0.633785
0.6491
0.662383
0.67372
0.683184
0.690837
0.696731
0.700905
0.703389
0.7042
0.703347
0.70083
0.696636
0.690745
0.683125
0.673734
0.662518
0.649413
0.634342
0.617219
0.597947
0.576425
0.551643
0.515724
0.468244
0.423631
0.384104
0.349819
0.320515
0.295839
0.275431
0.258954
0.246103
0.236615
0.23027
0.226889
0.226333
0.228508
0.233353
0.240842
0.250969
0.263736
0.279129
0.29707
0.317312
0.339008
0.357339
0.366032
0.370693
0.372483
0.37158
0.365622
0.351567
0.336625
0.323092
0.311641
0.302514
0.295759
0.291319
0.289028
0.288591
0.289573
0.291372
0.293172
0.294059
0.293516
0.29219
0.291011
0.290819
0.292239
0.295744
0.301678
0.31026
0.321611
0.335758
0.352557
0.371551
0.391167
0.403538
0.408803
0.411439
0.36228
0.355438
0.343836
0.33288
0.323737
0.316915
0.312688
0.311193
0.312474
0.3165
0.32315
0.332161
0.343109
0.355007
0.362647
0.362694
0.35908
0.346172
0.330983
0.317426
0.306295
0.297944
0.292613
0.290497
0.291775
0.296634
0.305273
0.317916
0.334814
0.356244
0.382493
0.413818
0.450359
0.491842
0.536073
0.568908
0.591598
0.611769
0.629998
0.64629
0.660684
0.673227
0.68397
0.692963
0.700248
0.705864
0.709838
0.712194
0.712945
0.712098
0.709651
0.705594
0.699912
0.692579
0.683562
0.672821
0.660309
0.645973
0.629758
0.611608
0.591478
0.569351
0.5417
0.500274
0.454343
0.412846
0.376573
0.345414
0.319082
0.297244
0.279572
0.265767
0.255567
0.248759
0.245171
0.244673
0.247175
0.252624
0.260999
0.272298
0.286525
0.303654
0.323559
0.345781
0.368466
0.382544
0.389431
0.393884
0.396043
0.396047
0.394031
0.385436
0.369959
0.355124
0.34252
0.332617
0.325504
0.321184
0.319532
0.320223
0.322758
0.326419
0.329988
0.331731
0.330179
0.327079
0.32405
0.322338
0.322662
0.325565
0.331416
0.340406
0.352588
0.367946
0.386099
0.405851
0.420629
0.427471
0.431471
0.433529
0.398655
0.396037
0.386707
0.37372
0.362371
0.353852
0.348568
0.346669
0.348182
0.353072
0.361193
0.372039
0.384585
0.394783
0.397134
0.39617
0.394365
0.387016
0.370598
0.35461
0.341174
0.330923
0.324169
0.321104
0.321896
0.326707
0.335718
0.349135
0.367189
0.390127
0.418204
0.451564
0.490064
0.532283
0.566798
0.590305
0.610339
0.628789
0.645585
0.660696
0.674119
0.68587
0.695971
0.704449
0.711329
0.716636
0.720389
0.722604
0.723289
0.722448
0.720081
0.716179
0.71073
0.703716
0.695114
0.684895
0.673029
0.659484
0.644231
0.627248
0.608528
0.588095
0.565938
0.535327
0.491124
0.448059
0.409625
0.376311
0.348016
0.324474
0.305377
0.290433
0.279388
0.272035
0.268212
0.267796
0.270702
0.276882
0.286316
0.299001
0.314927
0.334027
0.356066
0.380081
0.399728
0.409033
0.415142
0.419368
0.421758
0.422433
0.421601
0.418719
0.409288
0.393946
0.380233
0.369564
0.362061
0.357916
0.357131
0.359322
0.363923
0.370279
0.376528
0.379946
0.37644
0.370729
0.365009
0.361285
0.360136
0.362212
0.367925
0.377373
0.390404
0.406961
0.425662
0.440761
0.448574
0.452981
0.45608
0.457678
0.432746
0.432523
0.429413
0.42021
0.40758
0.397503
0.391197
0.388914
0.390664
0.396412
0.406022
0.418023
0.428284
0.431859
0.431413
0.430474
0.428934
0.426345
0.415912
0.398414
0.382735
0.370471
0.362176
0.35807
0.358336
0.363119
0.372579
0.386904
0.406292
0.430924
0.461012
0.496355
0.535585
0.569654
0.593286
0.612557
0.630664
0.647462
0.662856
0.676788
0.689228
0.700163
0.709595
0.717531
0.723984
0.728963
0.73248
0.734543
0.735157
0.734325
0.732045
0.728311
0.723114
0.716442
0.708282
0.698615
0.687427
0.674703
0.660435
0.644624
0.627291
0.608477
0.58826
0.566029
0.533657
0.49008
0.449428
0.413701
0.383156
0.357649
0.3369
0.320631
0.308601
0.300617
0.296528
0.296218
0.299608
0.306647
0.31731
0.331583
0.349414
0.370597
0.394451
0.41781
0.43038
0.437287
0.442736
0.44669
0.449185
0.450327
0.45029
0.449325
0.446438
0.438124
0.42435
0.413386
0.405464
0.40149
0.401807
0.40576
0.412396
0.421473
0.426601
0.42824
0.426885
0.421888
0.413306
0.407608
0.404668
0.405707
0.41126
0.421245
0.434776
0.451739
0.464836
0.472253
0.47641
0.479798
0.482189
0.483425
0.467061
0.467024
0.46702
0.464587
0.457779
0.447217
0.440358
0.437845
0.439763
0.445958
0.456446
0.463994
0.467117
0.466716
0.466181
0.465381
0.464228
0.462682
0.459177
0.447837
0.431041
0.416878
0.407045
0.401853
0.401588
0.406381
0.416365
0.431714
0.452587
0.478928
0.510952
0.547029
0.57833
0.600724
0.618717
0.635974
0.652298
0.66754
0.681591
0.694374
0.70584
0.715959
0.724714
0.732099
0.738111
0.742752
0.746024
0.747931
0.748473
0.747651
0.745463
0.741905
0.736972
0.730658
0.722955
0.713858
0.703361
0.691466
0.678181
0.663524
0.647533
0.630263
0.611798
0.592243
0.569986
0.537569
0.496087
0.457991
0.425008
0.397335
0.37473
0.356953
0.34379
0.33508
0.330688
0.330508
0.33446
0.342484
0.354533
0.370575
0.390473
0.413704
0.438344
0.453631
0.460979
0.466987
0.471823
0.475472
0.477967
0.479397
0.479909
0.479708
0.479061
0.477288
0.471574
0.463057
0.454882
0.45103
0.452568
0.458006
0.463442
0.466874
0.467972
0.467975
0.468715
0.468056
0.465115
0.460065
0.455409
0.455406
0.460753
0.471233
0.483403
0.492798
0.498371
0.50185
0.505015
0.507613
0.509454
0.510407
0.501413
0.501491
0.50171
0.502207
0.50162
0.498325
0.494227
0.491993
0.493837
0.49807
0.501698
0.502877
0.502189
0.501695
0.501215
0.500639
0.499914
0.499036
0.498066
0.494746
0.484951
0.470014
0.459031
0.452796
0.452079
0.456947
0.467501
0.483909
0.506365
0.533788
0.566408
0.59289
0.612556
0.628885
0.644883
0.660322
0.675015
0.68881
0.701592
0.713276
0.723799
0.733118
0.741204
0.748038
0.753609
0.757909
0.760934
0.762683
0.763152
0.762342
0.76025
0.756874
0.752212
0.746262
0.739024
0.730499
0.720694
0.70962
0.697298
0.683759
0.669053
0.653245
0.636427
0.618711
0.600244
0.578813
0.548121
0.509204
0.473937
0.444084
0.419481
0.400031
0.385578
0.376037
0.3713
0.371267
0.375859
0.384978
0.398519
0.416415
0.438316
0.462456
0.478797
0.486677
0.492702
0.497857
0.502098
0.505408
0.507814
0.509386
0.510239
0.510536
0.510482
0.510321
0.510162
0.507697
0.504544
0.502539
0.502625
0.503854
0.504561
0.503542
0.503025
0.503145
0.503924
0.505391
0.50724
0.507269
0.507101
0.50845
0.512469
0.518097
0.523409
0.526475
0.529105
0.531758
0.534186
0.536186
0.537606
0.538343
0.535687
0.535818
0.536122
0.536682
0.537611
0.53892
0.538767
0.53843
0.538961
0.539552
0.538548
0.537644
0.537058
0.536658
0.536343
0.536049
0.535753
0.53548
0.535312
0.535394
0.533806
0.527722
0.517545
0.510724
0.509904
0.514965
0.526023
0.54311
0.566863
0.592012
0.612761
0.628548
0.642935
0.657375
0.671607
0.685418
0.698628
0.711092
0.722692
0.733339
0.742962
0.751511
0.758946
0.765242
0.770378
0.77434
0.777121
0.778713
0.779112
0.778315
0.776321
0.773129
0.768739
0.763154
0.756379
0.748421
0.739296
0.729022
0.71763
0.705162
0.691673
0.677238
0.661951
0.645931
0.629324
0.612305
0.592852
0.565578
0.529702
0.498286
0.4717
0.450481
0.434575
0.424102
0.418973
0.41909
0.424383
0.434678
0.449639
0.469119
0.491704
0.507073
0.514801
0.520315
0.525294
0.529643
0.533302
0.536249
0.538495
0.540093
0.541126
0.541716
0.542009
0.542169
0.542356
0.542727
0.543014
0.542566
0.541476
0.53987
0.538535
0.537732
0.537432
0.537656
0.538427
0.539765
0.541686
0.544317
0.547307
0.549858
0.552297
0.554138
0.55576
0.557715
0.559815
0.561893
0.563784
0.565339
0.566443
0.567015
0.569828
0.569972
0.57028
0.570787
0.571524
0.572464
0.573463
0.574125
0.573944
0.573285
0.572625
0.572093
0.571739
0.571537
0.571451
0.571459
0.571568
0.571821
0.572307
0.573172
0.574631
0.575966
0.574655
0.573102
0.573462
0.578895
0.590092
0.605445
0.621538
0.636218
0.648214
0.660554
0.673261
0.686071
0.698754
0.711115
0.722989
0.734237
0.744746
0.754425
0.7632
0.771016
0.777829
0.783605
0.788319
0.791954
0.794496
0.795936
0.796268
0.795486
0.793591
0.790581
0.786461
0.781236
0.774915
0.767511
0.759045
0.749543
0.73904
0.727585
0.71524
0.702082
0.688209
0.673739
0.658815
0.643607
0.62832
0.611862
0.589109
0.559381
0.531492
0.50872
0.491208
0.479773
0.474224
0.474435
0.480429
0.491898
0.507533
0.526832
0.53928
0.545599
0.55013
0.554486
0.558518
0.562118
0.565219
0.567789
0.569826
0.571363
0.572457
0.573192
0.573669
0.57399
0.574242
0.574463
0.574541
0.574271
0.573567
0.572672
0.571893
0.571417
0.571314
0.571621
0.572364
0.573554
0.575188
0.57724
0.579537
0.581813
0.583749
0.58546
0.587101
0.588809
0.590545
0.592217
0.593717
0.594943
0.59581
0.59626
0.603826
0.603961
0.604238
0.604664
0.605232
0.605895
0.606539
0.606973
0.607035
0.606835
0.606573
0.606365
0.606268
0.606301
0.606465
0.606769
0.607239
0.607928
0.608923
0.610355
0.612399
0.615289
0.619347
0.623044
0.62708
0.633391
0.642143
0.652025
0.661238
0.670817
0.681226
0.692191
0.703486
0.714894
0.726222
0.737299
0.747974
0.75812
0.76763
0.776414
0.784398
0.791525
0.797748
0.803029
0.807341
0.810661
0.812974
0.814268
0.814535
0.813771
0.811974
0.809145
0.805289
0.800415
0.794534
0.787665
0.779831
0.771063
0.761402
0.750899
0.73962
0.727642
0.715064
0.702
0.688588
0.674989
0.661392
0.648014
0.634778
0.617385
0.596534
0.574022
0.555139
0.543102
0.537182
0.537215
0.543461
0.555577
0.56718
0.575337
0.579097
0.582271
0.585633
0.588983
0.592173
0.595092
0.597668
0.599861
0.601659
0.603075
0.604147
0.604928
0.605484
0.605878
0.60616
0.606343
0.606383
0.606214
0.605833
0.605357
0.604947
0.604731
0.604785
0.605151
0.605855
0.6069
0.608271
0.609918
0.61173
0.613557
0.615264
0.616853
0.618375
0.619876
0.621339
0.622712
0.623924
0.624905
0.625596
0.625953
0.637689
0.637809
0.638047
0.638399
0.638846
0.639346
0.639826
0.640192
0.640386
0.640448
0.640468
0.640524
0.640668
0.640933
0.64134
0.641914
0.642691
0.643728
0.645104
0.646924
0.649322
0.652448
0.656447
0.66134
0.667149
0.673451
0.68015
0.68745
0.695546
0.704312
0.713682
0.7235
0.733596
0.743797
0.753943
0.763884
0.773489
0.782641
0.79124
0.799201
0.806454
0.812938
0.818608
0.823423
0.827353
0.830375
0.832471
0.833627
0.833835
0.833089
0.831388
0.828735
0.825135
0.820599
0.815141
0.808783
0.801549
0.793476
0.784605
0.77499
0.764697
0.753803
0.742404
0.73061
0.718549
0.70637
0.694246
0.682368
0.670954
0.660271
0.648706
0.635575
0.622635
0.612031
0.605998
0.604972
0.607416
0.611183
0.614192
0.615054
0.616646
0.618755
0.621147
0.623642
0.626097
0.628408
0.6305
0.632329
0.633872
0.635132
0.636126
0.636889
0.63746
0.63788
0.638178
0.638366
0.638434
0.63837
0.638194
0.637976
0.637808
0.637776
0.637942
0.638344
0.639003
0.63992
0.641077
0.642431
0.643908
0.645422
0.646897
0.648312
0.649671
0.65098
0.652224
0.653367
0.654361
0.655159
0.655717
0.656004
0.671434
0.671537
0.671742
0.672038
0.672407
0.672818
0.673226
0.673585
0.673871
0.674102
0.674327
0.674594
0.674948
0.675422
0.676047
0.676854
0.677884
0.67919
0.68084
0.682917
0.685516
0.688734
0.692648
0.697279
0.702596
0.708459
0.714813
0.721705
0.729183
0.737202
0.745689
0.754531
0.7636
0.772756
0.781867
0.790806
0.799456
0.807714
0.815488
0.822698
0.829277
0.835167
0.840322
0.844701
0.848274
0.851016
0.852907
0.853934
0.854087
0.853361
0.851755
0.849271
0.845917
0.841705
0.83665
0.830775
0.824109
0.816686
0.808552
0.799759
0.790374
0.780471
0.77014
0.759485
0.748626
0.737698
0.726852
0.716257
0.7061
0.696581
0.687899
0.680355
0.673183
0.666225
0.660948
0.657861
0.655972
0.653934
0.652916
0.652923
0.653678
0.654954
0.65656
0.65834
0.660166
0.661942
0.663597
0.665081
0.66637
0.667453
0.668338
0.669041
0.669588
0.670002
0.670305
0.670508
0.670616
0.670639
0.670599
0.670543
0.670532
0.670624
0.670862
0.67128
0.671893
0.6727
0.673687
0.67482
0.676051
0.677324
0.678591
0.679826
0.681016
0.68215
0.683211
0.684171
0.684996
0.685651
0.686108
0.686342
0.705074
0.705165
0.705345
0.705603
0.705926
0.706292
0.706674
0.70705
0.707409
0.707764
0.708142
0.708579
0.709108
0.709761
0.710571
0.711571
0.712801
0.714308
0.716148
0.718386
0.72109
0.724323
0.728132
0.73253
0.737498
0.742978
0.748937
0.755372
0.762281
0.769625
0.777339
0.785337
0.793515
0.801761
0.809964
0.818016
0.825816
0.833271
0.840299
0.846826
0.852788
0.858132
0.862811
0.866786
0.870026
0.872507
0.874208
0.875115
0.875219
0.874514
0.872999
0.870678
0.867559
0.863653
0.858979
0.85356
0.847424
0.840608
0.833157
0.825123
0.816568
0.807565
0.798199
0.788565
0.778773
0.768942
0.759207
0.749711
0.740607
0.732053
0.7242
0.717179
0.710986
0.7057
0.701125
0.697186
0.694073
0.691873
0.690556
0.690046
0.690188
0.690823
0.6918
0.692991
0.694286
0.695598
0.696863
0.69803
0.699072
0.699973
0.70073
0.701351
0.701848
0.702237
0.702531
0.702744
0.702885
0.702969
0.703018
0.703066
0.703155
0.703323
0.703604
0.704022
0.704587
0.705301
0.706151
0.707112
0.708151
0.709231
0.710318
0.711386
0.712416
0.713393
0.714299
0.715109
0.715799
0.716344
0.716721
0.716913
0.738623
0.738706
0.738868
0.739104
0.739403
0.739749
0.74013
0.740532
0.740953
0.741403
0.7419
0.74247
0.743142
0.743944
0.744905
0.746059
0.747441
0.749093
0.751059
0.753391
0.756136
0.759338
0.763027
0.767213
0.771886
0.777018
0.782584
0.788567
0.794943
0.801676
0.808707
0.815964
0.823362
0.830809
0.838212
0.845479
0.85252
0.859256
0.865611
0.871518
0.876919
0.881762
0.886003
0.889605
0.892538
0.894777
0.896302
0.897099
0.897159
0.896476
0.89505
0.892883
0.889986
0.88637
0.882053
0.87706
0.871419
0.865166
0.858345
0.851006
0.843209
0.835023
0.826526
0.817805
0.808958
0.800092
0.791322
0.782771
0.774565
0.766826
0.759666
0.753175
0.747386
0.742323
0.737937
0.734209
0.731196
0.728929
0.72739
0.726516
0.726207
0.726349
0.726827
0.727537
0.728387
0.729303
0.730224
0.731106
0.731916
0.732637
0.733259
0.733784
0.734217
0.734565
0.73484
0.735052
0.735212
0.735334
0.735438
0.73555
0.735698
0.73591
0.73621
0.736615
0.737134
0.737766
0.738503
0.739326
0.740211
0.741132
0.742064
0.742982
0.74387
0.744709
0.745481
0.746167
0.746748
0.747204
0.747518
0.747678
0.772088
0.772166
0.772319
0.772543
0.772831
0.773173
0.773563
0.773994
0.774468
0.774993
0.775584
0.776261
0.777047
0.777967
0.779048
0.780319
0.781812
0.783562
0.785606
0.787981
0.790724
0.793864
0.797424
0.801409
0.805815
0.810624
0.815815
0.821367
0.82725
0.833428
0.839848
0.846449
0.85316
0.859902
0.866597
0.873165
0.879531
0.885622
0.89137
0.896717
0.901607
0.905993
0.909834
0.913094
0.915745
0.917761
0.919124
0.919821
0.919842
0.919181
0.917839
0.91582
0.913132
0.909787
0.905805
0.901208
0.896025
0.890292
0.88405
0.877348
0.870241
0.862793
0.855076
0.84717
0.839161
0.831145
0.823219
0.815488
0.808054
0.801018
0.794466
0.788467
0.783061
0.778271
0.774089
0.770518
0.767572
0.765259
0.763558
0.76242
0.761775
0.761538
0.761622
0.761942
0.762424
0.763003
0.763626
0.764252
0.764849
0.765398
0.765886
0.76631
0.766669
0.766967
0.767212
0.767412
0.767576
0.767717
0.767851
0.767997
0.768176
0.768408
0.76871
0.769095
0.769567
0.770127
0.770768
0.771477
0.772235
0.773024
0.773822
0.77461
0.775372
0.77609
0.776749
0.777332
0.777822
0.778205
0.778469
0.778603
0.805476
0.805551
0.8057
0.805919
0.806204
0.80655
0.806954
0.807414
0.807932
0.808518
0.809182
0.809942
0.810817
0.811828
0.813
0.814357
0.815926
0.817738
0.81982
0.822203
0.824914
0.827973
0.831395
0.835186
0.839341
0.843846
0.848685
0.853834
0.859264
0.864937
0.870809
0.876826
0.882925
0.889042
0.895108
0.901055
0.906817
0.912329
0.917532
0.922372
0.926799
0.93077
0.934246
0.937193
0.939585
0.941397
0.942613
0.943219
0.943205
0.942568
0.941307
0.939426
0.936933
0.933842
0.930171
0.925942
0.921183
0.915927
0.910216
0.904093
0.897612
0.890831
0.883816
0.876637
0.869373
0.862106
0.854921
0.847906
0.841148
0.834726
0.828713
0.823165
0.818122
0.813608
0.809632
0.8062
0.803316
0.800977
0.799162
0.797833
0.796936
0.796407
0.796179
0.796185
0.796363
0.796659
0.797026
0.797426
0.797831
0.798219
0.798578
0.7989
0.799181
0.799423
0.79963
0.799807
0.799962
0.800106
0.800251
0.800411
0.800602
0.800837
0.801129
0.801486
0.801912
0.802408
0.802966
0.803578
0.80423
0.804905
0.805589
0.806265
0.806917
0.807532
0.808093
0.808588
0.809004
0.809327
0.809549
0.809661
0.838788
0.838862
0.83901
0.839228
0.839515
0.839869
0.840289
0.840774
0.84133
0.841963
0.842685
0.843509
0.84445
0.84553
0.846766
0.848182
0.849799
0.851642
0.853735
0.856099
0.858754
0.861718
0.864998
0.868599
0.872515
0.876736
0.881245
0.88602
0.891033
0.896248
0.901626
0.907119
0.912673
0.918233
0.923738
0.929131
0.934351
0.939344
0.944057
0.94844
0.952448
0.956042
0.959185
0.961848
0.964004
0.965631
0.966712
0.967236
0.967193
0.966579
0.965394
0.963643
0.961333
0.958478
0.955094
0.951205
0.946836
0.942019
0.936792
0.931198
0.925284
0.919105
0.912719
0.90619
0.899589
0.892985
0.886454
0.880069
0.873904
0.868025
0.862494
0.857358
0.852654
0.848407
0.844631
0.841333
0.838515
0.83617
0.83428
0.832813
0.831728
0.830976
0.830503
0.830256
0.830185
0.830244
0.830391
0.830595
0.830828
0.831071
0.831307
0.83153
0.831732
0.831914
0.832077
0.832224
0.83236
0.832495
0.832637
0.832796
0.832983
0.833209
0.833481
0.833807
0.834189
0.834625
0.835111
0.835639
0.8362
0.836779
0.837365
0.837943
0.838501
0.839025
0.839504
0.839925
0.840277
0.840551
0.840738
0.840833
0.872027
0.872101
0.872248
0.872468
0.87276
0.873123
0.873557
0.874065
0.874651
0.875321
0.876086
0.876956
0.877947
0.879074
0.880353
0.881805
0.883446
0.885298
0.887377
0.889702
0.892288
0.895145
0.898281
0.901696
0.905385
0.909339
0.91354
0.917969
0.922598
0.927397
0.932329
0.937351
0.942417
0.947477
0.952482
0.957377
0.962114
0.966641
0.970912
0.974882
0.978512
0.981764
0.984606
0.98701
0.988951
0.99041
0.99137
0.991819
0.991751
0.99116
0.990048
0.988418
0.986279
0.983642
0.980525
0.976948
0.972936
0.968521
0.963736
0.958622
0.953221
0.947584
0.941764
0.935817
0.929805
0.923791
0.917839
0.912012
0.906373
0.900978
0.895879
0.891118
0.886729
0.882735
0.879152
0.875987
0.873242
0.870909
0.868974
0.867411
0.866187
0.865264
0.8646
0.864152
0.863878
0.863739
0.863701
0.863735
0.863817
0.863927
0.864051
0.864179
0.864305
0.864425
0.86454
0.86465
0.864761
0.864877
0.865004
0.865151
0.865325
0.865533
0.865781
0.866073
0.86641
0.866792
0.867214
0.867669
0.86815
0.868647
0.869148
0.869642
0.870118
0.870565
0.870973
0.87133
0.871629
0.87186
0.872019
0.872099
0.905191
0.905266
0.905414
0.905637
0.905934
0.906305
0.906752
0.907278
0.907886
0.908584
0.90938
0.910284
0.911307
0.912464
0.913769
0.915237
0.916884
0.918725
0.920774
0.923045
0.925549
0.928294
0.931284
0.934518
0.937991
0.941692
0.945607
0.949716
0.953994
0.958414
0.962941
0.967538
0.972165
0.976778
0.981333
0.985784
0.990085
0.994193
0.998067
1.00167
1.00495
1.0079
1.01046
1.01263
1.01438
1.01569
1.01654
1.01692
1.01683
1.01626
1.01522
1.0137
1.01172
1.00929
1.00641
1.00312
0.999441
0.995393
0.99101
0.986331
0.981395
0.976247
0.970935
0.96551
0.960025
0.954536
0.949098
0.943768
0.938597
0.933635
0.928926
0.924508
0.920409
0.916653
0.913255
0.910222
0.907556
0.905251
0.903296
0.901669
0.900346
0.899295
0.898482
0.897873
0.897434
0.897133
0.896939
0.896828
0.896777
0.89677
0.896791
0.896831
0.896882
0.896941
0.897006
0.897077
0.897156
0.897247
0.897353
0.89748
0.897634
0.897818
0.898037
0.898294
0.898588
0.898919
0.899282
0.899674
0.900085
0.90051
0.900937
0.901358
0.901764
0.902144
0.902491
0.902794
0.903048
0.903244
0.903377
0.903445
0.938281
0.938356
0.938507
0.938732
0.939033
0.939412
0.939869
0.940407
0.941032
0.94175
0.942566
0.943491
0.944534
0.945707
0.947022
0.948491
0.950127
0.951943
0.953948
0.956155
0.95857
0.961199
0.964044
0.967102
0.970369
0.973833
0.977481
0.981294
0.98525
0.989323
0.993483
0.997696
1.00193
1.00614
1.01029
1.01434
1.01825
1.02198
1.0255
1.02876
1.03174
1.0344
1.03672
1.03868
1.04025
1.04142
1.04217
1.0425
1.04239
1.04184
1.04086
1.03945
1.03762
1.03537
1.03272
1.0297
1.02631
1.0226
1.01858
1.0143
1.00978
1.00507
1.00022
0.995261
0.990248
0.985229
0.980251
0.975364
0.970612
0.966039
0.961683
0.957576
0.953746
0.950213
0.946991
0.944089
0.941508
0.939244
0.937289
0.935625
0.934232
0.933086
0.93216
0.931425
0.930854
0.930419
0.930095
0.92986
0.929695
0.929583
0.929512
0.92947
0.929452
0.929452
0.929467
0.929496
0.92954
0.929601
0.929681
0.929783
0.929911
0.930068
0.930256
0.930476
0.930729
0.931013
0.931324
0.931657
0.932008
0.932369
0.932733
0.933091
0.933435
0.933758
0.934052
0.934309
0.934523
0.934689
0.934802
0.93486
0.971296
0.971372
0.971523
0.971751
0.972056
0.972439
0.972903
0.973451
0.974087
0.974816
0.975644
0.97658
0.977631
0.978808
0.980121
0.981578
0.983191
0.98497
0.986922
0.989056
0.991377
0.993888
0.996589
0.999478
1.00255
1.00579
1.00919
1.01273
1.01639
1.02014
1.02397
1.02784
1.03171
1.03556
1.03934
1.04303
1.04659
1.04999
1.05318
1.05614
1.05884
1.06125
1.06335
1.06511
1.06653
1.06757
1.06823
1.0685
1.06838
1.06786
1.06694
1.06563
1.06393
1.06185
1.05941
1.05662
1.05351
1.0501
1.04642
1.04249
1.03836
1.03405
1.02961
1.02507
1.02048
1.01588
1.01131
1.00682
1.00245
0.998227
0.99419
0.990369
0.986787
0.983462
0.980409
0.977635
0.975143
0.97293
0.97099
0.969309
0.967871
0.966658
0.965646
0.964814
0.964137
0.963593
0.963162
0.962822
0.962559
0.962356
0.962202
0.962087
0.962004
0.961947
0.961913
0.9619
0.961907
0.961935
0.961986
0.96206
0.962159
0.962287
0.962442
0.962627
0.96284
0.963079
0.963342
0.963624
0.963921
0.964226
0.964534
0.964837
0.965128
0.965401
0.965649
0.965866
0.966047
0.966187
0.966283
0.966331
1.00424
1.00431
1.00446
1.00469
1.005
1.00539
1.00585
1.00641
1.00705
1.00778
1.00861
1.00955
1.0106
1.01177
1.01307
1.01451
1.01609
1.01782
1.01971
1.02177
1.02399
1.02639
1.02895
1.03167
1.03456
1.03759
1.04076
1.04404
1.04743
1.0509
1.05442
1.05797
1.06152
1.06504
1.0685
1.07186
1.0751
1.07819
1.08109
1.08378
1.08623
1.08841
1.09031
1.0919
1.09317
1.0941
1.09468
1.09491
1.09477
1.09427
1.09341
1.09219
1.09061
1.08869
1.08644
1.08388
1.08102
1.07788
1.0745
1.0709
1.06711
1.06316
1.05909
1.05493
1.05072
1.0465
1.0423
1.03817
1.03413
1.03023
1.02648
1.02292
1.01957
1.01644
1.01355
1.0109
1.0085
1.00634
1.00443
1.00275
1.00129
1.00003
0.998954
0.998046
0.997287
0.996656
0.996136
0.995709
0.995362
0.99508
0.994853
0.994672
0.994529
0.99442
0.994338
0.994284
0.994254
0.994248
0.994267
0.994311
0.99438
0.994477
0.9946
0.994749
0.994924
0.995122
0.995341
0.995577
0.995825
0.996081
0.996339
0.996594
0.996839
0.997069
0.997277
0.99746
0.997612
0.99773
0.99781
0.997851
1.0371
1.03717
1.03733
1.03756
1.03786
1.03825
1.03872
1.03927
1.03992
1.04065
1.04148
1.04241
1.04346
1.04461
1.04589
1.0473
1.04884
1.05052
1.05234
1.05432
1.05644
1.05872
1.06114
1.06371
1.06642
1.06925
1.0722
1.07526
1.07839
1.08159
1.08484
1.0881
1.09136
1.09458
1.09774
1.10081
1.10377
1.10658
1.10922
1.11166
1.11388
1.11586
1.11757
1.11901
1.12015
1.12098
1.12149
1.12167
1.12153
1.12105
1.12024
1.1191
1.11764
1.11586
1.11379
1.11142
1.10879
1.10591
1.1028
1.0995
1.09602
1.09239
1.08865
1.08484
1.08097
1.07709
1.07323
1.06942
1.06569
1.06207
1.05859
1.05527
1.05213
1.04918
1.04644
1.04391
1.04161
1.03952
1.03764
1.03597
1.0345
1.03321
1.03209
1.03113
1.03031
1.02961
1.02902
1.02852
1.0281
1.02775
1.02746
1.02722
1.02702
1.02686
1.02674
1.02664
1.02658
1.02654
1.02652
1.02654
1.02657
1.02664
1.02673
1.02685
1.02698
1.02714
1.02732
1.02752
1.02772
1.02793
1.02815
1.02836
1.02857
1.02876
1.02893
1.02908
1.02921
1.02931
1.02938
1.02941
1.06989
1.06996
1.07011
1.07034
1.07065
1.07103
1.0715
1.07205
1.07269
1.07342
1.07424
1.07517
1.07619
1.07733
1.07858
1.07995
1.08144
1.08307
1.08482
1.08671
1.08874
1.0909
1.09319
1.09561
1.09815
1.1008
1.10355
1.10638
1.10929
1.11225
1.11524
1.11824
1.12123
1.12418
1.12708
1.12988
1.13258
1.13514
1.13754
1.13976
1.14177
1.14357
1.14512
1.14641
1.14743
1.14817
1.14862
1.14877
1.14862
1.14816
1.1474
1.14634
1.14498
1.14334
1.14142
1.13924
1.13682
1.13416
1.13131
1.12827
1.12507
1.12174
1.1183
1.11479
1.11123
1.10766
1.1041
1.10058
1.09713
1.09377
1.09054
1.08744
1.08449
1.08171
1.07912
1.07671
1.0745
1.07247
1.07064
1.069
1.06753
1.06623
1.06508
1.06408
1.06321
1.06245
1.0618
1.06124
1.06077
1.06036
1.06001
1.05972
1.05948
1.05927
1.05911
1.05897
1.05887
1.0588
1.05875
1.05873
1.05874
1.05878
1.05884
1.05892
1.05902
1.05915
1.05929
1.05944
1.05961
1.05978
1.05996
1.06014
1.0603
1.06046
1.06061
1.06073
1.06084
1.06092
1.06098
1.06101
1.1026
1.10267
1.10282
1.10305
1.10335
1.10374
1.1042
1.10475
1.10538
1.1061
1.10691
1.10781
1.10882
1.10993
1.11115
1.11248
1.11392
1.11548
1.11717
1.11897
1.1209
1.12295
1.12511
1.12739
1.12977
1.13225
1.13481
1.13744
1.14014
1.14287
1.14563
1.14839
1.15114
1.15385
1.1565
1.15906
1.16152
1.16386
1.16604
1.16806
1.16989
1.17152
1.17292
1.17408
1.175
1.17566
1.17605
1.17617
1.17601
1.17557
1.17486
1.17387
1.17261
1.17109
1.16931
1.1673
1.16507
1.16262
1.15999
1.1572
1.15425
1.15119
1.14803
1.14479
1.14152
1.13822
1.13493
1.13168
1.12848
1.12536
1.12235
1.11945
1.11668
1.11407
1.11161
1.10932
1.1072
1.10524
1.10346
1.10184
1.10039
1.09908
1.09792
1.09689
1.09599
1.09519
1.0945
1.09389