/*--------------------------------*- C++ -*----------------------------------*\
| =========                 |                                                 |
| \\      /  F ield         | OpenFOAM: The Open Source CFD Toolbox           |
|  \\    /   O peration     | Version:  2406                                  |
|   \\  /    A nd           | Website:  www.openfoam.com                      |
|    \\/     M anipulation  |                                                 |
\*---------------------------------------------------------------------------*/
FoamFile
{
    version     2.0;
    format      ascii;
    arch        "LSB;label=32;scalar=64";
    class       volScalarField;
    location    "7.1";
    object      Da;
}
// * * * * * * * * * * * * * * * * * * * * * * * * * * * * * * * * * * * * * //

dimensions      [0 2 -1 0 0 0 0];

internalField   nonuniform List<scalar> 
14400
(
4.647e-05
4.64296e-05
4.6367e-05
4.63012e-05
4.6244e-05
4.62006e-05
4.61728e-05
4.6161e-05
4.61665e-05
4.61918e-05
4.62402e-05
4.63141e-05
4.64103e-05
4.65124e-05
4.65796e-05
4.65521e-05
4.63982e-05
4.61706e-05
4.59223e-05
4.56773e-05
4.54405e-05
4.52092e-05
4.49809e-05
4.4755e-05
4.45342e-05
4.43229e-05
4.41266e-05
4.39508e-05
4.3801e-05
4.36828e-05
4.36027e-05
4.35706e-05
4.36027e-05
4.37319e-05
4.40354e-05
4.47622e-05
4.73161e-05
7.1588e-05
7.8e-05
7.8e-05
7.8e-05
7.8e-05
7.8e-05
7.8e-05
7.8e-05
7.8e-05
7.8e-05
7.8e-05
7.8e-05
7.8e-05
7.8e-05
7.8e-05
7.8e-05
7.8e-05
7.8e-05
7.8e-05
7.8e-05
7.8e-05
7.8e-05
7.79994e-05
6.36352e-05
4.68735e-05
4.47525e-05
4.41554e-05
4.39362e-05
4.38828e-05
4.39297e-05
4.40506e-05
4.42327e-05
4.44683e-05
4.47499e-05
4.5067e-05
4.5403e-05
4.57348e-05
4.60348e-05
4.62763e-05
4.64407e-05
4.65227e-05
4.65319e-05
4.6491e-05
4.64326e-05
4.63975e-05
4.64389e-05
4.66447e-05
4.72282e-05
4.90878e-05
5.92402e-05
7.79724e-05
6.53826e-05
4.9391e-05
4.69659e-05
4.61708e-05
4.58095e-05
4.56373e-05
4.55692e-05
4.55652e-05
4.56022e-05
4.56646e-05
4.57403e-05
4.58183e-05
4.58881e-05
4.59387e-05
4.59599e-05
4.5944e-05
4.58891e-05
4.57995e-05
4.56845e-05
4.55551e-05
4.54222e-05
4.5296e-05
4.51866e-05
4.51048e-05
4.50637e-05
4.50824e-05
4.51932e-05
4.54634e-05
4.60743e-05
4.77774e-05
5.60095e-05
7.79234e-05
4.64319e-05
4.63668e-05
4.62728e-05
4.61796e-05
4.61023e-05
4.60457e-05
4.60105e-05
4.59965e-05
4.60048e-05
4.6038e-05
4.61006e-05
4.61973e-05
4.63292e-05
4.6484e-05
4.66158e-05
4.66279e-05
4.64297e-05
4.61451e-05
4.58565e-05
4.5589e-05
4.53427e-05
4.51109e-05
4.48877e-05
4.46707e-05
4.44608e-05
4.42612e-05
4.40766e-05
4.3912e-05
4.37728e-05
4.36648e-05
4.35951e-05
4.35747e-05
4.36223e-05
4.37766e-05
4.41327e-05
4.50053e-05
4.80689e-05
7.57796e-05
7.8e-05
7.8e-05
7.8e-05
7.8e-05
7.8e-05
7.8e-05
7.8e-05
7.8e-05
7.8e-05
7.8e-05
7.8e-05
7.8e-05
7.8e-05
7.8e-05
7.8e-05
7.8e-05
7.8e-05
7.8e-05
7.8e-05
7.8e-05
7.8e-05
7.8e-05
6.86543e-05
4.72537e-05
4.48696e-05
4.42086e-05
4.39593e-05
4.38867e-05
4.39184e-05
4.40249e-05
4.41915e-05
4.44096e-05
4.46707e-05
4.49641e-05
4.52741e-05
4.55798e-05
4.58564e-05
4.60806e-05
4.62362e-05
4.63189e-05
4.63377e-05
4.63136e-05
4.62772e-05
4.62677e-05
4.63383e-05
4.6581e-05
4.72311e-05
4.93868e-05
6.33965e-05
7.7997e-05
7.11904e-05
4.99284e-05
4.71023e-05
4.61949e-05
4.57826e-05
4.55807e-05
4.54922e-05
4.54727e-05
4.54976e-05
4.5551e-05
4.56211e-05
4.56974e-05
4.5769e-05
4.58243e-05
4.58507e-05
4.58381e-05
4.57835e-05
4.56927e-05
4.55773e-05
4.54501e-05
4.53226e-05
4.52047e-05
4.51059e-05
4.50367e-05
4.50102e-05
4.50465e-05
4.51809e-05
4.54892e-05
4.61904e-05
4.83439e-05
6.25062e-05
7.7997e-05
4.64424e-05
4.63069e-05
4.6137e-05
4.59856e-05
4.58688e-05
4.57874e-05
4.57388e-05
4.57208e-05
4.57337e-05
4.57806e-05
4.58684e-05
4.60072e-05
4.62095e-05
4.64821e-05
4.67938e-05
4.69715e-05
4.65896e-05
4.61418e-05
4.57575e-05
4.54416e-05
4.51753e-05
4.49404e-05
4.4725e-05
4.45225e-05
4.43309e-05
4.41515e-05
4.39874e-05
4.38429e-05
4.37232e-05
4.36343e-05
4.35846e-05
4.35872e-05
4.36665e-05
4.38762e-05
4.43708e-05
4.58781e-05
5.52268e-05
7.79729e-05
7.8e-05
7.8e-05
7.8e-05
7.8e-05
7.8e-05
7.8e-05
7.8e-05
7.8e-05
7.8e-05
7.8e-05
7.8e-05
7.8e-05
7.8e-05
7.8e-05
7.8e-05
7.8e-05
7.8e-05
7.8e-05
7.8e-05
7.8e-05
7.8e-05
7.8e-05
7.57739e-05
4.82927e-05
4.52007e-05
4.43427e-05
4.4016e-05
4.39005e-05
4.3901e-05
4.39795e-05
4.41174e-05
4.43035e-05
4.45282e-05
4.47805e-05
4.50462e-05
4.53076e-05
4.55449e-05
4.57401e-05
4.58808e-05
4.59645e-05
4.59995e-05
4.60041e-05
4.60062e-05
4.60429e-05
4.61692e-05
4.64876e-05
4.72767e-05
4.99207e-05
7.03994e-05
7.8e-05
7.73888e-05
5.22703e-05
4.75757e-05
4.6297e-05
4.57581e-05
4.54932e-05
4.53653e-05
4.53177e-05
4.53217e-05
4.53604e-05
4.54222e-05
4.54973e-05
4.55749e-05
4.56414e-05
4.56801e-05
4.56745e-05
4.56185e-05
4.55219e-05
4.54023e-05
4.5276e-05
4.51557e-05
4.50508e-05
4.49699e-05
4.49229e-05
4.49236e-05
4.49946e-05
4.51782e-05
4.55731e-05
4.64831e-05
4.94237e-05
7.25858e-05
7.8e-05
4.67383e-05
4.63843e-05
4.6048e-05
4.57941e-05
4.56162e-05
4.54995e-05
4.54324e-05
4.54086e-05
4.54271e-05
4.54917e-05
4.56132e-05
4.58117e-05
4.61243e-05
4.6621e-05
4.74401e-05
4.87378e-05
4.71745e-05
4.6258e-05
4.568e-05
4.52806e-05
4.49806e-05
4.47377e-05
4.45287e-05
4.43416e-05
4.41708e-05
4.40153e-05
4.38764e-05
4.37574e-05
4.36633e-05
4.36008e-05
4.358e-05
4.36178e-05
4.37476e-05
4.40485e-05
4.47767e-05
4.73143e-05
7.01085e-05
7.8e-05
7.8e-05
7.8e-05
7.8e-05
7.8e-05
7.8e-05
7.8e-05
7.8e-05
7.8e-05
7.8e-05
7.8e-05
7.8e-05
7.8e-05
7.8e-05
7.8e-05
7.8e-05
7.8e-05
7.8e-05
7.8e-05
7.8e-05
7.8e-05
7.8e-05
7.8e-05
7.79934e-05
5.83264e-05
4.6299e-05
4.46293e-05
4.41266e-05
4.39351e-05
4.38868e-05
4.3925e-05
4.40239e-05
4.41686e-05
4.43478e-05
4.45505e-05
4.47641e-05
4.49744e-05
4.51671e-05
4.53293e-05
4.54532e-05
4.55381e-05
4.55918e-05
4.56307e-05
4.568e-05
4.57772e-05
4.5984e-05
4.64343e-05
4.75507e-05
5.15501e-05
7.6981e-05
7.8e-05
7.79998e-05
6.72438e-05
4.90534e-05
4.6591e-05
4.57897e-05
4.54193e-05
4.52332e-05
4.51475e-05
4.51251e-05
4.51469e-05
4.52014e-05
4.52796e-05
4.53715e-05
4.54615e-05
4.55256e-05
4.55326e-05
4.54691e-05
4.5354e-05
4.52189e-05
4.50866e-05
4.49701e-05
4.48781e-05
4.4818e-05
4.47995e-05
4.4838e-05
4.49622e-05
4.52317e-05
4.58112e-05
4.74355e-05
5.65643e-05
7.7963e-05
7.8e-05
4.83969e-05
4.68943e-05
4.61283e-05
4.56862e-05
4.54148e-05
4.52491e-05
4.51574e-05
4.51257e-05
4.51507e-05
4.52377e-05
4.54038e-05
4.56874e-05
4.61787e-05
4.71469e-05
4.99117e-05
6.5877e-05
4.93779e-05
4.66848e-05
4.56932e-05
4.51549e-05
4.48022e-05
4.45422e-05
4.43345e-05
4.41596e-05
4.40079e-05
4.38757e-05
4.3763e-05
4.36721e-05
4.36078e-05
4.3578e-05
4.35959e-05
4.3685e-05
4.3896e-05
4.43696e-05
4.57364e-05
5.35554e-05
7.79449e-05
7.8e-05
7.8e-05
7.8e-05
7.8e-05
7.8e-05
7.8e-05
7.8e-05
7.8e-05
7.8e-05
7.8e-05
7.8e-05
7.8e-05
7.8e-05
7.8e-05
7.8e-05
7.8e-05
7.8e-05
7.8e-05
7.8e-05
7.8e-05
7.8e-05
7.8e-05
7.8e-05
7.8e-05
7.36172e-05
4.79763e-05
4.51175e-05
4.43203e-05
4.40081e-05
4.38897e-05
4.38755e-05
4.39275e-05
4.40258e-05
4.41565e-05
4.43085e-05
4.44707e-05
4.46323e-05
4.47831e-05
4.49149e-05
4.50237e-05
4.51104e-05
4.51831e-05
4.52571e-05
4.53576e-05
4.55257e-05
4.58408e-05
4.65169e-05
4.86189e-05
6.37375e-05
7.79985e-05
7.8e-05
7.8e-05
7.77611e-05
5.32203e-05
4.73374e-05
4.59725e-05
4.54215e-05
4.51492e-05
4.50132e-05
4.49597e-05
4.49646e-05
4.5016e-05
4.51063e-05
4.52283e-05
4.5367e-05
4.54885e-05
4.55233e-05
4.54326e-05
4.52667e-05
4.50911e-05
4.49368e-05
4.48152e-05
4.47317e-05
4.46925e-05
4.47075e-05
4.47965e-05
4.50023e-05
4.54229e-05
4.63685e-05
4.95007e-05
7.46049e-05
7.8e-05
7.8e-05
6.2536e-05
4.90074e-05
4.66219e-05
4.57649e-05
4.53317e-05
4.50914e-05
4.4964e-05
4.49209e-05
4.49543e-05
4.50726e-05
4.53055e-05
4.57312e-05
4.65879e-05
4.90911e-05
6.67173e-05
7.79966e-05
6.16612e-05
4.79896e-05
4.58964e-05
4.51163e-05
4.46799e-05
4.4388e-05
4.41723e-05
4.40029e-05
4.38656e-05
4.37539e-05
4.36662e-05
4.36043e-05
4.35735e-05
4.35839e-05
4.36547e-05
4.38234e-05
4.41794e-05
4.50143e-05
4.79531e-05
7.45692e-05
7.8e-05
7.8e-05
7.8e-05
7.8e-05
7.8e-05
7.8e-05
7.8e-05
7.8e-05
7.8e-05
7.8e-05
7.8e-05
7.8e-05
7.8e-05
7.8e-05
7.8e-05
7.8e-05
7.8e-05
7.8e-05
7.8e-05
7.8e-05
7.8e-05
7.8e-05
7.8e-05
7.8e-05
7.8e-05
7.79981e-05
6.07428e-05
4.65448e-05
4.47095e-05
4.41567e-05
4.39315e-05
4.38489e-05
4.38465e-05
4.38952e-05
4.39778e-05
4.40821e-05
4.41982e-05
4.43176e-05
4.44333e-05
4.45407e-05
4.46381e-05
4.47284e-05
4.482e-05
4.49294e-05
4.50848e-05
4.53384e-05
4.58045e-05
4.68261e-05
5.01789e-05
7.5793e-05
7.8e-05
7.8e-05
7.8e-05
7.8e-05
7.46488e-05
4.97051e-05
4.65656e-05
4.56095e-05
4.51834e-05
4.4971e-05
4.48764e-05
4.48635e-05
4.49192e-05
4.50385e-05
4.52233e-05
4.54726e-05
4.57591e-05
4.58864e-05
4.56887e-05
4.53684e-05
4.50907e-05
4.48829e-05
4.47387e-05
4.46553e-05
4.46368e-05
4.46941e-05
4.48576e-05
4.52129e-05
4.60054e-05
4.84978e-05
6.70909e-05
7.79999e-05
7.8e-05
7.8e-05
7.79967e-05
6.30282e-05
4.85958e-05
4.62687e-05
4.54658e-05
4.50887e-05
4.49005e-05
4.48384e-05
4.48848e-05
4.50553e-05
4.54113e-05
4.61498e-05
4.81583e-05
5.94174e-05
7.79899e-05
7.8e-05
7.72391e-05
5.06966e-05
4.64609e-05
4.52427e-05
4.46596e-05
4.43071e-05
4.40677e-05
4.38937e-05
4.3764e-05
4.36687e-05
4.36044e-05
4.35729e-05
4.3581e-05
4.36442e-05
4.37955e-05
4.41117e-05
4.48288e-05
4.72145e-05
6.72553e-05
7.8e-05
7.8e-05
7.8e-05
7.8e-05
7.8e-05
7.8e-05
7.8e-05
7.8e-05
7.8e-05
7.8e-05
7.8e-05
7.8e-05
7.8e-05
7.8e-05
7.8e-05
7.8e-05
7.8e-05
7.8e-05
7.8e-05
7.8e-05
7.8e-05
7.8e-05
7.8e-05
7.8e-05
7.8e-05
7.8e-05
7.8e-05
7.74995e-05
4.97951e-05
4.54811e-05
4.44479e-05
4.40477e-05
4.38695e-05
4.38008e-05
4.37958e-05
4.38307e-05
4.3891e-05
4.39668e-05
4.40512e-05
4.41393e-05
4.42287e-05
4.43197e-05
4.44164e-05
4.45291e-05
4.4677e-05
4.48971e-05
4.52697e-05
4.60255e-05
4.83056e-05
6.534e-05
7.79996e-05
7.8e-05
7.8e-05
7.8e-05
7.8e-05
7.8e-05
7.01668e-05
4.90519e-05
4.62949e-05
4.54709e-05
4.51073e-05
4.49427e-05
4.49054e-05
4.49805e-05
4.51652e-05
4.54966e-05
4.60586e-05
4.71124e-05
4.78815e-05
4.69268e-05
4.59209e-05
4.53433e-05
4.5007e-05
4.48034e-05
4.47036e-05
4.47092e-05
4.48327e-05
4.51286e-05
4.58459e-05
4.80491e-05
6.17055e-05
7.79976e-05
7.8e-05
7.8e-05
7.8e-05
7.8e-05
7.79955e-05
6.14308e-05
4.83524e-05
4.60939e-05
4.53736e-05
4.50509e-05
4.4951e-05
4.5022e-05
4.53021e-05
4.59702e-05
4.78487e-05
5.64838e-05
7.79554e-05
7.8e-05
7.8e-05
7.8e-05
7.24953e-05
4.87255e-05
4.57878e-05
4.4829e-05
4.43441e-05
4.40509e-05
4.38558e-05
4.37243e-05
4.36405e-05
4.3599e-05
4.36024e-05
4.36617e-05
4.38034e-05
4.41012e-05
4.47719e-05
4.68813e-05
6.16388e-05
7.79989e-05
7.8e-05
7.8e-05
7.8e-05
7.8e-05
7.8e-05
7.8e-05
7.8e-05
7.8e-05
7.8e-05
7.8e-05
7.8e-05
7.8e-05
7.8e-05
7.8e-05
7.8e-05
7.8e-05
7.8e-05
7.8e-05
7.8e-05
7.8e-05
7.8e-05
7.8e-05
7.8e-05
7.8e-05
7.8e-05
7.8e-05
7.8e-05
7.8e-05
7.39673e-05
4.79643e-05
4.5128e-05
4.43215e-05
4.39782e-05
4.38166e-05
4.37476e-05
4.37319e-05
4.37497e-05
4.37895e-05
4.38446e-05
4.39114e-05
4.39889e-05
4.4079e-05
4.41874e-05
4.43268e-05
4.45234e-05
4.4832e-05
4.53922e-05
4.67454e-05
5.28383e-05
7.7812e-05
7.8e-05
7.8e-05
7.8e-05
7.8e-05
7.8e-05
7.8e-05
7.8e-05
6.94387e-05
4.90607e-05
4.64555e-05
4.56504e-05
4.5311e-05
4.52179e-05
4.53605e-05
4.5726e-05
4.6531e-05
4.85255e-05
5.61891e-05
6.6151e-05
5.46056e-05
4.82329e-05
4.62412e-05
4.55272e-05
4.51483e-05
4.49835e-05
4.50335e-05
4.53149e-05
4.59301e-05
4.81897e-05
6.17524e-05
7.79957e-05
7.8e-05
7.8e-05
7.8e-05
7.8e-05
7.8e-05
7.8e-05
7.79964e-05
6.42715e-05
4.87203e-05
4.64677e-05
4.56713e-05
4.54744e-05
4.56063e-05
4.62179e-05
4.83175e-05
5.93805e-05
7.79579e-05
7.8e-05
7.8e-05
7.8e-05
7.8e-05
7.79999e-05
6.64761e-05
4.79983e-05
4.54419e-05
4.45926e-05
4.41762e-05
4.39268e-05
4.37784e-05
4.37007e-05
4.36843e-05
4.37357e-05
4.38787e-05
4.41652e-05
4.48275e-05
4.6936e-05
6.03451e-05
7.79969e-05
7.8e-05
7.8e-05
7.8e-05
7.8e-05
7.8e-05
7.8e-05
7.8e-05
7.8e-05
7.8e-05
7.8e-05
7.8e-05
7.8e-05
7.8e-05
7.8e-05
7.8e-05
7.8e-05
7.8e-05
7.8e-05
7.8e-05
7.8e-05
7.8e-05
7.8e-05
7.8e-05
7.8e-05
7.8e-05
7.8e-05
7.8e-05
7.8e-05
7.8e-05
7.8e-05
6.90054e-05
4.75397e-05
4.50094e-05
4.42629e-05
4.39383e-05
4.37791e-05
4.37017e-05
4.36733e-05
4.36775e-05
4.37063e-05
4.37566e-05
4.38281e-05
4.39241e-05
4.40529e-05
4.42327e-05
4.45043e-05
4.4968e-05
4.59321e-05
4.90691e-05
7.50855e-05
7.8e-05
7.8e-05
7.8e-05
7.8e-05
7.8e-05
7.8e-05
7.8e-05
7.8e-05
7.8e-05
7.35667e-05
5.09536e-05
4.78036e-05
4.66006e-05
4.62311e-05
4.67569e-05
4.80003e-05
5.16353e-05
7.13329e-05
7.79671e-05
7.79998e-05
7.79306e-05
6.94348e-05
5.01016e-05
4.76103e-05
4.63137e-05
4.58228e-05
4.60401e-05
4.71224e-05
4.90025e-05
6.77046e-05
7.79979e-05
7.8e-05
7.8e-05
7.8e-05
7.8e-05
7.8e-05
7.8e-05
7.8e-05
7.8e-05
7.79994e-05
7.21633e-05
5.22391e-05
4.81629e-05
4.75897e-05
4.79778e-05
5.02862e-05
6.90386e-05
7.79926e-05
7.8e-05
7.8e-05
7.8e-05
7.8e-05
7.8e-05
7.8e-05
7.79995e-05
6.46011e-05
4.78186e-05
4.53512e-05
4.45948e-05
4.41931e-05
4.39953e-05
4.39162e-05
4.39346e-05
4.40742e-05
4.44203e-05
4.50828e-05
4.73828e-05
6.35546e-05
7.79976e-05
7.8e-05
7.8e-05
7.8e-05
7.8e-05
7.8e-05
7.8e-05
7.8e-05
7.8e-05
7.8e-05
7.8e-05
7.8e-05
7.8e-05
7.8e-05
7.8e-05
7.8e-05
7.8e-05
7.8e-05
7.8e-05
7.8e-05
7.8e-05
7.8e-05
7.8e-05
7.8e-05
7.8e-05
7.8e-05
7.8e-05
7.8e-05
7.8e-05
7.8e-05
7.8e-05
7.8e-05
7.79999e-05
6.66658e-05
4.74395e-05
4.49923e-05
4.42666e-05
4.39469e-05
4.37748e-05
4.36856e-05
4.36476e-05
4.36491e-05
4.36856e-05
4.37575e-05
4.38704e-05
4.40368e-05
4.42883e-05
4.47061e-05
4.55694e-05
4.83041e-05
7.02793e-05
7.8e-05
7.8e-05
7.8e-05
7.8e-05
7.8e-05
7.8e-05
7.8e-05
7.8e-05
7.8e-05
7.8e-05
7.8e-05
7.75111e-05
6.6137e-05
5.34795e-05
5.02702e-05
5.49795e-05
6.79365e-05
7.76795e-05
7.8e-05
7.8e-05
7.8e-05
7.8e-05
7.8e-05
7.71461e-05
6.54627e-05
5.2114e-05
4.88883e-05
5.02633e-05
6.11888e-05
7.53914e-05
7.79999e-05
7.8e-05
7.8e-05
7.8e-05
7.8e-05
7.8e-05
7.8e-05
7.8e-05
7.8e-05
7.8e-05
7.8e-05
7.8e-05
7.77959e-05
7.1039e-05
6.52747e-05
6.96372e-05
7.73117e-05
7.8e-05
7.8e-05
7.8e-05
7.8e-05
7.8e-05
7.8e-05
7.8e-05
7.8e-05
7.8e-05
7.79996e-05
6.82393e-05
4.82886e-05
4.6036e-05
4.49362e-05
4.4591e-05
4.44953e-05
4.45839e-05
4.49615e-05
4.63156e-05
4.86281e-05
7.09276e-05
7.79996e-05
7.8e-05
7.8e-05
7.8e-05
7.8e-05
7.8e-05
7.8e-05
7.8e-05
7.8e-05
7.8e-05
7.8e-05
7.8e-05
7.8e-05
7.8e-05
7.8e-05
7.8e-05
7.8e-05
7.8e-05
7.8e-05
7.8e-05
7.8e-05
7.8e-05
7.8e-05
7.8e-05
7.8e-05
7.8e-05
7.8e-05
7.8e-05
7.8e-05
7.8e-05
7.8e-05
7.8e-05
7.8e-05
7.8e-05
7.79999e-05
6.79638e-05
4.76559e-05
4.51459e-05
4.44147e-05
4.4034e-05
4.38394e-05
4.37352e-05
4.37004e-05
4.37239e-05
4.38056e-05
4.39575e-05
4.42031e-05
4.46121e-05
4.54129e-05
4.80174e-05
6.77075e-05
7.79999e-05
7.8e-05
7.8e-05
7.8e-05
7.8e-05
7.8e-05
7.8e-05
7.8e-05
7.8e-05
7.8e-05
7.8e-05
7.8e-05
7.8e-05
7.79998e-05
7.78753e-05
7.7214e-05
7.79404e-05
7.79999e-05
7.8e-05
7.8e-05
7.8e-05
7.8e-05
7.8e-05
7.8e-05
7.8e-05
7.79997e-05
7.7776e-05
7.5843e-05
7.73412e-05
7.79974e-05
7.8e-05
7.8e-05
7.8e-05
7.8e-05
7.8e-05
7.8e-05
7.8e-05
7.8e-05
7.8e-05
7.8e-05
7.8e-05
7.8e-05
7.8e-05
7.8e-05
7.8e-05
7.79997e-05
7.8e-05
7.8e-05
7.8e-05
7.8e-05
7.8e-05
7.8e-05
7.8e-05
7.8e-05
7.8e-05
7.8e-05
7.8e-05
7.8e-05
7.8e-05
7.48244e-05
5.56983e-05
4.76665e-05
4.67494e-05
4.65725e-05
4.69405e-05
4.82941e-05
6.26197e-05
7.69734e-05
7.8e-05
7.8e-05
7.8e-05
7.8e-05
7.8e-05
7.8e-05
7.8e-05
7.8e-05
7.8e-05
7.8e-05
7.8e-05
7.8e-05
7.8e-05
7.8e-05
7.8e-05
7.8e-05
7.8e-05
7.8e-05
7.8e-05
7.8e-05
7.8e-05
7.8e-05
7.8e-05
7.8e-05
7.8e-05
7.8e-05
7.8e-05
7.8e-05
7.8e-05
7.8e-05
7.8e-05
7.8e-05
7.8e-05
7.8e-05
7.8e-05
7.8e-05
7.8e-05
7.26141e-05
4.86052e-05
4.60192e-05
4.47525e-05
4.42948e-05
4.40326e-05
4.39309e-05
4.39383e-05
4.40489e-05
4.43037e-05
4.47687e-05
4.57053e-05
4.82379e-05
6.94278e-05
7.79999e-05
7.8e-05
7.8e-05
7.8e-05
7.8e-05
7.8e-05
7.8e-05
7.8e-05
7.8e-05
7.8e-05
7.8e-05
7.8e-05
7.8e-05
7.8e-05
7.8e-05
7.8e-05
7.8e-05
7.8e-05
7.8e-05
7.8e-05
7.8e-05
7.8e-05
7.8e-05
7.8e-05
7.8e-05
7.8e-05
7.8e-05
7.8e-05
7.8e-05
7.8e-05
7.8e-05
7.8e-05
7.8e-05
7.8e-05
7.8e-05
7.8e-05
7.8e-05
7.8e-05
7.8e-05
7.8e-05
7.8e-05
7.8e-05
7.8e-05
7.8e-05
7.8e-05
7.8e-05
7.8e-05
7.8e-05
7.8e-05
7.8e-05
7.8e-05
7.8e-05
7.8e-05
7.8e-05
7.8e-05
7.8e-05
7.8e-05
7.8e-05
7.8e-05
7.8e-05
7.8e-05
7.79794e-05
7.32952e-05
6.52561e-05
6.36516e-05
6.90322e-05
7.66308e-05
7.79994e-05
7.8e-05
7.8e-05
7.8e-05
7.8e-05
7.8e-05
7.8e-05
7.8e-05
7.8e-05
7.8e-05
7.8e-05
7.8e-05
7.8e-05
7.8e-05
7.8e-05
7.8e-05
7.8e-05
7.8e-05
7.8e-05
7.8e-05
7.8e-05
7.8e-05
7.8e-05
7.8e-05
7.8e-05
7.8e-05
7.8e-05
7.8e-05
7.8e-05
7.8e-05
7.8e-05
7.8e-05
7.8e-05
7.8e-05
7.8e-05
7.8e-05
7.8e-05
7.8e-05
7.8e-05
7.8e-05
7.69308e-05
5.8011e-05
4.74284e-05
4.58723e-05
4.48597e-05
4.45781e-05
4.4556e-05
4.47489e-05
4.54071e-05
4.69613e-05
5.1371e-05
7.44754e-05
7.8e-05
7.8e-05
7.8e-05
7.8e-05
7.8e-05
7.8e-05
7.8e-05
7.8e-05
7.8e-05
7.8e-05
7.8e-05
7.8e-05
7.8e-05
7.8e-05
7.8e-05
7.8e-05
7.8e-05
7.8e-05
7.8e-05
7.8e-05
7.8e-05
7.8e-05
7.8e-05
7.8e-05
7.8e-05
7.8e-05
7.8e-05
7.8e-05
7.8e-05
7.8e-05
7.8e-05
7.8e-05
7.8e-05
7.8e-05
7.8e-05
7.8e-05
7.8e-05
7.8e-05
7.8e-05
7.8e-05
7.8e-05
7.8e-05
7.8e-05
7.8e-05
7.8e-05
7.8e-05
7.8e-05
7.8e-05
7.8e-05
7.8e-05
7.8e-05
7.8e-05
7.8e-05
7.8e-05
7.8e-05
7.8e-05
7.8e-05
7.8e-05
7.8e-05
7.8e-05
7.8e-05
7.8e-05
7.8e-05
7.8e-05
7.79998e-05
7.79995e-05
7.8e-05
7.8e-05
7.8e-05
7.8e-05
7.8e-05
7.8e-05
7.8e-05
7.8e-05
7.8e-05
7.8e-05
7.8e-05
7.8e-05
7.8e-05
7.8e-05
7.8e-05
7.8e-05
7.8e-05
7.8e-05
7.8e-05
7.8e-05
7.8e-05
7.8e-05
7.8e-05
7.8e-05
7.8e-05
7.8e-05
7.8e-05
7.8e-05
7.8e-05
7.8e-05
7.8e-05
7.8e-05
7.8e-05
7.8e-05
7.8e-05
7.8e-05
7.8e-05
7.8e-05
7.8e-05
7.8e-05
7.8e-05
7.8e-05
7.8e-05
7.79944e-05
7.24153e-05
5.73542e-05
4.79804e-05
4.702e-05
4.69042e-05
4.73643e-05
5.09138e-05
6.69991e-05
7.78107e-05
7.8e-05
7.8e-05
7.8e-05
7.8e-05
7.8e-05
7.8e-05
7.8e-05
7.8e-05
7.8e-05
7.8e-05
7.8e-05
7.8e-05
7.8e-05
7.8e-05
7.8e-05
7.8e-05
7.8e-05
7.8e-05
7.8e-05
7.8e-05
7.8e-05
7.8e-05
7.8e-05
7.8e-05
7.8e-05
7.8e-05
7.8e-05
7.8e-05
7.8e-05
7.8e-05
7.8e-05
7.8e-05
7.8e-05
7.8e-05
7.8e-05
7.8e-05
7.8e-05
7.8e-05
7.8e-05
7.8e-05
7.8e-05
7.8e-05
7.8e-05
7.8e-05
7.8e-05
7.8e-05
7.8e-05
7.8e-05
7.8e-05
7.8e-05
7.8e-05
7.8e-05
7.8e-05
7.8e-05
7.8e-05
7.8e-05
7.8e-05
7.8e-05
7.8e-05
7.8e-05
7.8e-05
7.8e-05
7.8e-05
7.8e-05
7.8e-05
7.8e-05
7.8e-05
7.8e-05
7.8e-05
7.8e-05
7.8e-05
7.8e-05
7.8e-05
7.8e-05
7.8e-05
7.8e-05
7.8e-05
7.8e-05
7.8e-05
7.8e-05
7.8e-05
7.8e-05
7.8e-05
7.8e-05
7.8e-05
7.8e-05
7.8e-05
7.8e-05
7.8e-05
7.8e-05
7.8e-05
7.8e-05
7.8e-05
7.8e-05
7.8e-05
7.8e-05
7.8e-05
7.8e-05
7.8e-05
7.8e-05
7.8e-05
7.8e-05
7.8e-05
7.8e-05
7.8e-05
7.8e-05
7.8e-05
7.8e-05
7.8e-05
7.8e-05
7.8e-05
7.8e-05
7.79917e-05
7.63076e-05
7.1229e-05
6.95482e-05
7.32847e-05
7.77814e-05
7.79999e-05
7.8e-05
7.8e-05
7.8e-05
7.8e-05
7.8e-05
7.8e-05
7.8e-05
7.8e-05
7.8e-05
7.8e-05
7.8e-05
7.8e-05
7.8e-05
7.8e-05
7.8e-05
7.8e-05
7.8e-05
7.8e-05
7.8e-05
7.8e-05
7.8e-05
7.8e-05
7.8e-05
7.8e-05
7.8e-05
7.8e-05
7.8e-05
7.8e-05
7.8e-05
7.8e-05
7.8e-05
7.8e-05
7.8e-05
7.8e-05
7.8e-05
7.8e-05
7.8e-05
7.8e-05
7.8e-05
7.8e-05
7.8e-05
7.8e-05
7.8e-05
7.8e-05
7.8e-05
7.8e-05
7.8e-05
7.8e-05
7.8e-05
7.8e-05
7.8e-05
7.8e-05
7.8e-05
7.8e-05
7.8e-05
7.8e-05
7.8e-05
7.8e-05
7.8e-05
7.8e-05
7.8e-05
7.8e-05
7.8e-05
7.8e-05
7.8e-05
7.8e-05
7.8e-05
7.8e-05
7.8e-05
7.8e-05
7.8e-05
7.8e-05
7.8e-05
7.8e-05
7.8e-05
7.8e-05
7.8e-05
7.8e-05
7.8e-05
7.8e-05
7.8e-05
7.8e-05
7.8e-05
7.8e-05
7.8e-05
7.8e-05
7.8e-05
7.8e-05
7.8e-05
7.8e-05
7.8e-05
7.8e-05
7.8e-05
7.8e-05
7.8e-05
7.8e-05
7.8e-05
7.8e-05
7.8e-05
7.8e-05
7.8e-05
7.8e-05
7.8e-05
7.8e-05
7.8e-05
7.8e-05
7.8e-05
7.8e-05
7.8e-05
7.8e-05
7.8e-05
7.8e-05
7.8e-05
7.8e-05
7.8e-05
7.8e-05
7.8e-05
7.8e-05
7.8e-05
7.8e-05
7.8e-05
7.8e-05
7.8e-05
7.8e-05
7.8e-05
7.8e-05
7.8e-05
7.8e-05
7.8e-05
7.8e-05
7.8e-05
7.8e-05
7.8e-05
7.8e-05
7.8e-05
7.8e-05
7.8e-05
7.8e-05
7.8e-05
7.8e-05
7.8e-05
7.8e-05
7.8e-05
7.8e-05
7.8e-05
7.8e-05
7.8e-05
7.8e-05
7.8e-05
7.8e-05
7.8e-05
7.8e-05
7.8e-05
7.8e-05
7.8e-05
7.8e-05
7.8e-05
7.8e-05
7.8e-05
7.8e-05
7.8e-05
7.8e-05
7.8e-05
7.8e-05
7.8e-05
7.8e-05
7.8e-05
7.8e-05
7.8e-05
7.8e-05
7.8e-05
7.8e-05
7.8e-05
7.8e-05
7.8e-05
7.8e-05
7.8e-05
7.8e-05
7.8e-05
7.8e-05
7.8e-05
7.8e-05
7.8e-05
7.8e-05
7.8e-05
7.8e-05
7.8e-05
7.8e-05
7.8e-05
7.8e-05
7.8e-05
7.8e-05
7.8e-05
7.8e-05
7.8e-05
7.8e-05
7.8e-05
7.8e-05
7.8e-05
7.8e-05
7.8e-05
7.8e-05
7.8e-05
7.8e-05
7.8e-05
7.8e-05
7.8e-05
7.8e-05
7.8e-05
7.8e-05
7.8e-05
7.8e-05
7.8e-05
7.8e-05
7.8e-05
7.8e-05
7.8e-05
7.8e-05
7.8e-05
7.8e-05
7.8e-05
7.8e-05
7.8e-05
7.8e-05
7.8e-05
7.8e-05
7.8e-05
7.8e-05
7.8e-05
7.8e-05
7.8e-05
7.8e-05
7.8e-05
7.8e-05
7.8e-05
7.8e-05
7.8e-05
7.8e-05
7.8e-05
7.8e-05
7.8e-05
7.8e-05
7.8e-05
7.8e-05
7.8e-05
7.8e-05
7.8e-05
7.8e-05
7.8e-05
7.8e-05
7.8e-05
7.8e-05
7.8e-05
7.8e-05
7.8e-05
7.8e-05
7.8e-05
7.8e-05
7.8e-05
7.8e-05
7.8e-05
7.8e-05
7.8e-05
7.8e-05
7.8e-05
7.8e-05
7.8e-05
7.8e-05
7.8e-05
7.8e-05
7.8e-05
7.8e-05
7.8e-05
7.8e-05
7.8e-05
7.8e-05
7.8e-05
7.8e-05
7.8e-05
7.8e-05
7.8e-05
7.8e-05
7.8e-05
7.8e-05
7.8e-05
7.8e-05
7.8e-05
7.8e-05
7.8e-05
7.8e-05
7.8e-05
7.8e-05
7.8e-05
7.8e-05
7.8e-05
7.8e-05
7.8e-05
7.8e-05
7.8e-05
7.8e-05
7.8e-05
7.8e-05
7.8e-05
7.8e-05
7.8e-05
7.8e-05
7.8e-05
7.8e-05
7.8e-05
7.8e-05
7.8e-05
7.8e-05
7.8e-05
7.8e-05
7.8e-05
7.8e-05
7.8e-05
7.8e-05
7.8e-05
7.8e-05
7.8e-05
7.8e-05
7.8e-05
7.8e-05
7.8e-05
7.8e-05
7.8e-05
7.8e-05
7.8e-05
7.8e-05
7.8e-05
7.8e-05
7.8e-05
7.8e-05
7.8e-05
7.8e-05
7.8e-05
7.8e-05
7.8e-05
7.8e-05
7.8e-05
7.8e-05
7.8e-05
7.8e-05
7.8e-05
7.8e-05
7.8e-05
7.8e-05
7.8e-05
7.8e-05
7.8e-05
7.8e-05
7.8e-05
7.8e-05
7.8e-05
7.8e-05
7.8e-05
7.8e-05
7.8e-05
7.8e-05
7.8e-05
7.8e-05
7.8e-05
7.8e-05
7.8e-05
7.8e-05
7.8e-05
7.8e-05
7.8e-05
7.8e-05
7.8e-05
7.8e-05
7.8e-05
7.8e-05
7.8e-05
7.8e-05
7.8e-05
7.8e-05
7.8e-05
7.8e-05
7.8e-05
7.8e-05
7.8e-05
7.8e-05
7.8e-05
7.8e-05
7.8e-05
7.8e-05
7.8e-05
7.8e-05
7.8e-05
7.8e-05
7.8e-05
7.8e-05
7.8e-05
7.8e-05
7.8e-05
7.8e-05
7.8e-05
7.8e-05
7.8e-05
7.8e-05
7.8e-05
7.8e-05
7.8e-05
7.8e-05
7.8e-05
7.8e-05
7.8e-05
7.8e-05
7.8e-05
7.8e-05
7.8e-05
7.8e-05
7.8e-05
7.8e-05
7.8e-05
7.8e-05
7.8e-05
7.8e-05
7.8e-05
7.8e-05
7.8e-05
7.8e-05
7.8e-05
7.8e-05
7.8e-05
7.8e-05
7.8e-05
7.8e-05
7.8e-05
7.8e-05
7.8e-05
7.8e-05
7.8e-05
7.8e-05
7.8e-05
7.8e-05
7.8e-05
7.8e-05
7.8e-05
7.8e-05
7.8e-05
7.8e-05
7.8e-05
7.8e-05
7.8e-05
7.8e-05
7.8e-05
7.8e-05
7.8e-05
7.8e-05
7.8e-05
7.8e-05
7.8e-05
7.8e-05
7.8e-05
7.8e-05
7.8e-05
7.8e-05
7.8e-05
7.8e-05
7.8e-05
7.8e-05
7.8e-05
7.8e-05
7.8e-05
7.8e-05
7.8e-05
7.8e-05
7.8e-05
7.8e-05
7.8e-05
7.8e-05
7.8e-05
7.8e-05
7.8e-05
7.8e-05
7.8e-05
7.8e-05
7.8e-05
7.8e-05
7.8e-05
7.8e-05
7.8e-05
7.8e-05
7.8e-05
7.8e-05
7.8e-05
7.8e-05
7.8e-05
7.8e-05
7.8e-05
7.8e-05
7.8e-05
7.8e-05
7.8e-05
7.8e-05
7.8e-05
7.8e-05
7.8e-05
7.8e-05
7.8e-05
7.8e-05
7.8e-05
7.8e-05
7.8e-05
7.8e-05
7.8e-05
7.8e-05
7.8e-05
7.8e-05
7.8e-05
7.8e-05
7.8e-05
7.8e-05
7.8e-05
7.8e-05
7.8e-05
7.8e-05
7.8e-05
7.8e-05
7.8e-05
7.8e-05
7.8e-05
7.8e-05
7.8e-05
7.8e-05
7.8e-05
7.8e-05
7.8e-05
7.8e-05
7.8e-05
7.8e-05
7.8e-05
7.8e-05
7.8e-05
7.8e-05
7.8e-05
7.8e-05
7.8e-05
7.8e-05
7.8e-05
7.8e-05
7.8e-05
7.8e-05
7.8e-05
7.8e-05
7.8e-05
7.8e-05
7.8e-05
7.8e-05
7.8e-05
7.8e-05
7.8e-05
7.8e-05
7.8e-05
7.8e-05
7.8e-05
7.8e-05
7.8e-05
7.8e-05
7.8e-05
7.8e-05
7.8e-05
7.8e-05
7.8e-05
7.8e-05
7.8e-05
7.8e-05
7.8e-05
7.8e-05
7.8e-05
7.8e-05
7.8e-05
7.8e-05
7.8e-05
7.8e-05
7.8e-05
7.8e-05
7.8e-05
7.8e-05
7.8e-05
7.8e-05
7.8e-05
7.8e-05
7.8e-05
7.8e-05
7.8e-05
7.8e-05
7.8e-05
7.8e-05
7.8e-05
7.8e-05
7.8e-05
7.8e-05
7.8e-05
7.8e-05
7.8e-05
7.8e-05
7.8e-05
7.8e-05
7.8e-05
7.8e-05
7.8e-05
7.8e-05
7.8e-05
7.8e-05
7.8e-05
7.8e-05
7.8e-05
7.8e-05
7.8e-05
7.8e-05
7.8e-05
7.8e-05
7.8e-05
7.8e-05
7.8e-05
7.8e-05
7.8e-05
7.8e-05
7.8e-05
7.8e-05
7.8e-05
7.8e-05
7.8e-05
7.8e-05
7.8e-05
7.8e-05
7.8e-05
7.8e-05
7.8e-05
7.8e-05
7.8e-05
7.8e-05
7.8e-05
7.8e-05
7.8e-05
7.8e-05
7.8e-05
7.8e-05
7.8e-05
7.8e-05
7.8e-05
7.8e-05
7.8e-05
7.8e-05
7.8e-05
7.8e-05
7.8e-05
7.8e-05
7.8e-05
7.8e-05
7.8e-05
7.8e-05
7.8e-05
7.8e-05
7.8e-05
7.8e-05
7.8e-05
7.8e-05
7.8e-05
7.8e-05
7.8e-05
7.8e-05
7.8e-05
7.8e-05
7.8e-05
7.8e-05
7.8e-05
7.8e-05
7.8e-05
7.8e-05
7.8e-05
7.8e-05
7.8e-05
7.8e-05
7.8e-05
7.8e-05
7.8e-05
7.8e-05
7.8e-05
7.8e-05
7.8e-05
7.8e-05
7.8e-05
7.8e-05
7.8e-05
7.8e-05
7.8e-05
7.8e-05
7.8e-05
7.8e-05
7.8e-05
7.8e-05
7.8e-05
7.8e-05
7.8e-05
7.8e-05
7.8e-05
7.8e-05
7.8e-05
7.8e-05
7.8e-05
7.8e-05
7.8e-05
7.8e-05
7.8e-05
7.8e-05
7.8e-05
7.8e-05
7.8e-05
7.8e-05
7.8e-05
7.8e-05
7.8e-05
7.8e-05
7.8e-05
7.8e-05
7.8e-05
7.8e-05
7.8e-05
7.8e-05
7.8e-05
7.8e-05
7.8e-05
7.8e-05
7.8e-05
7.8e-05
7.8e-05
7.8e-05
7.8e-05
7.8e-05
7.8e-05
7.8e-05
7.8e-05
7.8e-05
7.8e-05
7.8e-05
7.8e-05
7.8e-05
7.8e-05
7.8e-05
7.8e-05
7.8e-05
7.8e-05
7.8e-05
7.8e-05
7.8e-05
7.8e-05
7.8e-05
7.8e-05
7.8e-05
7.8e-05
7.8e-05
7.8e-05
7.8e-05
7.8e-05
7.8e-05
7.8e-05
7.8e-05
7.8e-05
7.8e-05
7.8e-05
7.8e-05
7.8e-05
7.8e-05
7.8e-05
7.8e-05
7.8e-05
7.8e-05
7.8e-05
7.8e-05
7.8e-05
7.8e-05
7.8e-05
7.8e-05
7.8e-05
7.8e-05
7.8e-05
7.8e-05
7.8e-05
7.8e-05
7.8e-05
7.8e-05
7.8e-05
7.8e-05
7.8e-05
7.8e-05
7.8e-05
7.8e-05
7.8e-05
7.8e-05
7.8e-05
7.8e-05
7.8e-05
7.8e-05
7.8e-05
7.8e-05
7.8e-05
7.8e-05
7.8e-05
7.8e-05
7.8e-05
7.8e-05
7.8e-05
7.8e-05
7.8e-05
7.8e-05
7.8e-05
7.8e-05
7.8e-05
7.8e-05
7.8e-05
7.8e-05
7.8e-05
7.8e-05
7.8e-05
7.8e-05
7.8e-05
7.8e-05
7.8e-05
7.8e-05
7.8e-05
7.8e-05
7.8e-05
7.8e-05
7.8e-05
7.8e-05
7.8e-05
7.8e-05
7.8e-05
7.8e-05
7.8e-05
7.8e-05
7.8e-05
7.8e-05
7.8e-05
7.8e-05
7.8e-05
7.8e-05
7.8e-05
7.8e-05
7.8e-05
7.8e-05
7.8e-05
7.8e-05
7.8e-05
7.8e-05
7.8e-05
7.8e-05
7.8e-05
7.8e-05
7.8e-05
7.8e-05
7.8e-05
7.8e-05
7.8e-05
7.8e-05
7.8e-05
7.8e-05
7.8e-05
7.8e-05
7.8e-05
7.8e-05
7.8e-05
7.8e-05
7.8e-05
7.8e-05
7.8e-05
7.8e-05
7.8e-05
7.8e-05
7.8e-05
7.8e-05
7.8e-05
7.8e-05
7.8e-05
7.8e-05
7.8e-05
7.8e-05
7.8e-05
7.8e-05
7.8e-05
7.8e-05
7.8e-05
7.8e-05
7.8e-05
7.8e-05
7.8e-05
7.8e-05
7.8e-05
7.8e-05
7.8e-05
7.8e-05
7.8e-05
7.8e-05
7.8e-05
7.8e-05
7.8e-05
7.8e-05
7.8e-05
7.8e-05
7.8e-05
7.8e-05
7.8e-05
7.8e-05
7.8e-05
7.8e-05
7.8e-05
7.8e-05
7.8e-05
7.8e-05
7.8e-05
7.8e-05
7.8e-05
7.8e-05
7.8e-05
7.8e-05
7.8e-05
7.8e-05
7.8e-05
7.8e-05
7.8e-05
7.8e-05
7.8e-05
7.8e-05
7.8e-05
7.8e-05
7.8e-05
7.8e-05
7.8e-05
7.8e-05
7.8e-05
7.8e-05
7.8e-05
7.8e-05
7.8e-05
7.8e-05
7.8e-05
7.8e-05
7.8e-05
7.8e-05
7.8e-05
7.8e-05
7.8e-05
7.8e-05
7.8e-05
7.8e-05
7.8e-05
7.8e-05
7.8e-05
7.8e-05
7.8e-05
7.8e-05
7.8e-05
7.8e-05
7.8e-05
7.8e-05
7.8e-05
7.8e-05
7.8e-05
7.8e-05
7.8e-05
7.8e-05
7.8e-05
7.8e-05
7.8e-05
7.8e-05
7.8e-05
7.8e-05
7.8e-05
7.8e-05
7.8e-05
7.8e-05
7.8e-05
7.8e-05
7.8e-05
7.8e-05
7.8e-05
7.8e-05
7.8e-05
7.8e-05
7.8e-05
7.8e-05
7.8e-05
7.8e-05
7.8e-05
7.8e-05
7.8e-05
7.8e-05
7.8e-05
7.8e-05
7.8e-05
7.8e-05
7.8e-05
7.8e-05
7.8e-05
7.8e-05
7.8e-05
7.8e-05
7.8e-05
7.8e-05
7.8e-05
7.8e-05
7.8e-05
7.8e-05
7.8e-05
7.8e-05
7.8e-05
7.8e-05
7.8e-05
7.8e-05
7.8e-05
7.8e-05
7.8e-05
7.8e-05
7.8e-05
7.8e-05
7.8e-05
7.8e-05
7.8e-05
7.8e-05
7.8e-05
7.8e-05
7.8e-05
7.8e-05
7.8e-05
7.8e-05
7.8e-05
7.8e-05
7.8e-05
7.8e-05
7.8e-05
7.8e-05
7.8e-05
7.8e-05
7.8e-05
7.8e-05
7.8e-05
7.8e-05
7.8e-05
7.8e-05
7.8e-05
7.8e-05
7.8e-05
7.8e-05
7.8e-05
7.8e-05
7.8e-05
7.8e-05
7.8e-05
7.8e-05
7.8e-05
7.8e-05
7.8e-05
7.8e-05
7.8e-05
7.8e-05
7.8e-05
7.8e-05
7.8e-05
7.8e-05
7.8e-05
7.8e-05
7.8e-05
7.8e-05
7.8e-05
7.8e-05
7.8e-05
7.8e-05
7.8e-05
7.8e-05
7.8e-05
7.8e-05
7.8e-05
7.8e-05
7.8e-05
7.8e-05
7.8e-05
7.8e-05
7.8e-05
7.8e-05
7.8e-05
7.8e-05
7.8e-05
7.8e-05
7.8e-05
7.8e-05
7.8e-05
7.8e-05
7.8e-05
7.8e-05
7.8e-05
7.8e-05
7.8e-05
7.8e-05
7.8e-05
7.8e-05
7.8e-05
7.8e-05
7.8e-05
7.8e-05
7.8e-05
7.8e-05
7.8e-05
7.8e-05
7.8e-05
7.8e-05
7.8e-05
7.8e-05
7.8e-05
7.8e-05
7.8e-05
7.8e-05
7.8e-05
7.8e-05
7.8e-05
7.8e-05
7.8e-05
7.8e-05
7.8e-05
7.8e-05
7.8e-05
7.8e-05
7.8e-05
7.8e-05
7.8e-05
7.8e-05
7.8e-05
7.8e-05
7.8e-05
7.8e-05
7.8e-05
7.8e-05
7.8e-05
7.8e-05
7.8e-05
7.8e-05
7.8e-05
7.8e-05
7.8e-05
7.8e-05
7.8e-05
7.8e-05
7.8e-05
7.8e-05
7.8e-05
7.8e-05
7.8e-05
7.8e-05
7.8e-05
7.8e-05
7.8e-05
7.8e-05
7.8e-05
7.8e-05
7.8e-05
7.8e-05
7.8e-05
7.8e-05
7.8e-05
7.8e-05
7.8e-05
7.8e-05
7.8e-05
7.8e-05
7.8e-05
7.8e-05
7.8e-05
7.8e-05
7.8e-05
7.8e-05
7.8e-05
7.8e-05
7.8e-05
7.8e-05
7.8e-05
7.8e-05
7.8e-05
7.8e-05
7.8e-05
7.8e-05
7.8e-05
7.8e-05
7.8e-05
7.8e-05
7.8e-05
7.8e-05
7.8e-05
7.8e-05
7.8e-05
7.8e-05
7.8e-05
7.8e-05
7.8e-05
7.8e-05
7.8e-05
7.8e-05
7.8e-05
7.8e-05
7.8e-05
7.8e-05
7.8e-05
7.8e-05
7.8e-05
7.8e-05
7.8e-05
7.8e-05
7.8e-05
7.8e-05
7.8e-05
7.8e-05
7.8e-05
7.8e-05
7.8e-05
7.8e-05
7.8e-05
7.8e-05
7.8e-05
7.8e-05
7.8e-05
7.8e-05
7.8e-05
7.8e-05
7.8e-05
7.8e-05
7.8e-05
7.8e-05
7.8e-05
7.8e-05
7.8e-05
7.8e-05
7.8e-05
7.8e-05
7.8e-05
7.8e-05
7.8e-05
7.8e-05
7.8e-05
7.8e-05
7.8e-05
7.8e-05
7.8e-05
7.8e-05
7.8e-05
7.8e-05
7.8e-05
7.8e-05
7.8e-05
7.8e-05
7.8e-05
7.8e-05
7.8e-05
7.8e-05
7.8e-05
7.8e-05
7.8e-05
7.8e-05
7.8e-05
7.8e-05
7.8e-05
7.8e-05
7.8e-05
7.8e-05
7.8e-05
7.8e-05
7.8e-05
7.8e-05
7.8e-05
7.8e-05
7.8e-05
7.8e-05
7.8e-05
7.8e-05
7.8e-05
7.8e-05
7.8e-05
7.8e-05
7.8e-05
7.8e-05
7.8e-05
7.8e-05
7.8e-05
7.8e-05
7.8e-05
7.8e-05
7.8e-05
7.8e-05
7.8e-05
7.8e-05
7.8e-05
7.8e-05
7.8e-05
7.8e-05
7.8e-05
7.8e-05
7.8e-05
7.8e-05
7.8e-05
7.8e-05
7.8e-05
7.8e-05
7.8e-05
7.8e-05
7.8e-05
7.8e-05
7.8e-05
7.8e-05
7.8e-05
7.8e-05
7.8e-05
7.8e-05
7.8e-05
7.8e-05
7.8e-05
7.8e-05
7.8e-05
7.8e-05
7.8e-05
7.8e-05
7.8e-05
7.8e-05
7.8e-05
7.8e-05
7.8e-05
7.8e-05
7.8e-05
7.8e-05
7.8e-05
7.8e-05
7.8e-05
7.8e-05
7.8e-05
7.8e-05
7.8e-05
7.8e-05
7.8e-05
7.8e-05
7.8e-05
7.8e-05
7.8e-05
7.8e-05
7.8e-05
7.8e-05
7.8e-05
7.8e-05
7.8e-05
7.8e-05
7.8e-05
7.8e-05
7.8e-05
7.8e-05
7.8e-05
7.8e-05
7.8e-05
7.8e-05
7.8e-05
7.8e-05
7.8e-05
7.8e-05
7.8e-05
7.8e-05
7.8e-05
7.8e-05
7.8e-05
7.8e-05
7.8e-05
7.8e-05
7.8e-05
7.8e-05
7.8e-05
7.8e-05
7.8e-05
7.8e-05
7.8e-05
7.8e-05
7.8e-05
7.8e-05
7.8e-05
7.8e-05
7.8e-05
7.8e-05
7.8e-05
7.8e-05
7.8e-05
7.8e-05
7.8e-05
7.8e-05
7.8e-05
7.8e-05
7.8e-05
7.8e-05
7.8e-05
7.8e-05
7.8e-05
7.8e-05
7.8e-05
7.8e-05
7.8e-05
7.8e-05
7.8e-05
7.8e-05
7.8e-05
7.8e-05
7.8e-05
7.8e-05