/*--------------------------------*- C++ -*----------------------------------*\
| =========                 |                                                 |
| \\      /  F ield         | OpenFOAM: The Open Source CFD Toolbox           |
|  \\    /   O peration     | Version:  2406                                  |
|   \\  /    A nd           | Website:  www.openfoam.com                      |
|    \\/     M anipulation  |                                                 |
\*---------------------------------------------------------------------------*/
FoamFile
{
    version     2.0;
    format      ascii;
    arch        "LSB;label=32;scalar=64";
    class       volScalarField;
    location    "4.6";
    object      C_0;
}
// * * * * * * * * * * * * * * * * * * * * * * * * * * * * * * * * * * * * * //

dimensions      [1 -3 0 0 0 0 0];

internalField   nonuniform List<scalar> 
14400
(
0.360341
0.356334
0.350128
0.343404
0.33741
0.333001
0.330736
0.330957
0.33383
0.339369
0.347439
0.357722
0.369655
0.382285
0.393915
0.401109
0.397032
0.387665
0.376776
0.366583
0.358418
0.353147
0.35138
0.353594
0.36019
0.371538
0.387998
0.409935
0.43772
0.47172
0.512264
0.559557
0.613417
0.67196
0.718849
0.750013
0.774892
0.796734
0.815882
0.832602
0.847101
0.859544
0.870061
0.878752
0.885699
0.890964
0.894593
0.896618
0.897058
0.895922
0.893207
0.888897
0.882965
0.875371
0.866062
0.854968
0.841998
0.827043
0.809963
0.790582
0.768684
0.74399
0.716134
0.676359
0.619932
0.561088
0.507687
0.460905
0.420704
0.386754
0.358653
0.336007
0.318456
0.305691
0.297453
0.293536
0.293782
0.298075
0.306337
0.318508
0.334537
0.354346
0.377772
0.404415
0.433019
0.457411
0.471306
0.476777
0.476221
0.468504
0.450737
0.427695
0.40571
0.38613
0.369441
0.35582
0.34526
0.337617
0.332618
0.329864
0.328838
0.328924
0.32948
0.32998
0.330222
0.330453
0.331241
0.333268
0.33719
0.34357
0.352859
0.365392
0.381387
0.400935
0.423959
0.450086
0.47802
0.500793
0.513118
0.518305
0.375099
0.369415
0.361591
0.353628
0.346752
0.341753
0.339141
0.339224
0.342151
0.347932
0.356438
0.367373
0.380221
0.394103
0.407372
0.415646
0.411556
0.400183
0.387674
0.37633
0.367348
0.361496
0.359333
0.361305
0.367798
0.379171
0.395777
0.417977
0.446138
0.480617
0.521724
0.569598
0.623792
0.681451
0.724591
0.753474
0.777928
0.799429
0.818311
0.834822
0.849157
0.861471
0.871885
0.880496
0.887382
0.8926
0.896197
0.898202
0.898634
0.897502
0.894802
0.890518
0.884626
0.877087
0.867848
0.856842
0.843984
0.829169
0.812262
0.793101
0.771478
0.747136
0.719745
0.683364
0.630291
0.570688
0.516561
0.469152
0.428401
0.393975
0.365475
0.342508
0.324717
0.311791
0.303471
0.299552
0.299876
0.304329
0.312831
0.325324
0.341757
0.362047
0.386019
0.413234
0.442305
0.46548
0.477568
0.482802
0.482575
0.476522
0.460863
0.43783
0.415378
0.395311
0.378234
0.364361
0.353706
0.346137
0.341388
0.339051
0.338576
0.339273
0.340346
0.341055
0.341075
0.34078
0.340953
0.342425
0.345927
0.352055
0.361264
0.373884
0.390116
0.41003
0.433504
0.460042
0.487934
0.508423
0.518735
0.523492
0.404918
0.395258
0.3842
0.373886
0.365352
0.359238
0.355966
0.355789
0.358828
0.365082
0.374428
0.386592
0.401105
0.417087
0.432364
0.43884
0.436592
0.424007
0.408988
0.395649
0.385172
0.378225
0.375301
0.376807
0.383102
0.394529
0.41143
0.434155
0.46306
0.498485
0.540708
0.589786
0.644807
0.697623
0.733815
0.760371
0.783915
0.804744
0.823109
0.839218
0.853236
0.865297
0.875512
0.883966
0.890731
0.895859
0.899392
0.901358
0.901775
0.90065
0.897979
0.893749
0.887935
0.880501
0.8714
0.860568
0.847929
0.833385
0.816817
0.798079
0.776993
0.75333
0.726798
0.695157
0.648658
0.589279
0.534229
0.485708
0.443895
0.408527
0.379231
0.355624
0.33735
0.324101
0.315618
0.311695
0.312176
0.316947
0.32593
0.339067
0.356303
0.377543
0.40257
0.430764
0.459937
0.479642
0.489443
0.494286
0.494515
0.490197
0.479244
0.45796
0.434696
0.413696
0.395857
0.381488
0.370642
0.363222
0.358981
0.35751
0.358209
0.360266
0.362565
0.363808
0.363263
0.361727
0.360531
0.360825
0.363457
0.369068
0.378118
0.390912
0.407616
0.428253
0.452593
0.479801
0.50583
0.521196
0.529362
0.533435
0.439988
0.431361
0.416939
0.403739
0.393043
0.385417
0.381241
0.380716
0.383931
0.39087
0.401401
0.415226
0.431867
0.450111
0.463529
0.466547
0.465797
0.456847
0.439938
0.424286
0.411863
0.403415
0.399416
0.400256
0.406274
0.417792
0.435137
0.458644
0.488645
0.525433
0.569181
0.619625
0.674286
0.716245
0.745292
0.770277
0.792618
0.812521
0.830165
0.845704
0.85927
0.870971
0.880898
0.889127
0.895716
0.900712
0.904153
0.906063
0.906458
0.905343
0.902716
0.898563
0.892863
0.885584
0.876682
0.866102
0.853778
0.839624
0.823541
0.805408
0.785082
0.762395
0.737153
0.709156
0.67152
0.616796
0.560829
0.510756
0.467394
0.430631
0.400147
0.375579
0.35658
0.342843
0.334113
0.330184
0.330901
0.33615
0.345853
0.35995
0.378373
0.401006
0.427558
0.45707
0.483604
0.497869
0.506009
0.510385
0.511003
0.507976
0.5014
0.486647
0.463353
0.441255
0.422351
0.407266
0.396129
0.388925
0.385462
0.385343
0.38793
0.392349
0.39702
0.399452
0.397661
0.393731
0.390166
0.388566
0.38984
0.394665
0.403481
0.416543
0.433933
0.455593
0.480995
0.508259
0.527211
0.537392
0.544079
0.547452
0.473539
0.470253
0.457885
0.442534
0.429604
0.420233
0.415001
0.414081
0.417542
0.425344
0.437327
0.452965
0.471374
0.488638
0.49555
0.497197
0.496957
0.493425
0.479622
0.461984
0.447428
0.437201
0.43187
0.431879
0.437558
0.449213
0.467147
0.491679
0.523098
0.561572
0.607016
0.658171
0.703112
0.734212
0.759666
0.782828
0.803759
0.822557
0.839324
0.854164
0.867168
0.878418
0.887984
0.895926
0.902292
0.907122
0.910446
0.912284
0.91265
0.911549
0.908977
0.904924
0.899371
0.892288
0.883641
0.873382
0.861455
0.847792
0.832314
0.814929
0.795533
0.774013
0.750253
0.72415
0.694553
0.65211
0.596287
0.544483
0.499173
0.460596
0.428542
0.402698
0.382732
0.368343
0.359281
0.355342
0.356373
0.36226
0.372918
0.388276
0.408234
0.432587
0.460739
0.490365
0.509413
0.519424
0.526338
0.530242
0.531135
0.529138
0.524508
0.516653
0.500388
0.477801
0.457671
0.441731
0.430189
0.423249
0.42081
0.422525
0.427665
0.435588
0.44409
0.448882
0.444628
0.436859
0.429784
0.425627
0.425061
0.428849
0.437379
0.45081
0.469016
0.491824
0.517584
0.53759
0.548913
0.556731
0.562108
0.564842
0.507609
0.506993
0.501992
0.489102
0.474707
0.463531
0.457233
0.455916
0.459689
0.468458
0.482067
0.499051
0.516698
0.525539
0.528186
0.529734
0.53005
0.529162
0.523437
0.507836
0.491775
0.47973
0.472872
0.471933
0.47724
0.489083
0.507738
0.533494
0.566578
0.606764
0.6528
0.696964
0.728495
0.753246
0.776332
0.79761
0.817035
0.834622
0.850412
0.86446
0.876821
0.887549
0.896694
0.904301
0.910405
0.915038
0.918223
0.919977
0.92031
0.919225
0.91672
0.912786
0.907406
0.900558
0.892212
0.88233
0.870868
0.857776
0.842995
0.826461
0.808109
0.787872
0.765696
0.741552
0.715454
0.684381
0.639525
0.586876
0.539489
0.498778
0.464812
0.437396
0.416225
0.401019
0.391539
0.387586
0.389007
0.395686
0.40752
0.424415
0.446182
0.47242
0.501676
0.524145
0.535749
0.543859
0.549678
0.553108
0.554156
0.552935
0.549677
0.544747
0.536737
0.521754
0.50129
0.484755
0.472678
0.466013
0.464759
0.468694
0.476383
0.487792
0.494432
0.496631
0.494973
0.488952
0.478374
0.471649
0.468858
0.471448
0.479669
0.493577
0.512365
0.535408
0.553557
0.564645
0.572353
0.57851
0.582782
0.584966
0.542294
0.542001
0.541497
0.536909
0.527008
0.514618
0.507664
0.505992
0.510124
0.51964
0.534519
0.548547
0.556823
0.559636
0.561903
0.563502
0.564347
0.56447
0.564013
0.55807
0.544215
0.531006
0.522508
0.520625
0.525564
0.537657
0.557107
0.584142
0.618941
0.659814
0.699177
0.728721
0.75182
0.773941
0.794809
0.814243
0.832148
0.848483
0.863243
0.876442
0.888105
0.898262
0.906943
0.914177
0.91999
0.924402
0.927432
0.92909
0.929386
0.928321
0.925893
0.922094
0.916911
0.910326
0.902317
0.892857
0.881912
0.869449
0.855428
0.839813
0.822568
0.803668
0.783107
0.760909
0.737148
0.711975
0.680682
0.636496
0.588315
0.54549
0.509365
0.480141
0.457544
0.441362
0.431379
0.427402
0.429284
0.436898
0.450088
0.468716
0.492283
0.519462
0.542982
0.555811
0.563994
0.570587
0.575405
0.578358
0.579447
0.578768
0.576519
0.573
0.568613
0.562101
0.550651
0.535406
0.522854
0.516551
0.516327
0.522499
0.530167
0.534821
0.536082
0.535938
0.536714
0.536053
0.532109
0.525305
0.520271
0.52182
0.529636
0.543906
0.5615
0.575471
0.584555
0.591342
0.597344
0.602172
0.605543
0.607273
0.577273
0.577212
0.577178
0.577362
0.57521
0.570288
0.564699
0.562734
0.567226
0.575873
0.584101
0.589649
0.591914
0.594203
0.596288
0.598026
0.599364
0.60035
0.601124
0.601895
0.598176
0.589829
0.580201
0.577855
0.582487
0.594909
0.615068
0.642795
0.678181
0.709669
0.734864
0.755656
0.776114
0.79589
0.814717
0.832405
0.848831
0.86392
0.877635
0.88996
0.900896
0.910451
0.918639
0.925476
0.930974
0.935149
0.938011
0.939567
0.939823
0.938781
0.936436
0.932785
0.927816
0.921518
0.913875
0.904867
0.894476
0.882679
0.869456
0.854793
0.838681
0.821126
0.802156
0.78183
0.760254
0.737598
0.714099
0.684577
0.644423
0.600752
0.562468
0.531389
0.507184
0.489886
0.479324
0.475302
0.47769
0.486366
0.500956
0.521323
0.545702
0.567448
0.579989
0.587385
0.593829
0.599088
0.602998
0.605472
0.606505
0.606172
0.604631
0.60212
0.598958
0.595531
0.591557
0.584741
0.57746
0.572449
0.571652
0.572998
0.574203
0.573058
0.57231
0.572266
0.572982
0.574427
0.576279
0.575872
0.575543
0.5776
0.584148
0.593272
0.60205
0.608097
0.613557
0.618824
0.623507
0.627293
0.629946
0.631311
0.612312
0.612396
0.612632
0.613161
0.614201
0.615214
0.614684
0.615074
0.617712
0.621277
0.623401
0.624961
0.626898
0.628973
0.631021
0.632949
0.634735
0.63644
0.638208
0.640278
0.643008
0.643588
0.642463
0.642025
0.646455
0.659314
0.679596
0.704004
0.727116
0.746497
0.764587
0.782916
0.801089
0.818789
0.835765
0.851831
0.86685
0.880731
0.893416
0.904867
0.915067
0.924008
0.931688
0.938111
0.943283
0.947209
0.949895
0.951344
0.95156
0.950541
0.948287
0.944792
0.940051
0.934056
0.926796
0.918262
0.908444
0.897333
0.884925
0.871222
0.856238
0.839999
0.822559
0.803999
0.784442
0.764061
0.743086
0.721804
0.696101
0.662777
0.623652
0.591405
0.565465
0.546998
0.535832
0.531713
0.53456
0.544389
0.559906
0.581022
0.598027
0.608357
0.614323
0.619907
0.62485
0.628939
0.632025
0.634027
0.634929
0.634784
0.633711
0.631893
0.629567
0.627012
0.624535
0.622471
0.61997
0.617073
0.614893
0.612326
0.609957
0.608522
0.607835
0.607832
0.608521
0.609921
0.612122
0.615354
0.618871
0.622206
0.626498
0.630598
0.63428
0.638444
0.642752
0.64689
0.650568
0.653546
0.655637
0.656713
0.647267
0.647428
0.647794
0.648446
0.649482
0.650963
0.652924
0.654795
0.656022
0.656985
0.658277
0.659877
0.661741
0.66377
0.665876
0.668012
0.670187
0.672467
0.67499
0.67797
0.681711
0.686629
0.692329
0.697509
0.705307
0.717418
0.732513
0.74825
0.762712
0.778067
0.794066
0.810332
0.826538
0.842411
0.857724
0.872302
0.886007
0.89874
0.910429
0.921026
0.930498
0.938824
0.945993
0.951998
0.956837
0.960509
0.963015
0.964355
0.96453
0.963538
0.961377
0.958046
0.953541
0.947857
0.940992
0.932941
0.923705
0.913285
0.901689
0.888934
0.875047
0.860075
0.844082
0.827165
0.809452
0.791117
0.772378
0.753505
0.734827
0.714453
0.688905
0.659233
0.631823
0.61261
0.600992
0.596634
0.599469
0.610235
0.624022
0.634522
0.640868
0.644859
0.649033
0.653073
0.656724
0.659792
0.662138
0.663682
0.664399
0.664323
0.663537
0.662174
0.660404
0.658417
0.656402
0.654493
0.652628
0.650675
0.648349
0.646176
0.644411
0.64324
0.642674
0.642708
0.643349
0.644614
0.646532
0.649122
0.652224
0.655612
0.658754
0.661911
0.665194
0.668645
0.672119
0.675414
0.678331
0.680687
0.682341
0.683192
0.68206
0.682256
0.682671
0.683345
0.684319
0.685599
0.687126
0.688672
0.69005
0.691371
0.692844
0.694528
0.696421
0.69849
0.700699
0.703038
0.705532
0.708251
0.711316
0.714901
0.719234
0.724583
0.731202
0.739405
0.748895
0.759167
0.770187
0.782223
0.795225
0.808993
0.823278
0.837807
0.852321
0.866591
0.88042
0.893644
0.906136
0.917792
0.928536
0.93831
0.947074
0.954797
0.961461
0.96705
0.971557
0.974975
0.977301
0.978532
0.978666
0.977702
0.975639
0.972474
0.968209
0.962841
0.956372
0.948806
0.940149
0.930412
0.919611
0.907776
0.894943
0.88117
0.86653
0.851126
0.835086
0.818577
0.801803
0.785009
0.768488
0.752583
0.737279
0.719543
0.700996
0.684284
0.672862
0.667973
0.668539
0.67182
0.675559
0.67711
0.678795
0.681173
0.68388
0.686626
0.689181
0.691366
0.693053
0.694163
0.694664
0.694572
0.693941
0.692863
0.691457
0.689849
0.688161
0.68647
0.684778
0.683051
0.681266
0.679616
0.67827
0.677352
0.676913
0.676976
0.677553
0.678652
0.680271
0.682375
0.684862
0.687572
0.690313
0.693095
0.695938
0.698825
0.701662
0.704319
0.706652
0.70853
0.709846
0.710523
0.716658
0.716864
0.717288
0.717946
0.718849
0.719987
0.721309
0.722716
0.724136
0.725604
0.727199
0.728969
0.730926
0.733069
0.735393
0.737909
0.740653
0.74369
0.747122
0.751083
0.75574
0.761266
0.767819
0.7755
0.784204
0.793739
0.804042
0.815139
0.826972
0.839403
0.852246
0.865296
0.878349
0.891212
0.903718
0.915721
0.9271
0.937756
0.947611
0.956604
0.96469
0.971831
0.978003
0.983186
0.987366
0.990534
0.992682
0.993805
0.9939
0.992966
0.991
0.988004
0.983978
0.978925
0.97285
0.965763
0.957674
0.948601
0.93857
0.927614
0.915781
0.903131
0.889744
0.875721
0.861189
0.846303
0.831248
0.816241
0.80153
0.787396
0.774134
0.762102
0.751091
0.740071
0.730879
0.724772
0.721291
0.718358
0.716216
0.715603
0.71603
0.717157
0.718686
0.720371
0.722008
0.723438
0.724545
0.725252
0.725523
0.725358
0.72479
0.723881
0.72271
0.721363
0.719923
0.718447
0.716963
0.715486
0.714049
0.712753
0.711702
0.710984
0.71065
0.71073
0.711236
0.712172
0.713522
0.715248
0.717275
0.719503
0.721831
0.724218
0.72664
0.729053
0.731387
0.733547
0.735429
0.736936
0.73799
0.738531
0.75105
0.751255
0.75167
0.7523
0.753145
0.754192
0.755407
0.756745
0.758175
0.75971
0.761381
0.763221
0.765245
0.767466
0.769895
0.772553
0.77548
0.778733
0.782396
0.786572
0.791375
0.796922
0.803307
0.810573
0.81868
0.827543
0.837103
0.847319
0.858122
0.869399
0.881007
0.892783
0.904564
0.916191
0.92752
0.938422
0.948786
0.95852
0.967548
0.975807
0.983249
0.989835
0.995534
1.00032
1.00419
1.00711
1.00909
1.01011
1.01016
1.00926
1.00739
1.00456
1.00077
0.996031
0.990342
0.98372
0.976182
0.967749
0.958452
0.948331
0.937435
0.925829
0.913593
0.900825
0.887647
0.874198
0.860644
0.847175
0.833997
0.821336
0.80942
0.798462
0.788578
0.779927
0.772448
0.766027
0.760808
0.757009
0.754454
0.753054
0.752566
0.752737
0.753338
0.754163
0.755041
0.755834
0.756437
0.756778
0.756818
0.756547
0.755982
0.755161
0.754138
0.752972
0.75172
0.750431
0.749141
0.74788
0.746692
0.745643
0.744802
0.744231
0.743973
0.744056
0.744491
0.745277
0.746398
0.747819
0.749487
0.751332
0.753289
0.755308
0.757348
0.759361
0.761287
0.763051
0.764579
0.765797
0.766646
0.767081
0.785236
0.785436
0.785837
0.78644
0.78724
0.788228
0.789382
0.790681
0.792111
0.793677
0.795396
0.797287
0.799369
0.801656
0.804168
0.806929
0.809979
0.813367
0.817159
0.821432
0.826267
0.831741
0.837912
0.844805
0.8524
0.86065
0.869506
0.878913
0.888798
0.899065
0.909598
0.920266
0.930933
0.941469
0.951749
0.96166
0.971103
0.979991
0.988253
0.995827
1.00266
1.00872
1.01397
1.01839
1.02195
1.02464
1.02645
1.02737
1.02739
1.02652
1.02475
1.02208
1.01852
1.01408
1.00877
1.00259
0.995583
0.987761
0.97916
0.969821
0.959799
0.949156
0.937973
0.926341
0.914374
0.902197
0.889958
0.877817
0.865948
0.854532
0.843746
0.833748
0.824654
0.816554
0.809463
0.803374
0.798341
0.794417
0.791534
0.789595
0.78844
0.787889
0.787765
0.787903
0.78816
0.78842
0.78859
0.788604
0.788423
0.788029
0.787429
0.786644
0.785709
0.784665
0.783555
0.782417
0.781288
0.780202
0.779198
0.778324
0.777632
0.777164
0.776957
0.77703
0.777394
0.778047
0.778973
0.780145
0.781521
0.783051
0.784685
0.786377
0.788084
0.789758
0.791347
0.792793
0.794038
0.795027
0.795714
0.796066
0.819222
0.819416
0.819803
0.820382
0.821149
0.822096
0.823212
0.824486
0.825911
0.827491
0.829238
0.831164
0.833286
0.835621
0.83819
0.841018
0.844139
0.847597
0.851441
0.85573
0.86052
0.865864
0.871797
0.878334
0.885463
0.893153
0.901359
0.910027
0.919091
0.928466
0.938054
0.947748
0.957434
0.967003
0.976346
0.985366
0.993973
1.00209
1.00965
1.01658
1.02286
1.02842
1.03325
1.03731
1.04058
1.04305
1.0447
1.04552
1.04552
1.04467
1.043
1.04049
1.03716
1.03301
1.02805
1.02231
1.0158
1.00855
1.0006
0.991996
0.982782
0.973025
0.9628
0.952194
0.941309
0.930259
0.919172
0.908186
0.897445
0.887098
0.877285
0.868131
0.859735
0.852171
0.845475
0.839666
0.834766
0.830783
0.827671
0.825352
0.823711
0.822615
0.821929
0.821522
0.821277
0.821096
0.820899
0.820626
0.82024
0.819719
0.81906
0.818276
0.817389
0.816425
0.815417
0.814396
0.813393
0.81244
0.811572
0.810825
0.810236
0.809839
0.809659
0.809713
0.810009
0.810543
0.811303
0.812266
0.8134
0.814666
0.816023
0.817432
0.818851
0.820239
0.821549
0.822737
0.823754
0.82456
0.825118
0.825403
0.853014
0.853202
0.853576
0.854136
0.854877
0.855796
0.856885
0.858139
0.859556
0.86114
0.862899
0.864844
0.86699
0.869353
0.871952
0.874813
0.877963
0.881439
0.885279
0.889526
0.89422
0.899396
0.905077
0.911271
0.917967
0.925138
0.932748
0.940747
0.949073
0.957654
0.966405
0.975237
0.984054
0.992761
1.00127
1.00948
1.01734
1.02475
1.03166
1.03801
1.04376
1.04886
1.05329
1.05702
1.06002
1.06227
1.06377
1.06451
1.06448
1.06367
1.06208
1.05973
1.05661
1.05273
1.04812
1.04278
1.03675
1.03004
1.02271
1.01478
1.00631
0.997362
0.988008
0.978326
0.968409
0.958359
0.948286
0.938309
0.92855
0.919129
0.910163
0.901754
0.893986
0.886921
0.880601
0.875048
0.870275
0.866276
0.863015
0.86043
0.858436
0.856932
0.855814
0.854978
0.854331
0.853788
0.853283
0.852763
0.852191
0.851545
0.850818
0.850013
0.849144
0.848229
0.847291
0.846355
0.845447
0.844595
0.843825
0.843167
0.842649
0.842295
0.842127
0.842155
0.842385
0.842814
0.843431
0.844217
0.845146
0.846188
0.84731
0.848476
0.84965
0.850796
0.851875
0.85285
0.853682
0.854339
0.854793
0.855026
0.886619
0.886801
0.887164
0.887708
0.888429
0.889324
0.890392
0.891628
0.893035
0.894614
0.896374
0.898324
0.900477
0.902848
0.905454
0.908317
0.911462
0.914916
0.91871
0.922875
0.927438
0.932424
0.937845
0.943706
0.949993
0.956686
0.963749
0.971139
0.9788
0.98667
0.994676
1.00274
1.01078
1.01872
1.02648
1.03397
1.04114
1.04791
1.05422
1.06004
1.0653
1.06998
1.07404
1.07745
1.08019
1.08225
1.08362
1.08427
1.08421
1.08343
1.08193
1.07973
1.07681
1.0732
1.06891
1.06396
1.05837
1.05217
1.0454
1.0381
1.03031
1.02211
1.01354
1.00469
0.995643
0.986481
0.977304
0.968215
0.959315
0.950707
0.942486
0.934737
0.927532
0.920926
0.914958
0.90965
0.90501
0.901031
0.897683
0.894917
0.89267
0.890863
0.889416
0.888247
0.887279
0.886443
0.885682
0.884951
0.884215
0.883452
0.882652
0.881814
0.880945
0.880056
0.879163
0.878287
0.877447
0.876666
0.875965
0.875368
0.874896
0.874568
0.874397
0.874394
0.874562
0.874896
0.875389
0.876024
0.87678
0.877632
0.878553
0.879512
0.880478
0.88142
0.882306
0.883105
0.883785
0.884321
0.884691
0.884881
0.920042
0.920219
0.920573
0.921102
0.921805
0.922682
0.923729
0.924948
0.92634
0.927908
0.929659
0.931601
0.933746
0.936107
0.938699
0.941541
0.944652
0.948054
0.951771
0.955824
0.960234
0.965015
0.970175
0.975712
0.981615
0.987863
0.994424
1.00126
1.00832
1.01555
1.02289
1.03027
1.03762
1.04486
1.05194
1.05879
1.06533
1.07152
1.07729
1.08261
1.08743
1.09171
1.09543
1.09855
1.10106
1.10293
1.10417
1.10474
1.10466
1.10391
1.1025
1.10043
1.09771
1.09435
1.09036
1.08577
1.0806
1.07487
1.06862
1.0619
1.05474
1.04721
1.03936
1.03126
1.02299
1.01462
1.00624
0.99793
0.989789
0.981897
0.974335
0.967175
0.960479
0.954294
0.948655
0.943583
0.939086
0.935155
0.931768
0.928887
0.926463
0.924435
0.922741
0.921314
0.920094
0.919023
0.918053
0.917144
0.916265
0.915397
0.914526
0.913648
0.912765
0.911885
0.911019
0.910182
0.909388
0.908656
0.908003
0.907445
0.907001
0.906682
0.906501
0.906463
0.906571
0.906821
0.907205
0.907709
0.908317
0.909007
0.909757
0.910539
0.91133
0.912101
0.912825
0.913477
0.914032
0.914469
0.914771
0.914924
0.953288
0.95346
0.953805
0.954321
0.955009
0.955867
0.956896
0.958095
0.959468
0.961019
0.962752
0.964676
0.966799
0.969135
0.971695
0.974494
0.97755
0.980877
0.984494
0.988417
0.992659
0.997228
1.00213
1.00735
1.01289
1.01873
1.02482
1.03115
1.03767
1.04432
1.05106
1.05782
1.06455
1.07118
1.07765
1.0839
1.08988
1.09554
1.10082
1.10569
1.11009
1.11401
1.11741
1.12026
1.12255
1.12426
1.12537
1.12588
1.12577
1.12506
1.12373
1.12179
1.11925
1.11612
1.11242
1.10817
1.10338
1.09809
1.09233
1.08613
1.07955
1.07263
1.06543
1.05801
1.05043
1.04276
1.03509
1.02748
1.02001
1.01276
1.00578
0.999151
0.992915
0.987116
0.981786
0.976943
0.972594
0.968734
0.965346
0.962401
0.959859
0.957674
0.955797
0.954175
0.952759
0.951501
0.950362
0.949306
0.948306
0.947344
0.946405
0.945485
0.944582
0.943701
0.942847
0.942033
0.941269
0.940568
0.939944
0.93941
0.938978
0.938659
0.938461
0.938387
0.938438
0.938612
0.9389
0.939292
0.939772
0.940324
0.940927
0.94156
0.942201
0.942828
0.943417
0.943947
0.944398
0.944753
0.944997
0.945122
0.986361
0.98653
0.986866
0.98737
0.988042
0.988882
0.989891
0.991069
0.99242
0.993946
0.995654
0.997549
0.999641
1.00194
1.00445
1.00719
1.01017
1.01341
1.01691
1.02069
1.02476
1.02911
1.03375
1.03868
1.04388
1.04932
1.055
1.06086
1.06688
1.07301
1.07921
1.08541
1.09158
1.09765
1.10357
1.10929
1.11476
1.11994
1.12477
1.12922
1.13325
1.13683
1.13994
1.14254
1.14463
1.14618
1.14718
1.14762
1.1475
1.14681
1.14556
1.14375
1.14138
1.13847
1.13504
1.13109
1.12666
1.12178
1.11646
1.11075
1.10469
1.09833
1.09172
1.0849
1.07795
1.07092
1.06388
1.05689
1.05002
1.04333
1.03689
1.03073
1.02491
1.01947
1.01443
1.00981
1.00561
1.00184
0.998482
0.99551
0.992897
0.990606
0.988598
0.986831
0.985265
0.983862
0.982587
0.981411
0.98031
0.979266
0.978267
0.977305
0.976378
0.975487
0.974637
0.973833
0.973085
0.972402
0.971795
0.971272
0.970843
0.970516
0.970296
0.970185
0.970184
0.970288
0.970492
0.970785
0.971155
0.971588
0.972067
0.972572
0.973087
0.973592
0.974067
0.974495
0.974859
0.975146
0.975344
0.975445
1.01927
1.01943
1.01976
1.02025
1.02091
1.02173
1.02272
1.02387
1.0252
1.02669
1.02837
1.03023
1.03228
1.03452
1.03698
1.03965
1.04255
1.04568
1.04905
1.05268
1.05656
1.0607
1.0651
1.06974
1.07461
1.0797
1.08497
1.09041
1.09598
1.10164
1.10734
1.11304
1.1187
1.12427
1.12969
1.13493
1.13994
1.14467
1.14909
1.15317
1.15685
1.16013
1.16297
1.16534
1.16724
1.16865
1.16954
1.16993
1.16979
1.16913
1.16795
1.16626
1.16405
1.16135
1.15816
1.15451
1.15041
1.14589
1.14098
1.13572
1.13014
1.12429
1.11821
1.11194
1.10555
1.09909
1.09262
1.08619
1.07985
1.07367
1.0677
1.06197
1.05654
1.05142
1.04665
1.04225
1.03821
1.03454
1.03123
1.02826
1.02561
1.02326
1.02116
1.01929
1.01761
1.01609
1.01471
1.01344
1.01226
1.01114
1.01009
1.00909
1.00814
1.00723
1.00638
1.00558
1.00484
1.00416
1.00356
1.00304
1.00261
1.00227
1.00202
1.00187
1.00182
1.00186
1.00199
1.0022
1.00248
1.00281
1.00318
1.00358
1.00398
1.00438
1.00476
1.00511
1.0054
1.00563
1.00579
1.00587
1.05201
1.05217
1.05249
1.05297
1.05361
1.05441
1.05537
1.0565
1.0578
1.05926
1.0609
1.06272
1.06471
1.0669
1.06929
1.07188
1.07468
1.0777
1.08094
1.08441
1.08811
1.09204
1.09619
1.10056
1.10513
1.10988
1.11479
1.11984
1.12499
1.13022
1.13547
1.14072
1.14592
1.15103
1.156
1.1608
1.16539
1.16973
1.17377
1.1775
1.18087
1.18386
1.18645
1.18862
1.19035
1.19162
1.19242
1.19275
1.19261
1.19198
1.19086
1.18928
1.18722
1.18471
1.18175
1.17836
1.17457
1.17039
1.16586
1.16101
1.15587
1.15047
1.14487
1.13911
1.13323
1.12728
1.12131
1.11538
1.10953
1.10381
1.09826
1.09292
1.08784
1.08303
1.07851
1.07431
1.07043
1.06688
1.06363
1.06069
1.05804
1.05564
1.05349
1.05155
1.04979
1.04819
1.04673
1.04538
1.04413
1.04296
1.04186
1.04083
1.03985
1.03893
1.03807
1.03726
1.03652
1.03585
1.03525
1.03472
1.03428
1.03392
1.03365
1.03347
1.03337
1.03335
1.03342
1.03355
1.03374
1.03399
1.03427
1.03457
1.03489
1.0352
1.0355
1.03577
1.036
1.03618
1.03631
1.03637
1.08459
1.08474
1.08506
1.08552
1.08615
1.08693
1.08787
1.08897
1.09023
1.09166
1.09325
1.09502
1.09696
1.09909
1.1014
1.1039
1.1066
1.1095
1.11261
1.11592
1.11944
1.12316
1.12707
1.13118
1.13546
1.1399
1.14447
1.14916
1.15393
1.15876
1.16361
1.16844
1.17323
1.17792
1.18249
1.18689
1.19109
1.19507
1.19877
1.20218
1.20526
1.208
1.21037
1.21234
1.21391
1.21506
1.21578
1.21606
1.2159
1.2153
1.21425
1.21277
1.21085
1.20851
1.20577
1.20263
1.19911
1.19525
1.19107
1.18659
1.18184
1.17687
1.1717
1.16639
1.16097
1.15548
1.14997
1.14449
1.13908
1.13377
1.12861
1.12363
1.11886
1.11433
1.11006
1.10606
1.10234
1.0989
1.09574
1.09284
1.0902
1.0878
1.08561
1.08362
1.08181
1.08016
1.07863
1.07723
1.07592
1.07471
1.07357
1.07251
1.07151
1.07057
1.0697
1.06888
1.06814
1.06746
1.06685
1.06632
1.06586
1.06549
1.06519
1.06497
1.06483
1.06477
1.06477
1.06484
1.06496
1.06513
1.06533
1.06555
1.06579
1.06603
1.06626
1.06647
1.06665
1.06679
1.06689
1.06694
1.11701
1.11716
1.11747
1.11792
1.11853
1.11929
1.1202
1.12127
1.1225
1.12388
1.12543
1.12715
1.12903
1.13108
1.13331
1.13572
1.13832
1.1411
1.14406
1.14722
1.15055
1.15407
1.15777
1.16162
1.16563
1.16978
1.17404
1.1784
1.18282
1.18729
1.19176
1.19622
1.20062
1.20494
1.20913
1.21318
1.21703
1.22067
1.22407
1.22719
1.23001
1.23251
1.23467
1.23647
1.23789
1.23893
1.23957
1.23981
1.23964
1.23906
1.23808
1.23669
1.2349
1.23272
1.23017
1.22726
1.22401
1.22044
1.21657
1.21242
1.20804
1.20345
1.19868
1.19378
1.18877
1.1837
1.17861
1.17354
1.16851
1.16358
1.15877
1.15412
1.14965
1.14538
1.14134
1.13753
1.13396
1.13064
1.12757
1.12473
1.12212
1.11973
1.11754
1.11552
1.11368
1.11198
1.11042
1.10897
1.10763
1.10638
1.10521
1.10412
1.1031
1.10215
1.10126
1.10044
1.09969
1.099
1.09839
1.09784
1.09737
1.09697
1.09665
1.0964
1.09622
1.09611
1.09606
1.09607
1.09613
1.09623
1.09636
1.09652
1.09669
1.09687
1.09704
1.0972
1.09734
1.09745
1.09752
1.09756
1.14929
1.14943
1.14973
1.15017
1.15076
1.15149
1.15238
1.15342
1.15461
1.15595
1.15745
1.1591
1.16092
1.1629
1.16505
1.16736
1.16985
1.17251
1.17533
1.17833
1.18149
1.18482
1.1883
1.19192
1.19567
1.19955
1.20352
1.20756
1.21167
1.2158
1.21994
1.22405
1.2281
1.23208
1.23593
1.23965
1.24319
1.24652
1.24963
1.25249
1.25507
1.25736
1.25933
1.26097
1.26226
1.2632
1.26377
1.26397
1.26379
1.26324
1.26231
1.261
1.25934
1.25731
1.25494
1.25224
1.24923
1.24592
1.24233
1.2385
1.23445
1.23021
1.2258
1.22127
1.21664
1.21195
1.20723
1.20253
1.19786
1.19327
1.18879
1.18443
1.18023
1.17621
1.17238
1.16876
1.16534
1.16215
1.15917
1.1564
1.15383
1.15146
1.14928
1.14726
1.1454
1.14368
1.14209
1.14061
1.13924
1.13796
1.13677
1.13566
1.13462
1.13366
1.13276
1.13193
1.13117
1.13047
1.12985
1.12929
1.1288
1.12839
1.12804
1.12776
1.12754
1.12739
1.1273
1.12725
1.12726
1.1273
1.12738
1.12748
1.12759
1.12772
1.12784
1.12795
1.12805
1.12813
1.12819
1.12822
1.18141
1.18156
1.18184
1.18227
1.18284
1.18355
1.18441
1.18541
1.18656
1.18786
1.1893
1.1909
1.19265
1.19456
1.19662
1.19883
1.20121
1.20374
1.20643
1.20928
1.21227
1.21541
1.21868
1.22208
1.2256
1.22921
1.23291
1.23668
1.24048
1.24431
1.24814
1.25193
1.25567
1.25933
1.26288
1.26629
1.26954
1.2726
1.27545
1.27807
1.28043
1.28252
1.28432
1.28581
1.28698
1.28783
1.28833
1.2885
1.28832
1.28779
1.28691
1.28569
1.28413
1.28225
1.28004
1.27753
1.27474
1.27167
1.26835
1.26481
1.26105
1.25713
1.25305
1.24885
1.24457
1.24022
1.23585
1.23147
1.22713
1.22286
1.21866
1.21459
1.21064
1.20685
1.20322
1.19977
1.1965
1.19343
1.19055
1.18786
1.18535
1.18301
1.18085
1.17884
1.17697
1.17524
1.17364
1.17215
1.17076
1.16946
1.16825
1.16713
1.16608
1.1651
1.16419
1.16335
1.16258
1.16188
1.16124
1.16067
1.16017
1.15973
1.15936
1.15905
1.1588
1.15861
1.15848
1.15839
1.15835
1.15834
1.15837
1.15842
1.15848
1.15856
1.15864
1.15872
1.15879
1.15884
1.15888
1.1589
1.2134
1.21354
1.21381
1.21422
1.21477
1.21546
1.21629
1.21726
1.21837
1.21962
1.22101
1.22255
1.22423
1.22605
1.22803
1.23015
1.23241
1.23482
1.23738
1.24007
1.2429
1.24586
1.24894
1.25213
1.25542
1.2588
1.26224
1.26574
1.26928
1.27283
1.27636
1.27987
1.28332
1.28669
1.28996
1.2931
1.29608
1.29889
1.30151
1.30391
1.30607
1.30798
1.30962
1.31097
1.31204
1.3128
1.31325
1.31338
1.31319
1.31268
1.31185
1.31071
1.30925
1.3075
1.30545
1.30312
1.30052
1.29767
1.2946
1.29131
1.28784
1.2842
1.28042
1.27653
1.27255
1.26852
1.26446
1.26039
1.25635
1.25235
1.24843
1.24461
1.2409
1.23731
1.23388
1.2306
1.22748
1.22453
1.22174
1.21913
1.21668
1.21439
1.21226
1.21027
1.20842
1.20669
1.20508
1.20358
1.20218
1.20087
1.19966
1.19852
1.19746
1.19647
1.19556
1.19471
1.19393
1.19321
1.19257
1.19198
1.19146
1.19101
1.19061
1.19028
1.19
1.18978
1.18961
1.18948
1.1894
1.18935
1.18933
1.18934
1.18937
1.1894
1.18945
1.18949
1.18954
1.18957
1.1896
1.18961
1.24525
1.24538
1.24564
1.24604
1.24657
1.24724
1.24803
1.24897
1.25003
1.25123
1.25257
1.25405
1.25566
1.25741
1.25929
1.26131
1.26347
1.26576
1.26818
1.27073
1.2734
1.27619
1.27908
1.28208
1.28516
1.28831
1.29152
1.29478
1.29806
1.30135
1.30462
1.30787
1.31105
1.31416
1.31717
1.32006
1.3228
1.32538
1.32778
1.32998
1.33196
1.3337
1.3352
1.33643
1.33739
1.33808
1.33847
1.33858
1.33838
1.3379
1.33711
1.33604
1.33468
1.33304
1.33113
1.32896
1.32655
1.32391
1.32105
1.318
1.31478
1.3114
1.3079
1.30429
1.3006
1.29685
1.29307
1.28928
1.28551
1.28178
1.27811
1.27451
1.27102
1.26764
1.26438
1.26126
1.25828
1.25545
1.25277
1.25024
1.24786
1.24562
1.24353
1.24157
1.23973
1.23801
1.23641
1.23491
1.23351
1.2322
1.23097
1.22983
1.22877
1.22777
1.22685
1.22599
1.22521
1.22448
1.22383
1.22323
1.2227
1.22222
1.22181
1.22145
1.22115
1.2209
1.22069
1.22053
1.22041
1.22033
1.22027
1.22024
1.22023
1.22024
1.22025
1.22027
1.22029
1.22031
1.22032
1.22033
1.27696
1.27709
1.27734
1.27773
1.27824
1.27888
1.27964
1.28054
1.28156
1.28272
1.284
1.28541
1.28695
1.28862
1.29042
1.29234
1.2944
1.29657
1.29886
1.30127
1.30379
1.30641
1.30913
1.31194
1.31482
1.31776
1.32076
1.32379
1.32683
1.32988
1.33292
1.33592
1.33886
1.34173
1.3445
1.34716
1.34968
1.35205
1.35425
1.35627
1.35808
1.35967
1.36104
1.36216
1.36303
1.36364
1.36399
1.36407
1.36387
1.36341
1.36266
1.36166