/*--------------------------------*- C++ -*----------------------------------*\
| =========                 |                                                 |
| \\      /  F ield         | OpenFOAM: The Open Source CFD Toolbox           |
|  \\    /   O peration     | Version:  2406                                  |
|   \\  /    A nd           | Website:  www.openfoam.com                      |
|    \\/     M anipulation  |                                                 |
\*---------------------------------------------------------------------------*/
FoamFile
{
    version     2.0;
    format      ascii;
    arch        "LSB;label=32;scalar=64";
    class       volScalarField;
    location    "3.9";
    object      C;
}
// * * * * * * * * * * * * * * * * * * * * * * * * * * * * * * * * * * * * * //

dimensions      [1 -3 0 0 0 0 0];

internalField   nonuniform List<scalar> 
14400
(
0.465408
0.456354
0.444236
0.432295
0.422256
0.41511
0.411458
0.411658
0.415885
0.424164
0.43636
0.452145
0.470893
0.491422
0.511252
0.522846
0.520644
0.506932
0.489016
0.472669
0.459675
0.450993
0.447282
0.449049
0.45672
0.470683
0.491306
0.518949
0.553947
0.596564
0.646877
0.704436
0.766767
0.814483
0.845634
0.871474
0.894225
0.914256
0.931851
0.947236
0.960584
0.972037
0.981705
0.989675
0.996018
1.00079
1.00402
1.00575
1.00599
1.00474
1.00201
0.997775
0.992013
0.984688
0.975751
0.965137
0.952768
0.938543
0.922339
0.904002
0.883341
0.860113
0.834018
0.804668
0.764311
0.706012
0.641881
0.583645
0.532874
0.489618
0.45358
0.424376
0.401621
0.384969
0.374127
0.368859
0.368983
0.374365
0.38491
0.400541
0.421174
0.446654
0.47661
0.509995
0.543122
0.565156
0.575716
0.580527
0.579821
0.573385
0.557056
0.530544
0.502444
0.477026
0.455406
0.437953
0.424731
0.415592
0.410204
0.408033
0.408323
0.410069
0.412064
0.413133
0.412717
0.411415
0.410436
0.411023
0.414217
0.420815
0.431395
0.446348
0.465881
0.490002
0.518412
0.550039
0.580535
0.600369
0.610137
0.614859
0.482485
0.471481
0.457314
0.443989
0.433024
0.425268
0.421258
0.421325
0.425634
0.434201
0.446896
0.463413
0.483167
0.504923
0.525061
0.534231
0.532932
0.52007
0.501365
0.484116
0.470344
0.461055
0.456911
0.458418
0.465994
0.48002
0.500858
0.528863
0.564366
0.607625
0.658658
0.716658
0.777088
0.820089
0.849187
0.874563
0.896946
0.91669
0.934063
0.949271
0.96248
0.973822
0.983402
0.991303
0.997592
1.00232
1.00553
1.00724
1.00747
1.00623
1.00351
0.999302
0.993577
0.986301
0.977426
0.966893
0.954623
0.940522
0.924472
0.906327
0.885906
0.862982
0.837269
0.808395
0.771714
0.717485
0.652841
0.593928
0.542501
0.498656
0.462119
0.432509
0.409446
0.392583
0.381628
0.376349
0.376562
0.382137
0.392977
0.409007
0.430142
0.456238
0.486958
0.521212
0.552661
0.571549
0.581428
0.586044
0.585545
0.579829
0.56693
0.542646
0.513923
0.487893
0.465784
0.448008
0.434664
0.425633
0.420608
0.419079
0.420298
0.423198
0.426329
0.427943
0.42697
0.42452
0.42238
0.422034
0.424579
0.430806
0.441269
0.456331
0.476173
0.500767
0.529783
0.562052
0.589954
0.606137
0.615169
0.619581
0.508494
0.499009
0.482496
0.46701
0.454428
0.445547
0.440861
0.440677
0.44515
0.454277
0.467914
0.48576
0.507244
0.53075
0.548006
0.553603
0.553309
0.544795
0.525778
0.506936
0.491683
0.481216
0.476226
0.477223
0.484617
0.498772
0.520037
0.548751
0.58523
0.629714
0.682174
0.741452
0.793689
0.828739
0.856234
0.880643
0.902306
0.921497
0.938438
0.953305
0.966243
0.977369
0.986776
0.994542
1.00073
1.00538
1.00853
1.01021
1.01043
1.0092
1.0065
1.00234
0.996691
0.989511
0.980761
0.970384
0.95831
0.944451
0.9287
0.910927
0.890973
0.868639
0.843681
0.815774
0.783717
0.737471
0.674247
0.614468
0.561823
0.516832
0.479309
0.448897
0.425217
0.40793
0.39675
0.391445
0.391839
0.397797
0.409223
0.426036
0.448137
0.475337
0.507167
0.54194
0.568919
0.583559
0.592401
0.596675
0.596486
0.591854
0.582641
0.564419
0.536312
0.509507
0.486515
0.468103
0.454512
0.445683
0.441361
0.441099
0.444202
0.449581
0.455407
0.458474
0.456019
0.450854
0.446223
0.443981
0.445247
0.450755
0.460997
0.47628
0.496723
0.522154
0.55187
0.583359
0.604788
0.616954
0.62482
0.628715
0.537946
0.533468
0.518392
0.500809
0.486269
0.475888
0.470262
0.469727
0.474457
0.484394
0.499319
0.518808
0.541975
0.564166
0.574551
0.578378
0.578646
0.575062
0.56125
0.540838
0.523639
0.511527
0.505319
0.505587
0.512728
0.527084
0.54898
0.578722
0.616557
0.662569
0.715959
0.772132
0.811901
0.84062
0.866368
0.88947
0.910136
0.928554
0.944886
0.959269
0.971819
0.982634
0.991793
0.999362
1.00539
1.00993
1.013
1.01464
1.01484
1.01362
1.01097
1.00688
1.00133
0.994291
0.985722
0.975573
0.963781
0.950271
0.93495
0.91771
0.898419
0.876923
0.85304
0.826563
0.79728
0.760708
0.706478
0.645399
0.590978
0.544329
0.505371
0.473773
0.449173
0.431248
0.419724
0.41438
0.415041
0.421572
0.433869
0.451839
0.475334
0.504031
0.536982
0.569582
0.58898
0.600335
0.60794
0.611771
0.611869
0.608316
0.601269
0.590068
0.569078
0.541719
0.517516
0.498169
0.484208
0.475646
0.472303
0.473839
0.47969
0.488903
0.499345
0.504868
0.499911
0.490098
0.481615
0.476612
0.476062
0.480567
0.490511
0.506124
0.52745
0.554015
0.584165
0.608076
0.62205
0.63185
0.638441
0.641745
0.569735
0.568285
0.561003
0.544273
0.528212
0.516158
0.5094
0.508421
0.513527
0.524505
0.540925
0.56186
0.585158
0.598128
0.603464
0.606711
0.607576
0.606077
0.600281
0.584462
0.56593
0.551988
0.544269
0.543645
0.550492
0.565133
0.587851
0.618901
0.658367
0.706174
0.759614
0.800418
0.829377
0.855373
0.879147
0.900733
0.920215
0.937697
0.953282
0.967065
0.979131
0.989554
0.998399
1.00572
1.01156
1.01595
1.01892
1.02049
1.02067
1.01947
1.01687
1.01287
1.00746
1.0006
0.992263
0.982404
0.970971
0.9579
0.943119
0.926542
0.908069
0.887593
0.864995
0.840157
0.812984
0.783375
0.74317
0.685551
0.629906
0.581357
0.540606
0.507474
0.481658
0.462874
0.450884
0.445482
0.446496
0.453782
0.467219
0.486696
0.511953
0.542368
0.575733
0.598843
0.611466
0.620851
0.627254
0.630599
0.630904
0.628272
0.622907
0.615172
0.603225
0.58289
0.558297
0.537916
0.523551
0.515296
0.513078
0.516667
0.525558
0.538383
0.546673
0.549251
0.547157
0.539469
0.527354
0.519297
0.516667
0.520014
0.529609
0.545572
0.567857
0.594687
0.617524
0.63193
0.64205
0.649957
0.65535
0.658078
0.602973
0.602115
0.600534
0.593163
0.579183
0.565879
0.55797
0.556412
0.562084
0.574238
0.591829
0.611851
0.624472
0.630058
0.634429
0.637427
0.638869
0.638798
0.637495
0.63145
0.617401
0.602371
0.592987
0.591458
0.598021
0.613033
0.636703
0.669208
0.709974
0.758081
0.796036
0.823812
0.848854
0.872346
0.894115
0.914098
0.932294
0.948738
0.96348
0.976577
0.988084
0.998053
1.00653
1.01356
1.01917
1.02339
1.02624
1.02774
1.02789
1.0267
1.02417
1.02029
1.01503
1.00839
1.00033
0.990809
0.979797
0.967241
0.953085
0.937268
0.919724
0.900385
0.879188
0.856086
0.831066
0.80418
0.775018
0.734146
0.67866
0.628123
0.585361
0.550407
0.523091
0.503222
0.490636
0.485153
0.486602
0.494813
0.509601
0.530851
0.557982
0.589173
0.613451
0.626948
0.63673
0.644351
0.649625
0.652465
0.652877
0.650959
0.646915
0.641075
0.633912
0.623335
0.60689
0.586324
0.571977
0.564082
0.562904
0.568114
0.57863
0.585064
0.58686
0.586743
0.587338
0.586069
0.580275
0.570577
0.566282
0.568546
0.577723
0.593602
0.615975
0.634434
0.647067
0.65628
0.664263
0.670576
0.674925
0.677139
0.637069
0.636637
0.635911
0.635137
0.630392
0.622683
0.614571
0.612271
0.618733
0.631424
0.644241
0.653848
0.658602
0.662986
0.666768
0.6697
0.671674
0.672751
0.673162
0.673284
0.669582
0.661114
0.650658
0.648761
0.655106
0.670563
0.695046
0.728566
0.767739
0.799989
0.82455
0.847607
0.869883
0.891041
0.91087
0.92925
0.946125
0.96148
0.975324
0.987679
0.998576
1.00804
1.01611
1.02281
1.02817
1.03219
1.03491
1.03633
1.03645
1.03529
1.03283
1.02907
1.024
1.0176
1.00984
1.00071
0.990167
0.978181
0.964712
0.949722
0.933174
0.915035
0.895286
0.873932
0.851015
0.826636
0.800974
0.773242
0.734933
0.684162
0.639813
0.602944
0.5739
0.552709
0.5394
0.533807
0.535761
0.545043
0.5612
0.58422
0.612025
0.634425
0.647479
0.656485
0.664154
0.670198
0.674431
0.67676
0.67718
0.675773
0.67272
0.668299
0.662902
0.65703
0.649635
0.638761
0.627344
0.619985
0.619305
0.621918
0.624494
0.624131
0.623415
0.623325
0.623903
0.625127
0.626054
0.624157
0.622432
0.624148
0.632711
0.645593
0.658046
0.667083
0.674677
0.681861
0.688146
0.693158
0.696636
0.698413
0.671596
0.671453
0.671277
0.671292
0.671853
0.671244
0.669611
0.670069
0.674323
0.680483
0.685615
0.689015
0.692775
0.696515
0.699957
0.70293
0.705377
0.707369
0.709115
0.710955
0.713376
0.71427
0.7133
0.713734
0.719924
0.735825
0.759728
0.786442
0.811088
0.831437
0.851845
0.872183
0.892029
0.911066
0.929074
0.945907
0.961476
0.975732
0.988655
1.00024
1.01049
1.01943
1.02707
1.03341
1.03849
1.04231
1.04488
1.04621
1.0463
1.04516
1.04279
1.03917
1.03429
1.02816
1.02074
1.01202
1.00198
0.990602
0.977859
0.963735
0.948214
0.931294
0.91299
0.89334
0.872425
0.850375
0.827391
0.803758
0.778992
0.745709
0.703117
0.665069
0.634302
0.611581
0.59748
0.591736
0.594208
0.604696
0.621529
0.645071
0.662616
0.673258
0.680596
0.687361
0.693202
0.697855
0.701141
0.702964
0.703307
0.702235
0.69989
0.696499
0.692367
0.687873
0.683456
0.679389
0.673808
0.668899
0.666329
0.664563
0.661829
0.660162
0.659344
0.659237
0.659824
0.661142
0.663352
0.666706
0.669228
0.672728
0.678738
0.685531
0.690929
0.696745
0.702696
0.708341
0.713301
0.717276
0.720046
0.721465
0.706266
0.706302
0.706453
0.706867
0.707752
0.709324
0.711745
0.714172
0.716269
0.718171
0.720668
0.723669
0.726967
0.730341
0.733615
0.736686
0.739533
0.742235
0.744974
0.748041
0.75184
0.756909
0.763309
0.7694
0.778698
0.792952
0.809991
0.827008
0.843644
0.861201
0.879208
0.897253
0.914983
0.93212
0.948452
0.963827
0.978139
0.991319
1.00332
1.01413
1.02373
1.03212
1.0393
1.04529
1.05007
1.05367
1.05609
1.05733
1.05739
1.05628
1.05399
1.05051
1.04585
1.04
1.03293
1.02465
1.01514
1.00439
0.992389
0.979143
0.964653
0.948939
0.932038
0.914015
0.894969
0.875048
0.854457
0.833468
0.812431
0.791488
0.765133
0.734472
0.70335
0.679348
0.664713
0.658706
0.661278
0.672888
0.686808
0.697709
0.704131
0.709144
0.714288
0.719159
0.723438
0.726879
0.729314
0.730647
0.730851
0.729968
0.728108
0.725441
0.722195
0.718638
0.715052
0.711663
0.708577
0.705538
0.702141
0.699139
0.696851
0.695343
0.694562
0.694455
0.695013
0.696265
0.698283
0.701144
0.704808
0.708988
0.712944
0.71705
0.721533
0.72627
0.731023
0.735504
0.739441
0.7426
0.744805
0.745937
0.740898
0.741038
0.741365
0.74197
0.742961
0.744425
0.74635
0.748464
0.750551
0.752724
0.755211
0.758026
0.761082
0.764266
0.767478
0.770665
0.773834
0.777063
0.780506
0.784394
0.789032
0.794779
0.801993
0.811047
0.821725
0.833395
0.846051
0.859977
0.874886
0.890513
0.906535
0.922636
0.93853
0.953979
0.968788
0.98281
0.995934
1.00808
1.01919
1.02923
1.03818
1.04602
1.05274
1.05835
1.06284
1.06622
1.06848
1.06962
1.06965
1.06857
1.06637
1.06305
1.05861
1.05304
1.04634
1.03851
1.02953
1.01942
1.00817
0.995794
0.982316
0.96777
0.952208
0.935711
0.918389
0.900392
0.88192
0.863223
0.844611
0.82645
0.809164
0.790732
0.770898
0.752351
0.73872
0.732121
0.73155
0.734478
0.738083
0.739555
0.741854
0.7449
0.748252
0.751551
0.754511
0.756909
0.75859
0.759459
0.759481
0.75868
0.757131
0.754961
0.752333
0.749434
0.74645
0.743528
0.740735
0.738021
0.735347
0.732972
0.731093
0.729799
0.729105
0.729008
0.729509
0.730623
0.73237
0.734752
0.737698
0.741025
0.74448
0.748088
0.751881
0.755779
0.759622
0.763213
0.766357
0.768878
0.770637
0.771541
0.775391
0.775585
0.776
0.776686
0.777697
0.779064
0.780761
0.78268
0.784739
0.786963
0.789426
0.79214
0.795071
0.798162
0.801366
0.804663
0.808075
0.811676
0.815592
0.819999
0.825116
0.831181
0.838415
0.846965
0.85675
0.867551
0.879288
0.891959
0.905408
0.91943
0.933784
0.948225
0.962523
0.976476
0.989912
1.00269
1.01471
1.02587
1.03613
1.04542
1.05373
1.06103
1.0673
1.07254
1.07673
1.07988
1.08198
1.08303
1.08303
1.08198
1.07987
1.07671
1.07249
1.06722
1.06089
1.0535
1.04507
1.03558
1.02507
1.01355
1.00105
0.987615
0.973315
0.958232
0.942482
0.926212
0.909608
0.892894
0.876341
0.860256
0.844985
0.830904
0.81845
0.806646
0.796262
0.788923
0.784352
0.780623
0.778484
0.778071
0.77883
0.780349
0.782268
0.784283
0.786144
0.787656
0.788677
0.789117
0.788935
0.788138
0.786777
0.784939
0.782741
0.780314
0.777786
0.775265
0.772815
0.770464
0.768253
0.766309
0.764751
0.763653
0.763052
0.762962
0.763392
0.764346
0.765822
0.767797
0.770205
0.772936
0.775864
0.77894
0.782126
0.785342
0.788471
0.791371
0.793896
0.795916
0.797325
0.798049
0.809691
0.80991
0.810364
0.811078
0.812078
0.813374
0.814948
0.816756
0.818761
0.820965
0.823389
0.826039
0.828899
0.831946
0.835161
0.838545
0.842128
0.845975
0.850186
0.854893
0.86025
0.866415
0.873523
0.881647
0.89076
0.900767
0.911592
0.923164
0.935359
0.948014
0.960945
0.973956
0.986862
0.99949
1.01169
1.02334
1.03433
1.04458
1.05402
1.06261
1.0703
1.07707
1.0829
1.08776
1.09166
1.09459
1.09653
1.09749
1.09746
1.09644
1.09443
1.09142
1.08743
1.08246
1.07649
1.06955
1.06164
1.05278
1.04298
1.03228
1.02071
1.00833
0.995202
0.98142
0.967095
0.952366
0.937404
0.922406
0.907602
0.893247
0.879614
0.866976
0.85558
0.845512
0.836896
0.829588
0.823748
0.819537
0.816811
0.815414
0.815045
0.815398
0.816188
0.817168
0.818127
0.818895
0.819346
0.819397
0.819003
0.81816
0.816899
0.815278
0.813378
0.811294
0.809117
0.806929
0.804796
0.802765
0.800894
0.799261
0.797947
0.79701
0.796487
0.796398
0.796751
0.797547
0.798776
0.800408
0.80239
0.804648
0.8071
0.809683
0.812339
0.814993
0.81755
0.819902
0.82194
0.823567
0.824699
0.82528
0.843772
0.844001
0.844467
0.845183
0.846162
0.847405
0.848903
0.850635
0.852584
0.854746
0.857126
0.859726
0.86254
0.865561
0.868786
0.872228
0.875918
0.87991
0.884284
0.889136
0.894575
0.900706
0.907613
0.91534
0.923875
0.933167
0.94315
0.953746
0.964847
0.976323
0.988024
0.999794
1.01148
1.02293
1.03402
1.04464
1.05469
1.06409
1.07277
1.08068
1.08779
1.09405
1.09945
1.10396
1.10757
1.11028
1.11207
1.11293
1.11287
1.11189
1.10997
1.10713
1.10336
1.09867
1.09307
1.08657
1.07918
1.07091
1.0618
1.05188
1.04119
1.02979
1.01775
1.00515
0.992111
0.978755
0.965234
0.951723
0.938414
0.925517
0.913246
0.901807
0.891375
0.882059
0.873936
0.867011
0.861343
0.856966
0.853807
0.851731
0.850539
0.850008
0.84992
0.850075
0.8503
0.85045
0.850416
0.85012
0.84952
0.848601
0.84738
0.845895
0.844201
0.842366
0.840457
0.83854
0.836673
0.834907
0.833295
0.831896
0.830766
0.829953
0.829488
0.82939
0.829667
0.830317
0.831326
0.832669
0.8343
0.836166
0.838203
0.840353
0.842555
0.844741
0.846833
0.848746
0.850397
0.851711
0.852623
0.853091
0.877623
0.877854
0.87832
0.879027
0.879981
0.881182
0.882624
0.884297
0.886194
0.888309
0.890644
0.893199
0.895975
0.898972
0.902195
0.905663
0.909404
0.913464
0.917903
0.922793
0.928209
0.934222
0.940884
0.948224
0.956232
0.964874
0.974095
0.983821
0.993962
1.00441
1.01504
1.02572
1.03632
1.04673
1.05683
1.06652
1.0757
1.08432
1.09229
1.09957
1.10612
1.1119
1.11688
1.12105
1.12439
1.12688
1.12852
1.1293
1.12922
1.12826
1.12644
1.12376
1.12021
1.11581
1.11056
1.10448
1.09758
1.08989
1.08143
1.07224
1.06238
1.05189
1.04084
1.02933
1.01744
1.00531
0.993056
0.980837
0.968815
0.957161
0.946046
0.935631
0.926053
0.917412
0.909776
0.903179
0.897646
0.893178
0.889719
0.887164
0.885371
0.884175
0.883408
0.882913
0.882546
0.882189
0.881746
0.881148
0.880354
0.879345
0.878126
0.87672
0.875166
0.87351
0.871805
0.870102
0.86845
0.866894
0.865482
0.86426
0.86327
0.862548
0.862122
0.862007
0.862209
0.862726
0.863544
0.864639
0.865977
0.867512
0.869194
0.870971
0.872787
0.874583
0.876294
0.877852
0.879192
0.880255
0.880993
0.881371
0.911244
0.911472
0.911932
0.912624
0.913552
0.914716
0.916113
0.917737
0.919584
0.921652
0.923941
0.926452
0.929188
0.932154
0.93536
0.938824
0.942571
0.946638
0.951072
0.955924
0.961246
0.967087
0.973479
0.980438
0.987956
0.996004
1.00453
1.01348
1.02277
1.03231
1.04199
1.05171
1.06137
1.07085
1.08005
1.08889
1.09729
1.10518
1.1125
1.11919
1.12521
1.13054
1.13513
1.13898
1.14205
1.14434
1.14584
1.14654
1.14643
1.14551
1.14378
1.14125
1.13791
1.13379
1.12888
1.1232
1.11677
1.10963
1.10179
1.09329
1.08419
1.07454
1.06441
1.05387
1.04303
1.03198
1.02084
1.00975
0.998847
0.988264
0.978145
0.968618
0.959795
0.951761
0.944578
0.938281
0.932886
0.928382
0.924725
0.921835
0.919605
0.917912
0.916626
0.915622
0.914784
0.914014
0.91323
0.912374
0.911403
0.910299
0.909058
0.907694
0.906231
0.904704
0.903152
0.901613
0.900129
0.898739
0.89748
0.896391
0.895504
0.894848
0.894445
0.894306
0.894436
0.894833
0.895484
0.896368
0.897456
0.89871
0.90009
0.901549
0.90304
0.90451
0.905907
0.907175
0.908264
0.909125
0.909722
0.910028
0.944636
0.94486
0.945309
0.945985
0.946888
0.948019
0.949374
0.950954
0.952754
0.954774
0.957015
0.95948
0.962172
0.965098
0.968269
0.971701
0.975417
0.979446
0.983822
0.988583
0.993765
0.9994
1.00551
1.01209
1.01915
1.02665
1.03455
1.0428
1.05133
1.06006
1.06891
1.07778
1.08658
1.09523
1.10363
1.11171
1.11939
1.12662
1.13333
1.13947
1.14501
1.14991
1.15413
1.15767
1.1605
1.1626
1.16396
1.16458
1.16445
1.16356
1.16193
1.15954
1.15641
1.15255
1.14796
1.14267
1.13669
1.13006
1.1228
1.11495
1.10655
1.09768
1.08837
1.07873
1.06881
1.05873
1.04859
1.03849
1.02856
1.0189
1.00965
1.0009
0.992746
0.985259
0.978493
0.972481
0.967233
0.96274
0.958964
0.955846
0.953303
0.951242
0.949562
0.948163
0.946954
0.945851
0.944789
0.943712
0.942586
0.941388
0.940113
0.938765
0.937361
0.935925
0.934484
0.93307
0.931715
0.930451
0.929309
0.928319
0.927507
0.926896
0.926502
0.926335
0.926398
0.926687
0.927192
0.927893
0.928768
0.929784
0.930906
0.932096
0.933312
0.934511
0.935648
0.936679
0.937562
0.93826
0.938743
0.93899
0.977804
0.978022
0.97846
0.979118
0.979996
0.981095
0.982413
0.983949
0.985703
0.987675
0.989866
0.99228
0.994921
0.997796
1.00092
1.00429
1.00795
1.01191
1.01619
1.02082
1.02583
1.03124
1.03705
1.04328
1.0499
1.05689
1.06423
1.07184
1.07969
1.0877
1.0958
1.10392
1.11196
1.11986
1.12754
1.13492
1.14196
1.14857
1.15472
1.16036
1.16544
1.16994
1.17383
1.17708
1.17967
1.18159
1.18282
1.18337
1.18322
1.18237
1.18082
1.17857
1.17564
1.17203
1.16775
1.16283
1.15727
1.15112
1.1444
1.13714
1.1294
1.12123
1.11269
1.10384
1.09477
1.08555
1.07628
1.06706
1.05798
1.04915
1.04065
1.03259
1.02503
1.01804
1.01166
1.00592
1.00083
0.99638
0.992547
0.989281
0.98652
0.984191
0.982216
0.980515
0.979016
0.97765
0.97636
0.975101
0.97384
0.972556
0.97124
0.969893
0.968524
0.967149
0.965789
0.964467
0.963209
0.962041
0.960986
0.960069
0.95931
0.958727
0.958333
0.958134
0.958132
0.958325
0.958701
0.959246
0.959938
0.96075
0.961654
0.962617
0.963602
0.964574
0.965496
0.966331
0.967045
0.967609
0.968
0.968199
1.01075
1.01097
1.01139
1.01203
1.01288
1.01395
1.01523
1.01673
1.01843
1.02036
1.02249
1.02485
1.02744
1.03025
1.0333
1.03661
1.04018
1.04404
1.0482
1.05268
1.0575
1.06267
1.06819
1.07407
1.08028
1.0868
1.09361
1.10066
1.10789
1.11525
1.12269
1.13012
1.13748
1.14471
1.15173
1.15849
1.16493
1.17099
1.17663
1.1818
1.18647
1.1906
1.19416
1.19714
1.19951
1.20126
1.20238
1.20286
1.20269
1.20187
1.20041
1.1983
1.19555
1.19218
1.18819
1.18361
1.17845
1.17275
1.16652
1.15982
1.15269
1.14516
1.13731
1.12919
1.12087
1.11242
1.10393
1.09549
1.08716
1.07905
1.07123
1.06377
1.05675
1.0502
1.04418
1.0387
1.03378
1.02941
1.02556
1.02221
1.0193
1.01679
1.01459
1.01267
1.01094
1.00937
1.0079
1.00649
1.00512
1.00376
1.0024
1.00104
0.999692
0.998358
0.997055
0.995801
0.994614
0.993516
0.992525
0.99166
0.990937
0.99037
0.989967
0.989735
0.989673
0.989779
0.990043
0.990452
0.990987
0.991626
0.992344
0.993114
0.993905
0.994688
0.99543
0.996102
0.996678
0.997133
0.997447
0.997608
1.04349
1.0437
1.04411
1.04473
1.04556
1.04659
1.04784
1.04929
1.05095
1.05282
1.0549
1.0572
1.05972
1.06246
1.06544
1.06866
1.07213
1.07587
1.07989
1.08421
1.08882
1.09375
1.09898
1.10452
1.11034
1.11643
1.12276
1.12928
1.13596
1.14274
1.14957
1.15639
1.16314
1.16976
1.17619
1.18238
1.18828
1.19384
1.199
1.20375
1.20802
1.21181
1.21508
1.21781
1.21998
1.22157
1.22258
1.22299
1.22281
1.22202
1.22064
1.21866
1.21609
1.21294
1.20923
1.20496
1.20018
1.19489
1.18913
1.18294
1.17636
1.16942
1.1622
1.15473
1.14709
1.13933
1.13154
1.12378
1.11613
1.10866
1.10144
1.09453
1.08798
1.08184
1.07615
1.07093
1.06618
1.0619
1.05808
1.0547
1.0517
1.04905
1.04671
1.04461
1.04272
1.04099
1.03938
1.03785
1.03638
1.03495
1.03356
1.03219
1.03084
1.02954
1.02827
1.02707
1.02593
1.02488
1.02394
1.02311
1.02241
1.02185
1.02143
1.02116
1.02105
1.02107
1.02124
1.02153
1.02193
1.02242
1.02298
1.02359
1.02422
1.02484
1.02543
1.02597
1.02643
1.0268
1.02705
1.02718
1.07602
1.07622
1.07662
1.07722
1.07803
1.07903
1.08024
1.08165
1.08326
1.08507
1.0871
1.08933
1.09178
1.09444
1.09733
1.10045
1.10381
1.10743
1.1113
1.11543
1.11984
1.12452
1.12947
1.13468
1.14014
1.14582
1.1517
1.15775
1.16392
1.17017
1.17646
1.18272
1.18892
1.19499
1.20089
1.20657
1.21198
1.21707
1.22181
1.22615
1.23008
1.23355
1.23654
1.23903
1.24101
1.24246
1.24337
1.24372
1.24353
1.24277
1.24147
1.23961
1.2372
1.23426
1.23081
1.22685
1.2224
1.2175
1.21218
1.20645
1.20037
1.19398
1.18732
1.18045
1.17342
1.16629
1.15912
1.15198
1.14493
1.13803
1.13134
1.12491
1.1188
1.11304
1.10766
1.10268
1.09811
1.09394
1.09018
1.08679
1.08375
1.08102
1.07857
1.07636
1.07434
1.07249
1.07077
1.06915
1.0676
1.06612
1.06469
1.0633
1.06196
1.06067
1.05943
1.05826
1.05716
1.05615
1.05524
1.05443
1.05374
1.05318
1.05275
1.05244
1.05228
1.05223
1.05231
1.0525
1.05278
1.05315
1.05358
1.05404
1.05453
1.05502
1.05549
1.05592
1.05628
1.05657
1.05677
1.05687
1.10835
1.10854
1.10893
1.10951
1.11029
1.11126
1.11243
1.1138
1.11536
1.11712
1.11908
1.12125
1.12361
1.12619
1.12899
1.132
1.13525
1.13872
1.14243
1.14638
1.15058
1.15501
1.15969
1.16459
1.1697
1.17501
1.18048
1.18609
1.1918
1.19758
1.20337
1.20913
1.21483
1.2204
1.22582
1.23103
1.23598
1.24065
1.245
1.24898
1.25258
1.25576
1.2585
1.26078
1.26258
1.26389
1.26471
1.26501
1.2648
1.26408
1.26284
1.2611
1.25885
1.25611
1.25289
1.24921
1.24509
1.24054
1.23561
1.23032
1.2247
1.2188
1.21266
1.20633
1.19985
1.19328
1.18667
1.18008
1.17357
1.16718
1.16097
1.15499
1.14927
1.14386
1.13877
1.13402
1.12963
1.12559
1.12189
1.11853
1.11548
1.11271
1.1102
1.1079
1.1058
1.10386
1.10206
1.10036
1.09876
1.09723
1.09577
1.09437
1.09303
1.09175
1.09053
1.08938
1.08831
1.08732
1.08642
1.08563
1.08495
1.08438
1.08393
1.08359
1.08338
1.08327
1.08327
1.08337
1.08356
1.08381
1.08413
1.08448
1.08485
1.08523
1.08559
1.08592
1.08621
1.08644
1.08659
1.08667
1.14048
1.14067
1.14104
1.14161
1.14236
1.1433
1.14443
1.14575
1.14726
1.14897
1.15086
1.15295
1.15524
1.15773
1.16043
1.16333
1.16645
1.16977
1.17332
1.17709
1.18107
1.18528
1.18968
1.19429
1.19908
1.20404
1.20913
1.21434
1.21963
1.22496
1.2303
1.23561
1.24085
1.24598
1.25095
1.25573
1.26028
1.26457
1.26855
1.2722
1.2755
1.27841
1.28091
1.283
1.28464
1.28583
1.28655
1.28681
1.28659
1.2859
1.28473
1.28309
1.28099
1.27844
1.27544
1.27202
1.26819
1.26398
1.25941
1.25451
1.24932
1.24387
1.2382
1.23235
1.22637
1.2203
1.2142
1.20811
1.20208
1.19615
1.19038
1.1848
1.17945
1.17435
1.16953
1.16501
1.16079
1.15688
1.15328
1.14996
1.14693
1.14415
1.1416
1.13926
1.1371
1.1351
1.13324
1.13149
1.12984
1.12828
1.1268
1.12539
1.12404
1.12276
1.12155
1.12042
1.11936
1.11839
1.11751
1.11673
1.11604
1.11546
1.11499
1.11462
1.11436
1.1142
1.11414
1.11416
1.11426
1.11442
1.11464
1.11489
1.11516
1.11545
1.11572
1.11598
1.1162
1.11637
1.11649
1.11655
1.17242
1.17261
1.17297
1.17351
1.17424
1.17515
1.17624
1.17752
1.17898
1.18062
1.18245
1.18447
1.18667
1.18907
1.19166
1.19445
1.19743
1.20061
1.204
1.20758
1.21136
1.21533
1.21948
1.22381
1.2283
1.23292
1.23766
1.2425
1.2474
1.25233
1.25727
1.26216
1.26699
1.2717
1.27628
1.28067
1.28485
1.28878
1.29243
1.29578
1.2988
1.30146
1.30376
1.30566
1.30715
1.30822
1.30887
1.30909
1.30886
1.30819
1.30709
1.30555
1.30359
1.3012
1.29841
1.29523
1.29167
1.28777
1.28353
1.279
1.27419
1.26915
1.26391
1.2585
1.25297
1.24736
1.24172
1.23608
1.23048
1.22498
1.2196
1.21438
1.20936
1.20456
1.2
1.19569
1.19165
1.18788
1.18437
1.18112
1.17812
1.17535
1.17279
1.17043
1.16824
1.1662
1.1643
1.16252
1.16084
1.15925
1.15775
1.15633
1.15498
1.15371
1.15251
1.15138
1.15034
1.14938
1.1485
1.14772
1.14703
1.14644
1.14595
1.14555
1.14525
1.14504
1.14492
1.14487
1.14489
1.14498
1.14511
1.14528
1.14547
1.14567
1.14587
1.14606
1.14623
1.14636
1.14645
1.1465
1.20419
1.20436
1.20471
1.20524
1.20594
1.20682
1.20787
1.2091
1.2105
1.21209
1.21385
1.21579
1.21791
1.22021
1.22269
1.22536
1.22821
1.23125
1.23447
1.23787
1.24145
1.2452
1.24911
1.25317
1.25737
1.26169
1.26611
1.2706
1.27514
1.27971
1.28427
1.28878
1.29323
1.29757
1.30178
1.30582
1.30966
1.31326
1.31662
1.31969
1.32245
1.32489
1.32699
1.32872
1.33008
1.33105
1.33162
1.3318
1.33157
1.33093
1.32988
1.32844
1.3266
1.32437
1.32177
1.31881
1.31551
1.31188
1.30796
1.30375
1.2993
1.29463
1.28978
1.28478
1.27966
1.27446
1.26923
1.264
1.2588
1.25367
1.24865
1.24377
1.23906
1.23453
1.23021
1.22611
1.22224
1.2186
1.2152
1.21203
1.20908
1.20634
1.20379
1.20143
1.19922
1.19717
1.19524
1.19344
1.19174
1.19014
1.18863
1.1872
1.18585
1.18458
1.18338
1.18227
1.18123
1.18027
1.1794
1.17862
1.17792
1.17732
1.17681
1.17638
1.17604
1.17579
1.17561
1.17551
1.17547
1.17549
1.17555
1.17564
1.17577
1.1759
1.17604
1.17617
1.17629
1.17638
1.17645
1.17649
1.23577
1.23594
1.23628
1.23679
1.23746
1.23831
1.23932
1.2405
1.24185
1.24338
1.24507
1.24693
1.24896
1.25117
1.25355
1.25609
1.25881
1.2617
1.26476
1.26799
1.27137
1.2749
1.27858
1.28239
1.28632
1.29035
1.29447
1.29865
1.30286
1.30709
1.31131
1.31548
1.31958
1.32358
1.32745
1.33117
1.33469
1.33801
1.34109
1.3439
1.34644
1.34867
1.35058
1.35216
1.35339
1.35427
1.35478
1.35491
1.35468
1.35407
1.35308
1.35172
1.35
1.34792
1.3455
1.34274
1.33967
1.3363
1.33265
1.32876
1.32463
1.3203
1.3158
1.31117
1.30642
1.3016
1.29674
1.29188
1.28704
1.28226
1.27757
1.273
1.26856
1.26429
1.2602
1.25629
1.25259
1.2491
1.24581
1.24272
1.23983
1.23714
1.23461
1.23226
1.23006
1.228
1.22607
1.22425
1.22255
1.22094
1.21942
1.21799
1.21664
1.21537
1.21418
1.21307
1.21204
1.21108
1.21021
1.20943
1.20873
1.20811
1.20758
1.20712
1.20675
1.20646
1.20624
1.20609
1.20599
1.20595
1.20595
1.20599
1.20605
1.20612
1.20621
1.2063
1.20637
1.20644
1.20648
1.20651
1.26719
1.26736
1.26768
1.26817
1.26882
1.26963
1.2706
1.27174
1.27303
1.27449
1.27612
1.2779
1.27985
1.28196
1.28422
1.28666
1.28924
1.29199
1.29489
1.29794
1.30113
1.30447
1.30792
1.3115
1.31517
1.31894
1.32277
1.32666
1.33057
1.33449
1.33839
1.34224
1.34603
1.34972
1.35328
1.3567
1.35994
1.36299
1.36582
1.3684
1.37072
1.37276
1.37451
1.37595
1.37706
1.37785
1.3783
1.37841
1.37817
1.37758
1.37664
1.37537
1.37375
1.37181
1.36955
1.36698
1.36413
1.36099
1.35761
1.35399
1.35016
1.34614
1.34197
1.33766
1.33326
1.32878
1.32426
1.31974
1.31523
1.31076
1.30637
1.30208
1.29791
1.29387
1.28999
1.28628
1.28274
1.27938
1.27621
1.27322
1.2704
1.26775
1.26527
1.26294
1.26075
1.2587
1.25678
1.25496
1.25325
1.25165
1.25013
1.2487
1.24735
1.24609
1.2449
1.24379
1.24276
1.24181
1.24094
1.24015
1.23944
1.23881
1.23826
1.23779
1.23739
1.23706
1.2368
1.2366
1.23646
1.23637
1.23632
1.2363
1.23631
1.23634
1.23638
1.23643
1.23647
1.23651
1.23654
1.23656
1.29845
1.29861
1.29892
1.29939
1.30001
1.30079
1.30172
1.30281
1.30405
1.30545
1.307
1.30871
1.31057
1.31258
1.31474
1.31706
1.31952
1.32212
1.32487
1.32775
1.33077
1.3339
1.33715
1.3405
1.34394
1.34745
1.35102
1.35464
1.35827
1.3619
1.36551
1.36908
1.37257
1.37598
1.37926
1.38241
1.38539
1.38819
1.39079
1.39316
1.39528
1.39715
1.39875
1.40006
1.40107
1.40177
1.40217
1.40225
1.402
1.40144
1.40055
1.39935
1.39784
1.39602
1.39391
1.39152
1.38886
1.38594
1.38279
1.37943
1.37587
1.37214
1.36826
1.36426
1.36017
1.356
1.35179
1.34757
1.34336
1.33919
1.33508
1.33104
1.32711
1.3233
1.31962
1.31609
1.31271
1.30949
1.30643
1.30353
1.30079
1.29821
1.29577
1.29348
1.29132
1.28928
1.28737
1.28556
1.28386
1.28226
1.28075
1.27932
1.27798
1.27672
1.27554
1.27444
1.27341
1.27246
1.27159
1.2708
1.27008
1.26944
1.26887
1.26838
1.26795
1.26759
1.2673
1.26706
1.26688
1.26674
1.26665
1.26659
1.26656
1.26655
1.26655
1.26656
1.26658
1.2666
1.26661
1.26662
1.32955
1.3297
1.33
1.33045
1.33104
1.33179
1.33268
1.33372
1.33491
1.33625
1.33773
1.33936
1.34114
1.34305
1.34511
1.34731
1.34965
1.35211
1.35471
1.35743
1.36027
1.36322
1.36627
1.36941
1.37263
1.37591
1.37924
1.3826
1.38597
1.38934
1.39269
1.39598
1.39921
1.40235
1.40538
1.40828
1.41103
1.4136
1.41598
1.41816
1.4201
1.42181
1.42327
1.42446
1.42538
1.42601
1.42635
1.4264
1.42616
1.42561
1.42478
1.42364
1.42222
1.42053
1.41855
1.41632
1.41384
1.41113
1.4082
1.40506
1.40175
1.39828
1.39468
1.39095
1.38714
1.38326
1.37934
1.3754
1.37146
1.36756
1.3637
1.35991
1.3562
1.3526
1.34911
1.34575
1.34252
1.33943
1.33649
1.33369
1.33103
1.32851
1.32613
1.32388
1.32175
1.31975
1.31785
1.31606
1.31438
1.31278
1.31128
1.30986
1.30853
1.30728
1.3061
1.305
1.30398
1.30304
1.30216
1.30137
1.30064
1.29999
1.29941
1.29889
1.29845
1.29806
1.29774
1.29747
1.29725
1.29708
1.29695
1.29685
1.29678
1.29673
1.29671
1.29669
1.29669
1.29668
1.29668
1.29669
1.3605
1.36065
1.36093
1.36136
1.36193
1.36264
1.3635
1.36449
1.36563
1.36691
1.36832
1.36987
1.37156
1.37339
1.37534
1.37743
1.37964
1.38198
1.38443
1.387
1.38967
1.39244
1.3953
1.39824
1.40125
1.40431
1.40742
1.41054
1.41368
1.41681
1.4199
1.42295
1.42594
1.42884
1.43163
1.4343
1.43683
1.4392
1.44139
1.44338
1.44517
1.44673
1.44806
1.44914
1.44997
1.45053
1.45083
1.45086
1.45061
1.45009
1.44929
1.44823
1.44689
1.4453
1.44346
1.44137
1.43906
1.43653
1.4338
1.43088
1.4278
1.42457
1.42121
1.41774
1.41418
1.41057
1.4069
1.40322
1.39954
1.39587
1.39225
1.38868
1.38519
1.38178
1.37847
1.37527
1.37219
1.36923
1.3664
1.3637
1.36112
1.35868
1.35635
1.35415
1.35207
1.35009
1.34823
1.34646
1.34479
1.34322
1.34173
1.34032
1.339
1.33775
1.33659
1.33549
1.33448
1.33353
1.33266
1.33186
1.33113
1.33047
1.32987
1.32935
1.32888
1.32847
1.32812
1.32783
1.32758
1.32737
1.32721
1.32708
1.32698
1.32691
1.32685
1.32681
1.32679
1.32677
1.32676
1.32676