/*--------------------------------*- C++ -*----------------------------------*\
| =========                 |                                                 |
| \\      /  F ield         | OpenFOAM: The Open Source CFD Toolbox           |
|  \\    /   O peration     | Version:  2406                                  |
|   \\  /    A nd           | Website:  www.openfoam.com                      |
|    \\/     M anipulation  |                                                 |
\*---------------------------------------------------------------------------*/
FoamFile
{
    version     2.0;
    format      ascii;
    arch        "LSB;label=32;scalar=64";
    class       volScalarField;
    location    "6.85";
    object      Da;
}
// * * * * * * * * * * * * * * * * * * * * * * * * * * * * * * * * * * * * * //

dimensions      [0 2 -1 0 0 0 0];

internalField   nonuniform List<scalar> 
14400
(
4.60619e-05
4.60174e-05
4.5948e-05
4.58744e-05
4.58099e-05
4.57606e-05
4.57288e-05
4.57153e-05
4.57217e-05
4.57504e-05
4.58047e-05
4.58871e-05
4.59946e-05
4.61098e-05
4.61882e-05
4.61616e-05
4.59949e-05
4.57511e-05
4.54914e-05
4.52427e-05
4.50103e-05
4.47918e-05
4.45839e-05
4.43852e-05
4.41963e-05
4.40197e-05
4.38588e-05
4.37176e-05
4.36008e-05
4.35137e-05
4.34636e-05
4.34622e-05
4.35297e-05
4.37082e-05
4.41022e-05
4.50662e-05
4.85088e-05
7.66826e-05
7.8e-05
7.8e-05
7.8e-05
7.8e-05
7.8e-05
7.8e-05
7.8e-05
7.8e-05
7.8e-05
7.8e-05
7.8e-05
7.8e-05
7.8e-05
7.8e-05
7.8e-05
7.8e-05
7.8e-05
7.8e-05
7.8e-05
7.8e-05
7.8e-05
7.8e-05
6.98821e-05
4.72312e-05
4.47882e-05
4.41112e-05
4.38466e-05
4.37558e-05
4.37656e-05
4.38457e-05
4.39812e-05
4.41629e-05
4.43832e-05
4.46329e-05
4.48995e-05
4.51662e-05
4.54127e-05
4.5619e-05
4.57704e-05
4.58616e-05
4.58992e-05
4.59007e-05
4.58926e-05
4.59102e-05
4.60029e-05
4.6257e-05
4.68927e-05
4.88824e-05
6.03562e-05
7.79867e-05
6.67616e-05
4.92463e-05
4.67291e-05
4.59082e-05
4.55279e-05
4.53368e-05
4.52491e-05
4.52249e-05
4.52419e-05
4.52855e-05
4.53444e-05
4.54084e-05
4.54677e-05
4.55116e-05
4.55304e-05
4.55167e-05
4.54686e-05
4.53904e-05
4.52909e-05
4.51805e-05
4.50694e-05
4.49668e-05
4.48818e-05
4.48243e-05
4.48068e-05
4.48481e-05
4.49811e-05
4.52758e-05
4.59285e-05
4.7812e-05
5.80319e-05
7.79742e-05
4.60544e-05
4.59855e-05
4.58858e-05
4.57865e-05
4.57035e-05
4.56423e-05
4.5604e-05
4.55885e-05
4.55971e-05
4.56326e-05
4.56997e-05
4.58035e-05
4.5946e-05
4.61154e-05
4.62629e-05
4.62786e-05
4.60618e-05
4.5757e-05
4.54559e-05
4.51846e-05
4.49423e-05
4.47219e-05
4.4517e-05
4.43243e-05
4.41431e-05
4.39749e-05
4.38227e-05
4.369e-05
4.35815e-05
4.35028e-05
4.34618e-05
4.34711e-05
4.35539e-05
4.37604e-05
4.42302e-05
4.55643e-05
5.23926e-05
7.78858e-05
7.8e-05
7.8e-05
7.8e-05
7.8e-05
7.8e-05
7.8e-05
7.8e-05
7.8e-05
7.8e-05
7.8e-05
7.8e-05
7.8e-05
7.8e-05
7.8e-05
7.8e-05
7.8e-05
7.8e-05
7.8e-05
7.8e-05
7.8e-05
7.8e-05
7.8e-05
7.41807e-05
4.77582e-05
4.49763e-05
4.41905e-05
4.38821e-05
4.37682e-05
4.37623e-05
4.38291e-05
4.39515e-05
4.4119e-05
4.43233e-05
4.45549e-05
4.4802e-05
4.50488e-05
4.52773e-05
4.54698e-05
4.56137e-05
4.57045e-05
4.57488e-05
4.57629e-05
4.5772e-05
4.58106e-05
4.59287e-05
4.62171e-05
4.69177e-05
4.91936e-05
6.4673e-05
7.79987e-05
7.24929e-05
4.9847e-05
4.69027e-05
4.5956e-05
4.55217e-05
4.53012e-05
4.51943e-05
4.51564e-05
4.51634e-05
4.52e-05
4.5255e-05
4.53187e-05
4.53806e-05
4.54294e-05
4.54532e-05
4.54423e-05
4.53941e-05
4.53139e-05
4.52129e-05
4.5103e-05
4.4995e-05
4.48983e-05
4.48214e-05
4.4774e-05
4.47691e-05
4.48263e-05
4.49818e-05
4.53145e-05
4.60562e-05
4.83705e-05
6.47996e-05
7.79992e-05
4.61188e-05
4.59784e-05
4.58036e-05
4.56482e-05
4.55282e-05
4.54443e-05
4.53937e-05
4.53744e-05
4.53869e-05
4.54345e-05
4.55246e-05
4.56684e-05
4.58808e-05
4.61729e-05
4.65169e-05
4.67181e-05
4.62908e-05
4.58096e-05
4.541e-05
4.50896e-05
4.48261e-05
4.46003e-05
4.43996e-05
4.42166e-05
4.40485e-05
4.38951e-05
4.37582e-05
4.36411e-05
4.35482e-05
4.34855e-05
4.34622e-05
4.34934e-05
4.36076e-05
4.38701e-05
4.44828e-05
4.6544e-05
6.34572e-05
7.79995e-05
7.8e-05
7.8e-05
7.8e-05
7.8e-05
7.8e-05
7.8e-05
7.8e-05
7.8e-05
7.8e-05
7.8e-05
7.8e-05
7.8e-05
7.8e-05
7.8e-05
7.8e-05
7.8e-05
7.8e-05
7.8e-05
7.8e-05
7.8e-05
7.8e-05
7.8e-05
7.78529e-05
5.19069e-05
4.56231e-05
4.43844e-05
4.3962e-05
4.37979e-05
4.37601e-05
4.3801e-05
4.38985e-05
4.40398e-05
4.42153e-05
4.44152e-05
4.46285e-05
4.48415e-05
4.50397e-05
4.52091e-05
4.53403e-05
4.54306e-05
4.54863e-05
4.55223e-05
4.5562e-05
4.56393e-05
4.58071e-05
4.61697e-05
4.70185e-05
4.9795e-05
7.17047e-05
7.8e-05
7.77424e-05
5.34317e-05
4.75191e-05
4.61083e-05
4.55354e-05
4.52509e-05
4.51062e-05
4.50427e-05
4.50316e-05
4.50564e-05
4.51059e-05
4.51705e-05
4.52398e-05
4.53004e-05
4.53363e-05
4.53317e-05
4.52814e-05
4.51941e-05
4.50868e-05
4.49751e-05
4.48709e-05
4.47833e-05
4.47202e-05
4.46912e-05
4.47099e-05
4.47992e-05
4.50036e-05
4.54277e-05
4.6398e-05
4.95448e-05
7.43614e-05
7.8e-05
4.6496e-05
4.61225e-05
4.57773e-05
4.552e-05
4.53409e-05
4.52235e-05
4.51554e-05
4.51306e-05
4.5148e-05
4.52121e-05
4.53338e-05
4.55354e-05
4.58583e-05
4.63853e-05
4.72951e-05
4.88296e-05
4.69936e-05
4.60001e-05
4.53989e-05
4.49923e-05
4.46927e-05
4.44557e-05
4.42572e-05
4.40845e-05
4.39314e-05
4.37958e-05
4.36784e-05
4.35817e-05
4.351e-05
4.34702e-05
4.34735e-05
4.35394e-05
4.37076e-05
4.40735e-05
4.49507e-05
4.80213e-05
7.52706e-05
7.8e-05
7.8e-05
7.8e-05
7.8e-05
7.8e-05
7.8e-05
7.8e-05
7.8e-05
7.8e-05
7.8e-05
7.8e-05
7.8e-05
7.8e-05
7.8e-05
7.8e-05
7.8e-05
7.8e-05
7.8e-05
7.8e-05
7.8e-05
7.8e-05
7.8e-05
7.8e-05
7.79999e-05
6.61098e-05
4.69022e-05
4.4718e-05
4.41002e-05
4.38548e-05
4.37676e-05
4.37704e-05
4.38333e-05
4.39398e-05
4.40784e-05
4.42391e-05
4.44118e-05
4.45853e-05
4.47486e-05
4.48918e-05
4.50088e-05
4.5099e-05
4.51687e-05
4.52316e-05
4.53101e-05
4.54396e-05
4.56825e-05
4.61823e-05
4.74328e-05
5.23693e-05
7.75255e-05
7.8e-05
7.8e-05
6.92864e-05
4.91282e-05
4.64734e-05
4.56187e-05
4.5224e-05
4.50212e-05
4.49214e-05
4.48865e-05
4.48973e-05
4.49424e-05
4.50127e-05
4.50981e-05
4.51832e-05
4.52445e-05
4.52518e-05
4.51933e-05
4.5086e-05
4.49609e-05
4.48397e-05
4.47356e-05
4.46568e-05
4.46103e-05
4.46055e-05
4.46583e-05
4.47982e-05
4.50903e-05
4.57204e-05
4.75924e-05
5.99559e-05
7.79936e-05
7.8e-05
4.84192e-05
4.67264e-05
4.59244e-05
4.54745e-05
4.52019e-05
4.50364e-05
4.49442e-05
4.49115e-05
4.49352e-05
4.50209e-05
4.51861e-05
4.54723e-05
4.59768e-05
4.7001e-05
5.01061e-05
7.0199e-05
4.95306e-05
4.65364e-05
4.5491e-05
4.49347e-05
4.4577e-05
4.43189e-05
4.41176e-05
4.39522e-05
4.38129e-05
4.36953e-05
4.35989e-05
4.35254e-05
4.34795e-05
4.34692e-05
4.35093e-05
4.36283e-05
4.38914e-05
4.4497e-05
4.64962e-05
6.30224e-05
7.79995e-05
7.8e-05
7.8e-05
7.8e-05
7.8e-05
7.8e-05
7.8e-05
7.8e-05
7.8e-05
7.8e-05
7.8e-05
7.8e-05
7.8e-05
7.8e-05
7.8e-05
7.8e-05
7.8e-05
7.8e-05
7.8e-05
7.8e-05
7.8e-05
7.8e-05
7.8e-05
7.8e-05
7.8e-05
7.71729e-05
4.91735e-05
4.53326e-05
4.43471e-05
4.39627e-05
4.38001e-05
4.37506e-05
4.377e-05
4.38357e-05
4.39336e-05
4.4053e-05
4.41846e-05
4.43195e-05
4.44495e-05
4.45683e-05
4.46727e-05
4.47639e-05
4.48488e-05
4.4941e-05
4.5064e-05
4.52581e-05
4.56053e-05
4.63361e-05
4.86287e-05
6.60997e-05
7.79996e-05
7.8e-05
7.8e-05
7.79374e-05
5.55974e-05
4.74543e-05
4.58753e-05
4.52797e-05
4.49876e-05
4.48372e-05
4.47726e-05
4.47687e-05
4.48131e-05
4.48984e-05
4.50171e-05
4.51531e-05
4.52746e-05
4.53086e-05
4.52236e-05
4.50614e-05
4.48922e-05
4.47451e-05
4.4632e-05
4.45581e-05
4.45288e-05
4.4554e-05
4.46542e-05
4.48736e-05
4.53202e-05
4.63424e-05
4.98485e-05
7.63547e-05
7.8e-05
7.8e-05
6.61363e-05
4.9125e-05
4.65066e-05
4.56156e-05
4.51764e-05
4.49357e-05
4.4807e-05
4.47624e-05
4.47951e-05
4.4913e-05
4.51456e-05
4.55792e-05
4.64723e-05
4.91751e-05
6.94884e-05
7.79996e-05
6.5257e-05
4.81803e-05
4.58107e-05
4.49681e-05
4.45144e-05
4.42194e-05
4.40061e-05
4.38422e-05
4.37129e-05
4.36116e-05
4.35362e-05
4.34882e-05
4.34726e-05
4.35001e-05
4.35919e-05
4.3794e-05
4.42264e-05
4.53562e-05
5.05098e-05
7.77407e-05
7.8e-05
7.8e-05
7.8e-05
7.8e-05
7.8e-05
7.8e-05
7.8e-05
7.8e-05
7.8e-05
7.8e-05
7.8e-05
7.8e-05
7.8e-05
7.8e-05
7.8e-05
7.8e-05
7.8e-05
7.8e-05
7.8e-05
7.8e-05
7.8e-05
7.8e-05
7.8e-05
7.8e-05
7.8e-05
7.8e-05
6.90655e-05
4.7307e-05
4.48745e-05
4.41724e-05
4.38822e-05
4.37593e-05
4.3725e-05
4.37449e-05
4.38004e-05
4.38793e-05
4.39727e-05
4.40731e-05
4.41747e-05
4.42735e-05
4.43686e-05
4.4463e-05
4.45647e-05
4.4689e-05
4.48638e-05
4.51422e-05
4.56464e-05
4.67677e-05
5.06903e-05
7.69707e-05
7.8e-05
7.8e-05
7.8e-05
7.8e-05
7.63489e-05
5.00462e-05
4.65521e-05
4.55271e-05
4.5077e-05
4.48455e-05
4.47392e-05
4.4719e-05
4.47699e-05
4.48881e-05
4.50774e-05
4.53306e-05
4.56378e-05
4.57602e-05
4.55745e-05
4.52348e-05
4.49562e-05
4.47474e-05
4.46073e-05
4.45305e-05
4.45192e-05
4.45845e-05
4.47587e-05
4.51288e-05
4.59712e-05
4.8726e-05
7.09251e-05
7.8e-05
7.8e-05
7.8e-05
7.79996e-05
6.653e-05
4.8771e-05
4.62066e-05
4.53709e-05
4.49902e-05
4.47954e-05
4.47299e-05
4.47778e-05
4.49538e-05
4.53139e-05
4.60954e-05
4.83738e-05
6.26878e-05
7.79983e-05
7.8e-05
7.78555e-05
5.32002e-05
4.66324e-05
4.51749e-05
4.45505e-05
4.41894e-05
4.39487e-05
4.37764e-05
4.36509e-05
4.35627e-05
4.35085e-05
4.34894e-05
4.35119e-05
4.3592e-05
4.37644e-05
4.41206e-05
4.4955e-05
4.79012e-05
7.50099e-05
7.8e-05
7.8e-05
7.8e-05
7.8e-05
7.8e-05
7.8e-05
7.8e-05
7.8e-05
7.8e-05
7.8e-05
7.8e-05
7.8e-05
7.8e-05
7.8e-05
7.8e-05
7.8e-05
7.8e-05
7.8e-05
7.8e-05
7.8e-05
7.8e-05
7.8e-05
7.8e-05
7.8e-05
7.8e-05
7.8e-05
7.8e-05
7.79898e-05
5.71276e-05
4.62284e-05
4.4588e-05
4.40547e-05
4.38214e-05
4.37179e-05
4.36851e-05
4.36961e-05
4.37359e-05
4.37946e-05
4.38654e-05
4.39439e-05
4.40278e-05
4.41179e-05
4.42189e-05
4.43409e-05
4.45033e-05
4.47445e-05
4.51517e-05
4.59821e-05
4.85369e-05
6.87264e-05
7.8e-05
7.8e-05
7.8e-05
7.8e-05
7.8e-05
7.8e-05
7.35209e-05
4.92852e-05
4.63157e-05
4.54521e-05
4.50419e-05
4.48607e-05
4.48169e-05
4.48886e-05
4.50801e-05
4.54469e-05
4.60339e-05
4.73364e-05
4.80359e-05
4.71722e-05
4.59078e-05
4.53056e-05
4.4939e-05
4.47323e-05
4.46366e-05
4.46481e-05
4.47793e-05
4.50969e-05
4.58496e-05
4.83452e-05
6.62341e-05
7.79998e-05
7.8e-05
7.8e-05
7.8e-05
7.8e-05
7.79995e-05
6.54004e-05
4.85991e-05
4.60961e-05
4.53646e-05
4.50056e-05
4.48946e-05
4.49751e-05
4.52908e-05
4.5975e-05
4.8155e-05
6.02746e-05
7.79932e-05
7.8e-05
7.8e-05
7.8e-05
7.55645e-05
4.90677e-05
4.57972e-05
4.47775e-05
4.42798e-05
4.39798e-05
4.37812e-05
4.36497e-05
4.35709e-05
4.35396e-05
4.35577e-05
4.36352e-05
4.38023e-05
4.4129e-05
4.48895e-05
4.75362e-05
7.10754e-05
7.8e-05
7.8e-05
7.8e-05
7.8e-05
7.8e-05
7.8e-05
7.8e-05
7.8e-05
7.8e-05
7.8e-05
7.8e-05
7.8e-05
7.8e-05
7.8e-05
7.8e-05
7.8e-05
7.8e-05
7.8e-05
7.8e-05
7.8e-05
7.8e-05
7.8e-05
7.8e-05
7.8e-05
7.8e-05
7.8e-05
7.8e-05
7.8e-05
7.8e-05
7.76217e-05
5.00938e-05
4.54843e-05
4.44046e-05
4.39815e-05
4.3778e-05
4.36781e-05
4.36384e-05
4.36379e-05
4.3664e-05
4.37091e-05
4.37692e-05
4.38433e-05
4.39335e-05
4.40466e-05
4.41963e-05
4.44096e-05
4.47475e-05
4.53816e-05
4.70703e-05
5.67093e-05
7.79749e-05
7.8e-05
7.8e-05
7.8e-05
7.8e-05
7.8e-05
7.8e-05
7.8e-05
7.3296e-05
4.94833e-05
4.67758e-05
4.5694e-05
4.53218e-05
4.52228e-05
4.5361e-05
4.57518e-05
4.68358e-05
4.88603e-05
6.08147e-05
6.98141e-05
5.9197e-05
4.85957e-05
4.65314e-05
4.55786e-05
4.51817e-05
4.50154e-05
4.5076e-05
4.53665e-05
4.6086e-05
4.8543e-05
6.67089e-05
7.79997e-05
7.8e-05
7.8e-05
7.8e-05
7.8e-05
7.8e-05
7.8e-05
7.79996e-05
6.86953e-05
4.90502e-05
4.68377e-05
4.5735e-05
4.54946e-05
4.56659e-05
4.65531e-05
4.8665e-05
6.39182e-05
7.79942e-05
7.8e-05
7.8e-05
7.8e-05
7.8e-05
7.8e-05
7.17862e-05
4.83587e-05
4.54984e-05
4.46111e-05
4.41683e-05
4.39026e-05
4.37459e-05
4.36713e-05
4.367e-05
4.37486e-05
4.3926e-05
4.4289e-05
4.50205e-05
4.7612e-05
7.00616e-05
7.8e-05
7.8e-05
7.8e-05
7.8e-05
7.8e-05
7.8e-05
7.8e-05
7.8e-05
7.8e-05
7.8e-05
7.8e-05
7.8e-05
7.8e-05
7.8e-05
7.8e-05
7.8e-05
7.8e-05
7.8e-05
7.8e-05
7.8e-05
7.8e-05
7.8e-05
7.8e-05
7.8e-05
7.8e-05
7.8e-05
7.8e-05
7.8e-05
7.8e-05
7.8e-05
7.8e-05
7.62218e-05
4.841e-05
4.52339e-05
4.43507e-05
4.39631e-05
4.37585e-05
4.36509e-05
4.36034e-05
4.35955e-05
4.36164e-05
4.36616e-05
4.37309e-05
4.3828e-05
4.39628e-05
4.41564e-05
4.44504e-05
4.49563e-05
4.60682e-05
5.00834e-05
7.72056e-05
7.8e-05
7.8e-05
7.8e-05
7.8e-05
7.8e-05
7.8e-05
7.8e-05
7.8e-05
7.8e-05
7.61087e-05
5.47242e-05
4.8192e-05
4.69773e-05
4.65842e-05
4.71159e-05
4.83585e-05
5.57477e-05
7.43716e-05
7.79969e-05
7.8e-05
7.79933e-05
7.31465e-05
5.33564e-05
4.80309e-05
4.67545e-05
4.61679e-05
4.64804e-05
4.75555e-05
5.02821e-05
7.23561e-05
7.79999e-05
7.8e-05
7.8e-05
7.8e-05
7.8e-05
7.8e-05
7.8e-05
7.8e-05
7.8e-05
7.8e-05
7.49337e-05
5.71148e-05
4.85655e-05
4.78548e-05
4.83481e-05
5.40768e-05
7.25526e-05
7.79993e-05
7.8e-05
7.8e-05
7.8e-05
7.8e-05
7.8e-05
7.8e-05
7.8e-05
7.09166e-05
4.83234e-05
4.56207e-05
4.47199e-05
4.42519e-05
4.40197e-05
4.39404e-05
4.39925e-05
4.4215e-05
4.46484e-05
4.58116e-05
4.83613e-05
7.29558e-05
7.8e-05
7.8e-05
7.8e-05
7.8e-05
7.8e-05
7.8e-05
7.8e-05
7.8e-05
7.8e-05
7.8e-05
7.8e-05
7.8e-05
7.8e-05
7.8e-05
7.8e-05
7.8e-05
7.8e-05
7.8e-05
7.8e-05
7.8e-05
7.8e-05
7.8e-05
7.8e-05
7.8e-05
7.8e-05
7.8e-05
7.8e-05
7.8e-05
7.8e-05
7.8e-05
7.8e-05
7.8e-05
7.8e-05
7.51048e-05
4.82957e-05
4.53346e-05
4.44342e-05
4.40023e-05
4.37768e-05
4.36621e-05
4.3612e-05
4.36058e-05
4.36378e-05
4.37087e-05
4.38239e-05
4.40001e-05
4.42775e-05
4.47363e-05
4.56712e-05
4.87699e-05
7.50196e-05
7.8e-05
7.8e-05
7.8e-05
7.8e-05
7.8e-05
7.8e-05
7.8e-05
7.8e-05
7.8e-05
7.8e-05
7.8e-05
7.79422e-05
6.99755e-05
5.78168e-05
5.35016e-05
5.94644e-05
7.15225e-05
7.79653e-05
7.8e-05
7.8e-05
7.8e-05
7.8e-05
7.8e-05
7.78909e-05
6.96638e-05
5.67566e-05
5.10566e-05
5.42346e-05
6.6205e-05
7.73797e-05
7.8e-05
7.8e-05
7.8e-05
7.8e-05
7.8e-05
7.8e-05
7.8e-05
7.8e-05
7.8e-05
7.8e-05
7.8e-05
7.8e-05
7.79829e-05
7.45267e-05
6.96851e-05
7.34391e-05
7.79257e-05
7.8e-05
7.8e-05
7.8e-05
7.8e-05
7.8e-05
7.8e-05
7.8e-05
7.8e-05
7.8e-05
7.8e-05
7.43305e-05
5.02003e-05
4.67559e-05
4.52323e-05
4.47253e-05
4.46192e-05
4.48076e-05
4.56773e-05
4.72303e-05
5.6179e-05
7.67186e-05
7.8e-05
7.8e-05
7.8e-05
7.8e-05
7.8e-05
7.8e-05
7.8e-05
7.8e-05
7.8e-05
7.8e-05
7.8e-05
7.8e-05
7.8e-05
7.8e-05
7.8e-05
7.8e-05
7.8e-05
7.8e-05
7.8e-05
7.8e-05
7.8e-05
7.8e-05
7.8e-05
7.8e-05
7.8e-05
7.8e-05
7.8e-05
7.8e-05
7.8e-05
7.8e-05
7.8e-05
7.8e-05
7.8e-05
7.8e-05
7.8e-05
7.59917e-05
4.9491e-05
4.59448e-05
4.46447e-05
4.41213e-05
4.38816e-05
4.37637e-05
4.37165e-05
4.37338e-05
4.38175e-05
4.39763e-05
4.42413e-05
4.47337e-05
4.56826e-05
4.85887e-05
7.37352e-05
7.8e-05
7.8e-05
7.8e-05
7.8e-05
7.8e-05
7.8e-05
7.8e-05
7.8e-05
7.8e-05
7.8e-05
7.8e-05
7.8e-05
7.8e-05
7.8e-05
7.79847e-05
7.78771e-05
7.79931e-05
7.8e-05
7.8e-05
7.8e-05
7.8e-05
7.8e-05
7.8e-05
7.8e-05
7.8e-05
7.8e-05
7.79768e-05
7.75824e-05
7.79237e-05
7.79998e-05
7.8e-05
7.8e-05
7.8e-05
7.8e-05
7.8e-05
7.8e-05
7.8e-05
7.8e-05
7.8e-05
7.8e-05
7.8e-05
7.8e-05
7.8e-05
7.8e-05
7.8e-05
7.8e-05
7.8e-05
7.8e-05
7.8e-05
7.8e-05
7.8e-05
7.8e-05
7.8e-05
7.8e-05
7.8e-05
7.8e-05
7.8e-05
7.8e-05
7.8e-05
7.7591e-05
6.45877e-05
4.92997e-05
4.7279e-05
4.70796e-05
4.77297e-05
5.5112e-05
7.10212e-05
7.79869e-05
7.8e-05
7.8e-05
7.8e-05
7.8e-05
7.8e-05
7.8e-05
7.8e-05
7.8e-05
7.8e-05
7.8e-05
7.8e-05
7.8e-05
7.8e-05
7.8e-05
7.8e-05
7.8e-05
7.8e-05
7.8e-05
7.8e-05
7.8e-05
7.8e-05
7.8e-05
7.8e-05
7.8e-05
7.8e-05
7.8e-05
7.8e-05
7.8e-05
7.8e-05
7.8e-05
7.8e-05
7.8e-05
7.8e-05
7.8e-05
7.8e-05
7.8e-05
7.8e-05
7.74915e-05
5.5969e-05
4.69675e-05
4.50529e-05
4.44777e-05
4.41994e-05
4.40515e-05
4.40415e-05
4.41716e-05
4.44591e-05
4.49671e-05
4.64271e-05
4.99771e-05
7.54004e-05
7.8e-05
7.8e-05
7.8e-05
7.8e-05
7.8e-05
7.8e-05
7.8e-05
7.8e-05
7.8e-05
7.8e-05
7.8e-05
7.8e-05
7.8e-05
7.8e-05
7.8e-05
7.8e-05
7.8e-05
7.8e-05
7.8e-05
7.8e-05
7.8e-05
7.8e-05
7.8e-05
7.8e-05
7.8e-05
7.8e-05
7.8e-05
7.8e-05
7.8e-05
7.8e-05
7.8e-05
7.8e-05
7.8e-05
7.8e-05
7.8e-05
7.8e-05
7.8e-05
7.8e-05
7.8e-05
7.8e-05
7.8e-05
7.8e-05
7.8e-05
7.8e-05
7.8e-05
7.8e-05
7.8e-05
7.8e-05
7.8e-05
7.8e-05
7.8e-05
7.8e-05
7.8e-05
7.8e-05
7.8e-05
7.8e-05
7.8e-05
7.8e-05
7.8e-05
7.8e-05
7.8e-05
7.79997e-05
7.73546e-05
7.23374e-05
7.12348e-05
7.55227e-05
7.79764e-05
7.8e-05
7.8e-05
7.8e-05
7.8e-05
7.8e-05
7.8e-05
7.8e-05
7.8e-05
7.8e-05
7.8e-05
7.8e-05
7.8e-05
7.8e-05
7.8e-05
7.8e-05
7.8e-05
7.8e-05
7.8e-05
7.8e-05
7.8e-05
7.8e-05
7.8e-05
7.8e-05
7.8e-05
7.8e-05
7.8e-05
7.8e-05
7.8e-05
7.8e-05
7.8e-05
7.8e-05
7.8e-05
7.8e-05
7.8e-05
7.8e-05
7.8e-05
7.8e-05
7.8e-05
7.8e-05
7.8e-05
7.79848e-05
6.83959e-05
4.87727e-05
4.66721e-05
4.5631e-05
4.4981e-05
4.48737e-05
4.52212e-05
4.61992e-05
4.77188e-05
5.95308e-05
7.752e-05
7.8e-05
7.8e-05
7.8e-05
7.8e-05
7.8e-05
7.8e-05
7.8e-05
7.8e-05
7.8e-05
7.8e-05
7.8e-05
7.8e-05
7.8e-05
7.8e-05
7.8e-05
7.8e-05
7.8e-05
7.8e-05
7.8e-05
7.8e-05
7.8e-05
7.8e-05
7.8e-05
7.8e-05
7.8e-05
7.8e-05
7.8e-05
7.8e-05
7.8e-05
7.8e-05
7.8e-05
7.8e-05
7.8e-05
7.8e-05
7.8e-05
7.8e-05
7.8e-05
7.8e-05
7.8e-05
7.8e-05
7.8e-05
7.8e-05
7.8e-05
7.8e-05
7.8e-05
7.8e-05
7.8e-05
7.8e-05
7.8e-05
7.8e-05
7.8e-05
7.8e-05
7.8e-05
7.8e-05
7.8e-05
7.8e-05
7.8e-05
7.8e-05
7.8e-05
7.8e-05
7.8e-05
7.8e-05
7.8e-05
7.8e-05
7.8e-05
7.8e-05
7.8e-05
7.8e-05
7.8e-05
7.8e-05
7.8e-05
7.8e-05
7.8e-05
7.8e-05
7.8e-05
7.8e-05
7.8e-05
7.8e-05
7.8e-05
7.8e-05
7.8e-05
7.8e-05
7.8e-05
7.8e-05
7.8e-05
7.8e-05
7.8e-05
7.8e-05
7.8e-05
7.8e-05
7.8e-05
7.8e-05
7.8e-05
7.8e-05
7.8e-05
7.8e-05
7.8e-05
7.8e-05
7.8e-05
7.8e-05
7.8e-05
7.8e-05
7.8e-05
7.8e-05
7.8e-05
7.8e-05
7.8e-05
7.8e-05
7.8e-05
7.8e-05
7.71611e-05
6.67387e-05
5.45136e-05
4.86289e-05
4.79372e-05
4.98927e-05
5.94953e-05
7.30385e-05
7.79967e-05
7.8e-05
7.8e-05
7.8e-05
7.8e-05
7.8e-05
7.8e-05
7.8e-05
7.8e-05
7.8e-05
7.8e-05
7.8e-05
7.8e-05
7.8e-05
7.8e-05
7.8e-05
7.8e-05
7.8e-05
7.8e-05
7.8e-05
7.8e-05
7.8e-05
7.8e-05
7.8e-05
7.8e-05
7.8e-05
7.8e-05
7.8e-05
7.8e-05
7.8e-05
7.8e-05
7.8e-05
7.8e-05
7.8e-05
7.8e-05
7.8e-05
7.8e-05
7.8e-05
7.8e-05
7.8e-05
7.8e-05
7.8e-05
7.8e-05
7.8e-05
7.8e-05
7.8e-05
7.8e-05
7.8e-05
7.8e-05
7.8e-05
7.8e-05
7.8e-05
7.8e-05
7.8e-05
7.8e-05
7.8e-05
7.8e-05
7.8e-05
7.8e-05
7.8e-05
7.8e-05
7.8e-05
7.8e-05
7.8e-05
7.8e-05
7.8e-05
7.8e-05
7.8e-05
7.8e-05
7.8e-05
7.8e-05
7.8e-05
7.8e-05
7.8e-05
7.8e-05
7.8e-05
7.8e-05
7.8e-05
7.8e-05
7.8e-05
7.8e-05
7.8e-05
7.8e-05
7.8e-05
7.8e-05
7.8e-05
7.8e-05
7.8e-05
7.8e-05
7.8e-05
7.8e-05
7.8e-05
7.8e-05
7.8e-05
7.8e-05
7.8e-05
7.8e-05
7.8e-05
7.8e-05
7.8e-05
7.8e-05
7.8e-05
7.8e-05
7.8e-05
7.8e-05
7.8e-05
7.8e-05
7.8e-05
7.8e-05
7.8e-05
7.8e-05
7.8e-05
7.8e-05
7.79999e-05
7.79656e-05
7.70716e-05
7.61747e-05
7.75895e-05
7.79964e-05
7.8e-05
7.8e-05
7.8e-05
7.8e-05
7.8e-05
7.8e-05
7.8e-05
7.8e-05
7.8e-05
7.8e-05
7.8e-05
7.8e-05
7.8e-05
7.8e-05
7.8e-05
7.8e-05
7.8e-05
7.8e-05
7.8e-05
7.8e-05
7.8e-05
7.8e-05
7.8e-05
7.8e-05
7.8e-05
7.8e-05
7.8e-05
7.8e-05
7.8e-05
7.8e-05
7.8e-05
7.8e-05
7.8e-05
7.8e-05
7.8e-05
7.8e-05
7.8e-05
7.8e-05
7.8e-05
7.8e-05
7.8e-05
7.8e-05
7.8e-05
7.8e-05
7.8e-05
7.8e-05
7.8e-05
7.8e-05
7.8e-05
7.8e-05
7.8e-05
7.8e-05
7.8e-05
7.8e-05
7.8e-05
7.8e-05
7.8e-05
7.8e-05
7.8e-05
7.8e-05
7.8e-05
7.8e-05
7.8e-05
7.8e-05
7.8e-05
7.8e-05
7.8e-05
7.8e-05
7.8e-05
7.8e-05
7.8e-05
7.8e-05
7.8e-05
7.8e-05
7.8e-05
7.8e-05
7.8e-05
7.8e-05
7.8e-05
7.8e-05
7.8e-05
7.8e-05
7.8e-05
7.8e-05
7.8e-05
7.8e-05
7.8e-05
7.8e-05
7.8e-05
7.8e-05
7.8e-05
7.8e-05
7.8e-05
7.8e-05
7.8e-05
7.8e-05
7.8e-05
7.8e-05
7.8e-05
7.8e-05
7.8e-05
7.8e-05
7.8e-05
7.8e-05
7.8e-05
7.8e-05
7.8e-05
7.8e-05
7.8e-05
7.8e-05
7.8e-05
7.8e-05
7.8e-05
7.8e-05
7.8e-05
7.8e-05
7.8e-05
7.8e-05
7.8e-05
7.8e-05
7.8e-05
7.8e-05
7.8e-05
7.8e-05
7.8e-05
7.8e-05
7.8e-05
7.8e-05
7.8e-05
7.8e-05
7.8e-05
7.8e-05
7.8e-05
7.8e-05
7.8e-05
7.8e-05
7.8e-05
7.8e-05
7.8e-05
7.8e-05
7.8e-05
7.8e-05
7.8e-05
7.8e-05
7.8e-05
7.8e-05
7.8e-05
7.8e-05
7.8e-05
7.8e-05
7.8e-05
7.8e-05
7.8e-05
7.8e-05
7.8e-05
7.8e-05
7.8e-05
7.8e-05
7.8e-05
7.8e-05
7.8e-05
7.8e-05
7.8e-05
7.8e-05
7.8e-05
7.8e-05
7.8e-05
7.8e-05
7.8e-05
7.8e-05
7.8e-05
7.8e-05
7.8e-05
7.8e-05
7.8e-05
7.8e-05
7.8e-05
7.8e-05
7.8e-05
7.8e-05
7.8e-05
7.8e-05
7.8e-05
7.8e-05
7.8e-05
7.8e-05
7.8e-05
7.8e-05
7.8e-05
7.8e-05
7.8e-05
7.8e-05
7.8e-05
7.8e-05
7.8e-05
7.8e-05
7.8e-05
7.8e-05
7.8e-05
7.8e-05
7.8e-05
7.8e-05
7.8e-05
7.8e-05
7.8e-05
7.8e-05
7.8e-05
7.8e-05
7.8e-05
7.8e-05
7.8e-05
7.8e-05
7.8e-05
7.8e-05
7.8e-05
7.8e-05
7.8e-05
7.8e-05
7.8e-05
7.8e-05
7.8e-05
7.8e-05
7.8e-05
7.8e-05
7.8e-05
7.8e-05
7.8e-05
7.8e-05
7.8e-05
7.8e-05
7.8e-05
7.8e-05
7.8e-05
7.8e-05
7.8e-05
7.8e-05
7.8e-05
7.8e-05
7.8e-05
7.8e-05
7.8e-05
7.8e-05
7.8e-05
7.8e-05
7.8e-05
7.8e-05
7.8e-05
7.8e-05
7.8e-05
7.8e-05
7.8e-05
7.8e-05
7.8e-05
7.8e-05
7.8e-05
7.8e-05
7.8e-05
7.8e-05
7.8e-05
7.8e-05
7.8e-05
7.8e-05
7.8e-05
7.8e-05
7.8e-05
7.8e-05
7.8e-05
7.8e-05
7.8e-05
7.8e-05
7.8e-05
7.8e-05
7.8e-05
7.8e-05
7.8e-05
7.8e-05
7.8e-05
7.8e-05
7.8e-05
7.8e-05
7.8e-05
7.8e-05
7.8e-05
7.8e-05
7.8e-05
7.8e-05
7.8e-05
7.8e-05
7.8e-05
7.8e-05
7.8e-05
7.8e-05
7.8e-05
7.8e-05
7.8e-05
7.8e-05
7.8e-05
7.8e-05
7.8e-05
7.8e-05
7.8e-05
7.8e-05
7.8e-05
7.8e-05
7.8e-05
7.8e-05
7.8e-05
7.8e-05
7.8e-05
7.8e-05
7.8e-05
7.8e-05
7.8e-05
7.8e-05
7.8e-05
7.8e-05
7.8e-05
7.8e-05
7.8e-05
7.8e-05
7.8e-05
7.8e-05
7.8e-05
7.8e-05
7.8e-05
7.8e-05
7.8e-05
7.8e-05
7.8e-05
7.8e-05
7.8e-05
7.8e-05
7.8e-05
7.8e-05
7.8e-05
7.8e-05
7.8e-05
7.8e-05
7.8e-05
7.8e-05
7.8e-05
7.8e-05
7.8e-05
7.8e-05
7.8e-05
7.8e-05
7.8e-05
7.8e-05
7.8e-05
7.8e-05
7.8e-05
7.8e-05
7.8e-05
7.8e-05
7.8e-05
7.8e-05
7.8e-05
7.8e-05
7.8e-05
7.8e-05
7.8e-05
7.8e-05
7.8e-05
7.8e-05
7.8e-05
7.8e-05
7.8e-05
7.8e-05
7.8e-05
7.8e-05
7.8e-05
7.8e-05
7.8e-05
7.8e-05
7.8e-05
7.8e-05
7.8e-05
7.8e-05
7.8e-05
7.8e-05
7.8e-05
7.8e-05
7.8e-05
7.8e-05
7.8e-05
7.8e-05
7.8e-05
7.8e-05
7.8e-05
7.8e-05
7.8e-05
7.8e-05
7.8e-05
7.8e-05
7.8e-05
7.8e-05
7.8e-05
7.8e-05
7.8e-05
7.8e-05
7.8e-05
7.8e-05
7.8e-05
7.8e-05
7.8e-05
7.8e-05
7.8e-05
7.8e-05
7.8e-05
7.8e-05
7.8e-05
7.8e-05
7.8e-05
7.8e-05
7.8e-05
7.8e-05
7.8e-05
7.8e-05
7.8e-05
7.8e-05
7.8e-05
7.8e-05
7.8e-05
7.8e-05
7.8e-05
7.8e-05
7.8e-05
7.8e-05
7.8e-05
7.8e-05
7.8e-05
7.8e-05
7.8e-05
7.8e-05
7.8e-05
7.8e-05
7.8e-05
7.8e-05
7.8e-05
7.8e-05
7.8e-05
7.8e-05
7.8e-05
7.8e-05
7.8e-05
7.8e-05
7.8e-05
7.8e-05
7.8e-05
7.8e-05
7.8e-05
7.8e-05
7.8e-05
7.8e-05
7.8e-05
7.8e-05
7.8e-05
7.8e-05
7.8e-05
7.8e-05
7.8e-05
7.8e-05
7.8e-05
7.8e-05
7.8e-05
7.8e-05
7.8e-05
7.8e-05
7.8e-05
7.8e-05
7.8e-05
7.8e-05
7.8e-05
7.8e-05
7.8e-05
7.8e-05
7.8e-05
7.8e-05
7.8e-05
7.8e-05
7.8e-05
7.8e-05
7.8e-05
7.8e-05
7.8e-05
7.8e-05
7.8e-05
7.8e-05
7.8e-05
7.8e-05
7.8e-05
7.8e-05
7.8e-05
7.8e-05
7.8e-05
7.8e-05
7.8e-05
7.8e-05
7.8e-05
7.8e-05
7.8e-05
7.8e-05
7.8e-05
7.8e-05
7.8e-05
7.8e-05
7.8e-05
7.8e-05
7.8e-05
7.8e-05
7.8e-05
7.8e-05
7.8e-05
7.8e-05
7.8e-05
7.8e-05
7.8e-05
7.8e-05
7.8e-05
7.8e-05
7.8e-05
7.8e-05
7.8e-05
7.8e-05
7.8e-05
7.8e-05
7.8e-05
7.8e-05
7.8e-05
7.8e-05
7.8e-05
7.8e-05
7.8e-05
7.8e-05
7.8e-05
7.8e-05
7.8e-05
7.8e-05
7.8e-05
7.8e-05
7.8e-05
7.8e-05
7.8e-05
7.8e-05
7.8e-05
7.8e-05
7.8e-05
7.8e-05
7.8e-05
7.8e-05
7.8e-05
7.8e-05
7.8e-05
7.8e-05
7.8e-05
7.8e-05
7.8e-05
7.8e-05
7.8e-05
7.8e-05
7.8e-05
7.8e-05
7.8e-05
7.8e-05
7.8e-05
7.8e-05
7.8e-05
7.8e-05
7.8e-05
7.8e-05
7.8e-05
7.8e-05
7.8e-05
7.8e-05
7.8e-05
7.8e-05
7.8e-05
7.8e-05
7.8e-05
7.8e-05
7.8e-05
7.8e-05
7.8e-05
7.8e-05
7.8e-05
7.8e-05
7.8e-05
7.8e-05
7.8e-05
7.8e-05
7.8e-05
7.8e-05
7.8e-05
7.8e-05
7.8e-05
7.8e-05
7.8e-05
7.8e-05
7.8e-05
7.8e-05
7.8e-05
7.8e-05
7.8e-05
7.8e-05
7.8e-05
7.8e-05
7.8e-05
7.8e-05
7.8e-05
7.8e-05
7.8e-05
7.8e-05
7.8e-05
7.8e-05
7.8e-05
7.8e-05
7.8e-05
7.8e-05
7.8e-05
7.8e-05
7.8e-05
7.8e-05
7.8e-05
7.8e-05
7.8e-05
7.8e-05
7.8e-05
7.8e-05
7.8e-05
7.8e-05
7.8e-05
7.8e-05
7.8e-05
7.8e-05
7.8e-05
7.8e-05
7.8e-05
7.8e-05
7.8e-05
7.8e-05
7.8e-05
7.8e-05
7.8e-05
7.8e-05
7.8e-05
7.8e-05
7.8e-05
7.8e-05
7.8e-05
7.8e-05
7.8e-05
7.8e-05
7.8e-05
7.8e-05
7.8e-05
7.8e-05
7.8e-05
7.8e-05
7.8e-05
7.8e-05
7.8e-05
7.8e-05
7.8e-05
7.8e-05
7.8e-05
7.8e-05
7.8e-05
7.8e-05
7.8e-05
7.8e-05
7.8e-05
7.8e-05
7.8e-05
7.8e-05
7.8e-05
7.8e-05
7.8e-05
7.8e-05
7.8e-05
7.8e-05
7.8e-05
7.8e-05
7.8e-05
7.8e-05
7.8e-05
7.8e-05
7.8e-05
7.8e-05
7.8e-05
7.8e-05
7.8e-05
7.8e-05
7.8e-05
7.8e-05
7.8e-05
7.8e-05
7.8e-05
7.8e-05
7.8e-05
7.8e-05
7.8e-05
7.8e-05
7.8e-05
7.8e-05
7.8e-05
7.8e-05
7.8e-05
7.8e-05
7.8e-05
7.8e-05
7.8e-05
7.8e-05
7.8e-05
7.8e-05
7.8e-05
7.8e-05
7.8e-05
7.8e-05
7.8e-05
7.8e-05
7.8e-05
7.8e-05
7.8e-05
7.8e-05
7.8e-05
7.8e-05
7.8e-05
7.8e-05
7.8e-05
7.8e-05
7.8e-05
7.8e-05
7.8e-05
7.8e-05
7.8e-05
7.8e-05
7.8e-05
7.8e-05
7.8e-05
7.8e-05
7.8e-05
7.8e-05
7.8e-05
7.8e-05
7.8e-05
7.8e-05
7.8e-05
7.8e-05
7.8e-05
7.8e-05
7.8e-05
7.8e-05
7.8e-05
7.8e-05
7.8e-05
7.8e-05
7.8e-05
7.8e-05
7.8e-05
7.8e-05
7.8e-05
7.8e-05
7.8e-05
7.8e-05
7.8e-05
7.8e-05
7.8e-05
7.8e-05
7.8e-05
7.8e-05
7.8e-05
7.8e-05
7.8e-05
7.8e-05
7.8e-05
7.8e-05
7.8e-05
7.8e-05
7.8e-05
7.8e-05
7.8e-05
7.8e-05
7.8e-05
7.8e-05
7.8e-05
7.8e-05
7.8e-05
7.8e-05
7.8e-05
7.8e-05
7.8e-05
7.8e-05
7.8e-05
7.8e-05
7.8e-05
7.8e-05
7.8e-05
7.8e-05
7.8e-05
7.8e-05
7.8e-05
7.8e-05
7.8e-05
7.8e-05
7.8e-05
7.8e-05
7.8e-05
7.8e-05
7.8e-05
7.8e-05
7.8e-05
7.8e-05
7.8e-05
7.8e-05
7.8e-05
7.8e-05
7.8e-05
7.8e-05
7.8e-05
7.8e-05
7.8e-05
7.8e-05
7.8e-05
7.8e-05
7.8e-05
7.8e-05
7.8e-05
7.8e-05
7.8e-05
7.8e-05
7.8e-05
7.8e-05
7.8e-05
7.8e-05
7.8e-05
7.8e-05
7.8e-05
7.8e-05
7.8e-05
7.8e-05
7.8e-05
7.8e-05
7.8e-05
7.8e-05
7.8e-05
7.8e-05
7.8e-05
7.8e-05
7.8e-05
7.8e-05
7.8e-05
7.8e-05
7.8e-05
7.8e-05
7.8e-05
7.8e-05
7.8e-05
7.8e-05
7.8e-05
7.8e-05
7.8e-05
7.8e-05
7.8e-05
7.8e-05
7.8e-05
7.8e-05
7.8e-05
7.8e-05
7.8e-05
7.8e-05
7.8e-05
7.8e-05
7.8e-05
7.8e-05
7.8e-05
7.8e-05
7.8e-05
7.8e-05
7.8e-05
7.8e-05
7.8e-05
7.8e-05
7.8e-05
7.8e-05
7.8e-05
7.8e-05
7.8e-05
7.8e-05
7.8e-05
7.8e-05
7.8e-05
7.8e-05
7.8e-05
7.8e-05
7.8e-05
7.8e-05
7.8e-05
7.8e-05
7.8e-05
7.8e-05
7.8e-05
7.8e-05
7.8e-05
7.8e-05
7.8e-05
7.8e-05
7.8e-05
7.8e-05
7.8e-05
7.8e-05
7.8e-05
7.8e-05
7.8e-05
7.8e-05
7.8e-05
7.8e-05
7.8e-05
7.8e-05
7.8e-05
7.8e-05
7.8e-05
7.8e-05
7.8e-05
7.8e-05
7.8e-05
7.8e-05
7.8e-05
7.8e-05
7.8e-05
7.8e-05
7.8e-05
7.8e-05
7.8e-05
7.8e-05
7.8e-05
7.8e-05
7.8e-05
7.8e-05
7.8e-05
7.8e-05
7.8e-05
7.8e-05
7.8e-05
7.8e-05
7.8e-05
7.8e-05
7.8e-05
7.8e-05
7.8e-05
7.8e-05
7.8e-05
7.8e-05
7.8e-05
7.8e-05
7.8e-05
7.8e-05
7.8e-05
7.8e-05
7.8e-05
7.8e-05
7.8e-05
7.8e-05
7.8e-05
7.8e-05
7.8e-05
7.8e-05
7.8e-05
7.8e-05
7.8e-05
7.8e-05
7.8e-05
7.8e-05
7.8e-05
7.8e-05
7.8e-05
7.8e-05
7.8e-05
7.8e-05
7.8e-05
7.8e-05
7.8e-05
7.8e-05
7.8e-05
7.8e-05
7.8e-05
7.8e-05
7.8e-05
7.8e-05
7.8e-05
7.8e-05
7.8e-05
7.8e-05
7.8e-05
7.8e-05
7.8e-05
7.8e-05
7.8e-05
7.8e-05
7.8e-05
7.8e-05
7.8e-05
7.8e-05
7.8e-05
7.8e-05
7.8e-05
7.8e-05
7.8e-05
7.8e-05
7.8e-05
7.8e-05
7.8e-05
7.8e-05
7.8e-05
7.8e-05
7.8e-05
7.8e-05
7.8e-05
7.8e-05
7.8e-05
7.8e-05
7.8e-05
7.8e-05
7.8e-05
7.8e-05
7.8e-05
7.8e-05
7.8e-05
7.8e-05
7.8e-05
7.8e-05
7.8e-05
7.8e-05
7.8e-05
7.8e-05
7.8e-05
7.8e-05
7.8e-05
7.8e-05
7.8e-05
7.8e-05
7.8e-05
7.8e-05
7.8e-05
7.8e-05
7.8e-05
7.8e-05
7.8e-05
7.8e-05
7.8e-05
7.8e-05
7.8e-05
7.8e-05
7.8e-05
7.8e-05
7.8e-05
7.8e-05
7.8e-05
7.8e-05
7.8e-05
7.8e-05
7.8e-05
7.8e-05
7.8e-05
7.8e-05
7.8e-05
7.8e-05
7.8e-05
7.8e-05
7.8e-05
7.8e-05
7.8e-05
7.8e-05
7.8e-05
7.8e-05
7.8e-05
7.8e-05
7.8e-05
7.8e-05
7.8e-05
7.8e-05
7.8e-05
7.8e-05
7.8e-05
7.8e-05
7.8e-05
7.8e-05
7.8e-05
7.8e-05
7.8e-05
7.8e-05
7.8e-05
7.8e-05
7.8e-05
7.8e-05
7.8e-05
7.8e-05
7.8e-05
7.8e-05
7.8e-05
7.8e-05
7.8e-05
7.8e-05
7.8e-05
7.8e-05
7.8e-05
7.8e-05
7.8e-05
7.8e-05
7.8e-05
7.8e-05
7.8e-05
7.8e-05
7.8e-05
7.8e-05
7.8e-05
7.8e-05
7.8e-05
7.8e-05
7.8e-05
7.8e-05
7.8e-05
7.8e-05
7.8e-05
7.8e-05
7.8e-05
7.8e-05
7.8e-05
7.8e-05
7.8e-05
7.8e-05
7.8e-05
7.8e-05
7.8e-05
7.8e-05
7.8e-05
7.8e-05
7.8e-05
7.8e-05
7.8e-05
7.8e-05
7.8e-05
7.8e-05
7.8e-05
7.8e-05
7.8e-05
7.8e-05
7.8e-05
7.8e-05
7.8e-05
7.8e-05
7.8e-05
7.8e-05
7.8e-05
7.8e-05
7.8e-05
7.8e-05
7.8e-05
7.8e-05
7.8e-05
7.8e-05
7.8e-05
7.8e-05
7.8e-05
7.8e-05
7.8e-05
7.8e-05
7.8e-05
7.8e-05
7.8e-05
7.8e-05
7.8e-05
7.8e-05
7.8e-05
7.8e-05
7.8e-05
7.8e-05
7.8e-05
7.8e-05
7.8e-05
7.8e-05
7.8e-05
7.8e-05
7.8e-05
7.8e-05
7.8e-05
7.8e-05
7.8e-05
7.8e-05
7.8e-05
7.8e-05
7.8e-05
7.8e-05
7.8e-05
7.8e-05
7.8e-05
7.8e-05
7.8e-05
7.8e-05
7.8e-05
7.8e-05
7.8e-05
7.8e-05
7.8e-05
7.8e-05
7.8e-05
7.8e-05
7.8e-05
7.8e-05
7.8e-05
7.8e-05
7.8e-05
7.8e-05
7.8e-05
7.8e-05
7.8e-05
7.8e-05
7.8e-05
7.8e-05
7.8e-05
7.8e-05
7.8e-05
7.8e-05
7.8e-05
7.8e-05
7.8e-05
7.8e-05
7.8e-05
7.8e-05
7.8e-05
7.8e-05
7.8e-05
7.8e-05
7.8e-05
7.8e-05
7.8e-05
7.8e-05
7.8e-05
7.8e-05
7.8e-05
7.8e-05
7.8e-05
7.8e-05
7.8e-05
7.8e-05
7.8e-05
7.8e-05
7.8e-05
7.8e-05
7.8e-05
7.8e-05
7.8e-05
7.8e-05
7.8e-05
7.8e-05
7.8e-05
7.8e-05
7.8e-05
7.8e-05
7.8e-05
7.8e-05
7.8e-05
7.8e-05
7.8e-05
7.8e-05
7.8e-05
7.8e-05
7.8e-05
7.8e-05
7.8e-05
7.8e-05
7.8e-05
7.8e-05
7.8e-05
7.8e-05
7.8e-05
7.8e-05
7.8e-05
7.8e-05
7.8e-05
7.8e-05
7.8e-05
7.8e-05
7.8e-05
7.8e-05
7.8e-05
7.8e-05
7.8e-05
7.8e-05
7.8e-05
7.8e-05
7.8e-05
7.8e-05
7.8e-05
7.8e-05
7.8e-05
7.8e-05
7.8e-05
7.8e-05
7.8e-05
7.8e-05
7.8e-05
7.8e-05
7.8e-05
7.8e-05
7.8e-05
7.8e-05
7.8e-05
7.8e-05
7.8e-05
7.8e-05
7.8e-05
7.8e-05
7.8e-05
7.8e-05
7.8e-05
7.8e-05
7.8e-05
7.8e-05
7.8e-05
7.8e-05
7.8e-05
7.8e-05
7.8e-05
7.8e-05
7.8e-05
7.8e-05
7.8e-05
7.8e-05
7.8e-05
7.8e-05
7.8e-05
7.8e-05
7.8e-05
7.8e-05
7.8e-05
7.8e-05
7.8e-05
7.8e-05
7.8e-05
7.8e-05
7.8e-05
7.8e-05
7.8e-05
7.8e-05
7.8e-05
7.8e-05
7.8e-05
7.8e-05
7.8e-05
7.8e-05
7.8e-05
7.8e-05
7.8e-05
7.8e-05
7.8e-05
7.8e-05
7.8e-05
7.8e-05
7.8e-05
7.8e-05
7.8e-05
7.8e-05
7.8e-05
7.8e-05
7.8e-05
7.8e-05
7.8e-05
7.8e-05
7.8e-05
7.8e-05
7.8e-05
7.8e-05
7.8e-05
7.8e-05
7.8e-05
7.8e-05
7.8e-05
7.8e-05
7.8e-05
7.8e-05
7.8e-05
7.8e-05
7.8e-05
7.8e-05
7.8e-05
7.8e-05
7.8e-05
7.8e-05
7.8e-05
7.8e-05
7.8e-05
7.8e-05
7.8e-05
7.8e-05
7.8e-05
7.8e-05
7.8e-05
7.8e-05
7.8e-05
7.8e-05
7.8e-05
7.8e-05
7.8e-05
7.8e-05
7.8e-05
7.8e-05
7.8e-05
7.8e-05
7.8e-05
7.8e-05
7.8e-05
7.8e-05
7.8e-05
7.8e-05
7.8e-05
7.8e-05
7.8e-05
7.8e-05
7.8e-05
7.8e-05
7.8e-05
7.8e-05
7.8e-05
7.8e-05