/*--------------------------------*- C++ -*----------------------------------*\
| =========                 |                                                 |
| \\      /  F ield         | OpenFOAM: The Open Source CFD Toolbox           |
|  \\    /   O peration     | Version:  2406                                  |
|   \\  /    A nd           | Website:  www.openfoam.com                      |
|    \\/     M anipulation  |                                                 |
\*---------------------------------------------------------------------------*/
FoamFile
{
    version     2.0;
    format      ascii;
    arch        "LSB;label=32;scalar=64";
    class       volScalarField;
    location    "8.65";
    object      D;
}
// * * * * * * * * * * * * * * * * * * * * * * * * * * * * * * * * * * * * * //

dimensions      [0 2 -1 0 0 0 0];

internalField   nonuniform List<scalar> 
14400
(
7.41891e-05
7.4159e-05
7.41246e-05
7.41082e-05
7.41149e-05
7.41365e-05
7.41598e-05
7.41746e-05
7.41788e-05
7.41804e-05
7.41961e-05
7.42462e-05
7.43445e-05
7.44826e-05
7.46112e-05
7.46423e-05
7.45123e-05
7.42796e-05
7.40015e-05
7.36824e-05
7.32857e-05
7.27587e-05
7.20544e-05
7.11483e-05
7.0052e-05
6.88186e-05
6.75324e-05
6.62845e-05
6.51478e-05
6.41666e-05
6.33614e-05
6.27401e-05
6.23106e-05
6.20943e-05
6.21484e-05
6.26287e-05
6.40569e-05
6.93743e-05
0.000115431
0.00013824
0.00013824
0.00013824
0.00013824
0.00013824
0.00013824
0.00013824
0.00013824
0.00013824
0.00013824
0.00013824
0.00013824
0.00013824
0.00013824
0.00013824
0.00013824
0.00013824
0.00013824
0.00013824
0.000138238
0.000104844
6.90223e-05
6.43491e-05
6.31477e-05
6.28646e-05
6.30377e-05
6.35411e-05
6.43455e-05
6.54592e-05
6.68982e-05
6.86547e-05
7.06586e-05
7.2757e-05
7.47454e-05
7.64343e-05
7.76961e-05
7.84723e-05
7.87577e-05
7.85839e-05
7.80131e-05
7.71397e-05
7.60932e-05
7.50368e-05
7.41648e-05
7.37253e-05
7.41568e-05
7.68409e-05
8.98735e-05
0.000137544
9.9578e-05
7.65878e-05
7.21835e-05
7.07874e-05
7.0337e-05
7.03378e-05
7.05953e-05
7.10035e-05
7.14905e-05
7.20012e-05
7.2491e-05
7.29241e-05
7.32706e-05
7.35047e-05
7.36029e-05
7.35473e-05
7.33307e-05
7.296e-05
7.24536e-05
7.1837e-05
7.11413e-05
7.04036e-05
6.96666e-05
6.89778e-05
6.83889e-05
6.79578e-05
6.77589e-05
6.79131e-05
6.86792e-05
7.08294e-05
7.81607e-05
0.00013223
7.3522e-05
7.34241e-05
7.32942e-05
7.31851e-05
7.31157e-05
7.30824e-05
7.30733e-05
7.30783e-05
7.30953e-05
7.31323e-05
7.32069e-05
7.3342e-05
7.35558e-05
7.38398e-05
7.41222e-05
7.4237e-05
7.40193e-05
7.36462e-05
7.32482e-05
7.28467e-05
7.24039e-05
7.1864e-05
7.11789e-05
7.0324e-05
6.93095e-05
6.81818e-05
6.70125e-05
6.58786e-05
6.48425e-05
6.39447e-05
6.32067e-05
6.26402e-05
6.22584e-05
6.20895e-05
6.2202e-05
6.27769e-05
6.44151e-05
7.04088e-05
0.000125766
0.00013824
0.00013824
0.00013824
0.00013824
0.00013824
0.00013824
0.00013824
0.00013824
0.00013824
0.00013824
0.00013824
0.00013824
0.00013824
0.00013824
0.00013824
0.00013824
0.00013824
0.00013824
0.00013824
0.00013824
0.000115201
6.98126e-05
6.45746e-05
6.32341e-05
6.28772e-05
6.29932e-05
6.34397e-05
6.41771e-05
6.52047e-05
6.65315e-05
6.81488e-05
6.99973e-05
7.19468e-05
7.38146e-05
7.542e-05
7.66331e-05
7.73873e-05
7.76704e-05
7.75118e-05
7.69753e-05
7.61588e-05
7.51939e-05
7.42416e-05
7.34911e-05
7.31919e-05
7.38296e-05
7.72221e-05
9.66628e-05
0.000138113
0.000111389
7.73794e-05
7.21059e-05
7.04858e-05
6.99018e-05
6.97929e-05
6.99499e-05
7.02651e-05
7.06703e-05
7.11152e-05
7.15601e-05
7.19708e-05
7.23157e-05
7.25621e-05
7.26769e-05
7.26317e-05
7.24158e-05
7.20432e-05
7.1544e-05
7.0953e-05
7.03056e-05
6.9637e-05
6.89846e-05
6.8389e-05
6.78961e-05
6.75613e-05
6.74628e-05
6.77395e-05
6.87236e-05
7.15888e-05
8.3228e-05
0.000137184
7.25143e-05
7.22564e-05
7.19267e-05
7.16427e-05
7.14399e-05
7.13143e-05
7.1251e-05
7.12383e-05
7.12734e-05
7.13648e-05
7.15336e-05
7.18118e-05
7.22354e-05
7.28173e-05
7.34706e-05
7.38398e-05
7.33327e-05
7.26103e-05
7.19596e-05
7.1401e-05
7.08757e-05
7.03159e-05
6.96692e-05
6.89088e-05
6.80386e-05
6.7091e-05
6.61172e-05
6.51729e-05
6.43057e-05
6.35504e-05
6.29299e-05
6.24624e-05
6.217e-05
6.20944e-05
6.23316e-05
6.31466e-05
6.5559e-05
7.59974e-05
0.00013716
0.00013824
0.00013824
0.00013824
0.00013824
0.00013824
0.00013824
0.00013824
0.00013824
0.00013824
0.00013824
0.00013824
0.00013824
0.00013824
0.00013824
0.00013824
0.00013824
0.00013824
0.00013824
0.00013824
0.00013824
0.000130905
7.17703e-05
6.52104e-05
6.34662e-05
6.29277e-05
6.29231e-05
6.32597e-05
6.38738e-05
6.47478e-05
6.5878e-05
6.72512e-05
6.88212e-05
7.04907e-05
7.21158e-05
7.35407e-05
7.46389e-05
7.53364e-05
7.5612e-05
7.54907e-05
7.50368e-05
7.43499e-05
7.35594e-05
7.28177e-05
7.23038e-05
7.22695e-05
7.32722e-05
7.78343e-05
0.000110147
0.000138236
0.000128648
7.90712e-05
7.22047e-05
7.0063e-05
6.92051e-05
6.88959e-05
6.88805e-05
6.90409e-05
6.93106e-05
6.96458e-05
7.00132e-05
7.03832e-05
7.07228e-05
7.09905e-05
7.11356e-05
7.11107e-05
7.08972e-05
7.05227e-05
7.00386e-05
6.94943e-05
6.89291e-05
6.83742e-05
6.78582e-05
6.74123e-05
6.70752e-05
6.69009e-05
6.69766e-05
6.74766e-05
6.88812e-05
7.3488e-05
0.000103855
0.00013823
7.17261e-05
7.11251e-05
7.04595e-05
6.99329e-05
6.95682e-05
6.93387e-05
6.9216e-05
6.91823e-05
6.92331e-05
6.93783e-05
6.96455e-05
7.00864e-05
7.07824e-05
7.18422e-05
7.33133e-05
7.46132e-05
7.30192e-05
7.15387e-05
7.04813e-05
6.97076e-05
6.90802e-05
6.85007e-05
6.79048e-05
6.72587e-05
6.65555e-05
6.58108e-05
6.50543e-05
6.43219e-05
6.36476e-05
6.30602e-05
6.25844e-05
6.22448e-05
6.20752e-05
6.21379e-05
6.25764e-05
6.38399e-05
6.84006e-05
0.000106126
0.000138239
0.00013824
0.00013824
0.00013824
0.00013824
0.00013824
0.00013824
0.00013824
0.00013824
0.00013824
0.00013824
0.00013824
0.00013824
0.00013824
0.00013824
0.00013824
0.00013824
0.00013824
0.00013824
0.00013824
0.00013824
0.000138167
8.80114e-05
6.72762e-05
6.39872e-05
6.30618e-05
6.28602e-05
6.30399e-05
6.3491e-05
6.4172e-05
6.50629e-05
6.61429e-05
6.73736e-05
6.86858e-05
6.99784e-05
7.11338e-05
7.20463e-05
7.26455e-05
7.29061e-05
7.28478e-05
7.25302e-05
7.20455e-05
7.15106e-05
7.10632e-05
7.08751e-05
7.12229e-05
7.27962e-05
7.88416e-05
0.000126568
0.00013824
0.000138108
9.28117e-05
7.35831e-05
6.98518e-05
6.85088e-05
6.79221e-05
6.76964e-05
6.76805e-05
6.78015e-05
6.80177e-05
6.8301e-05
6.86267e-05
6.89633e-05
6.92615e-05
6.9451e-05
6.94547e-05
6.92411e-05
6.88577e-05
6.83863e-05
6.78913e-05
6.74139e-05
6.6979e-05
6.66068e-05
6.63209e-05
6.61563e-05
6.61708e-05
6.64721e-05
6.73013e-05
6.93834e-05
7.62901e-05
0.000128898
0.00013824
7.21307e-05
7.05668e-05
6.9298e-05
6.84464e-05
6.79013e-05
6.75678e-05
6.73877e-05
6.73327e-05
6.73958e-05
6.75883e-05
6.79476e-05
6.85559e-05
6.95841e-05
7.14312e-05
7.51919e-05
8.32897e-05
7.41173e-05
7.08296e-05
6.91523e-05
6.81134e-05
6.73739e-05
6.67731e-05
6.62245e-05
6.56827e-05
6.51292e-05
6.45648e-05
6.40031e-05
6.34648e-05
6.29733e-05
6.25529e-05
6.22294e-05
6.20347e-05
6.20184e-05
6.22756e-05
6.30346e-05
6.50483e-05
7.24698e-05
0.000134048
0.00013824
0.00013824
0.00013824
0.00013824
0.00013824
0.00013824
0.00013824
0.00013824
0.00013824
0.00013824
0.00013824
0.00013824
0.00013824
0.00013824
0.00013824
0.00013824
0.00013824
0.00013824
0.00013824
0.00013824
0.00013824
0.00013824
0.000122234
7.06696e-05
6.48692e-05
6.33325e-05
6.28502e-05
6.28302e-05
6.3093e-05
6.35662e-05
6.42124e-05
6.50022e-05
6.58999e-05
6.68549e-05
6.77991e-05
6.86542e-05
6.93462e-05
6.98221e-05
7.00613e-05
7.00791e-05
6.99242e-05
6.96728e-05
6.94236e-05
6.93013e-05
6.94878e-05
7.03578e-05
7.32009e-05
8.6406e-05
0.000137661
0.00013824
0.00013824
0.000126817
7.6946e-05
7.02266e-05
6.80845e-05
6.71215e-05
6.66567e-05
6.64638e-05
6.6448e-05
6.65616e-05
6.67773e-05
6.70752e-05
6.74283e-05
6.77826e-05
6.80453e-05
6.80893e-05
6.78586e-05
6.74337e-05
6.69469e-05
6.64775e-05
6.60652e-05
6.57278e-05
6.54782e-05
6.53361e-05
6.53382e-05
6.55561e-05
6.61462e-05
6.75435e-05
7.17982e-05
9.90499e-05
0.000138222
0.00013824
7.82737e-05
7.14623e-05
6.87947e-05
6.74342e-05
6.66593e-05
6.62077e-05
6.59652e-05
6.58872e-05
6.59626e-05
6.62054e-05
6.66662e-05
6.74764e-05
6.89729e-05
7.2437e-05
8.69411e-05
0.000133739
7.92186e-05
7.09695e-05
6.82395e-05
6.68467e-05
6.59718e-05
6.53355e-05
6.48146e-05
6.43482e-05
6.39071e-05
6.34815e-05
6.30738e-05
6.26951e-05
6.23616e-05
6.20944e-05
6.19215e-05
6.1885e-05
6.20607e-05
6.26164e-05
6.40642e-05
6.91017e-05
0.000111641
0.00013824
0.00013824
0.00013824
0.00013824
0.00013824
0.00013824
0.00013824
0.00013824
0.00013824
0.00013824
0.00013824
0.00013824
0.00013824
0.00013824
0.00013824
0.00013824
0.00013824
0.00013824
0.00013824
0.00013824
0.00013824
0.00013824
0.00013824
0.000138138
8.60848e-05
6.7064e-05
6.3923e-05
6.29748e-05
6.26927e-05
6.27428e-05
6.30057e-05
6.34226e-05
6.39549e-05
6.45672e-05
6.52201e-05
6.58675e-05
6.646e-05
6.69522e-05
6.7312e-05
6.75281e-05
6.76136e-05
6.76065e-05
6.75676e-05
6.75815e-05
6.77706e-05
6.83508e-05
6.98802e-05
7.51202e-05
0.000115301
0.000138239
0.00013824
0.00013824
0.000138229
0.000101847
7.30001e-05
6.83433e-05
6.67136e-05
6.59387e-05
6.55558e-05
6.54146e-05
6.54474e-05
6.56226e-05
6.59262e-05
6.63427e-05
6.68186e-05
6.7241e-05
6.73593e-05
6.70589e-05
6.64966e-05
6.59241e-05
6.54283e-05
6.50406e-05
6.47665e-05
6.46121e-05
6.45962e-05
6.47652e-05
6.52233e-05
6.62284e-05
6.86046e-05
7.69107e-05
0.000135181
0.00013824
0.00013824
0.000131574
7.72863e-05
6.95645e-05
6.71207e-05
6.59621e-05
6.53376e-05
6.50074e-05
6.48982e-05
6.49921e-05
6.53078e-05
6.59198e-05
6.70662e-05
6.94539e-05
7.68259e-05
0.000131524
0.000138239
0.000113092
7.35844e-05
6.80214e-05
6.60342e-05
6.49606e-05
6.42553e-05
6.37314e-05
6.3306e-05
6.29387e-05
6.26109e-05
6.23181e-05
6.20653e-05
6.18649e-05
6.17374e-05
6.17155e-05
6.18581e-05
6.22894e-05
6.33403e-05
6.64474e-05
8.39606e-05
0.000138103
0.00013824
0.00013824
0.00013824
0.00013824
0.00013824
0.00013824
0.00013824
0.00013824
0.00013824
0.00013824
0.00013824
0.00013824
0.00013824
0.00013824
0.00013824
0.00013824
0.00013824
0.00013824
0.00013824
0.00013824
0.00013824
0.00013824
0.00013824
0.00013824
0.000129945
7.17368e-05
6.51618e-05
6.33728e-05
6.27072e-05
6.2502e-05
6.25485e-05
6.27547e-05
6.30683e-05
6.34519e-05
6.38719e-05
6.42957e-05
6.46921e-05
6.50344e-05
6.5306e-05
6.55038e-05
6.56411e-05
6.57496e-05
6.58822e-05
6.61213e-05
6.66087e-05
6.76485e-05
7.01781e-05
7.94513e-05
0.000136265
0.00013824
0.00013824
0.00013824
0.00013824
0.000137632
8.28215e-05
7.00631e-05
6.69878e-05
6.5709e-05
6.50685e-05
6.47905e-05
6.47561e-05
6.49217e-05
6.52852e-05
6.58683e-05
6.66394e-05
6.75498e-05
6.7887e-05
6.73221e-05
6.62894e-05
6.54637e-05
6.4842e-05
6.442e-05
6.41713e-05
6.40919e-05
6.42026e-05
6.45772e-05
6.5416e-05
6.73644e-05
7.37629e-05
0.000124126
0.00013824
0.00013824
0.00013824
0.00013824
0.000126271
7.48455e-05
6.81045e-05
6.60055e-05
6.50501e-05
6.45574e-05
6.43942e-05
6.45235e-05
6.49781e-05
6.58883e-05
6.79026e-05
7.41107e-05
0.000118654
0.00013824
0.00013824
0.000137487
8.11637e-05
6.89121e-05
6.58006e-05
6.43859e-05
6.35456e-05
6.29757e-05
6.25557e-05
6.22282e-05
6.19655e-05
6.17574e-05
6.16058e-05
6.15229e-05
6.15327e-05
6.16786e-05
6.20537e-05
6.28916e-05
6.49512e-05
7.25286e-05
0.000134965
0.00013824
0.00013824
0.00013824
0.00013824
0.00013824
0.00013824
0.00013824
0.00013824
0.00013824
0.00013824
0.00013824
0.00013824
0.00013824
0.00013824
0.00013824
0.00013824
0.00013824
0.00013824
0.00013824
0.00013824
0.00013824
0.00013824
0.00013824
0.00013824
0.00013824
0.000138239
0.000109445
6.94294e-05
6.44601e-05
6.30105e-05
6.24415e-05
6.22438e-05
6.22464e-05
6.23711e-05
6.25722e-05
6.28173e-05
6.30803e-05
6.33397e-05
6.35798e-05
6.37928e-05
6.39813e-05
6.41604e-05
6.43608e-05
6.46365e-05
6.50831e-05
6.59022e-05
6.76675e-05
7.31925e-05
0.000115792
0.00013824
0.00013824
0.00013824
0.00013824
0.00013824
0.00013824
0.000135508
7.73325e-05
6.89095e-05
6.63591e-05
6.51879e-05
6.47018e-05
6.45955e-05
6.47935e-05
6.53246e-05
6.63759e-05
6.80342e-05
7.17527e-05
7.34153e-05
7.11568e-05
6.74915e-05
6.58806e-05
6.4878e-05
6.43146e-05
6.40397e-05
6.40314e-05
6.43128e-05
6.50379e-05
6.67732e-05
7.25657e-05
0.000113713
0.00013824
0.00013824
0.00013824
0.00013824
0.00013824
0.00013824
0.000121348
7.38219e-05
6.75229e-05
6.56925e-05
6.47795e-05
6.4497e-05
6.47085e-05
6.55197e-05
6.72019e-05
7.29551e-05
0.000110993
0.000138239
0.00013824
0.00013824
0.00013824
0.000126856
7.3346e-05
6.65898e-05
6.43698e-05
6.32392e-05
6.25513e-05
6.20942e-05
6.17755e-05
6.15525e-05
6.14092e-05
6.13463e-05
6.13816e-05
6.15522e-05
6.19286e-05
6.26962e-05
6.4514e-05
7.09031e-05
0.000127822
0.00013824
0.00013824
0.00013824
0.00013824
0.00013824
0.00013824
0.00013824
0.00013824
0.00013824
0.00013824
0.00013824
0.00013824
0.00013824
0.00013824
0.00013824
0.00013824
0.00013824
0.00013824
0.00013824
0.00013824
0.00013824
0.00013824
0.00013824
0.00013824
0.00013824
0.00013824
0.00013824
0.000138194
8.94555e-05
6.74962e-05
6.38717e-05
6.26686e-05
6.21498e-05
6.19316e-05
6.1878e-05
6.19246e-05
6.20332e-05
6.21784e-05
6.23425e-05
6.25149e-05
6.26927e-05
6.28827e-05
6.31033e-05
6.33902e-05
6.38088e-05
6.44898e-05
6.57665e-05
6.8971e-05
8.42488e-05
0.000137933
0.00013824
0.00013824
0.00013824
0.00013824
0.00013824
0.00013824
0.00013824
0.000135049
7.88012e-05
6.9827e-05
6.65298e-05
6.55569e-05
6.53189e-05
6.56535e-05
6.66678e-05
6.98523e-05
7.54839e-05
0.000113554
0.000130318
0.000107547
7.38626e-05
6.86847e-05
6.60957e-05
6.50836e-05
6.46518e-05
6.47592e-05
6.54121e-05
6.70757e-05
7.27211e-05
0.000114066
0.000138239
0.00013824
0.00013824
0.00013824
0.00013824
0.00013824
0.00013824
0.00013824
0.000125811
7.49134e-05
6.92829e-05
6.63538e-05
6.57174e-05
6.61757e-05
6.86036e-05
7.36036e-05
0.000116277
0.000138239
0.00013824
0.00013824
0.00013824
0.00013824
0.000138239
0.000109534
7.09343e-05
6.53845e-05
6.3476e-05
6.25125e-05
6.1952e-05
6.1606e-05
6.14012e-05
6.13128e-05
6.13428e-05
6.15265e-05
6.19477e-05
6.27595e-05
6.44886e-05
7.05981e-05
0.000123169
0.00013824
0.00013824
0.00013824
0.00013824
0.00013824
0.00013824
0.00013824
0.00013824
0.00013824
0.00013824
0.00013824
0.00013824
0.00013824
0.00013824
0.00013824
0.00013824
0.00013824
0.00013824
0.00013824
0.00013824
0.00013824
0.00013824
0.00013824
0.00013824
0.00013824
0.00013824
0.00013824
0.00013824
0.00013824
0.000137655
7.80567e-05
6.6142e-05
6.34347e-05
6.23795e-05
6.18664e-05
6.16127e-05
6.15093e-05
6.14994e-05
6.1551e-05
6.16452e-05
6.17725e-05
6.19328e-05
6.21369e-05
6.24101e-05
6.28009e-05
6.34074e-05
6.44493e-05
6.66046e-05
7.35478e-05
0.000130323
0.00013824
0.00013824
0.00013824
0.00013824
0.00013824
0.00013824
0.00013824
0.00013824
0.00013824
0.000137154
9.57144e-05
7.25114e-05
6.95733e-05
6.86968e-05
6.9873e-05
7.28802e-05
9.79994e-05
0.000135058
0.00013824
0.00013824
0.000138238
0.000131463
8.77358e-05
7.16893e-05
6.85937e-05
6.71623e-05
6.77972e-05
7.02196e-05
7.65477e-05
0.000125918
0.00013824
0.00013824
0.00013824
0.00013824
0.00013824
0.00013824
0.00013824
0.00013824
0.00013824
0.00013824
0.00013481
9.80223e-05
7.31549e-05
7.11418e-05
7.25059e-05
9.06571e-05
0.000130443
0.00013824
0.00013824
0.00013824
0.00013824
0.00013824
0.00013824
0.00013824
0.000138233
9.99594e-05
6.98462e-05
6.47858e-05
6.30601e-05
6.22532e-05
6.18182e-05
6.16056e-05
6.15779e-05
6.17365e-05
6.21709e-05
6.31866e-05
6.53773e-05
7.13556e-05
0.000125851
0.00013824
0.00013824
0.00013824
0.00013824
0.00013824
0.00013824
0.00013824
0.00013824
0.00013824
0.00013824
0.00013824
0.00013824
0.00013824
0.00013824
0.00013824
0.00013824
0.00013824
0.00013824
0.00013824
0.00013824
0.00013824
0.00013824
0.00013824
0.00013824
0.00013824
0.00013824
0.00013824
0.00013824
0.00013824
0.00013824
0.00013824
0.000136321
7.44325e-05
6.56649e-05
6.32489e-05
6.21874e-05
6.16375e-05
6.1352e-05
6.12174e-05
6.11825e-05
6.12193e-05
6.13157e-05
6.14734e-05
6.17093e-05
6.20624e-05
6.26117e-05
6.35518e-05
6.54443e-05
7.12071e-05
0.00011482
0.00013824
0.00013824
0.00013824
0.00013824
0.00013824
0.00013824
0.00013824
0.00013824
0.00013824
0.00013824
0.00013824
0.00013822
0.000125632
9.97259e-05
8.95625e-05
0.000103435
0.000128665
0.000138228
0.00013824
0.00013824
0.00013824
0.00013824
0.00013824
0.000138137
0.000121831
9.26342e-05
7.87972e-05
8.53441e-05
0.000111754
0.000136831
0.00013824
0.00013824
0.00013824
0.00013824
0.00013824
0.00013824
0.00013824
0.00013824
0.00013824
0.00013824
0.00013824
0.00013824
0.000138229
0.000132991
0.00012282
0.00013078
0.000138186
0.00013824
0.00013824
0.00013824
0.00013824
0.00013824
0.00013824
0.00013824
0.00013824
0.00013824
0.000138231
0.00010303
7.02413e-05
6.49739e-05
6.34566e-05
6.27483e-05
6.24644e-05
6.25571e-05
6.29943e-05
6.40389e-05
6.77982e-05
7.92618e-05
0.000133364
0.00013824
0.00013824
0.00013824
0.00013824
0.00013824
0.00013824
0.00013824
0.00013824
0.00013824
0.00013824
0.00013824
0.00013824
0.00013824
0.00013824
0.00013824
0.00013824
0.00013824
0.00013824
0.00013824
0.00013824
0.00013824
0.00013824
0.00013824
0.00013824
0.00013824
0.00013824
0.00013824
0.00013824
0.00013824
0.00013824
0.00013824
0.00013824
0.00013824
0.000135849
7.51578e-05
6.61457e-05
6.3331e-05
6.21274e-05
6.15435e-05
6.12351e-05
6.10983e-05
6.10776e-05
6.11518e-05
6.1324e-05
6.16226e-05
6.21194e-05
6.29697e-05
6.47189e-05
6.98611e-05
0.000103065
0.000138237
0.00013824
0.00013824
0.00013824
0.00013824
0.00013824
0.00013824
0.00013824
0.00013824
0.00013824
0.00013824
0.00013824
0.00013824
0.00013824
0.00013823
0.000138157
0.000138236
0.00013824
0.00013824
0.00013824
0.00013824
0.00013824
0.00013824
0.00013824
0.00013824
0.00013824
0.000138201
0.000137432
0.000138062
0.00013824
0.00013824
0.00013824
0.00013824
0.00013824
0.00013824
0.00013824
0.00013824
0.00013824
0.00013824
0.00013824
0.00013824
0.00013824
0.00013824
0.00013824
0.00013824
0.00013824
0.00013824
0.00013824
0.00013824
0.00013824
0.00013824
0.00013824
0.00013824
0.00013824
0.00013824
0.00013824
0.00013824
0.00013824
0.000138237
0.000119609
7.28591e-05
6.82091e-05
6.60097e-05
6.52457e-05
6.59732e-05
6.77658e-05
7.11505e-05
0.000108144
0.000137925
0.00013824
0.00013824
0.00013824
0.00013824
0.00013824
0.00013824
0.00013824
0.00013824
0.00013824
0.00013824
0.00013824
0.00013824
0.00013824
0.00013824
0.00013824
0.00013824
0.00013824
0.00013824
0.00013824
0.00013824
0.00013824
0.00013824
0.00013824
0.00013824
0.00013824
0.00013824
0.00013824
0.00013824
0.00013824
0.00013824
0.00013824
0.00013824
0.00013824
0.00013824
0.00013824
0.000137066
8.25355e-05
6.75915e-05
6.36868e-05
6.23812e-05
6.17152e-05
6.14148e-05
6.13152e-05
6.13707e-05
6.15877e-05
6.20193e-05
6.2848e-05
6.44752e-05
6.96285e-05
0.000101142
0.000138233
0.00013824
0.00013824
0.00013824
0.00013824
0.00013824
0.00013824
0.00013824
0.00013824
0.00013824
0.00013824
0.00013824
0.00013824
0.00013824
0.00013824
0.00013824
0.00013824
0.00013824
0.00013824
0.00013824
0.00013824
0.00013824
0.00013824
0.00013824
0.00013824
0.00013824
0.00013824
0.00013824
0.00013824
0.00013824
0.00013824
0.00013824
0.00013824
0.00013824
0.00013824
0.00013824
0.00013824
0.00013824
0.00013824
0.00013824
0.00013824
0.00013824
0.00013824
0.00013824
0.00013824
0.00013824
0.00013824
0.00013824
0.00013824
0.00013824
0.00013824
0.00013824
0.00013824
0.00013824
0.00013824
0.00013824
0.00013824
0.00013824
0.00013824
0.00013824
0.00013824
0.000135564
0.000109655
8.5215e-05
7.86162e-05
8.71675e-05
0.000109589
0.000133837
0.000138239
0.00013824
0.00013824
0.00013824
0.00013824
0.00013824
0.00013824
0.00013824
0.00013824
0.00013824
0.00013824
0.00013824
0.00013824
0.00013824
0.00013824
0.00013824
0.00013824
0.00013824
0.00013824
0.00013824
0.00013824
0.00013824
0.00013824
0.00013824
0.00013824
0.00013824
0.00013824
0.00013824
0.00013824
0.00013824
0.00013824
0.00013824
0.00013824
0.00013824
0.00013824
0.00013824
0.00013824
0.00013824
0.000138084
0.000101582
6.97418e-05
6.52769e-05
6.32412e-05
6.25536e-05
6.22768e-05
6.23053e-05
6.26614e-05
6.34527e-05
6.5541e-05
7.06623e-05
0.000110654
0.000138236
0.00013824
0.00013824
0.00013824
0.00013824
0.00013824
0.00013824
0.00013824
0.00013824
0.00013824
0.00013824
0.00013824
0.00013824
0.00013824
0.00013824
0.00013824
0.00013824
0.00013824
0.00013824
0.00013824
0.00013824
0.00013824
0.00013824
0.00013824
0.00013824
0.00013824
0.00013824
0.00013824
0.00013824
0.00013824
0.00013824
0.00013824
0.00013824
0.00013824
0.00013824
0.00013824
0.00013824
0.00013824
0.00013824
0.00013824
0.00013824
0.00013824
0.00013824
0.00013824
0.00013824
0.00013824
0.00013824
0.00013824
0.00013824
0.00013824
0.00013824
0.00013824
0.00013824
0.00013824
0.00013824
0.00013824
0.00013824
0.00013824
0.00013824
0.00013824
0.00013824
0.00013824
0.00013824
0.000138239
0.000138132
0.00013779
0.000138173
0.00013824
0.00013824
0.00013824
0.00013824
0.00013824
0.00013824
0.00013824
0.00013824
0.00013824
0.00013824
0.00013824
0.00013824
0.00013824
0.00013824
0.00013824
0.00013824
0.00013824
0.00013824
0.00013824
0.00013824
0.00013824
0.00013824
0.00013824
0.00013824
0.00013824
0.00013824
0.00013824
0.00013824
0.00013824
0.00013824
0.00013824
0.00013824
0.00013824
0.00013824
0.00013824
0.00013824
0.00013824
0.00013824
0.00013824
0.00013824
0.00013824
0.000138238
0.00012634
8.28776e-05
6.90604e-05
6.68571e-05
6.56585e-05
6.55534e-05
6.67069e-05
6.90598e-05
8.11262e-05
0.000128102
0.00013824
0.00013824
0.00013824
0.00013824
0.00013824
0.00013824
0.00013824
0.00013824
0.00013824
0.00013824
0.00013824
0.00013824
0.00013824
0.00013824
0.00013824
0.00013824
0.00013824
0.00013824
0.00013824
0.00013824
0.00013824
0.00013824
0.00013824
0.00013824
0.00013824
0.00013824
0.00013824
0.00013824
0.00013824
0.00013824
0.00013824
0.00013824
0.00013824
0.00013824
0.00013824
0.00013824
0.00013824
0.00013824
0.00013824
0.00013824
0.00013824
0.00013824
0.00013824
0.00013824
0.00013824
0.00013824
0.00013824
0.00013824
0.00013824
0.00013824
0.00013824
0.00013824
0.00013824
0.00013824
0.00013824
0.00013824
0.00013824
0.00013824
0.00013824
0.00013824
0.00013824
0.00013824
0.00013824
0.00013824
0.00013824
0.00013824
0.00013824
0.00013824
0.00013824
0.00013824
0.00013824
0.00013824
0.00013824
0.00013824
0.00013824
0.00013824
0.00013824
0.00013824
0.00013824
0.00013824
0.00013824
0.00013824
0.00013824
0.00013824
0.00013824
0.00013824
0.00013824
0.00013824
0.00013824
0.00013824
0.00013824
0.00013824
0.00013824
0.00013824
0.00013824
0.00013824
0.00013824
0.00013824
0.00013824
0.00013824
0.00013824
0.00013824
0.00013824
0.00013824
0.00013824
0.00013824
0.00013824
0.00013824
0.00013824
0.00013824
0.00013824
0.000138116
0.00012451
0.000101166
8.61374e-05
8.42237e-05
9.68337e-05
0.000121432
0.00013803
0.00013824
0.00013824
0.00013824
0.00013824
0.00013824
0.00013824
0.00013824
0.00013824
0.00013824
0.00013824
0.00013824
0.00013824
0.00013824
0.00013824
0.00013824
0.00013824
0.00013824
0.00013824
0.00013824
0.00013824
0.00013824
0.00013824
0.00013824
0.00013824
0.00013824
0.00013824
0.00013824
0.00013824
0.00013824
0.00013824
0.00013824
0.00013824
0.00013824
0.00013824
0.00013824
0.00013824
0.00013824
0.00013824
0.00013824
0.00013824
0.00013824
0.00013824
0.00013824
0.00013824
0.00013824
0.00013824
0.00013824
0.00013824
0.00013824
0.00013824
0.00013824
0.00013824
0.00013824
0.00013824
0.00013824
0.00013824
0.00013824
0.00013824
0.00013824
0.00013824
0.00013824
0.00013824
0.00013824
0.00013824
0.00013824
0.00013824
0.00013824
0.00013824
0.00013824
0.00013824
0.00013824
0.00013824
0.00013824
0.00013824
0.00013824
0.00013824
0.00013824
0.00013824
0.00013824
0.00013824
0.00013824
0.00013824
0.00013824
0.00013824
0.00013824
0.00013824
0.00013824
0.00013824
0.00013824
0.00013824
0.00013824
0.00013824
0.00013824
0.00013824
0.00013824
0.00013824
0.00013824
0.00013824
0.00013824
0.00013824
0.00013824
0.00013824
0.00013824
0.00013824
0.00013824
0.00013824
0.00013824
0.00013824
0.00013824
0.00013824
0.00013824
0.00013824
0.00013824
0.00013824
0.000138237
0.000138163
0.000138122
0.000138232
0.00013824
0.00013824
0.00013824
0.00013824
0.00013824
0.00013824
0.00013824
0.00013824
0.00013824
0.00013824
0.00013824
0.00013824
0.00013824
0.00013824
0.00013824
0.00013824
0.00013824
0.00013824
0.00013824
0.00013824
0.00013824
0.00013824
0.00013824
0.00013824
0.00013824
0.00013824
0.00013824
0.00013824
0.00013824
0.00013824
0.00013824
0.00013824
0.00013824
0.00013824
0.00013824
0.00013824
0.00013824
0.00013824
0.00013824
0.00013824
0.00013824
0.00013824
0.00013824
0.00013824
0.00013824
0.00013824
0.00013824
0.00013824
0.00013824
0.00013824
0.00013824
0.00013824
0.00013824
0.00013824
0.00013824
0.00013824
0.00013824
0.00013824
0.00013824
0.00013824
0.00013824
0.00013824
0.00013824
0.00013824
0.00013824
0.00013824
0.00013824
0.00013824
0.00013824
0.00013824
0.00013824
0.00013824
0.00013824
0.00013824
0.00013824
0.00013824
0.00013824
0.00013824
0.00013824
0.00013824
0.00013824
0.00013824
0.00013824
0.00013824
0.00013824
0.00013824
0.00013824
0.00013824
0.00013824
0.00013824
0.00013824
0.00013824
0.00013824
0.00013824
0.00013824
0.00013824
0.00013824
0.00013824
0.00013824
0.00013824
0.00013824
0.00013824
0.00013824
0.00013824
0.00013824
0.00013824
0.00013824
0.00013824
0.00013824
0.00013824
0.00013824
0.00013824
0.00013824
0.00013824
0.00013824
0.00013824
0.00013824
0.00013824
0.00013824
0.00013824
0.00013824
0.00013824
0.00013824
0.00013824
0.00013824
0.00013824
0.00013824
0.00013824
0.00013824
0.00013824
0.00013824
0.00013824
0.00013824
0.00013824
0.00013824
0.00013824
0.00013824
0.00013824
0.00013824
0.00013824
0.00013824
0.00013824
0.00013824
0.00013824
0.00013824
0.00013824
0.00013824
0.00013824
0.00013824
0.00013824
0.00013824
0.00013824
0.00013824
0.00013824
0.00013824
0.00013824
0.00013824
0.00013824
0.00013824
0.00013824
0.00013824
0.00013824
0.00013824
0.00013824
0.00013824
0.00013824
0.00013824
0.00013824
0.00013824
0.00013824
0.00013824
0.00013824
0.00013824
0.00013824
0.00013824
0.00013824
0.00013824
0.00013824
0.00013824
0.00013824
0.00013824
0.00013824
0.00013824
0.00013824
0.00013824
0.00013824
0.00013824
0.00013824
0.00013824
0.00013824
0.00013824
0.00013824
0.00013824
0.00013824
0.00013824
0.00013824
0.00013824
0.00013824
0.00013824
0.00013824
0.00013824
0.00013824
0.00013824
0.00013824
0.00013824
0.00013824
0.00013824
0.00013824
0.00013824
0.00013824
0.00013824
0.00013824
0.00013824
0.00013824
0.00013824
0.00013824
0.00013824
0.00013824
0.00013824
0.00013824
0.00013824
0.00013824
0.00013824
0.00013824
0.00013824
0.00013824
0.00013824
0.00013824
0.00013824
0.00013824
0.00013824
0.00013824
0.00013824
0.00013824
0.00013824
0.00013824
0.00013824
0.00013824
0.00013824
0.00013824
0.00013824
0.00013824
0.00013824
0.00013824
0.00013824
0.00013824
0.00013824
0.00013824
0.00013824
0.00013824
0.00013824
0.00013824
0.00013824
0.00013824
0.00013824
0.00013824
0.00013824
0.00013824
0.00013824
0.00013824
0.00013824
0.00013824
0.00013824
0.00013824
0.00013824
0.00013824
0.00013824
0.00013824
0.00013824
0.00013824
0.00013824
0.00013824
0.00013824
0.00013824
0.00013824
0.00013824
0.00013824
0.00013824
0.00013824
0.00013824
0.00013824
0.00013824
0.00013824
0.00013824
0.00013824
0.00013824
0.00013824
0.00013824
0.00013824
0.00013824
0.00013824
0.00013824
0.00013824
0.00013824
0.00013824
0.00013824
0.00013824
0.00013824
0.00013824
0.00013824
0.00013824
0.00013824
0.00013824
0.00013824
0.00013824
0.00013824
0.00013824
0.00013824
0.00013824
0.00013824
0.00013824
0.00013824
0.00013824
0.00013824
0.00013824
0.00013824
0.00013824
0.00013824
0.00013824
0.00013824
0.00013824
0.00013824
0.00013824
0.00013824
0.00013824
0.00013824
0.00013824
0.00013824
0.00013824
0.00013824
0.00013824
0.00013824
0.00013824
0.00013824
0.00013824
0.00013824
0.00013824
0.00013824
0.00013824
0.00013824
0.00013824
0.00013824
0.00013824
0.00013824
0.00013824
0.00013824
0.00013824
0.00013824
0.00013824
0.00013824
0.00013824
0.00013824
0.00013824
0.00013824
0.00013824
0.00013824
0.00013824
0.00013824
0.00013824
0.00013824
0.00013824
0.00013824
0.00013824
0.00013824
0.00013824
0.00013824
0.00013824
0.00013824
0.00013824
0.00013824
0.00013824
0.00013824
0.00013824
0.00013824
0.00013824
0.00013824
0.00013824
0.00013824
0.00013824
0.00013824
0.00013824
0.00013824
0.00013824
0.00013824
0.00013824
0.00013824
0.00013824
0.00013824
0.00013824
0.00013824
0.00013824
0.00013824
0.00013824
0.00013824
0.00013824
0.00013824
0.00013824
0.00013824
0.00013824
0.00013824
0.00013824
0.00013824
0.00013824
0.00013824
0.00013824
0.00013824
0.00013824
0.00013824
0.00013824
0.00013824
0.00013824
0.00013824
0.00013824
0.00013824
0.00013824
0.00013824
0.00013824
0.00013824
0.00013824
0.00013824
0.00013824
0.00013824
0.00013824
0.00013824
0.00013824
0.00013824
0.00013824
0.00013824
0.00013824
0.00013824
0.00013824
0.00013824
0.00013824
0.00013824
0.00013824
0.00013824
0.00013824
0.00013824
0.00013824
0.00013824
0.00013824
0.00013824
0.00013824
0.00013824
0.00013824
0.00013824
0.00013824
0.00013824
0.00013824
0.00013824
0.00013824
0.00013824
0.00013824
0.00013824
0.00013824
0.00013824
0.00013824
0.00013824
0.00013824
0.00013824
0.00013824
0.00013824
0.00013824
0.00013824
0.00013824
0.00013824
0.00013824
0.00013824
0.00013824
0.00013824
0.00013824
0.00013824
0.00013824
0.00013824
0.00013824
0.00013824
0.00013824
0.00013824
0.00013824
0.00013824
0.00013824
0.00013824
0.00013824
0.00013824
0.00013824
0.00013824
0.00013824
0.00013824
0.00013824
0.00013824
0.00013824
0.00013824
0.00013824
0.00013824
0.00013824
0.00013824
0.00013824
0.00013824
0.00013824
0.00013824
0.00013824
0.00013824
0.00013824
0.00013824
0.00013824
0.00013824
0.00013824
0.00013824
0.00013824
0.00013824
0.00013824
0.00013824
0.00013824
0.00013824
0.00013824
0.00013824
0.00013824
0.00013824
0.00013824
0.00013824
0.00013824
0.00013824
0.00013824
0.00013824
0.00013824
0.00013824
0.00013824
0.00013824
0.00013824
0.00013824
0.00013824
0.00013824
0.00013824
0.00013824
0.00013824
0.00013824
0.00013824
0.00013824
0.00013824
0.00013824
0.00013824
0.00013824
0.00013824
0.00013824
0.00013824
0.00013824
0.00013824
0.00013824
0.00013824
0.00013824
0.00013824
0.00013824
0.00013824
0.00013824
0.00013824
0.00013824
0.00013824
0.00013824
0.00013824
0.00013824