/*--------------------------------*- C++ -*----------------------------------*\
| =========                 |                                                 |
| \\      /  F ield         | OpenFOAM: The Open Source CFD Toolbox           |
|  \\    /   O peration     | Version:  2406                                  |
|   \\  /    A nd           | Website:  www.openfoam.com                      |
|    \\/     M anipulation  |                                                 |
\*---------------------------------------------------------------------------*/
FoamFile
{
    version     2.0;
    format      ascii;
    arch        "LSB;label=32;scalar=64";
    class       volScalarField;
    location    "5.4";
    object      D;
}
// * * * * * * * * * * * * * * * * * * * * * * * * * * * * * * * * * * * * * //

dimensions      [0 2 -1 0 0 0 0];

internalField   nonuniform List<scalar> 
14400
(
6.22529e-05
6.20508e-05
6.17599e-05
6.14733e-05
6.1236e-05
6.10635e-05
6.0959e-05
6.09241e-05
6.09624e-05
6.10832e-05
6.13034e-05
6.16507e-05
6.21654e-05
6.2886e-05
6.37508e-05
6.42171e-05
6.32813e-05
6.21506e-05
6.1241e-05
6.05558e-05
6.00364e-05
5.96342e-05
5.93168e-05
5.90639e-05
5.88638e-05
5.87106e-05
5.86035e-05
5.8546e-05
5.85474e-05
5.8625e-05
5.88109e-05
5.91689e-05
5.98486e-05
6.13238e-05
6.6159e-05
0.000106234
0.000138239
0.00013824
0.00013824
0.00013824
0.00013824
0.00013824
0.00013824
0.00013824
0.00013824
0.00013824
0.00013824
0.00013824
0.00013824
0.00013824
0.00013824
0.00013824
0.00013824
0.00013824
0.00013824
0.00013824
0.00013824
0.00013824
0.00013824
0.00013824
0.00013824
0.000137877
7.78194e-05
6.39036e-05
6.09392e-05
5.98371e-05
5.93105e-05
5.90452e-05
5.89267e-05
5.89013e-05
5.89392e-05
5.90218e-05
5.91356e-05
5.92709e-05
5.94201e-05
5.95783e-05
5.97438e-05
5.9919e-05
6.0112e-05
6.03387e-05
6.06275e-05
6.10282e-05
6.16356e-05
6.26647e-05
6.47722e-05
7.13969e-05
0.00012847
0.00013824
0.000136978
7.706e-05
6.62691e-05
6.33074e-05
6.20307e-05
6.13502e-05
6.09579e-05
6.07324e-05
6.06145e-05
6.0571e-05
6.05797e-05
6.0623e-05
6.06835e-05
6.0742e-05
6.07783e-05
6.07754e-05
6.07271e-05
6.06417e-05
6.05374e-05
6.04342e-05
6.03501e-05
6.03011e-05
6.0303e-05
6.03752e-05
6.0547e-05
6.08687e-05
6.14403e-05
6.2499e-05
6.47917e-05
7.2089e-05
0.000132924
0.00013824
6.2636e-05
6.23128e-05
6.19076e-05
6.15444e-05
6.12611e-05
6.10623e-05
6.0944e-05
6.09038e-05
6.09441e-05
6.10746e-05
6.13156e-05
6.1705e-05
6.23108e-05
6.32586e-05
6.47551e-05
6.66767e-05
6.42903e-05
6.25471e-05
6.14085e-05
6.06306e-05
6.00699e-05
5.96482e-05
5.93218e-05
5.90658e-05
5.88662e-05
5.87162e-05
5.86144e-05
5.85648e-05
5.85771e-05
5.86703e-05
5.88806e-05
5.92806e-05
6.00439e-05
6.1728e-05
6.73946e-05
0.000121488
0.00013824
0.00013824
0.00013824
0.00013824
0.00013824
0.00013824
0.00013824
0.00013824
0.00013824
0.00013824
0.00013824
0.00013824
0.00013824
0.00013824
0.00013824
0.00013824
0.00013824
0.00013824
0.00013824
0.00013824
0.00013824
0.00013824
0.00013824
0.00013824
0.00013824
0.00013822
9.11022e-05
6.51078e-05
6.12266e-05
5.99639e-05
5.93802e-05
5.9085e-05
5.89469e-05
5.8907e-05
5.89334e-05
5.9006e-05
5.91114e-05
5.92396e-05
5.93832e-05
5.95377e-05
5.97017e-05
5.98781e-05
6.00758e-05
6.03116e-05
6.06161e-05
6.10442e-05
6.1706e-05
6.28674e-05
6.54139e-05
7.40636e-05
0.000135647
0.00013824
0.000138208
9.31171e-05
6.79176e-05
6.37091e-05
6.21957e-05
6.14332e-05
6.10029e-05
6.07574e-05
6.06297e-05
6.05835e-05
6.0596e-05
6.06493e-05
6.07254e-05
6.08027e-05
6.08557e-05
6.08594e-05
6.08044e-05
6.07029e-05
6.0581e-05
6.04636e-05
6.0371e-05
6.03193e-05
6.03246e-05
6.04069e-05
6.05982e-05
6.09567e-05
6.16068e-05
6.28847e-05
6.61812e-05
8.21359e-05
0.000137983
0.00013824
6.38373e-05
6.30128e-05
6.22704e-05
6.17194e-05
6.13336e-05
6.10791e-05
6.09323e-05
6.08816e-05
6.09263e-05
6.1077e-05
6.13612e-05
6.18365e-05
6.26304e-05
6.40939e-05
6.77266e-05
8.51062e-05
6.7647e-05
6.35166e-05
6.17823e-05
6.07977e-05
6.01494e-05
5.96865e-05
5.93408e-05
5.90775e-05
5.88782e-05
5.8734e-05
5.86429e-05
5.8609e-05
5.86437e-05
5.87703e-05
5.90343e-05
5.95346e-05
6.05292e-05
6.29863e-05
7.3257e-05
0.000137347
0.00013824
0.00013824
0.00013824
0.00013824
0.00013824
0.00013824
0.00013824
0.00013824
0.00013824
0.00013824
0.00013824
0.00013824
0.00013824
0.00013824
0.00013824
0.00013824
0.00013824
0.00013824
0.00013824
0.00013824
0.00013824
0.00013824
0.00013824
0.00013824
0.00013824
0.00013824
0.000116041
6.71513e-05
6.1818e-05
6.02429e-05
5.9536e-05
5.9175e-05
5.89952e-05
5.89254e-05
5.89282e-05
5.89815e-05
5.90705e-05
5.91851e-05
5.93183e-05
5.9466e-05
5.96278e-05
5.98074e-05
6.0015e-05
6.02698e-05
6.06066e-05
6.10915e-05
6.18684e-05
6.33455e-05
6.74374e-05
9.24911e-05
0.000138209
0.00013824
0.00013824
0.000122767
7.10095e-05
6.46022e-05
6.25767e-05
6.16303e-05
6.11157e-05
6.08268e-05
6.06778e-05
6.06262e-05
6.06475e-05
6.0724e-05
6.08374e-05
6.09624e-05
6.10611e-05
6.10836e-05
6.1009e-05
6.08627e-05
6.06954e-05
6.05436e-05
6.04304e-05
6.0372e-05
6.03838e-05
6.04876e-05
6.07208e-05
6.11585e-05
6.19777e-05
6.37288e-05
6.93044e-05
0.00011487
0.00013824
0.00013824
6.87502e-05
6.47757e-05
6.30276e-05
6.20748e-05
6.15014e-05
6.11526e-05
6.0959e-05
6.08918e-05
6.09446e-05
6.11302e-05
6.14881e-05
6.21115e-05
6.32327e-05
6.56227e-05
7.35141e-05
0.000134124
7.96597e-05
6.56113e-05
6.24673e-05
6.11025e-05
6.03039e-05
5.97706e-05
5.9391e-05
5.91138e-05
5.89131e-05
5.87767e-05
5.87015e-05
5.86923e-05
5.87636e-05
5.89459e-05
5.93051e-05
6.00013e-05
6.15493e-05
6.67618e-05
0.0001147
0.00013824
0.00013824
0.00013824
0.00013824
0.00013824
0.00013824
0.00013824
0.00013824
0.00013824
0.00013824
0.00013824
0.00013824
0.00013824
0.00013824
0.00013824
0.00013824
0.00013824
0.00013824
0.00013824
0.00013824
0.00013824
0.00013824
0.00013824
0.00013824
0.00013824
0.00013824
0.00013824
0.000137013
7.2597e-05
6.31529e-05
6.07913e-05
5.98227e-05
5.93384e-05
5.90869e-05
5.89686e-05
5.89351e-05
5.89594e-05
5.90247e-05
5.91203e-05
5.92395e-05
5.93789e-05
5.9539e-05
5.97252e-05
5.99497e-05
6.02356e-05
6.06255e-05
6.12041e-05
6.21713e-05
6.41537e-05
7.0387e-05
0.000122162
0.00013824
0.00013824
0.00013824
0.000138185
8.90098e-05
6.71205e-05
6.33847e-05
6.20272e-05
6.13512e-05
6.09831e-05
6.07963e-05
6.07355e-05
6.07735e-05
6.08944e-05
6.10841e-05
6.13164e-05
6.15369e-05
6.16119e-05
6.14809e-05
6.1214e-05
6.09428e-05
6.07192e-05
6.05654e-05
6.04929e-05
6.05152e-05
6.0656e-05
6.09643e-05
6.15507e-05
6.27164e-05
6.5649e-05
7.89995e-05
0.000137801
0.00013824
0.00013824
0.000115643
7.06089e-05
6.47059e-05
6.2787e-05
6.18578e-05
6.13505e-05
6.10813e-05
6.09885e-05
6.10564e-05
6.13029e-05
6.17926e-05
6.27078e-05
6.46161e-05
7.05184e-05
0.000117394
0.00013824
0.000125079
7.03304e-05
6.37789e-05
6.16619e-05
6.05943e-05
5.99401e-05
5.9502e-05
5.91991e-05
5.8993e-05
5.88656e-05
5.88122e-05
5.88395e-05
5.89675e-05
5.92405e-05
5.97642e-05
6.08454e-05
6.38574e-05
8.11393e-05
0.000138124
0.00013824
0.00013824
0.00013824
0.00013824
0.00013824
0.00013824
0.00013824
0.00013824
0.00013824
0.00013824
0.00013824
0.00013824
0.00013824
0.00013824
0.00013824
0.00013824
0.00013824
0.00013824
0.00013824
0.00013824
0.00013824
0.00013824
0.00013824
0.00013824
0.00013824
0.00013824
0.00013824
0.00013824
0.000117506
6.7381e-05
6.19435e-05
6.03364e-05
5.96184e-05
5.92487e-05
5.90571e-05
5.89718e-05
5.89565e-05
5.8991e-05
5.90631e-05
5.9166e-05
5.92969e-05
5.94578e-05
5.96562e-05
5.9908e-05
6.0243e-05
6.07182e-05
6.14567e-05
6.27943e-05
6.61844e-05
8.38853e-05
0.000138095
0.00013824
0.00013824
0.00013824
0.00013824
0.000134877
7.29795e-05
6.5095e-05
6.28227e-05
6.18278e-05
6.13102e-05
6.10546e-05
6.0977e-05
6.10456e-05
6.1251e-05
6.16011e-05
6.20954e-05
6.27306e-05
6.30034e-05
6.26584e-05
6.19817e-05
6.14547e-05
6.1078e-05
6.08445e-05
6.07441e-05
6.07838e-05
6.09904e-05
6.14395e-05
6.23321e-05
6.43588e-05
7.12082e-05
0.000130344
0.00013824
0.00013824
0.00013824
0.00013824
0.000110631
6.99696e-05
6.44067e-05
6.26171e-05
6.18059e-05
6.13976e-05
6.12606e-05
6.13583e-05
6.17231e-05
6.24813e-05
6.41254e-05
6.89155e-05
9.91271e-05
0.000138234
0.00013824
0.000138236
0.000100141
6.7581e-05
6.28412e-05
6.11581e-05
6.02691e-05
5.97235e-05
5.93732e-05
5.91533e-05
5.90353e-05
5.90123e-05
5.90956e-05
5.9318e-05
5.97513e-05
6.05944e-05
6.25636e-05
6.96741e-05
0.000134495
0.00013824
0.00013824
0.00013824
0.00013824
0.00013824
0.00013824
0.00013824
0.00013824
0.00013824
0.00013824
0.00013824
0.00013824
0.00013824
0.00013824
0.00013824
0.00013824
0.00013824
0.00013824
0.00013824
0.00013824
0.00013824
0.00013824
0.00013824
0.00013824
0.00013824
0.00013824
0.00013824
0.00013824
0.00013824
0.00013821
8.78291e-05
6.47925e-05
6.12856e-05
6.00966e-05
5.95284e-05
5.92248e-05
5.90652e-05
5.89966e-05
5.89919e-05
5.90358e-05
5.91208e-05
5.92448e-05
5.94113e-05
5.96311e-05
5.99267e-05
6.03411e-05
6.09618e-05
6.19969e-05
6.41124e-05
7.09033e-05
0.000128761
0.00013824
0.00013824
0.00013824
0.00013824
0.00013824
0.00013824
0.000127867
7.13186e-05
6.47558e-05
6.28721e-05
6.19974e-05
6.15953e-05
6.14801e-05
6.16105e-05
6.19925e-05
6.2742e-05
6.40133e-05
6.70477e-05
6.8629e-05
6.68725e-05
6.38619e-05
6.25693e-05
6.18124e-05
6.14088e-05
6.12482e-05
6.13236e-05
6.16659e-05
6.24335e-05
6.41808e-05
7.02011e-05
0.000119948
0.00013824
0.00013824
0.00013824
0.00013824
0.00013824
0.000138239
0.000106173
6.98374e-05
6.44566e-05
6.28711e-05
6.21207e-05
6.18897e-05
6.20543e-05
6.27081e-05
6.41777e-05
6.87805e-05
9.37454e-05
0.000138215
0.00013824
0.00013824
0.00013824
0.000138101
8.30745e-05
6.5899e-05
6.23571e-05
6.09194e-05
6.01499e-05
5.97074e-05
5.94575e-05
5.93487e-05
5.93715e-05
5.95509e-05
5.99598e-05
6.07471e-05
6.24774e-05
6.8658e-05
0.000127816
0.00013824
0.00013824
0.00013824
0.00013824
0.00013824
0.00013824
0.00013824
0.00013824
0.00013824
0.00013824
0.00013824
0.00013824
0.00013824
0.00013824
0.00013824
0.00013824
0.00013824
0.00013824
0.00013824
0.00013824
0.00013824
0.00013824
0.00013824
0.00013824
0.00013824
0.00013824
0.00013824
0.00013824
0.00013824
0.00013824
0.00013824
0.000137021
7.23701e-05
6.32375e-05
6.09658e-05
6.00259e-05
5.95344e-05
5.92596e-05
5.91148e-05
5.90577e-05
5.90671e-05
5.91328e-05
5.92529e-05
5.94331e-05
5.96902e-05
6.00585e-05
6.06116e-05
6.15167e-05
6.3284e-05
6.85536e-05
0.000108622
0.000138239
0.00013824
0.00013824
0.00013824
0.00013824
0.00013824
0.00013824
0.00013824
0.000126382
7.17768e-05
6.58308e-05
6.36182e-05
6.28037e-05
6.25708e-05
6.28721e-05
6.37259e-05
6.6053e-05
7.07289e-05
0.000102623
0.00012463
0.000100871
7.04283e-05
6.5718e-05
6.35102e-05
6.26441e-05
6.23098e-05
6.2494e-05
6.32116e-05
6.50205e-05
7.06955e-05
0.000119161
0.00013824
0.00013824
0.00013824
0.00013824
0.00013824
0.00013824
0.00013824
0.000138239
0.000113707
7.10674e-05
6.61559e-05
6.39065e-05
6.34111e-05
6.37641e-05
6.55653e-05
7.02471e-05
0.000102846
0.000138219
0.00013824
0.00013824
0.00013824
0.00013824
0.00013824
0.000137786
7.88549e-05
6.58115e-05
6.23839e-05
6.10028e-05
6.03583e-05
6.00418e-05
5.99427e-05
6.00459e-05
6.04218e-05
6.13366e-05
6.3289e-05
6.91599e-05
0.000126498
0.00013824
0.00013824
0.00013824
0.00013824
0.00013824
0.00013824
0.00013824
0.00013824
0.00013824
0.00013824
0.00013824
0.00013824
0.00013824
0.00013824
0.00013824
0.00013824
0.00013824
0.00013824
0.00013824
0.00013824
0.00013824
0.00013824
0.00013824
0.00013824
0.00013824
0.00013824
0.00013824
0.00013824
0.00013824
0.00013824
0.00013824
0.00013824
0.00013824
0.000133484
6.97684e-05
6.2939e-05
6.10163e-05
6.0127e-05
5.96389e-05
5.93705e-05
5.92355e-05
5.91985e-05
5.92425e-05
5.93637e-05
5.95724e-05
5.98964e-05
6.03944e-05
6.12222e-05
6.28067e-05
6.71228e-05
9.27049e-05
0.000138222
0.00013824
0.00013824
0.00013824
0.00013824
0.00013824
0.00013824
0.00013824
0.00013824
0.00013824
0.000133082
8.16803e-05
6.91804e-05
6.64118e-05
6.548e-05
6.67384e-05
6.96472e-05
8.57828e-05
0.000130958
0.000138238
0.00013824
0.000138237
0.000129815
8.33541e-05
6.92806e-05
6.63338e-05
6.50278e-05
6.58519e-05
6.8445e-05
7.66219e-05
0.00012922
0.00013824
0.00013824
0.00013824
0.00013824
0.00013824
0.00013824
0.00013824
0.00013824
0.00013824
0.00013824
0.000129629
8.68448e-05
7.01896e-05
6.87306e-05
6.97753e-05
8.07878e-05
0.000124235
0.000138238
0.00013824
0.00013824
0.00013824
0.00013824
0.00013824
0.00013824
0.00013824
0.000137864
8.62384e-05
6.72932e-05
6.30049e-05
6.18051e-05
6.13044e-05
6.12204e-05
6.15171e-05
6.24157e-05
6.58304e-05
7.52072e-05
0.000132703
0.00013824
0.00013824
0.00013824
0.00013824
0.00013824
0.00013824
0.00013824
0.00013824
0.00013824
0.00013824
0.00013824
0.00013824
0.00013824
0.00013824
0.00013824
0.00013824
0.00013824
0.00013824
0.00013824
0.00013824
0.00013824
0.00013824
0.00013824
0.00013824
0.00013824
0.00013824
0.00013824
0.00013824
0.00013824
0.00013824
0.00013824
0.00013824
0.00013824
0.00013824
0.00013824
0.000131891
7.01517e-05
6.3617e-05
6.1426e-05
6.0399e-05
5.98878e-05
5.96129e-05
5.95033e-05
5.95194e-05
5.9651e-05
5.9918e-05
6.03773e-05
6.11411e-05
6.26765e-05
6.68054e-05
8.73284e-05
0.000138172
0.00013824
0.00013824
0.00013824
0.00013824
0.00013824
0.00013824
0.00013824
0.00013824
0.00013824
0.00013824
0.00013824
0.000138033
0.000117362
8.78691e-05
7.79718e-05
9.176e-05
0.000121686
0.00013816
0.00013824
0.00013824
0.00013824
0.00013824
0.00013824
0.000138108
0.000119916
8.91307e-05
7.58041e-05
8.4282e-05
0.000113466
0.000137586
0.00013824
0.00013824
0.00013824
0.00013824
0.00013824
0.00013824
0.00013824
0.00013824
0.00013824
0.00013824
0.00013824
0.00013824
0.000138175
0.000128571
0.000116846
0.00012622
0.000137995
0.00013824
0.00013824
0.00013824
0.00013824
0.00013824
0.00013824
0.00013824
0.00013824
0.00013824
0.00013824
0.000138184
0.000109648
7.00725e-05
6.66573e-05
6.51642e-05
6.5168e-05
6.6439e-05
6.93574e-05
0.000104781
0.000137766
0.00013824
0.00013824
0.00013824
0.00013824
0.00013824
0.00013824
0.00013824
0.00013824
0.00013824
0.00013824
0.00013824
0.00013824
0.00013824
0.00013824
0.00013824
0.00013824
0.00013824
0.00013824
0.00013824
0.00013824
0.00013824
0.00013824
0.00013824
0.00013824
0.00013824
0.00013824
0.00013824
0.00013824
0.00013824
0.00013824
0.00013824
0.00013824
0.00013824
0.00013824
0.00013824
0.00013824
0.00013824
0.000135011
7.62612e-05
6.56131e-05
6.21705e-05
6.10209e-05
6.03952e-05
6.01444e-05
6.01177e-05
6.02785e-05
6.06783e-05
6.15003e-05
6.29694e-05
6.76493e-05
9.26171e-05
0.000138175
0.00013824
0.00013824
0.00013824
0.00013824
0.00013824
0.00013824
0.00013824
0.00013824
0.00013824
0.00013824
0.00013824
0.00013824
0.00013824
0.00013824
0.000138175
0.000137638
0.000138211
0.00013824
0.00013824
0.00013824
0.00013824
0.00013824
0.00013824
0.00013824
0.00013824
0.00013824
0.000138193
0.000137249
0.000138109
0.00013824
0.00013824
0.00013824
0.00013824
0.00013824
0.00013824
0.00013824
0.00013824
0.00013824
0.00013824
0.00013824
0.00013824
0.00013824
0.00013824
0.00013824
0.00013824
0.00013824
0.00013824
0.00013824
0.00013824
0.00013824
0.00013824
0.00013824
0.00013824
0.00013824
0.00013824
0.00013824
0.00013824
0.00013824
0.00013824
0.00013824
0.000133351
0.000108423
8.99042e-05
9.15081e-05
0.000109964
0.000133216
0.000138239
0.00013824
0.00013824
0.00013824
0.00013824
0.00013824
0.00013824
0.00013824
0.00013824
0.00013824
0.00013824
0.00013824
0.00013824
0.00013824
0.00013824
0.00013824
0.00013824
0.00013824
0.00013824
0.00013824
0.00013824
0.00013824
0.00013824
0.00013824
0.00013824
0.00013824
0.00013824
0.00013824
0.00013824
0.00013824
0.00013824
0.00013824
0.00013824
0.00013824
0.00013824
0.00013824
0.00013824
0.00013824
0.00013824
0.00013824
0.000137863
9.9077e-05
6.84194e-05
6.45458e-05
6.22558e-05
6.16373e-05
6.15223e-05
6.17622e-05
6.25386e-05
6.51498e-05
6.9597e-05
0.000110011
0.000138225
0.00013824
0.00013824
0.00013824
0.00013824
0.00013824
0.00013824
0.00013824
0.00013824
0.00013824
0.00013824
0.00013824
0.00013824
0.00013824
0.00013824
0.00013824
0.00013824
0.00013824
0.00013824
0.00013824
0.00013824
0.00013824
0.00013824
0.00013824
0.00013824
0.00013824
0.00013824
0.00013824
0.00013824
0.00013824
0.00013824
0.00013824
0.00013824
0.00013824
0.00013824
0.00013824
0.00013824
0.00013824
0.00013824
0.00013824
0.00013824
0.00013824
0.00013824
0.00013824
0.00013824
0.00013824
0.00013824
0.00013824
0.00013824
0.00013824
0.00013824
0.00013824
0.00013824
0.00013824
0.00013824
0.00013824
0.00013824
0.00013824
0.00013824
0.00013824
0.00013824
0.00013824
0.00013824
0.00013824
0.000138213
0.000138222
0.00013824
0.00013824
0.00013824
0.00013824
0.00013824
0.00013824
0.00013824
0.00013824
0.00013824
0.00013824
0.00013824
0.00013824
0.00013824
0.00013824
0.00013824
0.00013824
0.00013824
0.00013824
0.00013824
0.00013824
0.00013824
0.00013824
0.00013824
0.00013824
0.00013824
0.00013824
0.00013824
0.00013824
0.00013824
0.00013824
0.00013824
0.00013824
0.00013824
0.00013824
0.00013824
0.00013824
0.00013824
0.00013824
0.00013824
0.00013824
0.00013824
0.00013824
0.00013824
0.000138237
0.000127286
8.96409e-05
6.87944e-05
6.68865e-05
6.64259e-05
6.69949e-05
6.91575e-05
9.23652e-05
0.000130682
0.00013824
0.00013824
0.00013824
0.00013824
0.00013824
0.00013824
0.00013824
0.00013824
0.00013824
0.00013824
0.00013824
0.00013824
0.00013824
0.00013824
0.00013824
0.00013824
0.00013824
0.00013824
0.00013824
0.00013824
0.00013824
0.00013824
0.00013824
0.00013824
0.00013824
0.00013824
0.00013824
0.00013824
0.00013824
0.00013824
0.00013824
0.00013824
0.00013824
0.00013824
0.00013824
0.00013824
0.00013824
0.00013824
0.00013824
0.00013824
0.00013824
0.00013824
0.00013824
0.00013824
0.00013824
0.00013824
0.00013824
0.00013824
0.00013824
0.00013824
0.00013824
0.00013824
0.00013824
0.00013824
0.00013824
0.00013824
0.00013824
0.00013824
0.00013824
0.00013824
0.00013824
0.00013824
0.00013824
0.00013824
0.00013824
0.00013824
0.00013824
0.00013824
0.00013824
0.00013824
0.00013824
0.00013824
0.00013824
0.00013824
0.00013824
0.00013824
0.00013824
0.00013824
0.00013824
0.00013824
0.00013824
0.00013824
0.00013824
0.00013824
0.00013824
0.00013824
0.00013824
0.00013824
0.00013824
0.00013824
0.00013824
0.00013824
0.00013824
0.00013824
0.00013824
0.00013824
0.00013824
0.00013824
0.00013824
0.00013824
0.00013824
0.00013824
0.00013824
0.00013824
0.00013824
0.00013824
0.00013824
0.00013824
0.00013824
0.00013824
0.00013824
0.00013824
0.00013822
0.000132213
0.00011686
0.000109486
0.000116249
0.000132244
0.000138227
0.00013824
0.00013824
0.00013824
0.00013824
0.00013824
0.00013824
0.00013824
0.00013824
0.00013824
0.00013824
0.00013824
0.00013824
0.00013824
0.00013824
0.00013824
0.00013824
0.00013824
0.00013824
0.00013824
0.00013824
0.00013824
0.00013824
0.00013824
0.00013824
0.00013824
0.00013824
0.00013824
0.00013824
0.00013824
0.00013824
0.00013824
0.00013824
0.00013824
0.00013824
0.00013824
0.00013824
0.00013824
0.00013824
0.00013824
0.00013824
0.00013824
0.00013824
0.00013824
0.00013824
0.00013824
0.00013824
0.00013824
0.00013824
0.00013824
0.00013824
0.00013824
0.00013824
0.00013824
0.00013824
0.00013824
0.00013824
0.00013824
0.00013824
0.00013824
0.00013824
0.00013824
0.00013824
0.00013824
0.00013824
0.00013824
0.00013824
0.00013824
0.00013824
0.00013824
0.00013824
0.00013824
0.00013824
0.00013824
0.00013824
0.00013824
0.00013824
0.00013824
0.00013824
0.00013824
0.00013824
0.00013824
0.00013824
0.00013824
0.00013824
0.00013824
0.00013824
0.00013824
0.00013824
0.00013824
0.00013824
0.00013824
0.00013824
0.00013824
0.00013824
0.00013824
0.00013824
0.00013824
0.00013824
0.00013824
0.00013824
0.00013824
0.00013824
0.00013824
0.00013824
0.00013824
0.00013824
0.00013824
0.00013824
0.00013824
0.00013824
0.00013824
0.00013824
0.00013824
0.00013824
0.00013824
0.00013824
0.00013824
0.00013824
0.00013824
0.00013824
0.00013824
0.00013824
0.00013824
0.00013824
0.00013824
0.00013824
0.00013824
0.00013824
0.00013824
0.00013824
0.00013824
0.00013824
0.00013824
0.00013824
0.00013824
0.00013824
0.00013824
0.00013824
0.00013824
0.00013824
0.00013824
0.00013824
0.00013824
0.00013824
0.00013824
0.00013824
0.00013824
0.00013824
0.00013824
0.00013824
0.00013824
0.00013824
0.00013824
0.00013824
0.00013824
0.00013824
0.00013824
0.00013824
0.00013824
0.00013824
0.00013824
0.00013824
0.00013824
0.00013824
0.00013824
0.00013824
0.00013824
0.00013824
0.00013824
0.00013824
0.00013824
0.00013824
0.00013824
0.00013824
0.00013824
0.00013824
0.00013824
0.00013824
0.00013824
0.00013824
0.00013824
0.00013824
0.00013824
0.00013824
0.00013824
0.00013824
0.00013824
0.00013824
0.00013824
0.00013824
0.00013824
0.00013824
0.00013824
0.00013824
0.00013824
0.00013824
0.00013824
0.00013824
0.00013824
0.00013824
0.00013824
0.00013824
0.00013824
0.00013824
0.00013824
0.00013824
0.00013824
0.00013824
0.00013824
0.00013824
0.00013824
0.00013824
0.00013824
0.00013824
0.00013824
0.00013824
0.00013824
0.00013824
0.00013824
0.00013824
0.00013824
0.00013824
0.00013824
0.00013824
0.00013824
0.00013824
0.00013824
0.00013824
0.00013824
0.00013824
0.00013824
0.00013824
0.00013824
0.00013824
0.00013824
0.00013824
0.00013824
0.00013824
0.00013824
0.00013824
0.00013824
0.00013824
0.00013824
0.00013824
0.00013824
0.00013824
0.00013824
0.00013824
0.00013824
0.00013824
0.00013824
0.00013824
0.00013824
0.00013824
0.00013824
0.00013824
0.00013824
0.00013824
0.00013824
0.00013824
0.00013824
0.00013824
0.00013824
0.00013824
0.00013824
0.00013824
0.00013824
0.00013824
0.00013824
0.00013824
0.00013824
0.00013824
0.00013824
0.00013824
0.00013824
0.00013824
0.00013824
0.00013824
0.00013824
0.00013824
0.00013824
0.00013824
0.00013824
0.00013824
0.00013824
0.00013824
0.00013824
0.00013824
0.00013824
0.00013824
0.00013824
0.00013824
0.00013824
0.00013824
0.00013824
0.00013824
0.00013824
0.00013824
0.00013824
0.00013824
0.00013824
0.00013824
0.00013824
0.00013824
0.00013824
0.00013824
0.00013824
0.00013824
0.00013824
0.00013824
0.00013824
0.00013824
0.00013824
0.00013824
0.00013824
0.00013824
0.00013824
0.00013824
0.00013824
0.00013824
0.00013824
0.00013824
0.00013824
0.00013824
0.00013824
0.00013824
0.00013824
0.00013824
0.00013824
0.00013824
0.00013824
0.00013824
0.00013824
0.00013824
0.00013824
0.00013824
0.00013824
0.00013824
0.00013824
0.00013824
0.00013824
0.00013824
0.00013824
0.00013824
0.00013824
0.00013824
0.00013824
0.00013824
0.00013824
0.00013824
0.00013824
0.00013824
0.00013824
0.00013824
0.00013824
0.00013824
0.00013824
0.00013824
0.00013824
0.00013824
0.00013824
0.00013824
0.00013824
0.00013824
0.00013824
0.00013824
0.00013824
0.00013824
0.00013824
0.00013824
0.00013824
0.00013824
0.00013824
0.00013824
0.00013824
0.00013824
0.00013824
0.00013824
0.00013824
0.00013824
0.00013824
0.00013824
0.00013824
0.00013824
0.00013824
0.00013824
0.00013824
0.00013824
0.00013824
0.00013824
0.00013824
0.00013824
0.00013824
0.00013824
0.00013824
0.00013824
0.00013824
0.00013824
0.00013824
0.00013824
0.00013824
0.00013824
0.00013824
0.00013824
0.00013824
0.00013824
0.00013824
0.00013824
0.00013824
0.00013824
0.00013824
0.00013824
0.00013824
0.00013824
0.00013824
0.00013824
0.00013824
0.00013824
0.00013824
0.00013824
0.00013824
0.00013824
0.00013824
0.00013824
0.00013824
0.00013824
0.00013824
0.00013824
0.00013824
0.00013824
0.00013824
0.00013824
0.00013824
0.00013824
0.00013824
0.00013824
0.00013824
0.00013824
0.00013824
0.00013824
0.00013824
0.00013824
0.00013824
0.00013824
0.00013824
0.00013824
0.00013824
0.00013824
0.00013824
0.00013824
0.00013824
0.00013824
0.00013824
0.00013824
0.00013824
0.00013824
0.00013824
0.00013824
0.00013824
0.00013824
0.00013824
0.00013824
0.00013824
0.00013824
0.00013824
0.00013824
0.00013824
0.00013824
0.00013824
0.00013824
0.00013824
0.00013824
0.00013824
0.00013824
0.00013824
0.00013824
0.00013824
0.00013824
0.00013824
0.00013824
0.00013824
0.00013824
0.00013824
0.00013824
0.00013824
0.00013824
0.00013824
0.00013824
0.00013824
0.00013824
0.00013824
0.00013824
0.00013824
0.00013824
0.00013824
0.00013824
0.00013824
0.00013824
0.00013824
0.00013824
0.00013824
0.00013824
0.00013824
0.00013824
0.00013824
0.00013824
0.00013824
0.00013824
0.00013824
0.00013824
0.00013824
0.00013824
0.00013824
0.00013824
0.00013824
0.00013824
0.00013824
0.00013824
0.00013824
0.00013824
0.00013824
0.00013824
0.00013824
0.00013824
0.00013824
0.00013824
0.00013824
0.00013824
0.00013824
0.00013824
0.00013824
0.00013824
0.00013824
0.00013824
0.00013824
0.00013824
0.00013824
0.00013824
0.00013824
0.00013824
0.00013824
0.00013824
0.00013824
0.00013824
0.00013824
0.00013824
0.00013824
0.00013824
0.00013824
0.00013824
0.00013824
0.00013824
0.00013824
0.00013824
0.00013824
0.00013824
0.00013824
0.00013824
0.00013824
0.00013824
0.00013824
0.00013824
0.00013824
0.00013824
0.00013824
0.00013824
0.00013824
0.00013824
0.00013824
0.00013824
0.00013824
0.00013824
0.00013824
0.00013824
0.00013824
0.00013824
0.00013824
0.00013824
0.00013824
0.00013824
0.00013824
0.00013824
0.00013824
0.00013824
0.00013824
0.00013824
0.00013824
0.00013824
0.00013824
0.00013824
0.00013824
0.00013824
0.00013824
0.00013824
0.00013824
0.00013824
0.00013824
0.00013824
0.00013824
0.00013824
0.00013824
0.00013824
0.00013824
0.00013824
0.00013824
0.00013824
0.00013824
0.00013824
0.00013824
0.00013824
0.00013824
0.00013824
0.00013824
0.00013824
0.00013824
0.00013824
0.00013824
0.00013824
0.00013824
0.00013824
0.00013824
0.00013824
0.00013824
0.00013824
0.00013824
0.00013824
0.00013824
0.00013824
0.00013824
0.00013824
0.00013824
0.00013824
0.00013824
0.00013824
0.00013824
0.00013824
0.00013824
0.00013824
0.00013824
0.00013824
0.00013824
0.00013824
0.00013824
0.00013824
0.00013824
0.00013824
0.00013824
0.00013824
0.00013824
0.00013824
0.00013824
0.00013824
0.00013824
0.00013824
0.00013824
0.00013824
0.00013824
0.00013824
0.00013824
0.00013824
0.00013824
0.00013824
0.00013824
0.00013824
0.00013824
0.00013824
0.00013824
0.00013824
0.00013824
0.00013824
0.00013824
0.00013824
0.00013824
0.00013824
0.00013824
0.00013824
0.00013824
0.00013824
0.00013824
0.00013824
0.00013824
0.00013824
0.00013824
0.00013824
0.00013824
0.00013824
0.00013824
0.00013824
0.00013824
0.00013824
0.00013824
0.00013824
0.00013824
0.00013824
0.00013824
0.00013824
0.00013824
0.00013824
0.00013824
0.00013824
0.00013824
0.00013824
0.00013824
0.00013824
0.00013824
0.00013824
0.00013824
0.00013824
0.00013824
0.00013824
0.00013824
0.00013824
0.00013824
0.00013824
0.00013824
0.00013824
0.00013824
0.00013824
0.00013824
0.00013824
0.00013824
0.00013824
0.00013824
0.00013824
0.00013824
0.00013824
0.00013824
0.00013824
0.00013824
0.00013824
0.00013824
0.00013824
0.00013824
0.00013824
0.00013824
0.00013824
0.00013824
0.00013824
0.00013824
0.00013824
0.00013824
0.00013824
0.00013824
0.00013824
0.00013824
0.00013824
0.00013824
0.00013824
0.00013824
0.00013824
0.00013824
0.00013824
0.00013824
0.00013824
0.00013824
0.00013824
0.00013824
0.00013824
0.00013824
0.00013824
0.00013824
0.00013824
0.00013824
0.00013824
0.00013824
0.00013824
0.00013824
0.00013824
0.00013824
0.00013824
0.00013824
0.00013824
0.00013824
0.00013824
0.00013824
0.00013824
0.00013824
0.00013824
0.00013824
0.00013824
0.00013824
0.00013824
0.00013824
0.00013824
0.00013824
0.00013824
0.00013824
0.00013824
0.00013824
0.00013824
0.00013824
0.00013824
0.00013824
0.00013824
0.00013824
0.00013824
0.00013824
0.00013824
0.00013824
0.00013824
0.00013824
0.00013824
0.00013824
0.00013824
0.00013824
0.00013824
0.00013824
0.00013824
0.00013824
0.00013824
0.00013824
0.00013824
0.00013824
0.00013824
0.00013824
0.00013824
0.00013824
0.00013824
0.00013824
0.00013824
0.00013824
0.00013824
0.00013824
0.00013824
0.00013824
0.00013824
0.00013824
0.00013824
0.00013824
0.00013824
0.00013824
0.00013824
0.00013824
0.00013824
0.00013824
0.00013824
0.00013824
0.00013824
0.00013824
0.00013824
0.00013824
0.00013824
0.00013824
0.00013824
0.00013824
0.00013824
0.00013824
0.00013824
0.00013824
0.00013824
0.00013824
0.00013824
0.00013824
0.00013824
0.00013824
0.00013824
0.00013824
0.00013824
0.00013824
0.00013824
0.00013824
0.00013824
0.00013824
0.00013824
0.00013824
0.00013824
0.00013824
0.00013824
0.00013824
0.00013824
0.00013824
0.00013824
0.00013824
0.00013824
0.00013824
0.00013824
0.00013824
0.00013824
0.00013824
0.00013824
0.00013824
0.00013824
0.00013824
0.00013824
0.00013824
0.00013824
0.00013824
0.00013824
0.00013824
0.00013824
0.00013824
0.00013824
0.00013824
0.00013824
0.00013824
0.00013824
0.00013824
0.00013824
0.00013824
0.00013824
0.00013824
0.00013824
0.00013824
0.00013824
0.00013824
0.00013824
0.00013824
0.00013824
0.00013824
0.00013824
0.00013824
0.00013824
0.00013824
0.00013824
0.00013824
0.00013824
0.00013824
0.00013824
0.00013824
0.00013824
0.00013824
0.00013824
0.00013824
0.00013824
0.00013824
0.00013824
0.00013824
0.00013824
0.00013824
0.00013824
0.00013824
0.00013824
0.00013824
0.00013824
0.00013824
0.00013824
0.00013824
0.00013824
0.00013824
0.00013824
0.00013824
0.00013824
0.00013824
0.00013824
0.00013824
0.00013824
0.00013824
0.00013824
0.00013824
0.00013824
0.00013824
0.00013824
0.00013824
0.00013824
0.00013824
0.00013824
0.00013824
0.00013824
0.00013824
0.00013824
0.00013824
0.00013824
0.00013824
0.00013824
0.00013824
0.00013824
0.00013824
0.00013824
0.00013824
0.00013824
0.00013824
0.00013824
0.00013824
0.00013824
0.00013824
0.00013824
0.00013824
0.00013824
0.00013824
0.00013824
0.00013824
0.00013824
0.00013824
0.00013824
0.00013824
0.00013824
0.00013824
0.00013824
0.00013824
0.00013824
0.00013824
0.00013824
0.00013824
0.00013824
0.00013824
0.00013824
0.00013824
0.00013824
0.00013824
0.00013824
0.00013824
0.00013824
0.00013824
0.00013824
0.00013824
0.00013824
0.00013824
0.00013824
0.00013824
0.00013824
0.00013824
0.00013824
0.00013824
0.00013824
0.00013824
0.00013824
0.00013824
0.00013824
0.00013824
0.00013824
0.00013824
0.00013824
0.00013824
0.00013824
0.00013824
0.00013824
0.00013824
0.00013824
0.00013824
0.00013824
0.00013824
0.00013824
0.00013824
0.00013824
0.00013824
0.00013824
0.00013824
0.00013824
0.00013824
0.00013824
0.00013824
0.00013824
0.00013824
0.00013824
0.00013824
0.00013824
0.00013824
0.00013824
0.00013824
0.00013824
0.00013824
0.00013824
0.00013824
0.00013824
0.00013824
0.00013824
0.00013824
0.00013824
0.00013824
0.00013824
0.00013824
0.00013824
0.00013824
0.00013824
0.00013824