/*--------------------------------*- C++ -*----------------------------------*\
| =========                 |                                                 |
| \\      /  F ield         | OpenFOAM: The Open Source CFD Toolbox           |
|  \\    /   O peration     | Version:  2406                                  |
|   \\  /    A nd           | Website:  www.openfoam.com                      |
|    \\/     M anipulation  |                                                 |
\*---------------------------------------------------------------------------*/
FoamFile
{
    version     2.0;
    format      ascii;
    arch        "LSB;label=32;scalar=64";
    class       volScalarField;
    location    "6.05";
    object      D;
}
// * * * * * * * * * * * * * * * * * * * * * * * * * * * * * * * * * * * * * //

dimensions      [0 2 -1 0 0 0 0];

internalField   nonuniform List<scalar> 
14400
(
6.35719e-05
6.34252e-05
6.32035e-05
6.29749e-05
6.27786e-05
6.26319e-05
6.25408e-05
6.25078e-05
6.25362e-05
6.26318e-05
6.2803e-05
6.30593e-05
6.34021e-05
6.38004e-05
6.41365e-05
6.41596e-05
6.36711e-05
6.29821e-05
6.23133e-05
6.1733e-05
6.12427e-05
6.08268e-05
6.04697e-05
6.01599e-05
5.98911e-05
5.96606e-05
5.94696e-05
5.93224e-05
5.92268e-05
5.91957e-05
5.92507e-05
5.94296e-05
5.98066e-05
6.05566e-05
6.22409e-05
6.80152e-05
0.000124254
0.00013824
0.00013824
0.00013824
0.00013824
0.00013824
0.00013824
0.00013824
0.00013824
0.00013824
0.00013824
0.00013824
0.00013824
0.00013824
0.00013824
0.00013824
0.00013824
0.00013824
0.00013824
0.00013824
0.00013824
0.00013824
0.00013824
0.00013824
0.000138236
9.9887e-05
6.64718e-05
6.1977e-05
6.06205e-05
6.00438e-05
5.97943e-05
5.97259e-05
5.97749e-05
5.99069e-05
6.00998e-05
6.03364e-05
6.06008e-05
6.08776e-05
6.11513e-05
6.14085e-05
6.16397e-05
6.18424e-05
6.2024e-05
6.2203e-05
6.24126e-05
6.2706e-05
6.31754e-05
6.40135e-05
6.57799e-05
7.1309e-05
0.000111462
0.000138239
0.000126378
7.27663e-05
6.61684e-05
6.40385e-05
6.30245e-05
6.24708e-05
6.21606e-05
6.19986e-05
6.19347e-05
6.19379e-05
6.19864e-05
6.20614e-05
6.21439e-05
6.22136e-05
6.22496e-05
6.22353e-05
6.21653e-05
6.20488e-05
6.19045e-05
6.17534e-05
6.16148e-05
6.15059e-05
6.1443e-05
6.1445e-05
6.15377e-05
6.17634e-05
6.22018e-05
6.30336e-05
6.48087e-05
7.03886e-05
0.000113265
0.00013824
6.38072e-05
6.35787e-05
6.32669e-05
6.29702e-05
6.27291e-05
6.2555e-05
6.24489e-05
6.24103e-05
6.24412e-05
6.25481e-05
6.27432e-05
6.30447e-05
6.34732e-05
6.40321e-05
6.46362e-05
6.49177e-05
6.41358e-05
6.31967e-05
6.239e-05
6.17412e-05
6.12186e-05
6.07888e-05
6.04276e-05
6.01194e-05
5.98554e-05
5.96321e-05
5.94498e-05
5.93128e-05
5.92292e-05
5.92131e-05
5.92881e-05
5.94976e-05
5.993e-05
6.08037e-05
6.2853e-05
7.00375e-05
0.000134323
0.00013824
0.00013824
0.00013824
0.00013824
0.00013824
0.00013824
0.00013824
0.00013824
0.00013824
0.00013824
0.00013824
0.00013824
0.00013824
0.00013824
0.00013824
0.00013824
0.00013824
0.00013824
0.00013824
0.00013824
0.00013824
0.00013824
0.00013824
0.00013824
0.000112704
6.74018e-05
6.22497e-05
6.07517e-05
6.0114e-05
5.9829e-05
5.97359e-05
5.97649e-05
5.98792e-05
6.00552e-05
6.02752e-05
6.05233e-05
6.07845e-05
6.10445e-05
6.12909e-05
6.15154e-05
6.17167e-05
6.19028e-05
6.2093e-05
6.2321e-05
6.26427e-05
6.31566e-05
6.40734e-05
6.60131e-05
7.21681e-05
0.000121727
0.00013824
0.00013594
7.61437e-05
6.69674e-05
6.42975e-05
6.31203e-05
6.24967e-05
6.21491e-05
6.19647e-05
6.18874e-05
6.18847e-05
6.19339e-05
6.20162e-05
6.21116e-05
6.21974e-05
6.22479e-05
6.22402e-05
6.21649e-05
6.20361e-05
6.18786e-05
6.17179e-05
6.15752e-05
6.14682e-05
6.14134e-05
6.14298e-05
6.15451e-05
6.18061e-05
6.23048e-05
6.32578e-05
6.53453e-05
7.20203e-05
0.000127634
0.00013824
6.45248e-05
6.40128e-05
6.34554e-05
6.29995e-05
6.26629e-05
6.24334e-05
6.2298e-05
6.22485e-05
6.22841e-05
6.24127e-05
6.26539e-05
6.30451e-05
6.36551e-05
6.46081e-05
6.61186e-05
6.82655e-05
6.55263e-05
6.37368e-05
6.25788e-05
6.17779e-05
6.11873e-05
6.07282e-05
6.03574e-05
6.00506e-05
5.97949e-05
5.95845e-05
5.94187e-05
5.93014e-05
5.92415e-05
5.92552e-05
5.93715e-05
5.96464e-05
6.02044e-05
6.14121e-05
6.50965e-05
9.05784e-05
0.000138219
0.00013824
0.00013824
0.00013824
0.00013824
0.00013824
0.00013824
0.00013824
0.00013824
0.00013824
0.00013824
0.00013824
0.00013824
0.00013824
0.00013824
0.00013824
0.00013824
0.00013824
0.00013824
0.00013824
0.00013824
0.00013824
0.00013824
0.00013824
0.00013824
0.000131365
6.96266e-05
6.29848e-05
6.1075e-05
6.02786e-05
5.99114e-05
5.97651e-05
5.97536e-05
5.9833e-05
5.99766e-05
6.01654e-05
6.03834e-05
6.06166e-05
6.08521e-05
6.10795e-05
6.12928e-05
6.14924e-05
6.16876e-05
6.18991e-05
6.21632e-05
6.25421e-05
6.3153e-05
6.42669e-05
6.67532e-05
7.50882e-05
0.000135053
0.00013824
0.000138234
0.000101992
6.96104e-05
6.49425e-05
6.33615e-05
6.25827e-05
6.21542e-05
6.19227e-05
6.18184e-05
6.18043e-05
6.18566e-05
6.1956e-05
6.20817e-05
6.22065e-05
6.22935e-05
6.2303e-05
6.22118e-05
6.20501e-05
6.18591e-05
6.16742e-05
6.152e-05
6.14148e-05
6.13748e-05
6.14203e-05
6.15829e-05
6.1921e-05
6.25606e-05
6.38471e-05
6.72576e-05
8.49158e-05
0.000138076
0.00013824
6.68507e-05
6.51044e-05
6.39089e-05
6.31397e-05
6.26404e-05
6.23235e-05
6.21436e-05
6.2078e-05
6.21208e-05
6.22816e-05
6.25914e-05
6.31201e-05
6.40359e-05
6.58232e-05
7.06057e-05
9.4972e-05
6.99263e-05
6.49062e-05
6.29563e-05
6.18835e-05
6.11806e-05
6.06725e-05
6.02831e-05
5.99748e-05
5.97282e-05
5.95344e-05
5.93912e-05
5.93024e-05
5.9278e-05
5.93381e-05
5.9521e-05
5.99061e-05
6.06857e-05
6.24885e-05
6.87125e-05
0.000125526
0.00013824
0.00013824
0.00013824
0.00013824
0.00013824
0.00013824
0.00013824
0.00013824
0.00013824
0.00013824
0.00013824
0.00013824
0.00013824
0.00013824
0.00013824
0.00013824
0.00013824
0.00013824
0.00013824
0.00013824
0.00013824
0.00013824
0.00013824
0.00013824
0.00013824
0.000138223
9.16345e-05
6.54451e-05
6.17656e-05
6.05898e-05
6.0067e-05
5.98309e-05
5.97558e-05
5.97835e-05
5.98812e-05
6.00274e-05
6.02057e-05
6.04028e-05
6.06077e-05
6.08122e-05
6.10129e-05
6.12123e-05
6.14218e-05
6.16646e-05
6.19822e-05
6.24501e-05
6.32259e-05
6.47502e-05
6.91621e-05
9.87125e-05
0.000138229
0.00013824
0.00013824
0.000132776
7.38085e-05
6.62123e-05
6.38834e-05
6.28099e-05
6.22346e-05
6.19222e-05
6.17742e-05
6.17436e-05
6.18042e-05
6.19371e-05
6.2122e-05
6.23278e-05
6.24972e-05
6.25525e-05
6.2414e-05
6.21739e-05
6.19096e-05
6.16737e-05
6.14935e-05
6.13859e-05
6.13664e-05
6.14573e-05
6.16989e-05
6.2175e-05
6.30866e-05
6.5077e-05
7.15433e-05
0.000124591
0.00013824
0.00013824
7.88728e-05
6.81176e-05
6.49336e-05
6.35265e-05
6.27539e-05
6.23023e-05
6.20576e-05
6.19697e-05
6.20235e-05
6.22315e-05
6.2642e-05
6.33775e-05
6.48145e-05
6.86378e-05
8.99612e-05
0.00013813
9.10276e-05
6.76479e-05
6.36774e-05
6.21299e-05
6.12491e-05
6.06619e-05
6.02386e-05
5.9921e-05
5.9681e-05
5.95052e-05
5.93897e-05
5.93383e-05
5.93633e-05
5.94914e-05
5.97782e-05
6.03537e-05
6.16049e-05
6.54908e-05
9.40595e-05
0.000138231
0.00013824
0.00013824
0.00013824
0.00013824
0.00013824
0.00013824
0.00013824
0.00013824
0.00013824
0.00013824
0.00013824
0.00013824
0.00013824
0.00013824
0.00013824
0.00013824
0.00013824
0.00013824
0.00013824
0.00013824
0.00013824
0.00013824
0.00013824
0.00013824
0.00013824
0.00013824
0.000129399
6.95576e-05
6.30015e-05
6.11347e-05
6.03413e-05
5.99627e-05
5.97951e-05
5.97529e-05
5.97923e-05
5.98871e-05
6.00196e-05
6.01768e-05
6.03491e-05
6.05309e-05
6.07208e-05
6.0924e-05
6.11545e-05
6.14403e-05
6.18323e-05
6.24302e-05
6.34648e-05
6.56498e-05
7.2624e-05
0.00012911
0.00013824
0.00013824
0.00013824
0.00013824
0.000114007
7.08733e-05
6.5209e-05
6.33679e-05
6.24954e-05
6.20412e-05
6.18225e-05
6.17688e-05
6.18483e-05
6.20453e-05
6.23458e-05
6.27293e-05
6.31057e-05
6.33286e-05
6.30112e-05
6.25685e-05
6.2138e-05
6.17966e-05
6.15612e-05
6.14409e-05
6.14475e-05
6.16078e-05
6.19829e-05
6.2721e-05
6.4265e-05
6.88127e-05
9.92625e-05
0.000138233
0.00013824
0.00013824
0.000137171
7.99331e-05
6.75167e-05
6.44705e-05
6.31687e-05
6.2483e-05
6.21353e-05
6.20142e-05
6.20875e-05
6.23733e-05
6.29562e-05
6.40538e-05
6.65374e-05
7.53171e-05
0.000136023
0.00013824
0.000133568
7.27573e-05
6.50819e-05
6.26749e-05
6.1481e-05
6.07552e-05
6.02686e-05
5.99265e-05
5.96862e-05
5.95279e-05
5.94454e-05
5.94433e-05
5.95384e-05
5.977e-05
6.02273e-05
6.11533e-05
6.34209e-05
7.24793e-05
0.000136899
0.00013824
0.00013824
0.00013824
0.00013824
0.00013824
0.00013824
0.00013824
0.00013824
0.00013824
0.00013824
0.00013824
0.00013824
0.00013824
0.00013824
0.00013824
0.00013824
0.00013824
0.00013824
0.00013824
0.00013824
0.00013824
0.00013824
0.00013824
0.00013824
0.00013824
0.00013824
0.00013824
0.000138239
0.000104251
6.68392e-05
6.2243e-05
6.08356e-05
6.02111e-05
5.99066e-05
5.97707e-05
5.97377e-05
5.9773e-05
5.98555e-05
5.99716e-05
6.01127e-05
6.02747e-05
6.04588e-05
6.06726e-05
6.09346e-05
6.12805e-05
6.17797e-05
6.25842e-05
6.41326e-05
6.85957e-05
9.9681e-05
0.000138234
0.00013824
0.00013824
0.00013824
0.00013824
0.000138226
9.64997e-05
6.93291e-05
6.47471e-05
6.31476e-05
6.24143e-05
6.2068e-05
6.19783e-05
6.20988e-05
6.24275e-05
6.29772e-05
6.38389e-05
6.48726e-05
6.61781e-05
6.47288e-05
6.36399e-05
6.2759e-05
6.21816e-05
6.18265e-05
6.16717e-05
6.17135e-05
6.19915e-05
6.26224e-05
6.39559e-05
6.73863e-05
8.35397e-05
0.000138048
0.00013824
0.00013824
0.00013824
0.00013824
0.000136582
7.66498e-05
6.71139e-05
6.43193e-05
6.30873e-05
6.25422e-05
6.2361e-05
6.24757e-05
6.29204e-05
6.39107e-05
6.5967e-05
7.29472e-05
0.000131069
0.00013824
0.00013824
0.00013824
0.000118697
7.01555e-05
6.40799e-05
6.20705e-05
6.10519e-05
6.04404e-05
6.00437e-05
5.97897e-05
5.96467e-05
5.96054e-05
5.9674e-05
5.98803e-05
6.02936e-05
6.1088e-05
6.29283e-05
6.94448e-05
0.000130918
0.00013824
0.00013824
0.00013824
0.00013824
0.00013824
0.00013824
0.00013824
0.00013824
0.00013824
0.00013824
0.00013824
0.00013824
0.00013824
0.00013824
0.00013824
0.00013824
0.00013824
0.00013824
0.00013824
0.00013824
0.00013824
0.00013824
0.00013824
0.00013824
0.00013824
0.00013824
0.00013824
0.00013824
0.00013824
0.000138082
8.09924e-05
6.4754e-05
6.17543e-05
6.06695e-05
6.01488e-05
5.988e-05
5.97532e-05
5.97177e-05
5.97452e-05
5.98193e-05
5.99314e-05
6.00789e-05
6.0265e-05
6.05009e-05
6.08118e-05
6.12485e-05
6.19177e-05
6.30773e-05
6.5614e-05
7.4768e-05
0.000136455
0.00013824
0.00013824
0.00013824
0.00013824
0.00013824
0.00013824
0.000138194
9.20438e-05
6.92895e-05
6.48142e-05
6.33628e-05
6.27205e-05
6.25604e-05
6.27759e-05
6.34419e-05
6.46674e-05
6.76561e-05
7.16572e-05
8.52191e-05
7.12729e-05
6.72289e-05
6.43966e-05
6.31605e-05
6.24991e-05
6.2258e-05
6.23587e-05
6.28856e-05
6.4178e-05
6.76998e-05
8.10382e-05
0.00013775
0.00013824
0.00013824
0.00013824
0.00013824
0.00013824
0.00013824
0.00013659
7.94672e-05
6.83058e-05
6.47751e-05
6.3718e-05
6.33793e-05
6.36132e-05
6.4492e-05
6.71402e-05
7.36053e-05
0.000130342
0.00013824
0.00013824
0.00013824
0.00013824
0.000138238
0.000104556
6.88417e-05
6.35615e-05
6.17632e-05
6.08804e-05
6.03617e-05
6.0067e-05
5.99356e-05
5.99529e-05
6.0142e-05
6.05636e-05
6.13941e-05
6.3107e-05
6.91993e-05
0.000125678
0.00013824
0.00013824
0.00013824
0.00013824
0.00013824
0.00013824
0.00013824
0.00013824
0.00013824
0.00013824
0.00013824
0.00013824
0.00013824
0.00013824
0.00013824
0.00013824
0.00013824
0.00013824
0.00013824
0.00013824
0.00013824
0.00013824
0.00013824
0.00013824
0.00013824
0.00013824
0.00013824
0.00013824
0.00013824
0.00013824
0.00013824
0.000136357
7.20217e-05
6.3749e-05
6.1571e-05
6.06433e-05
6.01552e-05
5.98907e-05
5.9763e-05
5.97254e-05
5.97542e-05
5.98393e-05
5.99793e-05
6.01799e-05
6.04574e-05
6.08502e-05
6.14426e-05
6.24427e-05
6.44877e-05
7.10172e-05
0.000126614
0.00013824
0.00013824
0.00013824
0.00013824
0.00013824
0.00013824
0.00013824
0.00013824
0.000138204
0.0001016
7.08336e-05
6.6176e-05
6.44049e-05
6.40577e-05
6.45395e-05
6.66463e-05
7.08317e-05
9.54471e-05
0.000132954
0.000138139
0.000131766
9.18387e-05
7.03223e-05
6.60835e-05
6.42058e-05
6.37219e-05
6.396e-05
6.52689e-05
6.96315e-05
9.11408e-05
0.000137902
0.00013824
0.00013824
0.00013824
0.00013824
0.00013824
0.00013824
0.00013824
0.00013824
0.00013774
9.73491e-05
7.10154e-05
6.78285e-05
6.65999e-05
6.75151e-05
7.0311e-05
8.76696e-05
0.000135242
0.00013824
0.00013824
0.00013824
0.00013824
0.00013824
0.00013824
0.000138236
0.000101628
6.87511e-05
6.35524e-05
6.19285e-05
6.10807e-05
6.06808e-05
6.05546e-05
6.06749e-05
6.11345e-05
6.21363e-05
6.45953e-05
7.0523e-05
0.000128497
0.00013824
0.00013824
0.00013824
0.00013824
0.00013824
0.00013824
0.00013824
0.00013824
0.00013824
0.00013824
0.00013824
0.00013824
0.00013824
0.00013824
0.00013824
0.00013824
0.00013824
0.00013824
0.00013824
0.00013824
0.00013824
0.00013824
0.00013824
0.00013824
0.00013824
0.00013824
0.00013824
0.00013824
0.00013824
0.00013824
0.00013824
0.00013824
0.00013824
0.000133723
7.07972e-05
6.37912e-05
6.17317e-05
6.07602e-05
6.02452e-05
5.99769e-05
5.98505e-05
5.9823e-05
5.9881e-05
6.00237e-05
6.02611e-05
6.06181e-05
6.11633e-05
6.207e-05
6.39331e-05
6.97262e-05
0.000114392
0.00013824
0.00013824
0.00013824
0.00013824
0.00013824
0.00013824
0.00013824
0.00013824
0.00013824
0.00013824
0.000138236
0.000123571
8.08927e-05
7.04203e-05
6.94057e-05
7.08356e-05
8.60143e-05
0.000125608
0.000138227
0.00013824
0.00013824
0.00013824
0.000138214
0.000123153
8.18364e-05
7.02458e-05
6.88669e-05
6.96292e-05
7.52859e-05
0.000117019
0.000138208
0.00013824
0.00013824
0.00013824
0.00013824
0.00013824
0.00013824
0.00013824
0.00013824
0.00013824
0.00013824
0.000138231
0.000126089
9.75031e-05
8.34253e-05
9.39108e-05
0.000121641
0.000138172
0.00013824
0.00013824
0.00013824
0.00013824
0.00013824
0.00013824
0.00013824
0.00013824
0.000138237
0.000111749
7.00713e-05
6.51747e-05
6.2839e-05
6.2131e-05
6.19973e-05
6.23589e-05
6.38011e-05
6.75701e-05
8.44263e-05
0.000135198
0.00013824
0.00013824
0.00013824
0.00013824
0.00013824
0.00013824
0.00013824
0.00013824
0.00013824
0.00013824
0.00013824
0.00013824
0.00013824
0.00013824
0.00013824
0.00013824
0.00013824
0.00013824
0.00013824
0.00013824
0.00013824
0.00013824
0.00013824
0.00013824
0.00013824
0.00013824
0.00013824
0.00013824
0.00013824
0.00013824
0.00013824
0.00013824
0.00013824
0.00013824
0.00013824
0.00013417
7.27485e-05
6.49688e-05
6.21964e-05
6.10372e-05
6.05044e-05
6.02263e-05
6.0109e-05
6.01332e-05
6.02973e-05
6.0622e-05
6.11489e-05
6.20404e-05
6.37809e-05
6.94001e-05
0.000110202
0.00013824
0.00013824
0.00013824
0.00013824
0.00013824
0.00013824
0.00013824
0.00013824
0.00013824
0.00013824
0.00013824
0.00013824
0.00013824
0.000137945
0.000126131
0.0001173
0.000128779
0.000138146
0.00013824
0.00013824
0.00013824
0.00013824
0.00013824
0.00013824
0.00013824
0.000138015
0.000125818
0.000113038
0.000121648
0.000137082
0.00013824
0.00013824
0.00013824
0.00013824
0.00013824
0.00013824
0.00013824
0.00013824
0.00013824
0.00013824
0.00013824
0.00013824
0.00013824
0.00013824
0.00013823
0.000138041
0.000138218
0.00013824
0.00013824
0.00013824
0.00013824
0.00013824
0.00013824
0.00013824
0.00013824
0.00013824
0.00013824
0.00013824
0.00013824
0.000129393
8.59763e-05
6.90293e-05
6.71573e-05
6.69839e-05
6.81964e-05
7.67778e-05
0.000117743
0.000138174
0.00013824
0.00013824
0.00013824
0.00013824
0.00013824
0.00013824
0.00013824
0.00013824
0.00013824
0.00013824
0.00013824
0.00013824
0.00013824
0.00013824
0.00013824
0.00013824
0.00013824
0.00013824
0.00013824
0.00013824
0.00013824
0.00013824
0.00013824
0.00013824
0.00013824
0.00013824
0.00013824
0.00013824
0.00013824
0.00013824
0.00013824
0.00013824
0.00013824
0.00013824
0.00013824
0.00013824
0.00013824
0.000136916
8.49342e-05
6.71554e-05
6.29922e-05
6.17889e-05
6.11334e-05
6.08063e-05
6.07709e-05
6.10007e-05
6.15749e-05
6.25761e-05
6.46806e-05
7.01969e-05
0.000116399
0.00013824
0.00013824
0.00013824
0.00013824
0.00013824
0.00013824
0.00013824
0.00013824
0.00013824
0.00013824
0.00013824
0.00013824
0.00013824
0.00013824
0.00013824
0.00013824
0.00013824
0.00013824
0.00013824
0.00013824
0.00013824
0.00013824
0.00013824
0.00013824
0.00013824
0.00013824
0.00013824
0.00013824
0.00013824
0.00013824
0.00013824
0.00013824
0.00013824
0.00013824
0.00013824
0.00013824
0.00013824
0.00013824
0.00013824
0.00013824
0.00013824
0.00013824
0.00013824
0.00013824
0.00013824
0.00013824
0.00013824
0.00013824
0.00013824
0.00013824
0.00013824
0.00013824
0.00013824
0.00013824
0.00013824
0.00013824
0.00013824
0.00013824
0.00013824
0.00013824
0.00013824
0.000138183
0.000127803
0.00011142
0.000110796
0.0001249
0.000137844
0.00013824
0.00013824
0.00013824
0.00013824
0.00013824
0.00013824
0.00013824
0.00013824
0.00013824
0.00013824
0.00013824
0.00013824
0.00013824
0.00013824
0.00013824
0.00013824
0.00013824
0.00013824
0.00013824
0.00013824
0.00013824
0.00013824
0.00013824
0.00013824
0.00013824
0.00013824
0.00013824
0.00013824
0.00013824
0.00013824
0.00013824
0.00013824
0.00013824
0.00013824
0.00013824
0.00013824
0.00013824
0.00013824
0.00013824
0.00013824
0.000138178
0.000111702
7.01477e-05
6.63135e-05
6.37301e-05
6.25438e-05
6.23534e-05
6.27922e-05
6.45129e-05
6.7805e-05
7.84828e-05
0.000129813
0.00013824
0.00013824
0.00013824
0.00013824
0.00013824
0.00013824
0.00013824
0.00013824
0.00013824
0.00013824
0.00013824
0.00013824
0.00013824
0.00013824
0.00013824
0.00013824
0.00013824
0.00013824
0.00013824
0.00013824
0.00013824
0.00013824
0.00013824
0.00013824
0.00013824
0.00013824
0.00013824
0.00013824
0.00013824
0.00013824
0.00013824
0.00013824
0.00013824
0.00013824
0.00013824
0.00013824
0.00013824
0.00013824
0.00013824
0.00013824
0.00013824
0.00013824
0.00013824
0.00013824
0.00013824
0.00013824
0.00013824
0.00013824
0.00013824
0.00013824
0.00013824
0.00013824
0.00013824
0.00013824
0.00013824
0.00013824
0.00013824
0.00013824
0.00013824
0.00013824
0.00013824
0.00013824
0.00013824
0.00013824
0.00013824
0.00013824
0.00013824
0.00013824
0.00013824
0.00013824
0.00013824
0.00013824
0.00013824
0.00013824
0.00013824
0.00013824
0.00013824
0.00013824
0.00013824
0.00013824
0.00013824
0.00013824
0.00013824
0.00013824
0.00013824
0.00013824
0.00013824
0.00013824
0.00013824
0.00013824
0.00013824
0.00013824
0.00013824
0.00013824
0.00013824
0.00013824
0.00013824
0.00013824
0.00013824
0.00013824
0.00013824
0.00013824
0.00013824
0.00013824
0.00013824
0.00013824
0.00013824
0.00013824
0.00013824
0.00013824
0.000134124
0.000106141
7.65066e-05
6.87532e-05
6.80851e-05
6.92417e-05
8.12954e-05
0.000115807
0.000137922
0.00013824
0.00013824
0.00013824
0.00013824
0.00013824
0.00013824
0.00013824
0.00013824
0.00013824
0.00013824
0.00013824
0.00013824
0.00013824
0.00013824
0.00013824
0.00013824
0.00013824
0.00013824
0.00013824
0.00013824
0.00013824
0.00013824
0.00013824
0.00013824
0.00013824
0.00013824
0.00013824
0.00013824
0.00013824
0.00013824
0.00013824
0.00013824
0.00013824
0.00013824
0.00013824
0.00013824
0.00013824
0.00013824
0.00013824
0.00013824
0.00013824
0.00013824
0.00013824
0.00013824
0.00013824
0.00013824
0.00013824
0.00013824
0.00013824
0.00013824
0.00013824
0.00013824
0.00013824
0.00013824
0.00013824
0.00013824
0.00013824
0.00013824
0.00013824
0.00013824
0.00013824
0.00013824
0.00013824
0.00013824
0.00013824
0.00013824
0.00013824
0.00013824
0.00013824
0.00013824
0.00013824
0.00013824
0.00013824
0.00013824
0.00013824
0.00013824
0.00013824
0.00013824
0.00013824
0.00013824
0.00013824
0.00013824
0.00013824
0.00013824
0.00013824
0.00013824
0.00013824
0.00013824
0.00013824
0.00013824
0.00013824
0.00013824
0.00013824
0.00013824
0.00013824
0.00013824
0.00013824
0.00013824
0.00013824
0.00013824
0.00013824
0.00013824
0.00013824
0.00013824
0.00013824
0.00013824
0.00013824
0.00013824
0.00013824
0.00013824
0.00013824
0.00013824
0.000138239
0.000137801
0.000130982
0.000126366
0.000132197
0.000138081
0.00013824
0.00013824
0.00013824
0.00013824
0.00013824
0.00013824
0.00013824
0.00013824
0.00013824
0.00013824
0.00013824
0.00013824
0.00013824
0.00013824
0.00013824
0.00013824
0.00013824
0.00013824
0.00013824
0.00013824
0.00013824
0.00013824
0.00013824
0.00013824
0.00013824
0.00013824
0.00013824
0.00013824
0.00013824
0.00013824
0.00013824
0.00013824
0.00013824
0.00013824
0.00013824
0.00013824
0.00013824
0.00013824
0.00013824
0.00013824
0.00013824
0.00013824
0.00013824
0.00013824
0.00013824
0.00013824
0.00013824
0.00013824
0.00013824
0.00013824
0.00013824
0.00013824
0.00013824
0.00013824
0.00013824
0.00013824
0.00013824
0.00013824
0.00013824
0.00013824
0.00013824
0.00013824
0.00013824
0.00013824
0.00013824
0.00013824
0.00013824
0.00013824
0.00013824
0.00013824
0.00013824
0.00013824
0.00013824
0.00013824
0.00013824
0.00013824
0.00013824
0.00013824
0.00013824
0.00013824
0.00013824
0.00013824
0.00013824
0.00013824
0.00013824
0.00013824
0.00013824
0.00013824
0.00013824
0.00013824
0.00013824
0.00013824
0.00013824
0.00013824
0.00013824
0.00013824
0.00013824
0.00013824
0.00013824
0.00013824
0.00013824
0.00013824
0.00013824
0.00013824
0.00013824
0.00013824
0.00013824
0.00013824
0.00013824
0.00013824
0.00013824
0.00013824
0.00013824
0.00013824
0.00013824
0.00013824
0.00013824
0.00013824
0.00013824
0.00013824
0.00013824
0.00013824
0.00013824
0.00013824
0.00013824
0.00013824
0.00013824
0.00013824
0.00013824
0.00013824
0.00013824
0.00013824
0.00013824
0.00013824
0.00013824
0.00013824
0.00013824
0.00013824
0.00013824
0.00013824
0.00013824
0.00013824
0.00013824
0.00013824
0.00013824
0.00013824
0.00013824
0.00013824
0.00013824
0.00013824
0.00013824
0.00013824
0.00013824
0.00013824
0.00013824
0.00013824
0.00013824
0.00013824
0.00013824
0.00013824
0.00013824
0.00013824
0.00013824
0.00013824
0.00013824
0.00013824
0.00013824
0.00013824
0.00013824
0.00013824
0.00013824
0.00013824
0.00013824
0.00013824
0.00013824
0.00013824
0.00013824
0.00013824
0.00013824
0.00013824
0.00013824
0.00013824
0.00013824
0.00013824
0.00013824
0.00013824
0.00013824
0.00013824
0.00013824
0.00013824
0.00013824
0.00013824
0.00013824
0.00013824
0.00013824
0.00013824
0.00013824
0.00013824
0.00013824
0.00013824
0.00013824
0.00013824
0.00013824
0.00013824
0.00013824
0.00013824
0.00013824
0.00013824
0.00013824
0.00013824
0.00013824
0.00013824
0.00013824
0.00013824
0.00013824
0.00013824
0.00013824
0.00013824
0.00013824
0.00013824
0.00013824
0.00013824
0.00013824
0.00013824
0.00013824
0.00013824
0.00013824
0.00013824
0.00013824
0.00013824
0.00013824
0.00013824
0.00013824
0.00013824
0.00013824
0.00013824
0.00013824
0.00013824
0.00013824
0.00013824
0.00013824
0.00013824
0.00013824
0.00013824
0.00013824
0.00013824
0.00013824
0.00013824
0.00013824
0.00013824
0.00013824
0.00013824
0.00013824
0.00013824
0.00013824
0.00013824
0.00013824
0.00013824
0.00013824
0.00013824
0.00013824
0.00013824
0.00013824
0.00013824
0.00013824
0.00013824
0.00013824
0.00013824
0.00013824
0.00013824
0.00013824
0.00013824
0.00013824
0.00013824
0.00013824
0.00013824
0.00013824
0.00013824
0.00013824
0.00013824
0.00013824
0.00013824
0.00013824
0.00013824
0.00013824
0.00013824
0.00013824
0.00013824
0.00013824
0.00013824
0.00013824
0.00013824
0.00013824
0.00013824
0.00013824
0.00013824
0.00013824
0.00013824
0.00013824
0.00013824
0.00013824
0.00013824
0.00013824
0.00013824
0.00013824
0.00013824
0.00013824
0.00013824
0.00013824
0.00013824
0.00013824
0.00013824
0.00013824
0.00013824
0.00013824
0.00013824
0.00013824
0.00013824
0.00013824
0.00013824
0.00013824
0.00013824
0.00013824
0.00013824
0.00013824
0.00013824
0.00013824
0.00013824
0.00013824
0.00013824
0.00013824
0.00013824
0.00013824
0.00013824
0.00013824
0.00013824
0.00013824
0.00013824
0.00013824
0.00013824
0.00013824
0.00013824
0.00013824
0.00013824
0.00013824
0.00013824
0.00013824
0.00013824
0.00013824
0.00013824
0.00013824
0.00013824
0.00013824
0.00013824
0.00013824
0.00013824
0.00013824
0.00013824
0.00013824
0.00013824
0.00013824
0.00013824
0.00013824
0.00013824
0.00013824
0.00013824
0.00013824
0.00013824
0.00013824
0.00013824
0.00013824
0.00013824
0.00013824
0.00013824
0.00013824
0.00013824
0.00013824
0.00013824
0.00013824
0.00013824
0.00013824
0.00013824
0.00013824
0.00013824
0.00013824
0.00013824
0.00013824
0.00013824
0.00013824
0.00013824
0.00013824
0.00013824
0.00013824
0.00013824
0.00013824
0.00013824
0.00013824
0.00013824
0.00013824
0.00013824
0.00013824
0.00013824
0.00013824
0.00013824
0.00013824
0.00013824
0.00013824
0.00013824
0.00013824
0.00013824
0.00013824
0.00013824
0.00013824
0.00013824
0.00013824
0.00013824
0.00013824
0.00013824
0.00013824
0.00013824
0.00013824
0.00013824
0.00013824
0.00013824
0.00013824
0.00013824
0.00013824
0.00013824
0.00013824
0.00013824
0.00013824
0.00013824
0.00013824
0.00013824
0.00013824
0.00013824
0.00013824
0.00013824
0.00013824
0.00013824
0.00013824
0.00013824
0.00013824
0.00013824
0.00013824
0.00013824
0.00013824
0.00013824
0.00013824
0.00013824
0.00013824
0.00013824
0.00013824
0.00013824
0.00013824
0.00013824
0.00013824
0.00013824
0.00013824
0.00013824
0.00013824
0.00013824
0.00013824
0.00013824
0.00013824
0.00013824
0.00013824
0.00013824
0.00013824
0.00013824
0.00013824
0.00013824
0.00013824
0.00013824
0.00013824
0.00013824
0.00013824
0.00013824
0.00013824
0.00013824
0.00013824
0.00013824
0.00013824
0.00013824
0.00013824
0.00013824
0.00013824
0.00013824
0.00013824
0.00013824
0.00013824
0.00013824
0.00013824
0.00013824
0.00013824
0.00013824
0.00013824
0.00013824
0.00013824
0.00013824
0.00013824
0.00013824
0.00013824
0.00013824
0.00013824
0.00013824
0.00013824
0.00013824
0.00013824
0.00013824
0.00013824
0.00013824
0.00013824
0.00013824
0.00013824
0.00013824
0.00013824
0.00013824
0.00013824
0.00013824
0.00013824
0.00013824
0.00013824
0.00013824
0.00013824
0.00013824
0.00013824
0.00013824
0.00013824
0.00013824
0.00013824
0.00013824
0.00013824
0.00013824
0.00013824
0.00013824
0.00013824
0.00013824
0.00013824
0.00013824
0.00013824
0.00013824
0.00013824
0.00013824
0.00013824
0.00013824
0.00013824
0.00013824
0.00013824
0.00013824
0.00013824
0.00013824
0.00013824
0.00013824
0.00013824
0.00013824
0.00013824
0.00013824
0.00013824
0.00013824
0.00013824
0.00013824
0.00013824
0.00013824
0.00013824
0.00013824
0.00013824
0.00013824
0.00013824
0.00013824
0.00013824
0.00013824
0.00013824
0.00013824
0.00013824
0.00013824
0.00013824
0.00013824
0.00013824
0.00013824
0.00013824
0.00013824
0.00013824
0.00013824
0.00013824
0.00013824
0.00013824
0.00013824
0.00013824
0.00013824
0.00013824
0.00013824
0.00013824
0.00013824
0.00013824
0.00013824
0.00013824
0.00013824
0.00013824
0.00013824
0.00013824
0.00013824
0.00013824
0.00013824
0.00013824
0.00013824
0.00013824
0.00013824
0.00013824
0.00013824
0.00013824
0.00013824
0.00013824
0.00013824
0.00013824
0.00013824
0.00013824
0.00013824
0.00013824
0.00013824
0.00013824
0.00013824
0.00013824
0.00013824
0.00013824
0.00013824
0.00013824
0.00013824
0.00013824
0.00013824
0.00013824
0.00013824
0.00013824
0.00013824
0.00013824
0.00013824
0.00013824
0.00013824
0.00013824
0.00013824
0.00013824
0.00013824
0.00013824
0.00013824
0.00013824
0.00013824
0.00013824
0.00013824
0.00013824
0.00013824
0.00013824
0.00013824
0.00013824
0.00013824
0.00013824
0.00013824
0.00013824
0.00013824
0.00013824
0.00013824
0.00013824
0.00013824
0.00013824
0.00013824
0.00013824
0.00013824
0.00013824
0.00013824
0.00013824
0.00013824
0.00013824
0.00013824
0.00013824
0.00013824
0.00013824
0.00013824
0.00013824
0.00013824
0.00013824
0.00013824
0.00013824
0.00013824
0.00013824
0.00013824
0.00013824
0.00013824
0.00013824
0.00013824
0.00013824
0.00013824
0.00013824
0.00013824
0.00013824
0.00013824
0.00013824
0.00013824
0.00013824
0.00013824
0.00013824
0.00013824
0.00013824
0.00013824
0.00013824
0.00013824
0.00013824
0.00013824
0.00013824
0.00013824
0.00013824
0.00013824
0.00013824
0.00013824
0.00013824
0.00013824
0.00013824
0.00013824
0.00013824
0.00013824
0.00013824
0.00013824
0.00013824
0.00013824
0.00013824
0.00013824
0.00013824
0.00013824
0.00013824
0.00013824
0.00013824
0.00013824
0.00013824
0.00013824
0.00013824
0.00013824
0.00013824
0.00013824
0.00013824
0.00013824
0.00013824
0.00013824
0.00013824
0.00013824
0.00013824
0.00013824
0.00013824
0.00013824
0.00013824
0.00013824
0.00013824
0.00013824
0.00013824
0.00013824
0.00013824
0.00013824
0.00013824
0.00013824
0.00013824
0.00013824
0.00013824
0.00013824
0.00013824
0.00013824
0.00013824
0.00013824
0.00013824
0.00013824
0.00013824
0.00013824
0.00013824
0.00013824
0.00013824
0.00013824
0.00013824
0.00013824
0.00013824
0.00013824
0.00013824
0.00013824
0.00013824
0.00013824
0.00013824
0.00013824
0.00013824
0.00013824
0.00013824
0.00013824
0.00013824
0.00013824
0.00013824
0.00013824
0.00013824
0.00013824
0.00013824
0.00013824
0.00013824
0.00013824
0.00013824
0.00013824
0.00013824
0.00013824
0.00013824
0.00013824
0.00013824
0.00013824
0.00013824
0.00013824
0.00013824
0.00013824
0.00013824
0.00013824
0.00013824
0.00013824
0.00013824
0.00013824
0.00013824
0.00013824
0.00013824
0.00013824
0.00013824
0.00013824
0.00013824
0.00013824
0.00013824
0.00013824
0.00013824
0.00013824
0.00013824
0.00013824
0.00013824
0.00013824
0.00013824
0.00013824
0.00013824
0.00013824
0.00013824
0.00013824
0.00013824
0.00013824
0.00013824
0.00013824
0.00013824
0.00013824
0.00013824
0.00013824
0.00013824
0.00013824
0.00013824
0.00013824
0.00013824
0.00013824
0.00013824
0.00013824
0.00013824
0.00013824
0.00013824
0.00013824
0.00013824
0.00013824
0.00013824
0.00013824
0.00013824
0.00013824
0.00013824
0.00013824
0.00013824
0.00013824
0.00013824
0.00013824
0.00013824
0.00013824
0.00013824
0.00013824
0.00013824
0.00013824
0.00013824
0.00013824
0.00013824
0.00013824
0.00013824
0.00013824
0.00013824
0.00013824
0.00013824
0.00013824
0.00013824
0.00013824
0.00013824
0.00013824
0.00013824
0.00013824
0.00013824
0.00013824
0.00013824
0.00013824
0.00013824
0.00013824
0.00013824
0.00013824
0.00013824
0.00013824
0.00013824
0.00013824
0.00013824
0.00013824
0.00013824
0.00013824
0.00013824
0.00013824
0.00013824
0.00013824
0.00013824
0.00013824
0.00013824
0.00013824
0.00013824
0.00013824
0.00013824
0.00013824
0.00013824
0.00013824
0.00013824
0.00013824
0.00013824
0.00013824
0.00013824
0.00013824
0.00013824
0.00013824
0.00013824
0.00013824
0.00013824
0.00013824
0.00013824
0.00013824
0.00013824
0.00013824
0.00013824
0.00013824
0.00013824
0.00013824