/*--------------------------------*- C++ -*----------------------------------*\
| =========                 |                                                 |
| \\      /  F ield         | OpenFOAM: The Open Source CFD Toolbox           |
|  \\    /   O peration     | Version:  2406                                  |
|   \\  /    A nd           | Website:  www.openfoam.com                      |
|    \\/     M anipulation  |                                                 |
\*---------------------------------------------------------------------------*/
FoamFile
{
    version     2.0;
    format      ascii;
    arch        "LSB;label=32;scalar=64";
    class       volScalarField;
    location    "6.95";
    object      Da;
}
// * * * * * * * * * * * * * * * * * * * * * * * * * * * * * * * * * * * * * //

dimensions      [0 2 -1 0 0 0 0];

internalField   nonuniform List<scalar> 
14400
(
4.62202e-05
4.61775e-05
4.61109e-05
4.60405e-05
4.59789e-05
4.5932e-05
4.59017e-05
4.58889e-05
4.58949e-05
4.59222e-05
4.59742e-05
4.60531e-05
4.61559e-05
4.62654e-05
4.63386e-05
4.6311e-05
4.61496e-05
4.59125e-05
4.56574e-05
4.54101e-05
4.51759e-05
4.49524e-05
4.47367e-05
4.45277e-05
4.43268e-05
4.41371e-05
4.39627e-05
4.38083e-05
4.36788e-05
4.35796e-05
4.35178e-05
4.3504e-05
4.35568e-05
4.37134e-05
4.40632e-05
4.48948e-05
4.77664e-05
7.49944e-05
7.8e-05
7.8e-05
7.8e-05
7.8e-05
7.8e-05
7.8e-05
7.8e-05
7.8e-05
7.8e-05
7.8e-05
7.8e-05
7.8e-05
7.8e-05
7.8e-05
7.8e-05
7.8e-05
7.8e-05
7.8e-05
7.8e-05
7.8e-05
7.8e-05
7.79999e-05
6.73888e-05
4.70854e-05
4.47682e-05
4.4125e-05
4.38797e-05
4.38045e-05
4.38294e-05
4.39257e-05
4.40792e-05
4.42816e-05
4.45251e-05
4.48002e-05
4.50931e-05
4.53845e-05
4.56517e-05
4.5872e-05
4.6029e-05
4.61174e-05
4.61446e-05
4.61302e-05
4.61031e-05
4.61006e-05
4.61737e-05
4.64092e-05
4.70245e-05
4.89614e-05
5.9877e-05
7.79818e-05
6.61825e-05
4.93012e-05
4.68216e-05
4.60111e-05
4.56383e-05
4.54545e-05
4.53742e-05
4.53578e-05
4.53824e-05
4.54332e-05
4.54984e-05
4.55677e-05
4.5631e-05
4.56774e-05
4.5697e-05
4.56825e-05
4.56317e-05
4.55491e-05
4.54437e-05
4.5326e-05
4.52065e-05
4.50949e-05
4.50005e-05
4.49336e-05
4.4907e-05
4.49395e-05
4.50639e-05
4.5349e-05
4.59852e-05
4.7796e-05
5.71777e-05
7.79593e-05
4.62007e-05
4.61335e-05
4.60362e-05
4.59395e-05
4.58589e-05
4.57996e-05
4.57625e-05
4.57477e-05
4.57561e-05
4.57907e-05
4.58559e-05
4.59567e-05
4.60946e-05
4.62574e-05
4.63972e-05
4.64104e-05
4.62018e-05
4.5906e-05
4.56103e-05
4.53406e-05
4.50968e-05
4.48719e-05
4.466e-05
4.44581e-05
4.4266e-05
4.40859e-05
4.39212e-05
4.37763e-05
4.36559e-05
4.35657e-05
4.35134e-05
4.35108e-05
4.35792e-05
4.37635e-05
4.41815e-05
4.52797e-05
4.98789e-05
7.75407e-05
7.8e-05
7.8e-05
7.8e-05
7.8e-05
7.8e-05
7.8e-05
7.8e-05
7.8e-05
7.8e-05
7.8e-05
7.8e-05
7.8e-05
7.8e-05
7.8e-05
7.8e-05
7.8e-05
7.8e-05
7.8e-05
7.8e-05
7.8e-05
7.8e-05
7.8e-05
7.20798e-05
4.75219e-05
4.49199e-05
4.41921e-05
4.391e-05
4.38136e-05
4.38231e-05
4.39057e-05
4.40453e-05
4.42322e-05
4.44581e-05
4.47131e-05
4.49839e-05
4.52531e-05
4.55001e-05
4.57052e-05
4.58541e-05
4.59424e-05
4.59774e-05
4.59772e-05
4.59691e-05
4.59894e-05
4.60893e-05
4.636e-05
4.70407e-05
4.9268e-05
6.41322e-05
7.79982e-05
7.19566e-05
4.98745e-05
4.69801e-05
4.60496e-05
4.5624e-05
4.54107e-05
4.53109e-05
4.52801e-05
4.52939e-05
4.5337e-05
4.53977e-05
4.54661e-05
4.55317e-05
4.55829e-05
4.56076e-05
4.5596e-05
4.55453e-05
4.54611e-05
4.53545e-05
4.5238e-05
4.51226e-05
4.50177e-05
4.49324e-05
4.48765e-05
4.48632e-05
4.49122e-05
4.50593e-05
4.53823e-05
4.61079e-05
4.83577e-05
6.38544e-05
7.79987e-05
4.62438e-05
4.61057e-05
4.59332e-05
4.57797e-05
4.56611e-05
4.55784e-05
4.55286e-05
4.55098e-05
4.55225e-05
4.55698e-05
4.56589e-05
4.58004e-05
4.60081e-05
4.62908e-05
4.66186e-05
4.68072e-05
4.64014e-05
4.59363e-05
4.55439e-05
4.52257e-05
4.49612e-05
4.4732e-05
4.45256e-05
4.43352e-05
4.4158e-05
4.39946e-05
4.38472e-05
4.37195e-05
4.3616e-05
4.35429e-05
4.3509e-05
4.35287e-05
4.36287e-05
4.387e-05
4.44364e-05
4.62893e-05
6.02689e-05
7.79974e-05
7.8e-05
7.8e-05
7.8e-05
7.8e-05
7.8e-05
7.8e-05
7.8e-05
7.8e-05
7.8e-05
7.8e-05
7.8e-05
7.8e-05
7.8e-05
7.8e-05
7.8e-05
7.8e-05
7.8e-05
7.8e-05
7.8e-05
7.8e-05
7.8e-05
7.8e-05
7.74461e-05
4.9717e-05
4.53957e-05
4.43575e-05
4.39799e-05
4.3837e-05
4.38151e-05
4.38711e-05
4.39845e-05
4.41431e-05
4.43374e-05
4.45572e-05
4.47902e-05
4.50216e-05
4.52348e-05
4.54143e-05
4.55495e-05
4.56378e-05
4.5686e-05
4.57103e-05
4.57358e-05
4.57975e-05
4.59493e-05
4.62945e-05
4.7119e-05
4.98405e-05
7.11638e-05
7.8e-05
7.76244e-05
5.28853e-05
4.7535e-05
4.61817e-05
4.56226e-05
4.53458e-05
4.52078e-05
4.51505e-05
4.51453e-05
4.51754e-05
4.52296e-05
4.52981e-05
4.53705e-05
4.54332e-05
4.54701e-05
4.54651e-05
4.54126e-05
4.53218e-05
4.52098e-05
4.50926e-05
4.49822e-05
4.48879e-05
4.48179e-05
4.47818e-05
4.47934e-05
4.48753e-05
4.50712e-05
4.54833e-05
4.64288e-05
4.94882e-05
7.3655e-05
7.8e-05
4.65886e-05
4.62235e-05
4.58825e-05
4.56269e-05
4.54485e-05
4.53314e-05
4.52639e-05
4.52395e-05
4.52574e-05
4.53217e-05
4.54432e-05
4.56433e-05
4.59611e-05
4.64732e-05
4.73383e-05
4.8764e-05
4.70532e-05
4.6097e-05
4.5507e-05
4.51039e-05
4.48044e-05
4.45652e-05
4.43627e-05
4.41845e-05
4.40245e-05
4.38811e-05
4.37553e-05
4.36497e-05
4.35689e-05
4.35199e-05
4.35132e-05
4.35674e-05
4.37194e-05
4.40582e-05
4.4876e-05
4.773e-05
7.33921e-05
7.8e-05
7.8e-05
7.8e-05
7.8e-05
7.8e-05
7.8e-05
7.8e-05
7.8e-05
7.8e-05
7.8e-05
7.8e-05
7.8e-05
7.8e-05
7.8e-05
7.8e-05
7.8e-05
7.8e-05
7.8e-05
7.8e-05
7.8e-05
7.8e-05
7.8e-05
7.8e-05
7.79994e-05
6.31682e-05
4.66486e-05
4.46726e-05
4.41066e-05
4.38849e-05
4.3814e-05
4.38312e-05
4.39084e-05
4.40299e-05
4.41842e-05
4.4361e-05
4.45492e-05
4.47368e-05
4.49113e-05
4.50618e-05
4.51817e-05
4.52702e-05
4.5334e-05
4.53879e-05
4.54554e-05
4.55724e-05
4.58011e-05
4.62805e-05
4.7472e-05
5.19626e-05
7.73339e-05
7.8e-05
7.79999e-05
6.84715e-05
4.90951e-05
4.65181e-05
4.56848e-05
4.53001e-05
4.51042e-05
4.50102e-05
4.49803e-05
4.49955e-05
4.50441e-05
4.51172e-05
4.5205e-05
4.52918e-05
4.53541e-05
4.53613e-05
4.53009e-05
4.51907e-05
4.50619e-05
4.49365e-05
4.48278e-05
4.47438e-05
4.46919e-05
4.46816e-05
4.47285e-05
4.48619e-05
4.51443e-05
4.57526e-05
4.75215e-05
5.85221e-05
7.79866e-05
7.8e-05
4.84054e-05
4.67904e-05
4.60035e-05
4.5557e-05
4.5285e-05
4.51195e-05
4.50276e-05
4.49954e-05
4.50197e-05
4.5106e-05
4.52716e-05
4.55565e-05
4.60549e-05
4.70528e-05
5.00011e-05
6.83993e-05
4.94531e-05
4.659e-05
4.55681e-05
4.50196e-05
4.46641e-05
4.44056e-05
4.42019e-05
4.40329e-05
4.38887e-05
4.37654e-05
4.36624e-05
4.35818e-05
4.35281e-05
4.35095e-05
4.354e-05
4.36457e-05
4.38848e-05
4.44291e-05
4.61621e-05
5.90503e-05
7.79963e-05
7.8e-05
7.8e-05
7.8e-05
7.8e-05
7.8e-05
7.8e-05
7.8e-05
7.8e-05
7.8e-05
7.8e-05
7.8e-05
7.8e-05
7.8e-05
7.8e-05
7.8e-05
7.8e-05
7.8e-05
7.8e-05
7.8e-05
7.8e-05
7.8e-05
7.8e-05
7.8e-05
7.8e-05
7.59993e-05
4.84164e-05
4.52131e-05
4.43296e-05
4.39781e-05
4.38341e-05
4.37993e-05
4.38321e-05
4.39109e-05
4.40218e-05
4.41539e-05
4.42973e-05
4.44423e-05
4.45803e-05
4.47041e-05
4.48103e-05
4.48999e-05
4.49801e-05
4.50654e-05
4.51798e-05
4.53638e-05
4.56979e-05
4.64054e-05
4.86183e-05
6.51366e-05
7.79994e-05
7.8e-05
7.8e-05
7.78893e-05
5.45439e-05
4.73962e-05
4.59093e-05
4.53333e-05
4.50503e-05
4.49063e-05
4.48465e-05
4.48461e-05
4.48932e-05
4.49802e-05
4.50998e-05
4.52366e-05
4.53581e-05
4.53925e-05
4.53054e-05
4.51419e-05
4.49705e-05
4.48208e-05
4.47045e-05
4.46268e-05
4.45935e-05
4.46143e-05
4.47097e-05
4.49233e-05
4.53583e-05
4.63437e-05
4.96567e-05
7.56913e-05
7.8e-05
7.8e-05
6.46274e-05
4.90762e-05
4.65512e-05
4.56736e-05
4.52366e-05
4.49961e-05
4.4868e-05
4.48241e-05
4.48573e-05
4.49757e-05
4.52087e-05
4.56393e-05
4.65179e-05
4.91399e-05
6.83623e-05
7.7999e-05
6.37748e-05
4.80953e-05
4.58397e-05
4.50236e-05
4.45775e-05
4.42842e-05
4.40703e-05
4.39044e-05
4.37719e-05
4.36665e-05
4.35861e-05
4.35322e-05
4.351e-05
4.35298e-05
4.36118e-05
4.37981e-05
4.41904e-05
4.51389e-05
4.86919e-05
7.69433e-05
7.8e-05
7.8e-05
7.8e-05
7.8e-05
7.8e-05
7.8e-05
7.8e-05
7.8e-05
7.8e-05
7.8e-05
7.8e-05
7.8e-05
7.8e-05
7.8e-05
7.8e-05
7.8e-05
7.8e-05
7.8e-05
7.8e-05
7.8e-05
7.8e-05
7.8e-05
7.8e-05
7.8e-05
7.8e-05
7.79999e-05
6.5901e-05
4.70033e-05
4.48039e-05
4.41612e-05
4.3898e-05
4.37925e-05
4.37721e-05
4.38043e-05
4.3871e-05
4.39601e-05
4.40624e-05
4.41702e-05
4.42771e-05
4.43792e-05
4.44751e-05
4.45678e-05
4.46655e-05
4.47838e-05
4.49508e-05
4.52194e-05
4.57079e-05
4.67821e-05
5.04055e-05
7.65354e-05
7.8e-05
7.8e-05
7.8e-05
7.8e-05
7.57158e-05
4.98578e-05
4.65451e-05
4.55544e-05
4.5117e-05
4.48947e-05
4.47937e-05
4.47766e-05
4.48293e-05
4.49476e-05
4.51346e-05
4.53858e-05
4.56851e-05
4.58097e-05
4.56196e-05
4.52876e-05
4.50094e-05
4.48014e-05
4.466e-05
4.45805e-05
4.4566e-05
4.46274e-05
4.47966e-05
4.5161e-05
4.59836e-05
4.86333e-05
6.93956e-05
7.8e-05
7.8e-05
7.8e-05
7.7999e-05
6.50932e-05
4.8702e-05
4.62302e-05
4.54067e-05
4.50276e-05
4.48354e-05
4.47714e-05
4.48191e-05
4.49935e-05
4.53527e-05
4.61182e-05
4.82903e-05
6.13361e-05
7.79963e-05
7.8e-05
7.76964e-05
5.19475e-05
4.6541e-05
4.51952e-05
4.459e-05
4.42331e-05
4.39935e-05
4.38208e-05
4.36938e-05
4.36029e-05
4.35447e-05
4.35203e-05
4.35363e-05
4.36082e-05
4.37705e-05
4.41093e-05
4.48925e-05
4.75983e-05
7.23402e-05
7.8e-05
7.8e-05
7.8e-05
7.8e-05
7.8e-05
7.8e-05
7.8e-05
7.8e-05
7.8e-05
7.8e-05
7.8e-05
7.8e-05
7.8e-05
7.8e-05
7.8e-05
7.8e-05
7.8e-05
7.8e-05
7.8e-05
7.8e-05
7.8e-05
7.8e-05
7.8e-05
7.8e-05
7.8e-05
7.8e-05
7.8e-05
7.7946e-05
5.36815e-05
4.58791e-05
4.45122e-05
4.40412e-05
4.38344e-05
4.37479e-05
4.37281e-05
4.37497e-05
4.37981e-05
4.38638e-05
4.39399e-05
4.40221e-05
4.41081e-05
4.41984e-05
4.42974e-05
4.44151e-05
4.45711e-05
4.48033e-05
4.51964e-05
4.59977e-05
4.84434e-05
6.73805e-05
7.79999e-05
7.8e-05
7.8e-05
7.8e-05
7.8e-05
7.8e-05
7.21984e-05
4.91741e-05
4.62953e-05
4.54557e-05
4.50675e-05
4.48941e-05
4.48531e-05
4.4926e-05
4.51143e-05
4.5466e-05
4.6042e-05
4.72463e-05
4.79769e-05
4.70737e-05
4.59133e-05
4.53198e-05
4.49669e-05
4.47619e-05
4.46641e-05
4.46728e-05
4.47992e-05
4.51049e-05
4.58464e-05
4.82308e-05
6.43879e-05
7.79995e-05
7.8e-05
7.8e-05
7.8e-05
7.8e-05
7.79987e-05
6.3776e-05
4.85013e-05
4.60919e-05
4.53658e-05
4.50209e-05
4.49147e-05
4.49918e-05
4.52937e-05
4.59739e-05
4.80379e-05
5.8697e-05
7.7985e-05
7.8e-05
7.8e-05
7.8e-05
7.44417e-05
4.88985e-05
4.57836e-05
4.47921e-05
4.43001e-05
4.40039e-05
4.38074e-05
4.36764e-05
4.3596e-05
4.35609e-05
4.3573e-05
4.36422e-05
4.37966e-05
4.41083e-05
4.48351e-05
4.72816e-05
6.73356e-05
7.8e-05
7.8e-05
7.8e-05
7.8e-05
7.8e-05
7.8e-05
7.8e-05
7.8e-05
7.8e-05
7.8e-05
7.8e-05
7.8e-05
7.8e-05
7.8e-05
7.8e-05
7.8e-05
7.8e-05
7.8e-05
7.8e-05
7.8e-05
7.8e-05
7.8e-05
7.8e-05
7.8e-05
7.8e-05
7.8e-05
7.8e-05
7.8e-05
7.8e-05
7.66878e-05
4.86153e-05
4.52545e-05
4.43441e-05
4.39668e-05
4.37872e-05
4.37035e-05
4.36753e-05
4.36829e-05
4.37148e-05
4.3764e-05
4.38267e-05
4.3902e-05
4.39919e-05
4.41026e-05
4.42471e-05
4.44519e-05
4.47759e-05
4.53765e-05
4.69203e-05
5.5015e-05
7.79414e-05
7.8e-05
7.8e-05
7.8e-05
7.8e-05
7.8e-05
7.8e-05
7.8e-05
7.17812e-05
4.92667e-05
4.66322e-05
4.56769e-05
4.53199e-05
4.52228e-05
4.53633e-05
4.57428e-05
4.6707e-05
4.87201e-05
5.88633e-05
6.83427e-05
5.72359e-05
4.84515e-05
4.63993e-05
4.55591e-05
4.51709e-05
4.50028e-05
4.50594e-05
4.53421e-05
4.59966e-05
4.83992e-05
6.47018e-05
7.79991e-05
7.8e-05
7.8e-05
7.8e-05
7.8e-05
7.8e-05
7.8e-05
7.79991e-05
6.69176e-05
4.89095e-05
4.66826e-05
4.57043e-05
4.54828e-05
4.56379e-05
4.64036e-05
4.85314e-05
6.20703e-05
7.79868e-05
7.8e-05
7.8e-05
7.8e-05
7.8e-05
7.8e-05
6.967e-05
4.82087e-05
4.54661e-05
4.45909e-05
4.41637e-05
4.39057e-05
4.37539e-05
4.36792e-05
4.36726e-05
4.37407e-05
4.39033e-05
4.42284e-05
4.49182e-05
4.73388e-05
6.61679e-05
7.79999e-05
7.8e-05
7.8e-05
7.8e-05
7.8e-05
7.8e-05
7.8e-05
7.8e-05
7.8e-05
7.8e-05
7.8e-05
7.8e-05
7.8e-05
7.8e-05
7.8e-05
7.8e-05
7.8e-05
7.8e-05
7.8e-05
7.8e-05
7.8e-05
7.8e-05
7.8e-05
7.8e-05
7.8e-05
7.8e-05
7.8e-05
7.8e-05
7.8e-05
7.8e-05
7.8e-05
7.37908e-05
4.79172e-05
4.50916e-05
4.42884e-05
4.39421e-05
4.3763e-05
4.36701e-05
4.36313e-05
4.36287e-05
4.36528e-05
4.37e-05
4.37702e-05
4.38668e-05
4.39984e-05
4.41844e-05
4.44654e-05
4.49486e-05
4.59792e-05
4.94664e-05
7.65064e-05
7.8e-05
7.8e-05
7.8e-05
7.8e-05
7.8e-05
7.8e-05
7.8e-05
7.8e-05
7.8e-05
7.52125e-05
5.29635e-05
4.80401e-05
4.68335e-05
4.64396e-05
4.69804e-05
4.82186e-05
5.38923e-05
7.32405e-05
7.79915e-05
7.79999e-05
7.79819e-05
7.17955e-05
5.17312e-05
4.78659e-05
4.65826e-05
4.60129e-05
4.62981e-05
4.73788e-05
4.95055e-05
7.06152e-05
7.79996e-05
7.8e-05
7.8e-05
7.8e-05
7.8e-05
7.8e-05
7.8e-05
7.8e-05
7.8e-05
7.79999e-05
7.39016e-05
5.49794e-05
4.83854e-05
4.7745e-05
4.81881e-05
5.22466e-05
7.12713e-05
7.79982e-05
7.8e-05
7.8e-05
7.8e-05
7.8e-05
7.8e-05
7.8e-05
7.8e-05
6.8404e-05
4.81008e-05
4.54563e-05
4.46531e-05
4.4213e-05
4.40008e-05
4.39245e-05
4.3964e-05
4.41537e-05
4.45539e-05
4.54703e-05
4.78353e-05
6.93434e-05
7.79999e-05
7.8e-05
7.8e-05
7.8e-05
7.8e-05
7.8e-05
7.8e-05
7.8e-05
7.8e-05
7.8e-05
7.8e-05
7.8e-05
7.8e-05
7.8e-05
7.8e-05
7.8e-05
7.8e-05
7.8e-05
7.8e-05
7.8e-05
7.8e-05
7.8e-05
7.8e-05
7.8e-05
7.8e-05
7.8e-05
7.8e-05
7.8e-05
7.8e-05
7.8e-05
7.8e-05
7.8e-05
7.8e-05
7.19617e-05
4.78235e-05
4.51153e-05
4.43449e-05
4.39746e-05
4.37736e-05
4.36706e-05
4.36258e-05
4.36224e-05
4.36561e-05
4.37277e-05
4.38427e-05
4.40141e-05
4.42772e-05
4.47095e-05
4.56074e-05
4.85368e-05
7.32558e-05
7.8e-05
7.8e-05
7.8e-05
7.8e-05
7.8e-05
7.8e-05
7.8e-05
7.8e-05
7.8e-05
7.8e-05
7.8e-05
7.78548e-05
6.85002e-05
5.60277e-05
5.20114e-05
5.76451e-05
7.01407e-05
7.79103e-05
7.8e-05
7.8e-05
7.8e-05
7.8e-05
7.8e-05
7.7727e-05
6.80607e-05
5.48099e-05
4.99084e-05
5.24363e-05
6.42787e-05
7.67427e-05
7.8e-05
7.8e-05
7.8e-05
7.8e-05
7.8e-05
7.8e-05
7.8e-05
7.8e-05
7.8e-05
7.8e-05
7.8e-05
7.8e-05
7.79516e-05
7.32001e-05
6.79365e-05
7.19786e-05
7.78038e-05
7.8e-05
7.8e-05
7.8e-05
7.8e-05
7.8e-05
7.8e-05
7.8e-05
7.8e-05
7.8e-05
7.8e-05
7.21681e-05
4.89198e-05
4.64389e-05
4.50557e-05
4.46529e-05
4.4559e-05
4.47027e-05
4.53477e-05
4.6872e-05
5.22305e-05
7.49152e-05
7.8e-05
7.8e-05
7.8e-05
7.8e-05
7.8e-05
7.8e-05
7.8e-05
7.8e-05
7.8e-05
7.8e-05
7.8e-05
7.8e-05
7.8e-05
7.8e-05
7.8e-05
7.8e-05
7.8e-05
7.8e-05
7.8e-05
7.8e-05
7.8e-05
7.8e-05
7.8e-05
7.8e-05
7.8e-05
7.8e-05
7.8e-05
7.8e-05
7.8e-05
7.8e-05
7.8e-05
7.8e-05
7.8e-05
7.8e-05
7.8e-05
7.32181e-05
4.82283e-05
4.55513e-05
4.45455e-05
4.40794e-05
4.38619e-05
4.37498e-05
4.37061e-05
4.37254e-05
4.38093e-05
4.39686e-05
4.42256e-05
4.46758e-05
4.55182e-05
4.83026e-05
7.1403e-05
7.8e-05
7.8e-05
7.8e-05
7.8e-05
7.8e-05
7.8e-05
7.8e-05
7.8e-05
7.8e-05
7.8e-05
7.8e-05
7.8e-05
7.8e-05
7.8e-05
7.79639e-05
7.77292e-05
7.79833e-05
7.8e-05
7.8e-05
7.8e-05
7.8e-05
7.8e-05
7.8e-05
7.8e-05
7.8e-05
7.79999e-05
7.79416e-05
7.71157e-05
7.7812e-05
7.79995e-05
7.8e-05
7.8e-05
7.8e-05
7.8e-05
7.8e-05
7.8e-05
7.8e-05
7.8e-05
7.8e-05
7.8e-05
7.8e-05
7.8e-05
7.8e-05
7.8e-05
7.8e-05
7.79999e-05
7.8e-05
7.8e-05
7.8e-05
7.8e-05
7.8e-05
7.8e-05
7.8e-05
7.8e-05
7.8e-05
7.8e-05
7.8e-05
7.8e-05
7.8e-05
7.68049e-05
6.1087e-05
4.82023e-05
4.70382e-05
4.68673e-05
4.7343e-05
5.14459e-05
6.8155e-05
7.79068e-05
7.8e-05
7.8e-05
7.8e-05
7.8e-05
7.8e-05
7.8e-05
7.8e-05
7.8e-05
7.8e-05
7.8e-05
7.8e-05
7.8e-05
7.8e-05
7.8e-05
7.8e-05
7.8e-05
7.8e-05
7.8e-05
7.8e-05
7.8e-05
7.8e-05
7.8e-05
7.8e-05
7.8e-05
7.8e-05
7.8e-05
7.8e-05
7.8e-05
7.8e-05
7.8e-05
7.8e-05
7.8e-05
7.8e-05
7.8e-05
7.8e-05
7.8e-05
7.8e-05
7.6232e-05
5.21185e-05
4.65853e-05
4.48969e-05
4.43973e-05
4.41236e-05
4.39884e-05
4.39847e-05
4.4108e-05
4.43966e-05
4.48912e-05
4.61183e-05
4.88231e-05
7.33009e-05
7.8e-05
7.8e-05
7.8e-05
7.8e-05
7.8e-05
7.8e-05
7.8e-05
7.8e-05
7.8e-05
7.8e-05
7.8e-05
7.8e-05
7.8e-05
7.8e-05
7.8e-05
7.8e-05
7.8e-05
7.8e-05
7.8e-05
7.8e-05
7.8e-05
7.8e-05
7.8e-05
7.8e-05
7.8e-05
7.8e-05
7.8e-05
7.8e-05
7.8e-05
7.8e-05
7.8e-05
7.8e-05
7.8e-05
7.8e-05
7.8e-05
7.8e-05
7.8e-05
7.8e-05
7.8e-05
7.8e-05
7.8e-05
7.8e-05
7.8e-05
7.8e-05
7.8e-05
7.8e-05
7.8e-05
7.8e-05
7.8e-05
7.8e-05
7.8e-05
7.8e-05
7.8e-05
7.8e-05
7.8e-05
7.8e-05
7.8e-05
7.8e-05
7.8e-05
7.8e-05
7.8e-05
7.79984e-05
7.61203e-05
6.96154e-05
6.82774e-05
7.31813e-05
7.78526e-05
7.8e-05
7.8e-05
7.8e-05
7.8e-05
7.8e-05
7.8e-05
7.8e-05
7.8e-05
7.8e-05
7.8e-05
7.8e-05
7.8e-05
7.8e-05
7.8e-05
7.8e-05
7.8e-05
7.8e-05
7.8e-05
7.8e-05
7.8e-05
7.8e-05
7.8e-05
7.8e-05
7.8e-05
7.8e-05
7.8e-05
7.8e-05
7.8e-05
7.8e-05
7.8e-05
7.8e-05
7.8e-05
7.8e-05
7.8e-05
7.8e-05
7.8e-05
7.8e-05
7.8e-05
7.8e-05
7.8e-05
7.78989e-05
6.44475e-05
4.79364e-05
4.63566e-05
4.52672e-05
4.4754e-05
4.46909e-05
4.49519e-05
4.58851e-05
4.74399e-05
5.59743e-05
7.66523e-05
7.8e-05
7.8e-05
7.8e-05
7.8e-05
7.8e-05
7.8e-05
7.8e-05
7.8e-05
7.8e-05
7.8e-05
7.8e-05
7.8e-05
7.8e-05
7.8e-05
7.8e-05
7.8e-05
7.8e-05
7.8e-05
7.8e-05
7.8e-05
7.8e-05
7.8e-05
7.8e-05
7.8e-05
7.8e-05
7.8e-05
7.8e-05
7.8e-05
7.8e-05
7.8e-05
7.8e-05
7.8e-05
7.8e-05
7.8e-05
7.8e-05
7.8e-05
7.8e-05
7.8e-05
7.8e-05
7.8e-05
7.8e-05
7.8e-05
7.8e-05
7.8e-05
7.8e-05
7.8e-05
7.8e-05
7.8e-05
7.8e-05
7.8e-05
7.8e-05
7.8e-05
7.8e-05
7.8e-05
7.8e-05
7.8e-05
7.8e-05
7.8e-05
7.8e-05
7.8e-05
7.8e-05
7.8e-05
7.8e-05
7.8e-05
7.8e-05
7.8e-05
7.8e-05
7.8e-05
7.8e-05
7.8e-05
7.8e-05
7.8e-05
7.8e-05
7.8e-05
7.8e-05
7.8e-05
7.8e-05
7.8e-05
7.8e-05
7.8e-05
7.8e-05
7.8e-05
7.8e-05
7.8e-05
7.8e-05
7.8e-05
7.8e-05
7.8e-05
7.8e-05
7.8e-05
7.8e-05
7.8e-05
7.8e-05
7.8e-05
7.8e-05
7.8e-05
7.8e-05
7.8e-05
7.8e-05
7.8e-05
7.8e-05
7.8e-05
7.8e-05
7.8e-05
7.8e-05
7.8e-05
7.8e-05
7.8e-05
7.8e-05
7.79998e-05
7.56224e-05
6.3274e-05
5.10089e-05
4.7568e-05
4.73117e-05
4.81711e-05
5.59263e-05
7.08732e-05
7.7982e-05
7.8e-05
7.8e-05
7.8e-05
7.8e-05
7.8e-05
7.8e-05
7.8e-05
7.8e-05
7.8e-05
7.8e-05
7.8e-05
7.8e-05
7.8e-05
7.8e-05
7.8e-05
7.8e-05
7.8e-05
7.8e-05
7.8e-05
7.8e-05
7.8e-05
7.8e-05
7.8e-05
7.8e-05
7.8e-05
7.8e-05
7.8e-05
7.8e-05
7.8e-05
7.8e-05
7.8e-05
7.8e-05
7.8e-05
7.8e-05
7.8e-05
7.8e-05
7.8e-05
7.8e-05
7.8e-05
7.8e-05
7.8e-05
7.8e-05
7.8e-05
7.8e-05
7.8e-05
7.8e-05
7.8e-05
7.8e-05
7.8e-05
7.8e-05
7.8e-05
7.8e-05
7.8e-05
7.8e-05
7.8e-05
7.8e-05
7.8e-05
7.8e-05
7.8e-05
7.8e-05
7.8e-05
7.8e-05
7.8e-05
7.8e-05
7.8e-05
7.8e-05
7.8e-05
7.8e-05
7.8e-05
7.8e-05
7.8e-05
7.8e-05
7.8e-05
7.8e-05
7.8e-05
7.8e-05
7.8e-05
7.8e-05
7.8e-05
7.8e-05
7.8e-05
7.8e-05
7.8e-05
7.8e-05
7.8e-05
7.8e-05
7.8e-05
7.8e-05
7.8e-05
7.8e-05
7.8e-05
7.8e-05
7.8e-05
7.8e-05
7.8e-05
7.8e-05
7.8e-05
7.8e-05
7.8e-05
7.8e-05
7.8e-05
7.8e-05
7.8e-05
7.8e-05
7.8e-05
7.8e-05
7.8e-05
7.8e-05
7.8e-05
7.8e-05
7.8e-05
7.8e-05
7.79995e-05
7.78084e-05
7.52758e-05
7.38933e-05
7.65082e-05
7.79815e-05
7.8e-05
7.8e-05
7.8e-05
7.8e-05
7.8e-05
7.8e-05
7.8e-05
7.8e-05
7.8e-05
7.8e-05
7.8e-05
7.8e-05
7.8e-05
7.8e-05
7.8e-05
7.8e-05
7.8e-05
7.8e-05
7.8e-05
7.8e-05
7.8e-05
7.8e-05
7.8e-05
7.8e-05
7.8e-05
7.8e-05
7.8e-05
7.8e-05
7.8e-05
7.8e-05
7.8e-05
7.8e-05
7.8e-05
7.8e-05
7.8e-05
7.8e-05
7.8e-05
7.8e-05
7.8e-05
7.8e-05
7.8e-05
7.8e-05
7.8e-05
7.8e-05
7.8e-05
7.8e-05
7.8e-05
7.8e-05
7.8e-05
7.8e-05
7.8e-05
7.8e-05
7.8e-05
7.8e-05
7.8e-05
7.8e-05
7.8e-05
7.8e-05
7.8e-05
7.8e-05
7.8e-05
7.8e-05
7.8e-05
7.8e-05
7.8e-05
7.8e-05
7.8e-05
7.8e-05
7.8e-05
7.8e-05
7.8e-05
7.8e-05
7.8e-05
7.8e-05
7.8e-05
7.8e-05
7.8e-05
7.8e-05
7.8e-05
7.8e-05
7.8e-05
7.8e-05
7.8e-05
7.8e-05
7.8e-05
7.8e-05
7.8e-05
7.8e-05
7.8e-05
7.8e-05
7.8e-05
7.8e-05
7.8e-05
7.8e-05
7.8e-05
7.8e-05
7.8e-05
7.8e-05
7.8e-05
7.8e-05
7.8e-05
7.8e-05
7.8e-05
7.8e-05
7.8e-05
7.8e-05
7.8e-05
7.8e-05
7.8e-05
7.8e-05
7.8e-05
7.8e-05
7.8e-05
7.8e-05
7.8e-05
7.8e-05
7.8e-05
7.8e-05
7.8e-05
7.8e-05
7.8e-05
7.8e-05
7.8e-05
7.8e-05
7.8e-05
7.8e-05
7.8e-05
7.8e-05
7.8e-05
7.8e-05
7.8e-05
7.8e-05
7.8e-05
7.8e-05
7.8e-05
7.8e-05
7.8e-05
7.8e-05
7.8e-05
7.8e-05
7.8e-05
7.8e-05
7.8e-05
7.8e-05
7.8e-05
7.8e-05
7.8e-05
7.8e-05
7.8e-05
7.8e-05
7.8e-05
7.8e-05
7.8e-05
7.8e-05
7.8e-05
7.8e-05
7.8e-05
7.8e-05
7.8e-05
7.8e-05
7.8e-05
7.8e-05
7.8e-05
7.8e-05
7.8e-05
7.8e-05
7.8e-05
7.8e-05
7.8e-05
7.8e-05
7.8e-05
7.8e-05
7.8e-05
7.8e-05
7.8e-05
7.8e-05
7.8e-05
7.8e-05
7.8e-05
7.8e-05
7.8e-05
7.8e-05
7.8e-05
7.8e-05
7.8e-05
7.8e-05
7.8e-05
7.8e-05
7.8e-05
7.8e-05
7.8e-05
7.8e-05
7.8e-05
7.8e-05
7.8e-05
7.8e-05
7.8e-05
7.8e-05
7.8e-05
7.8e-05
7.8e-05
7.8e-05
7.8e-05
7.8e-05
7.8e-05
7.8e-05
7.8e-05
7.8e-05
7.8e-05
7.8e-05
7.8e-05
7.8e-05
7.8e-05
7.8e-05
7.8e-05
7.8e-05
7.8e-05
7.8e-05
7.8e-05
7.8e-05
7.8e-05
7.8e-05
7.8e-05
7.8e-05
7.8e-05
7.8e-05
7.8e-05
7.8e-05
7.8e-05
7.8e-05
7.8e-05
7.8e-05
7.8e-05
7.8e-05
7.8e-05
7.8e-05
7.8e-05
7.8e-05
7.8e-05
7.8e-05
7.8e-05
7.8e-05
7.8e-05
7.8e-05
7.8e-05
7.8e-05
7.8e-05
7.8e-05
7.8e-05
7.8e-05
7.8e-05
7.8e-05
7.8e-05
7.8e-05
7.8e-05
7.8e-05
7.8e-05
7.8e-05
7.8e-05
7.8e-05
7.8e-05
7.8e-05
7.8e-05
7.8e-05
7.8e-05
7.8e-05
7.8e-05
7.8e-05
7.8e-05
7.8e-05
7.8e-05
7.8e-05
7.8e-05
7.8e-05
7.8e-05
7.8e-05
7.8e-05
7.8e-05
7.8e-05
7.8e-05
7.8e-05
7.8e-05
7.8e-05
7.8e-05
7.8e-05
7.8e-05
7.8e-05
7.8e-05
7.8e-05
7.8e-05
7.8e-05
7.8e-05
7.8e-05
7.8e-05
7.8e-05
7.8e-05
7.8e-05
7.8e-05
7.8e-05
7.8e-05
7.8e-05
7.8e-05
7.8e-05
7.8e-05
7.8e-05
7.8e-05
7.8e-05
7.8e-05
7.8e-05
7.8e-05
7.8e-05
7.8e-05
7.8e-05
7.8e-05
7.8e-05
7.8e-05
7.8e-05
7.8e-05
7.8e-05
7.8e-05
7.8e-05
7.8e-05
7.8e-05
7.8e-05
7.8e-05
7.8e-05
7.8e-05
7.8e-05
7.8e-05
7.8e-05
7.8e-05
7.8e-05
7.8e-05
7.8e-05
7.8e-05
7.8e-05
7.8e-05
7.8e-05
7.8e-05
7.8e-05
7.8e-05
7.8e-05
7.8e-05
7.8e-05
7.8e-05
7.8e-05
7.8e-05
7.8e-05
7.8e-05
7.8e-05
7.8e-05
7.8e-05
7.8e-05
7.8e-05
7.8e-05
7.8e-05
7.8e-05
7.8e-05
7.8e-05
7.8e-05
7.8e-05
7.8e-05
7.8e-05
7.8e-05
7.8e-05
7.8e-05
7.8e-05
7.8e-05
7.8e-05
7.8e-05
7.8e-05
7.8e-05
7.8e-05
7.8e-05
7.8e-05
7.8e-05
7.8e-05
7.8e-05
7.8e-05
7.8e-05
7.8e-05
7.8e-05
7.8e-05
7.8e-05
7.8e-05
7.8e-05
7.8e-05
7.8e-05
7.8e-05
7.8e-05
7.8e-05
7.8e-05
7.8e-05
7.8e-05
7.8e-05
7.8e-05
7.8e-05
7.8e-05
7.8e-05
7.8e-05
7.8e-05
7.8e-05
7.8e-05
7.8e-05
7.8e-05
7.8e-05
7.8e-05
7.8e-05
7.8e-05
7.8e-05
7.8e-05
7.8e-05
7.8e-05
7.8e-05
7.8e-05
7.8e-05
7.8e-05
7.8e-05
7.8e-05
7.8e-05
7.8e-05
7.8e-05
7.8e-05
7.8e-05
7.8e-05
7.8e-05
7.8e-05
7.8e-05
7.8e-05
7.8e-05
7.8e-05
7.8e-05
7.8e-05
7.8e-05
7.8e-05
7.8e-05
7.8e-05
7.8e-05
7.8e-05
7.8e-05
7.8e-05
7.8e-05
7.8e-05
7.8e-05
7.8e-05
7.8e-05
7.8e-05
7.8e-05
7.8e-05
7.8e-05
7.8e-05
7.8e-05
7.8e-05
7.8e-05
7.8e-05
7.8e-05
7.8e-05
7.8e-05
7.8e-05
7.8e-05
7.8e-05
7.8e-05
7.8e-05
7.8e-05
7.8e-05
7.8e-05
7.8e-05
7.8e-05
7.8e-05
7.8e-05
7.8e-05
7.8e-05
7.8e-05
7.8e-05
7.8e-05
7.8e-05
7.8e-05
7.8e-05
7.8e-05
7.8e-05
7.8e-05
7.8e-05
7.8e-05
7.8e-05
7.8e-05
7.8e-05
7.8e-05
7.8e-05
7.8e-05
7.8e-05
7.8e-05
7.8e-05
7.8e-05
7.8e-05
7.8e-05
7.8e-05
7.8e-05
7.8e-05
7.8e-05
7.8e-05
7.8e-05
7.8e-05
7.8e-05
7.8e-05
7.8e-05
7.8e-05
7.8e-05
7.8e-05
7.8e-05
7.8e-05
7.8e-05
7.8e-05
7.8e-05
7.8e-05
7.8e-05
7.8e-05
7.8e-05
7.8e-05
7.8e-05
7.8e-05
7.8e-05
7.8e-05
7.8e-05
7.8e-05
7.8e-05
7.8e-05
7.8e-05
7.8e-05
7.8e-05
7.8e-05
7.8e-05
7.8e-05
7.8e-05
7.8e-05
7.8e-05
7.8e-05
7.8e-05
7.8e-05
7.8e-05
7.8e-05
7.8e-05
7.8e-05
7.8e-05
7.8e-05
7.8e-05
7.8e-05
7.8e-05
7.8e-05
7.8e-05
7.8e-05
7.8e-05
7.8e-05
7.8e-05
7.8e-05
7.8e-05
7.8e-05
7.8e-05
7.8e-05
7.8e-05
7.8e-05
7.8e-05
7.8e-05
7.8e-05
7.8e-05
7.8e-05
7.8e-05
7.8e-05
7.8e-05
7.8e-05
7.8e-05
7.8e-05
7.8e-05
7.8e-05
7.8e-05
7.8e-05
7.8e-05
7.8e-05
7.8e-05
7.8e-05
7.8e-05
7.8e-05
7.8e-05
7.8e-05
7.8e-05
7.8e-05
7.8e-05
7.8e-05
7.8e-05
7.8e-05
7.8e-05
7.8e-05
7.8e-05
7.8e-05
7.8e-05
7.8e-05
7.8e-05
7.8e-05
7.8e-05
7.8e-05
7.8e-05
7.8e-05
7.8e-05
7.8e-05
7.8e-05
7.8e-05
7.8e-05
7.8e-05
7.8e-05
7.8e-05
7.8e-05
7.8e-05
7.8e-05
7.8e-05
7.8e-05
7.8e-05
7.8e-05
7.8e-05
7.8e-05
7.8e-05
7.8e-05
7.8e-05
7.8e-05
7.8e-05
7.8e-05
7.8e-05
7.8e-05
7.8e-05
7.8e-05
7.8e-05
7.8e-05
7.8e-05
7.8e-05
7.8e-05
7.8e-05
7.8e-05
7.8e-05
7.8e-05
7.8e-05
7.8e-05
7.8e-05
7.8e-05
7.8e-05
7.8e-05
7.8e-05
7.8e-05
7.8e-05
7.8e-05
7.8e-05
7.8e-05
7.8e-05
7.8e-05
7.8e-05
7.8e-05
7.8e-05
7.8e-05
7.8e-05
7.8e-05
7.8e-05
7.8e-05
7.8e-05
7.8e-05
7.8e-05
7.8e-05
7.8e-05
7.8e-05
7.8e-05
7.8e-05
7.8e-05
7.8e-05
7.8e-05
7.8e-05
7.8e-05
7.8e-05
7.8e-05
7.8e-05
7.8e-05
7.8e-05
7.8e-05
7.8e-05
7.8e-05
7.8e-05
7.8e-05
7.8e-05
7.8e-05
7.8e-05
7.8e-05
7.8e-05
7.8e-05
7.8e-05
7.8e-05
7.8e-05
7.8e-05
7.8e-05
7.8e-05
7.8e-05
7.8e-05
7.8e-05
7.8e-05
7.8e-05
7.8e-05
7.8e-05
7.8e-05
7.8e-05
7.8e-05
7.8e-05
7.8e-05
7.8e-05
7.8e-05
7.8e-05
7.8e-05
7.8e-05
7.8e-05
7.8e-05
7.8e-05
7.8e-05
7.8e-05
7.8e-05
7.8e-05
7.8e-05
7.8e-05
7.8e-05
7.8e-05
7.8e-05
7.8e-05
7.8e-05
7.8e-05
7.8e-05
7.8e-05
7.8e-05
7.8e-05
7.8e-05
7.8e-05
7.8e-05
7.8e-05
7.8e-05
7.8e-05
7.8e-05
7.8e-05
7.8e-05
7.8e-05
7.8e-05
7.8e-05
7.8e-05
7.8e-05
7.8e-05
7.8e-05
7.8e-05
7.8e-05
7.8e-05
7.8e-05
7.8e-05
7.8e-05
7.8e-05
7.8e-05
7.8e-05
7.8e-05
7.8e-05
7.8e-05
7.8e-05
7.8e-05
7.8e-05
7.8e-05
7.8e-05
7.8e-05
7.8e-05
7.8e-05
7.8e-05
7.8e-05
7.8e-05
7.8e-05
7.8e-05
7.8e-05
7.8e-05
7.8e-05
7.8e-05
7.8e-05
7.8e-05
7.8e-05
7.8e-05
7.8e-05
7.8e-05
7.8e-05
7.8e-05
7.8e-05
7.8e-05
7.8e-05
7.8e-05
7.8e-05
7.8e-05
7.8e-05
7.8e-05
7.8e-05
7.8e-05
7.8e-05
7.8e-05
7.8e-05
7.8e-05
7.8e-05
7.8e-05
7.8e-05
7.8e-05
7.8e-05
7.8e-05
7.8e-05
7.8e-05
7.8e-05
7.8e-05
7.8e-05
7.8e-05
7.8e-05
7.8e-05
7.8e-05
7.8e-05
7.8e-05
7.8e-05
7.8e-05
7.8e-05
7.8e-05
7.8e-05
7.8e-05
7.8e-05
7.8e-05
7.8e-05
7.8e-05
7.8e-05
7.8e-05
7.8e-05
7.8e-05
7.8e-05
7.8e-05
7.8e-05
7.8e-05
7.8e-05
7.8e-05
7.8e-05
7.8e-05
7.8e-05
7.8e-05
7.8e-05
7.8e-05
7.8e-05
7.8e-05
7.8e-05
7.8e-05
7.8e-05
7.8e-05
7.8e-05
7.8e-05
7.8e-05
7.8e-05
7.8e-05
7.8e-05
7.8e-05
7.8e-05
7.8e-05
7.8e-05
7.8e-05
7.8e-05
7.8e-05
7.8e-05
7.8e-05
7.8e-05
7.8e-05
7.8e-05
7.8e-05
7.8e-05
7.8e-05
7.8e-05
7.8e-05
7.8e-05
7.8e-05
7.8e-05
7.8e-05
7.8e-05
7.8e-05
7.8e-05
7.8e-05
7.8e-05
7.8e-05
7.8e-05
7.8e-05
7.8e-05
7.8e-05
7.8e-05
7.8e-05
7.8e-05
7.8e-05
7.8e-05
7.8e-05
7.8e-05
7.8e-05
7.8e-05
7.8e-05
7.8e-05
7.8e-05
7.8e-05
7.8e-05
7.8e-05
7.8e-05
7.8e-05
7.8e-05
7.8e-05
7.8e-05
7.8e-05
7.8e-05
7.8e-05
7.8e-05
7.8e-05
7.8e-05
7.8e-05
7.8e-05
7.8e-05
7.8e-05
7.8e-05
7.8e-05
7.8e-05
7.8e-05
7.8e-05
7.8e-05
7.8e-05
7.8e-05
7.8e-05
7.8e-05
7.8e-05
7.8e-05
7.8e-05
7.8e-05
7.8e-05
7.8e-05
7.8e-05
7.8e-05
7.8e-05
7.8e-05
7.8e-05
7.8e-05
7.8e-05
7.8e-05
7.8e-05
7.8e-05
7.8e-05
7.8e-05
7.8e-05
7.8e-05
7.8e-05
7.8e-05
7.8e-05
7.8e-05
7.8e-05
7.8e-05
7.8e-05
7.8e-05
7.8e-05
7.8e-05
7.8e-05
7.8e-05
7.8e-05
7.8e-05
7.8e-05
7.8e-05
7.8e-05
7.8e-05
7.8e-05
7.8e-05
7.8e-05
7.8e-05
7.8e-05
7.8e-05
7.8e-05
7.8e-05
7.8e-05
7.8e-05
7.8e-05
7.8e-05
7.8e-05
7.8e-05
7.8e-05
7.8e-05
7.8e-05
7.8e-05
7.8e-05
7.8e-05
7.8e-05
7.8e-05
7.8e-05
7.8e-05
7.8e-05
7.8e-05
7.8e-05
7.8e-05
7.8e-05
7.8e-05
7.8e-05
7.8e-05
7.8e-05
7.8e-05
7.8e-05
7.8e-05
7.8e-05
7.8e-05
7.8e-05
7.8e-05
7.8e-05
7.8e-05
7.8e-05
7.8e-05
7.8e-05
7.8e-05
7.8e-05
7.8e-05
7.8e-05
7.8e-05
7.8e-05
7.8e-05
7.8e-05
7.8e-05
7.8e-05
7.8e-05
7.8e-05
7.8e-05
7.8e-05
7.8e-05
7.8e-05
7.8e-05
7.8e-05
7.8e-05
7.8e-05
7.8e-05
7.8e-05
7.8e-05
7.8e-05
7.8e-05
7.8e-05
7.8e-05
7.8e-05
7.8e-05
7.8e-05
7.8e-05
7.8e-05
7.8e-05
7.8e-05
7.8e-05
7.8e-05
7.8e-05
7.8e-05
7.8e-05
7.8e-05
7.8e-05
7.8e-05
7.8e-05
7.8e-05
7.8e-05
7.8e-05
7.8e-05
7.8e-05
7.8e-05
7.8e-05
7.8e-05
7.8e-05
7.8e-05
7.8e-05
7.8e-05
7.8e-05
7.8e-05
7.8e-05
7.8e-05
7.8e-05
7.8e-05
7.8e-05
7.8e-05
7.8e-05
7.8e-05
7.8e-05
7.8e-05
7.8e-05
7.8e-05
7.8e-05
7.8e-05
7.8e-05
7.8e-05
7.8e-05
7.8e-05
7.8e-05
7.8e-05
7.8e-05
7.8e-05
7.8e-05
7.8e-05
7.8e-05
7.8e-05
7.8e-05
7.8e-05
7.8e-05
7.8e-05
7.8e-05
7.8e-05
7.8e-05
7.8e-05
7.8e-05
7.8e-05
7.8e-05
7.8e-05
7.8e-05
7.8e-05
7.8e-05
7.8e-05
7.8e-05
7.8e-05
7.8e-05
7.8e-05
7.8e-05
7.8e-05
7.8e-05
7.8e-05
7.8e-05
7.8e-05
7.8e-05
7.8e-05
7.8e-05
7.8e-05
7.8e-05
7.8e-05
7.8e-05
7.8e-05
7.8e-05
7.8e-05
7.8e-05
7.8e-05
7.8e-05
7.8e-05
7.8e-05
7.8e-05
7.8e-05
7.8e-05
7.8e-05
7.8e-05
7.8e-05
7.8e-05
7.8e-05
7.8e-05
7.8e-05
7.8e-05
7.8e-05
7.8e-05
7.8e-05
7.8e-05
7.8e-05
7.8e-05
7.8e-05
7.8e-05
7.8e-05
7.8e-05
7.8e-05
7.8e-05
7.8e-05
7.8e-05
7.8e-05
7.8e-05
7.8e-05
7.8e-05
7.8e-05
7.8e-05
7.8e-05
7.8e-05
7.8e-05
7.8e-05
7.8e-05
7.8e-05
7.8e-05
7.8e-05
7.8e-05
7.8e-05
7.8e-05
7.8e-05
7.8e-05
7.8e-05
7.8e-05
7.8e-05
7.8e-05
7.8e-05
7.8e-05
7.8e-05
7.8e-05
7.8e-05
7.8e-05
7.8e-05
7.8e-05
7.8e-05
7.8e-05
7.8e-05
7.8e-05
7.8e-05
7.8e-05
7.8e-05
7.8e-05
7.8e-05
7.8e-05
7.8e-05
7.8e-05
7.8e-05
7.8e-05
7.8e-05
7.8e-05
7.8e-05
7.8e-05
7.8e-05
7.8e-05
7.8e-05
7.8e-05
7.8e-05
7.8e-05
7.8e-05
7.8e-05
7.8e-05
7.8e-05
7.8e-05
7.8e-05
7.8e-05
7.8e-05
7.8e-05
7.8e-05
7.8e-05
7.8e-05
7.8e-05
7.8e-05
7.8e-05
7.8e-05
7.8e-05
7.8e-05
7.8e-05
7.8e-05
7.8e-05
7.8e-05
7.8e-05
7.8e-05
7.8e-05
7.8e-05
7.8e-05
7.8e-05
7.8e-05
7.8e-05
7.8e-05
7.8e-05
7.8e-05
7.8e-05
7.8e-05
7.8e-05
7.8e-05
7.8e-05
7.8e-05
7.8e-05
7.8e-05
7.8e-05
7.8e-05
7.8e-05
7.8e-05
7.8e-05
7.8e-05
7.8e-05
7.8e-05
7.8e-05
7.8e-05
7.8e-05
7.8e-05
7.8e-05
7.8e-05
7.8e-05
7.8e-05
7.8e-05
7.8e-05
7.8e-05
7.8e-05
7.8e-05
7.8e-05
7.8e-05
7.8e-05
7.8e-05
7.8e-05
7.8e-05
7.8e-05
7.8e-05
7.8e-05
7.8e-05
7.8e-05
7.8e-05
7.8e-05
7.8e-05
7.8e-05
7.8e-05
7.8e-05
7.8e-05
7.8e-05
7.8e-05
7.8e-05
7.8e-05
7.8e-05
7.8e-05
7.8e-05
7.8e-05
7.8e-05
7.8e-05
7.8e-05
7.8e-05
7.8e-05
7.8e-05
7.8e-05
7.8e-05
7.8e-05
7.8e-05
7.8e-05
7.8e-05
7.8e-05
7.8e-05
7.8e-05
7.8e-05
7.8e-05
7.8e-05
7.8e-05
7.8e-05
7.8e-05
7.8e-05
7.8e-05
7.8e-05
7.8e-05
7.8e-05
7.8e-05
7.8e-05
7.8e-05
7.8e-05
7.8e-05
7.8e-05
7.8e-05
7.8e-05
7.8e-05
7.8e-05
7.8e-05
7.8e-05
7.8e-05
7.8e-05
7.8e-05
7.8e-05
7.8e-05
7.8e-05
7.8e-05
7.8e-05
7.8e-05
7.8e-05
7.8e-05
7.8e-05
7.8e-05
7.8e-05
7.8e-05
7.8e-05
7.8e-05
7.8e-05
7.8e-05
7.8e-05
7.8e-05
7.8e-05
7.8e-05
7.8e-05
7.8e-05
7.8e-05
7.8e-05
7.8e-05
7.8e-05
7.8e-05
7.8e-05
7.8e-05
7.8e-05
7.8e-05
7.8e-05
7.8e-05
7.8e-05
7.8e-05
7.8e-05
7.8e-05
7.8e-05
7.8e-05
7.8e-05
7.8e-05
7.8e-05
7.8e-05
7.8e-05
7.8e-05
7.8e-05
7.8e-05
7.8e-05
7.8e-05
7.8e-05
7.8e-05
7.8e-05
7.8e-05
7.8e-05
7.8e-05
7.8e-05
7.8e-05
7.8e-05
7.8e-05
7.8e-05
7.8e-05
7.8e-05
7.8e-05
7.8e-05
7.8e-05
7.8e-05
7.8e-05
7.8e-05
7.8e-05
7.8e-05
7.8e-05
7.8e-05
7.8e-05
7.8e-05
7.8e-05
7.8e-05
7.8e-05
7.8e-05
7.8e-05
7.8e-05