/*--------------------------------*- C++ -*----------------------------------*\
| =========                 |                                                 |
| \\      /  F ield         | OpenFOAM: The Open Source CFD Toolbox           |
|  \\    /   O peration     | Version:  2406                                  |
|   \\  /    A nd           | Website:  www.openfoam.com                      |
|    \\/     M anipulation  |                                                 |
\*---------------------------------------------------------------------------*/
FoamFile
{
    version     2.0;
    format      ascii;
    arch        "LSB;label=32;scalar=64";
    class       volScalarField;
    location    "6";
    object      C;
}
// * * * * * * * * * * * * * * * * * * * * * * * * * * * * * * * * * * * * * //

dimensions      [1 -3 0 0 0 0 0];

internalField   nonuniform List<scalar> 
14400
(
0.268285
0.266648
0.263867
0.260612
0.257514
0.255085
0.253695
0.253575
0.254825
0.257418
0.261194
0.265839
0.270854
0.275521
0.278893
0.279905
0.277838
0.273517
0.268126
0.262741
0.258216
0.255206
0.254218
0.255663
0.259889
0.267217
0.277957
0.292426
0.31096
0.333915
0.361662
0.394573
0.432968
0.477007
0.526388
0.579002
0.61858
0.644525
0.666292
0.685228
0.70161
0.715652
0.727523
0.737354
0.745247
0.75128
0.755513
0.757986
0.758726
0.757744
0.755038
0.750592
0.744376
0.736343
0.726432
0.714558
0.700615
0.684469
0.665948
0.644833
0.620846
0.589732
0.544392
0.490829
0.441585
0.398094
0.36032
0.327934
0.300533
0.27771
0.259086
0.24432
0.233118
0.225229
0.220449
0.218611
0.219591
0.223296
0.229659
0.238636
0.250178
0.264224
0.280655
0.299238
0.319491
0.340155
0.355743
0.362259
0.361573
0.352216
0.337557
0.322338
0.307957
0.295034
0.283873
0.274604
0.267232
0.26167
0.257748
0.255227
0.253818
0.253207
0.253104
0.253301
0.253736
0.254518
0.255899
0.25821
0.261808
0.26703
0.274167
0.283451
0.295048
0.309044
0.325424
0.344018
0.364378
0.38525
0.400878
0.407377
0.277898
0.27576
0.272288
0.268364
0.264717
0.261888
0.260252
0.260036
0.26134
0.264141
0.26829
0.273494
0.279275
0.284914
0.289349
0.291074
0.288252
0.282794
0.276348
0.270108
0.264929
0.261436
0.260108
0.261335
0.265449
0.272759
0.28357
0.298193
0.31696
0.340227
0.36837
0.401761
0.440724
0.485379
0.535144
0.586345
0.622996
0.647709
0.669123
0.687783
0.703949
0.717824
0.729563
0.739292
0.747106
0.753081
0.757272
0.75972
0.760448
0.759468
0.756778
0.752363
0.746192
0.738223
0.728394
0.716626
0.702819
0.686845
0.668541
0.647704
0.624073
0.594997
0.551999
0.498411
0.448789
0.404808
0.366542
0.333706
0.305909
0.282749
0.263846
0.248859
0.237492
0.229495
0.224663
0.222832
0.223877
0.22771
0.234267
0.243503
0.255379
0.269835
0.286756
0.305901
0.32673
0.347802
0.362897
0.368828
0.368722
0.360957
0.346232
0.330457
0.315549
0.3022
0.290722
0.281244
0.273775
0.268225
0.264417
0.262095
0.260938
0.260582
0.260673
0.260943
0.261297
0.261879
0.263003
0.265065
0.268467
0.273577
0.280701
0.290079
0.301878
0.31618
0.332964
0.35204
0.372855
0.39376
0.407904
0.413324
0.297711
0.294317
0.28929
0.283958
0.279193
0.275565
0.273439
0.273033
0.274441
0.277645
0.282516
0.288802
0.296085
0.303696
0.310506
0.314341
0.309367
0.301363
0.29276
0.284837
0.278384
0.273952
0.271963
0.272762
0.276658
0.283939
0.294894
0.309825
0.329059
0.352946
0.381863
0.416187
0.456243
0.502137
0.552977
0.599205
0.630478
0.654007
0.674709
0.69283
0.708581
0.72213
0.733614
0.743144
0.750805
0.756665
0.760775
0.763172
0.763878
0.762902
0.760244
0.755888
0.749807
0.741961
0.732294
0.720734
0.707191
0.691549
0.673668
0.653371
0.630435
0.604117
0.565972
0.513579
0.463324
0.418349
0.37909
0.345349
0.316763
0.29293
0.27347
0.25804
0.246343
0.238129
0.233195
0.231378
0.232558
0.236647
0.243588
0.253343
0.265879
0.281146
0.299038
0.319297
0.341256
0.362737
0.375882
0.381104
0.381628
0.376858
0.363314
0.34662
0.330753
0.316596
0.3045
0.294616
0.28696
0.281446
0.277887
0.275996
0.275389
0.275605
0.276145
0.276589
0.276749
0.276871
0.277421
0.278934
0.281911
0.286776
0.293864
0.303423
0.315615
0.330515
0.348086
0.368099
0.389787
0.409632
0.420241
0.424508
0.32874
0.322743
0.315034
0.307488
0.301042
0.296232
0.293388
0.292703
0.294259
0.298038
0.303933
0.311734
0.321107
0.331479
0.341621
0.346632
0.340555
0.328846
0.317176
0.306892
0.298641
0.29287
0.289928
0.290113
0.293697
0.300944
0.312124
0.327522
0.347453
0.372256
0.402298
0.43794
0.479429
0.52654
0.576818
0.614751
0.640824
0.663131
0.682874
0.700249
0.715413
0.728501
0.739621
0.748864
0.756304
0.761999
0.765992
0.768315
0.768988
0.768019
0.765407
0.761138
0.755188
0.74752
0.738088
0.726827
0.71366
0.698492
0.681209
0.661676
0.63974
0.615254
0.583687
0.536915
0.485431
0.43889
0.398141
0.363056
0.333292
0.308454
0.28816
0.272066
0.259875
0.251337
0.246251
0.244458
0.24584
0.250315
0.257831
0.268358
0.28187
0.298325
0.317621
0.339486
0.363033
0.383262
0.393222
0.398029
0.399143
0.39669
0.387442
0.370553
0.353592
0.338339
0.32536
0.314884
0.306963
0.301528
0.298387
0.297222
0.297566
0.298805
0.300185
0.300988
0.300751
0.30001
0.299535
0.300106
0.302368
0.306822
0.313831
0.323645
0.336408
0.352157
0.370801
0.391968
0.41417
0.429496
0.436537
0.439957
0.369629
0.360582
0.349285
0.338895
0.330328
0.324021
0.320269
0.319231
0.320975
0.325474
0.332621
0.342213
0.353935
0.366988
0.378161
0.380222
0.37685
0.363862
0.349162
0.336202
0.325795
0.318367
0.314227
0.313636
0.316832
0.324053
0.335547
0.351579
0.372437
0.398438
0.429921
0.467201
0.510379
0.558547
0.601847
0.630896
0.654006
0.674818
0.693409
0.709877
0.724323
0.736838
0.747503
0.756388
0.763549
0.769034
0.772879
0.775109
0.77574
0.77478
0.772227
0.768069
0.762285
0.754845
0.745709
0.734825
0.72213
0.707551
0.691001
0.672384
0.651596
0.628528
0.602432
0.565168
0.514491
0.46648
0.423908
0.387091
0.355787
0.329622
0.308221
0.291241
0.278388
0.269418
0.26413
0.262372
0.264028
0.269021
0.277303
0.288849
0.303634
0.321608
0.342626
0.366236
0.390656
0.406583
0.414189
0.418649
0.420183
0.418937
0.414505
0.401853
0.38408
0.367567
0.353489
0.342259
0.334006
0.32871
0.326198
0.326131
0.327955
0.33088
0.333734
0.335306
0.334231
0.33198
0.329823
0.328928
0.330113
0.333953
0.340822
0.350953
0.364442
0.381225
0.401042
0.423009
0.441539
0.450893
0.456135
0.458825
0.408286
0.403615
0.390826
0.377824
0.367037
0.35905
0.35426
0.35282
0.354797
0.360133
0.368686
0.380147
0.394066
0.40833
0.413747
0.413495
0.412291
0.404677
0.388289
0.372757
0.36001
0.350691
0.345157
0.343654
0.346405
0.353625
0.365537
0.382378
0.404395
0.431854
0.46502
0.504067
0.548454
0.593941
0.625339
0.648339
0.669483
0.688728
0.706066
0.721528
0.735164
0.747026
0.757167
0.765635
0.772471
0.77771
0.78138
0.7835
0.784083
0.783134
0.780651
0.776625
0.771038
0.763867
0.755078
0.744633
0.732485
0.71858
0.702859
0.685263
0.665731
0.644218
0.620699
0.592448
0.550571
0.501324
0.456657
0.417788
0.384623
0.356829
0.334049
0.31596
0.302277
0.292762
0.287223
0.285511
0.287515
0.293159
0.302397
0.315202
0.33154
0.351316
0.374272
0.399488
0.421129
0.431655
0.438081
0.442193
0.444002
0.44364
0.441376
0.435296
0.421326
0.404222
0.389017
0.376928
0.368288
0.363202
0.361544
0.363005
0.366938
0.372455
0.377636
0.380808
0.378025
0.373378
0.368663
0.36568
0.365377
0.368386
0.375045
0.385544
0.399883
0.417714
0.438135
0.457592
0.468426
0.474214
0.478285
0.480383
0.442641
0.442286
0.436636
0.423437
0.41103
0.401349
0.395489
0.393624
0.395889
0.402143
0.412157
0.425168
0.440136
0.447227
0.447891
0.447697
0.446786
0.444434
0.433728
0.416535
0.401484
0.390133
0.383069
0.380551
0.382821
0.390079
0.402525
0.420362
0.443768
0.4729
0.507863
0.548593
0.592717
0.624491
0.646859
0.667594
0.686859
0.704545
0.720598
0.735006
0.747777
0.758934
0.768503
0.776513
0.782989
0.787956
0.791431
0.793429
0.793958
0.793022
0.790619
0.786742
0.781376
0.774505
0.766103
0.756144
0.744596
0.731424
0.716594
0.700076
0.681849
0.661912
0.640296
0.617085
0.586888
0.542446
0.496433
0.45548
0.420243
0.390554
0.366134
0.346709
0.33202
0.321842
0.315998
0.314345
0.316774
0.323203
0.333582
0.347876
0.366017
0.387778
0.412485
0.437408
0.451398
0.458715
0.464287
0.468042
0.469991
0.470246
0.469022
0.466623
0.460231
0.447424
0.431778
0.418914
0.409869
0.405065
0.404435
0.407805
0.414268
0.423028
0.430408
0.432729
0.430761
0.423705
0.415848
0.410318
0.408188
0.410208
0.416584
0.427447
0.442671
0.460964
0.478523
0.489213
0.494761
0.499249
0.502408
0.504039
0.477263
0.477151
0.476879
0.471792
0.461408
0.450548
0.443851
0.441542
0.444178
0.451275
0.462359
0.474753
0.481339
0.482373
0.482673
0.482617
0.482127
0.481174
0.477802
0.466438
0.450199
0.436912
0.428312
0.424716
0.426502
0.433854
0.446949
0.465971
0.490961
0.521829
0.558136
0.598842
0.62875
0.649918
0.669627
0.688318
0.705815
0.721993
0.736776
0.75012
0.762006
0.77243
0.781399
0.788924
0.795017
0.799692
0.802959
0.804826
0.805298
0.804378
0.802062
0.798346
0.79322
0.786672
0.778686
0.769245
0.758331
0.745926
0.732017
0.716599
0.699678
0.681285
0.661481
0.640373
0.618061
0.587313
0.543003
0.500459
0.46313
0.431342
0.405029
0.384046
0.368169
0.357202
0.350993
0.349412
0.352345
0.359691
0.371381
0.387361
0.407506
0.431296
0.456874
0.473396
0.481285
0.487488
0.492309
0.495698
0.497674
0.498331
0.497841
0.496452
0.494471
0.489413
0.480088
0.467495
0.458341
0.453959
0.454263
0.459442
0.467303
0.472588
0.475363
0.475873
0.475945
0.473707
0.468971
0.461786
0.458015
0.459139
0.465108
0.475963
0.491409
0.504384
0.513104
0.517877
0.522139
0.525611
0.528061
0.529327
0.511998
0.512035
0.512171
0.512516
0.509665
0.504292
0.498088
0.495331
0.498422
0.505495
0.512304
0.516676
0.51716
0.517505
0.517812
0.517971
0.517931
0.517701
0.517359
0.514342
0.504966
0.490819
0.481095
0.476419
0.477793
0.485307
0.499113
0.519448
0.54603
0.577959
0.612368
0.638616
0.657625
0.675801
0.693414
0.710236
0.726088
0.740838
0.754394
0.766692
0.777695
0.787381
0.795739
0.802766
0.808465
0.812837
0.815887
0.817617
0.818031
0.817128
0.814905
0.811361
0.806487
0.800278
0.792725
0.78382
0.773556
0.761932
0.74895
0.734623
0.718979
0.702069
0.68397
0.664796
0.6447
0.623691
0.594129
0.552492
0.513651
0.479728
0.451299
0.428564
0.411323
0.399429
0.392788
0.391292
0.394814
0.403192
0.416305
0.434045
0.456134
0.480759
0.497841
0.506277
0.512455
0.517644
0.521762
0.524767
0.526675
0.527561
0.52756
0.526869
0.525737
0.524477
0.521925
0.516866
0.511396
0.507993
0.50826
0.510271
0.512197
0.512304
0.51161
0.511659
0.51242
0.513946
0.514488
0.513363
0.512351
0.513388
0.518587
0.526542
0.534278
0.539713
0.543384
0.54702
0.550307
0.552996
0.554896
0.55588
0.546696
0.546819
0.547114
0.547691
0.548724
0.548896
0.547682
0.547231
0.548689
0.55108
0.552358
0.552151
0.552317
0.552674
0.553099
0.553523
0.553926
0.554341
0.554865
0.555664
0.554698
0.549512
0.540758
0.535349
0.53668
0.54444
0.558751
0.58003
0.607052
0.632429
0.65351
0.669803
0.686094
0.702245
0.717993
0.733123
0.747463
0.760878
0.773268
0.78456
0.794702
0.80366
0.811409
0.817938
0.823238
0.827303
0.830133
0.831726
0.832081
0.831197
0.829071
0.825703
0.821089
0.815227
0.808115
0.799752
0.790143
0.779296
0.767227
0.753963
0.739548
0.724042
0.707534
0.69014
0.67201
0.653325
0.634115
0.607406
0.571187
0.535952
0.505335
0.480816
0.462071
0.449092
0.441941
0.440543
0.444752
0.454231
0.468713
0.487866
0.510581
0.526105
0.534089
0.539643
0.544616
0.548873
0.552326
0.554933
0.5567
0.557678
0.557971
0.557726
0.557129
0.556399
0.555769
0.555406
0.553965
0.552298
0.551303
0.550027
0.5482
0.547094
0.546599
0.546724
0.547476
0.548881
0.550972
0.553868
0.556139
0.55851
0.561984
0.565645
0.568098
0.57079
0.573677
0.576513
0.579073
0.581168
0.582649
0.583416
0.581271
0.58143
0.581777
0.58237
0.583272
0.584496
0.586019
0.587127
0.58738
0.58707
0.586907
0.586977
0.587286
0.587774
0.588387
0.589096
0.589907
0.590872
0.592093
0.593736
0.596046
0.598348
0.598296
0.598583
0.601354
0.609437
0.623137
0.640178
0.65726
0.672303
0.686014
0.700253
0.714702
0.729092
0.743191
0.756801
0.769762
0.781943
0.793241
0.803578
0.812894
0.821145
0.828301
0.834339
0.839244
0.843006
0.845617
0.847073
0.84737
0.846506
0.84448
0.841292
0.83694
0.831426
0.824754
0.816931
0.807968
0.797882
0.786699
0.774456
0.761205
0.747017
0.731983
0.716221
0.699877
0.683123
0.666168
0.649184
0.6269
0.598536
0.566714
0.541082
0.520812
0.506584
0.498855
0.497533
0.50254
0.513023
0.528162
0.546675
0.558738
0.564908
0.569334
0.57359
0.577492
0.580904
0.583737
0.585941
0.587511
0.58848
0.58892
0.588935
0.588655
0.588221
0.58776
0.587334
0.586845
0.586059
0.584694
0.583264
0.582056
0.581274
0.580967
0.581162
0.581878
0.583127
0.584914
0.587224
0.589909
0.592691
0.595034
0.597169
0.599366
0.601671
0.604021
0.606282
0.608305
0.609954
0.611117
0.611719
0.615687
0.615852
0.616195
0.61674
0.617497
0.618439
0.619467
0.620306
0.620777
0.620994
0.621217
0.621563
0.622074
0.62275
0.62358
0.624566
0.625736
0.627148
0.628901
0.631141
0.634068
0.637943
0.643148
0.648454
0.654301
0.662499
0.672807
0.683657
0.694149
0.705622
0.717825
0.730491
0.743369
0.756231
0.768876
0.781129
0.792841
0.80389
0.814176
0.823616
0.83215
0.839727
0.84631
0.851873
0.856394
0.859859
0.862256
0.863578
0.86382
0.862978
0.861053
0.858043
0.853951
0.848783
0.842545
0.835251
0.826915
0.817564
0.80723
0.795956
0.783801
0.770838
0.757161
0.742885
0.728151
0.713123
0.697997
0.682998
0.668393
0.651739
0.631296
0.60819
0.586934
0.571596
0.563381
0.561888
0.567499
0.578007
0.588063
0.595413
0.598693
0.601606
0.604748
0.607891
0.610857
0.613515
0.615775
0.617584
0.618924
0.619811
0.620293
0.620438
0.620334
0.620069
0.619717
0.619307
0.6188
0.618115
0.617211
0.616274
0.615485
0.61498
0.614832
0.615081
0.615746
0.616835
0.618331
0.620191
0.622302
0.624493
0.626569
0.628553
0.630526
0.632506
0.634455
0.63629
0.637911
0.639224
0.640147
0.640624
0.649937
0.650095
0.650413
0.650897
0.651536
0.652297
0.653104
0.653837
0.654426
0.654912
0.655404
0.655984
0.656699
0.657571
0.658615
0.659853
0.661322
0.663082
0.665221
0.667858
0.671141
0.67524
0.680316
0.686374
0.69343
0.701066
0.709217
0.718136
0.727812
0.738208
0.749172
0.760518
0.772052
0.783587
0.794953
0.805996
0.816584
0.826602
0.835954
0.844562
0.852362
0.859301
0.865341
0.870449
0.874601
0.877779
0.879969
0.881163
0.881352
0.880535
0.878709
0.875876
0.87204
0.867209
0.861394
0.85461
0.846879
0.83823
0.828701
0.818338
0.807203
0.795372
0.782936
0.770008
0.756719
0.743223
0.729699
0.716353
0.703422
0.69118
0.679544
0.666056
0.652464
0.640816
0.633093
0.630076
0.630612
0.632984
0.634841
0.635133
0.636314
0.638076
0.640163
0.642368
0.64453
0.646525
0.648265
0.649695
0.650789
0.651549
0.652002
0.652192
0.652174
0.652005
0.651732
0.651377
0.650934
0.65039
0.649761
0.649137
0.648629
0.648329
0.6483
0.648582
0.649193
0.650134
0.651387
0.652907
0.654615
0.656411
0.658197
0.65995
0.661677
0.663373
0.665003
0.66651
0.667826
0.668883
0.669624
0.670005
0.684031
0.684177
0.684467
0.684897
0.685454
0.686109
0.686814
0.687514
0.688177
0.688823
0.689503
0.690271
0.691167
0.69222
0.693457
0.694909
0.696617
0.698637
0.701043
0.703928
0.707399
0.711561
0.716499
0.722231
0.728725
0.735841
0.743532
0.751841
0.760756
0.770224
0.780137
0.790357
0.800733
0.811112
0.821352
0.83132
0.840897
0.849979
0.858478
0.866317
0.873433
0.879776
0.885302
0.88998
0.893781
0.896687
0.89868
0.899752
0.899893
0.8991
0.897372
0.894711
0.891124
0.886619
0.88121
0.874916
0.867761
0.859777
0.851004
0.841492
0.831303
0.820511
0.809205
0.797492
0.785493
0.773349
0.761222
0.749292
0.737759
0.726839
0.716756
0.707798
0.699925
0.692551
0.686261
0.681727
0.678176
0.675221
0.673598
0.673064
0.673353
0.674221
0.675458
0.676889
0.67837
0.679789
0.681065
0.682141
0.682987
0.683594
0.683974
0.684153
0.684164
0.684046
0.683828
0.683533
0.68317
0.682751
0.682304
0.681885
0.681564
0.681406
0.681459
0.681754
0.682309
0.683121
0.684175
0.685433
0.686842
0.688337
0.689858
0.691372
0.692861
0.694305
0.695673
0.696921
0.698
0.69886
0.699459
0.699767
0.71798
0.718114
0.71838
0.718771
0.719275
0.719871
0.72053
0.721226
0.721945
0.722698
0.723515
0.72443
0.725477
0.726685
0.728085
0.72971
0.731599
0.733804
0.736386
0.739414
0.742964
0.747105
0.751888
0.757326
0.763397
0.770043
0.777229
0.78494
0.793148
0.801795
0.810796
0.820041
0.829409
0.838777
0.848023
0.857034
0.865704
0.87394
0.88166
0.888793
0.895279
0.901066
0.906114
0.910387
0.913858
0.916506
0.918314
0.91927
0.919367
0.918599
0.916967
0.914474
0.911126
0.906933
0.901912
0.896083
0.889472
0.882113
0.874047
0.865324
0.856005
0.846163
0.835882
0.82526
0.814411
0.80346
0.79255
0.781835
0.771481
0.761661
0.752544
0.744281
0.736922
0.730466
0.724883
0.720062
0.716159
0.713207
0.711248
0.710171
0.709813
0.709997
0.71056
0.711359
0.712271
0.713198
0.714065
0.714818
0.715423
0.715866
0.716148
0.716281
0.716285
0.716185
0.716002
0.715756
0.715463
0.715141
0.714818
0.714534
0.714338
0.714272
0.714374
0.714668
0.715166
0.715867
0.716758
0.717809
0.718984
0.720236
0.721525
0.722818
0.724089
0.725314
0.726463
0.727502
0.728392
0.729097
0.729587
0.729837
0.751794
0.751919
0.752167
0.752532
0.753003
0.753568
0.75421
0.754916
0.75568
0.756511
0.757428
0.758457
0.759624
0.760959
0.762488
0.764245
0.766267
0.768596
0.771282
0.774379
0.777939
0.782009
0.786622
0.791787
0.797492
0.803707
0.8104
0.817544
0.8251
0.833013
0.84121
0.849601
0.858086
0.866564
0.874931
0.883088
0.890945
0.898417
0.90543
0.911917
0.917823
0.923097
0.927699
0.931595
0.934758
0.937165
0.938799
0.939648
0.939705
0.938963
0.937424
0.935091
0.931971
0.928076
0.923423
0.918032
0.911932
0.905156
0.897746
0.889751
0.881231
0.872254
0.862899
0.853257
0.84343
0.833531
0.823682
0.814016
0.80467
0.795781
0.787477
0.779862
0.772994
0.766895
0.761562
0.756977
0.753184
0.750199
0.748015
0.746562
0.745729
0.745393
0.745427
0.745715
0.746157
0.746667
0.747179
0.747641
0.748021
0.7483
0.748471
0.748537
0.748511
0.748406
0.748239
0.748027
0.747785
0.747532
0.747292
0.747097
0.746979
0.746971
0.747097
0.747378
0.747821
0.748425
0.749179
0.750062
0.751047
0.7521
0.753189
0.754286
0.755364
0.756399
0.757364
0.758231
0.758968
0.75955
0.759952
0.760158
0.785484
0.785602
0.785838
0.786185
0.786639
0.787188
0.787826
0.788546
0.789348
0.790237
0.79123
0.792345
0.793606
0.795037
0.796664
0.798516
0.800626
0.80303
0.805768
0.808879
0.812402
0.81637
0.820803
0.825709
0.831078
0.836891
0.84312
0.849735
0.856695
0.863948
0.87143
0.879066
0.886772
0.894461
0.902047
0.909443
0.916571
0.923354
0.929725
0.935624
0.940997
0.945799
0.94999
0.953537
0.956413
0.958596
0.960069
0.96082
0.96084
0.960125
0.958676
0.956495
0.953592
0.949978
0.94567
0.94069
0.935066
0.928832
0.922029
0.914704
0.906914
0.898722
0.890203
0.881439
0.872521
0.86355
0.854631
0.845878
0.837402
0.829316
0.821719
0.814695
0.808298
0.802559
0.797492
0.793101
0.7894
0.78639
0.784051
0.782331
0.781151
0.780419
0.780039
0.779918
0.779974
0.780135
0.780341
0.780548
0.780722
0.780842
0.780897
0.780887
0.780814
0.780689
0.780522
0.780327
0.780116
0.779909
0.779723
0.779583
0.779512
0.779534
0.779667
0.779925
0.780314
0.780832
0.781471
0.782215
0.783042
0.783927
0.784845
0.785772
0.786683
0.787555
0.788364
0.789088
0.789701
0.790183
0.790515
0.790685
0.819054
0.819169
0.819396
0.819734
0.820177
0.820721
0.821361
0.822096
0.822926
0.82386
0.824909
0.826088
0.827418
0.828919
0.830614
0.832529
0.834692
0.837132
0.83988
0.842967
0.846422
0.850265
0.854512
0.859167
0.864221
0.869658
0.875455
0.88158
0.887996
0.894653
0.901496
0.90846
0.915473
0.922462
0.929352
0.936068
0.94254
0.948702
0.954492
0.959856
0.964744
0.969112
0.972925
0.97615
0.978762
0.980738
0.982062
0.982722
0.98271
0.982022
0.980658
0.978622
0.975923
0.972573
0.968588
0.963992
0.958811
0.953079
0.946834
0.940123
0.932997
0.925518
0.917752
0.909774
0.901667
0.893516
0.885416
0.877461
0.869745
0.862361
0.85539
0.848901
0.842944
0.837552
0.832745
0.828534
0.824924
0.821909
0.819468
0.817559
0.816124
0.815093
0.814391
0.813945
0.813687
0.813557
0.813504
0.813487
0.813475
0.813447
0.81339
0.813298
0.813171
0.813014
0.812834
0.812641
0.812446
0.812263
0.812108
0.811999
0.811952
0.811985
0.812112
0.812341
0.812677
0.813119
0.813658
0.814284
0.814978
0.815721
0.816493
0.817273
0.818039
0.818772
0.819451
0.820055
0.820565
0.820965
0.821241
0.821381
0.85251
0.852622
0.852845
0.853176
0.853614
0.854157
0.854801
0.855549
0.856402
0.857368
0.858457
0.859681
0.861058
0.862606
0.864344
0.866294
0.86848
0.870925
0.873653
0.876689
0.880051
0.883757
0.887814
0.892224
0.89698
0.902067
0.907462
0.913136
0.919054
0.925173
0.931442
0.937804
0.944199
0.950563
0.95683
0.962937
0.96882
0.974422
0.979686
0.984563
0.989009
0.992982
0.996448
0.999377
1.00175
1.00353
1.00472
1.0053
1.00526
1.00459
1.00331
1.00141
0.998905
0.995801
0.992119
0.987879
0.983108
0.977838
0.972105
0.965955
0.959434
0.9526
0.945513
0.93824
0.930855
0.923433
0.916056
0.908804
0.901757
0.894993
0.888579
0.882574
0.877024
0.87196
0.867404
0.863367
0.859853
0.856855
0.854353
0.852315
0.850694
0.849437
0.848486
0.847783
0.847272
0.846902
0.846631
0.846421
0.846245
0.846082
0.845917
0.845744
0.845558
0.845362
0.845159
0.844957
0.844763
0.84459
0.844448
0.844352
0.844313
0.844343
0.844454
0.84465
0.844936
0.845308
0.84576
0.846284
0.846864
0.847487
0.848134
0.848787
0.84943
0.850044
0.850611
0.851115
0.85154
0.851873
0.852101
0.852217
0.885854
0.885964
0.886184
0.886512
0.886948
0.88749
0.888139
0.888896
0.889766
0.890753
0.891868
0.893122
0.894528
0.896103
0.897862
0.899824
0.902008
0.904434
0.90712
0.910083
0.913339
0.916897
0.920763
0.924936
0.929409
0.934167
0.939189
0.944448
0.949912
0.955542
0.961293
0.967116
0.972957
0.97876
0.98447
0.990029
0.995383
1.00048
1.00527
1.0097
1.01375
1.01736
1.02051
1.02317
1.02531
1.02692
1.02798
1.02849
1.02842
1.02779
1.02658
1.02481
1.02248
1.01961
1.01621
1.0123
1.0079
1.00306
0.997796
0.992156
0.986186
0.979935
0.973459
0.966819
0.960078
0.953305
0.946569
0.939941
0.933487
0.927274
0.921359
0.915793
0.910617
0.90586
0.901542
0.897677
0.894267
0.891305
0.888776
0.886652
0.8849
0.883476
0.882335
0.88143
0.880715
0.88015
0.879696
0.879322
0.879003
0.878718
0.878454
0.878201
0.877955
0.877716
0.877483
0.877263
0.877061
0.876885
0.876743
0.876646
0.876603
0.876622
0.87671
0.876871
0.877107
0.877415
0.877791
0.878226
0.87871
0.879228
0.879767
0.880313
0.88085
0.881362
0.881835
0.882254
0.882608
0.882884
0.883073
0.88317
0.919088
0.919197
0.919415
0.919741
0.920175
0.920717
0.921368
0.922132
0.923011
0.924011
0.925141
0.92641
0.92783
0.929415
0.931177
0.933132
0.935296
0.937683
0.940308
0.943185
0.946323
0.949728
0.953405
0.957349
0.961553
0.966002
0.970678
0.975556
0.980605
0.98579
0.991073
0.996409
1.00175
1.00705
1.01226
1.01733
1.0222
1.02684
1.0312
1.03524
1.03891
1.0422
1.04506
1.04747
1.04941
1.05086
1.05181
1.05225
1.05216
1.05155
1.05042
1.04877
1.04661
1.04395
1.0408
1.0372
1.03315
1.0287
1.02386
1.01869
1.01322
1.00749
1.00157
0.995497
0.989334
0.98314
0.976976
0.970902
0.964977
0.959257
0.953791
0.948623
0.94379
0.939319
0.935229
0.931532
0.928231
0.925322
0.922792
0.920619
0.918777
0.917231
0.915947
0.914885
0.91401
0.913285
0.912681
0.912168
0.911725
0.911333
0.910978
0.910652
0.910347
0.910062
0.909796
0.909551
0.909333
0.909145
0.908994
0.908887
0.908831
0.908831
0.908893
0.909017
0.909206
0.909456
0.909763
0.910121
0.910519
0.910948
0.911395
0.911848
0.912293
0.912719
0.913112
0.91346
0.913753
0.913982
0.914139
0.914218
0.952214
0.952322
0.952537
0.952861
0.953293
0.953834
0.954486
0.955251
0.956134
0.957139
0.958274
0.959547
0.960969
0.962549
0.964299
0.966232
0.968359
0.970694
0.973246
0.976025
0.979038
0.98229
0.985779
0.989502
0.993451
0.997612
1.00197
1.00649
1.01116
1.01594
1.0208
1.0257
1.03059
1.03543
1.04019
1.04481
1.04926
1.05349
1.05746
1.06113
1.06447
1.06746
1.07006
1.07224
1.074
1.0753
1.07615
1.07652
1.07642
1.07584
1.07477
1.07323
1.07123
1.06877
1.06586
1.06254
1.05881
1.05471
1.05027
1.04552
1.0405
1.03526
1.02983
1.02427
1.01862
1.01295
1.00729
1.00171
0.996263
0.990984
0.985924
0.981119
0.976602
0.972397
0.968523
0.964991
0.961804
0.95896
0.95645
0.954256
0.952356
0.950726
0.949336
0.948155
0.947153
0.946301
0.945573
0.944945
0.944396
0.943911
0.943475
0.94308
0.942719
0.942388
0.942087
0.941814
0.941574
0.941368
0.941201
0.941078
0.941003
0.94098
0.941012
0.941099
0.941243
0.941439
0.941685
0.941975
0.942299
0.94265
0.943017
0.94339
0.943757
0.944108
0.944433
0.944721
0.944963
0.945152
0.945281
0.945347
0.985231
0.985338
0.985552
0.985873
0.986302
0.986841
0.98749
0.988254
0.989134
0.990138
0.991269
0.992537
0.993948
0.995512
0.997238
0.999136
1.00122
1.00349
1.00596
1.00863
1.01152
1.01461
1.01792
1.02143
1.02514
1.02903
1.03308
1.03728
1.0416
1.04602
1.05049
1.05498
1.05947
1.06391
1.06826
1.07248
1.07654
1.08039
1.08401
1.08735
1.09039
1.09311
1.09547
1.09745
1.09903
1.10021
1.10096
1.10128
1.10116
1.1006
1.0996
1.09817
1.09631
1.09403
1.09134
1.08827
1.08484
1.08107
1.07698
1.07262
1.06801
1.0632
1.05822
1.05312
1.04794
1.04273
1.03753
1.0324
1.02737
1.02249
1.0178
1.01333
1.0091
1.00514
1.00148
0.998104
0.995035
0.992266
0.989791
0.987597
0.985667
0.983981
0.982515
0.981245
0.980146
0.979194
0.978366
0.977642
0.977005
0.976438
0.975931
0.975474
0.975061
0.974686
0.974348
0.974045
0.973779
0.973551
0.973364
0.97322
0.973123
0.973074
0.973075
0.973126
0.973226
0.973374
0.973564
0.973793
0.974052
0.974335
0.974633
0.974937
0.975237
0.975525
0.975791
0.976027
0.976226
0.976381
0.976487
0.976542
1.01814
1.01825
1.01846
1.01878
1.0192
1.01974
1.02038
1.02114
1.02201
1.02301
1.02413
1.02538
1.02677
1.02831
1.03001
1.03186
1.03388
1.03608
1.03846
1.04103
1.04378
1.04673
1.04985
1.05316
1.05664
1.06028
1.06405
1.06796
1.07196
1.07603
1.08015
1.08429
1.0884
1.09247
1.09645
1.10031
1.10401
1.10753
1.11083
1.11387
1.11664
1.11911
1.12125
1.12305
1.12448
1.12554
1.1262
1.12648
1.12634
1.12581
1.12487
1.12353
1.1218
1.11969
1.11721
1.11438
1.11121
1.10774
1.10398
1.09997
1.09573
1.09131
1.08673
1.08205
1.07729
1.0725
1.06771
1.06298
1.05834
1.05382
1.04946
1.04529
1.04133
1.0376
1.03413
1.03091
1.02796
1.02528
1.02285
1.02067
1.01873
1.01702
1.0155
1.01416
1.01299
1.01196
1.01105
1.01025
1.00954
1.00891
1.00834
1.00783
1.00736
1.00695
1.00657
1.00624
1.00595
1.00569
1.00548
1.00532
1.00519
1.00512
1.00509
1.0051
1.00516
1.00527
1.00541
1.00558
1.00578
1.00601
1.00624
1.00649
1.00673
1.00696
1.00718
1.00737
1.00753
1.00766
1.00775
1.00779
1.05095
1.05105
1.05126
1.05157
1.05199
1.05252
1.05316
1.05391
1.05477
1.05575
1.05686
1.05809
1.05945
1.06096
1.06261
1.06441
1.06637
1.06849
1.07078
1.07324
1.07586
1.07865
1.08161
1.08472
1.08799
1.09138
1.0949
1.09853
1.10223
1.106
1.1098
1.1136
1.11739
1.12112
1.12476
1.12829
1.13168
1.13489
1.1379
1.14068
1.1432
1.14544
1.14739
1.14901
1.15031
1.15125
1.15184
1.15207
1.15193
1.15142
1.15053
1.14929
1.14768
1.14572
1.14343
1.14081
1.13789
1.13469
1.13123
1.12753
1.12364
1.11957
1.11536
1.11105
1.10667
1.10225
1.09784
1.09347
1.08918
1.08498
1.08093
1.07703
1.07332
1.06982
1.06653
1.06346
1.06063
1.05803
1.05566
1.05351
1.05158
1.04985
1.0483
1.04692
1.0457
1.04461
1.04364
1.04277
1.042
1.04131
1.04069
1.04013
1.03962
1.03917
1.03876
1.03839
1.03807
1.0378
1.03756
1.03737
1.03722
1.03712
1.03705
1.03704
1.03706
1.03712
1.03721
1.03734
1.03749
1.03766
1.03785
1.03804
1.03823
1.03842
1.03859
1.03874
1.03888
1.03898
1.03905
1.03908
1.08365
1.08375
1.08396
1.08426
1.08468
1.0852
1.08582
1.08656
1.08741
1.08837
1.08945
1.09066
1.092
1.09346
1.09507
1.09681
1.0987
1.10074
1.10293
1.10528
1.10777
1.11042
1.11321
1.11614
1.11919
1.12237
1.12565
1.12902
1.13245
1.13593
1.13944
1.14295
1.14642
1.14985
1.15319
1.15642
1.15952
1.16245
1.1652
1.16773
1.17003
1.17207
1.17384
1.17531
1.17648
1.17733
1.17785
1.17804
1.17789
1.1774
1.17657
1.1754
1.17391
1.17209
1.16997
1.16755
1.16485
1.1619
1.15871
1.15531
1.15172
1.14797
1.14409
1.14012
1.13608
1.13201
1.12793
1.12389
1.11991
1.11601
1.11224
1.1086
1.10512
1.10181
1.09869
1.09578
1.09306
1.09055
1.08825
1.08614
1.08423
1.08249
1.08093
1.07953
1.07826
1.07713
1.07611
1.0752
1.07438
1.07364
1.07297
1.07237
1.07183
1.07134
1.0709
1.0705
1.07016
1.06985
1.06959
1.06938
1.0692
1.06907
1.06898
1.06893
1.06891
1.06894
1.06899
1.06907
1.06918
1.06931
1.06944
1.06959
1.06974
1.06988
1.07002
1.07014
1.07025
1.07033
1.07038
1.07041
1.11624
1.11635
1.11655
1.11685
1.11726
1.11777
1.11838
1.1191
1.11993
1.12087
1.12193
1.12311
1.1244
1.12583
1.12738
1.12906
1.13088
1.13284
1.13493
1.13716
1.13953
1.14203
1.14467
1.14742
1.15028
1.15325
1.15631
1.15944
1.16262
1.16585
1.16908
1.17231
1.17551
1.17866
1.18173
1.18469
1.18752
1.19021
1.19271
1.19502
1.19712
1.19897
1.20058
1.20191
1.20296
1.20373
1.20419
1.20434
1.20418
1.20371
1.20293
1.20184
1.20045
1.19877
1.1968
1.19456
1.19207
1.18935
1.1864
1.18326
1.17995
1.1765
1.17292
1.16926
1.16553
1.16176
1.158
1.15425
1.15055
1.14693
1.14341
1.14
1.13673
1.13362
1.13066
1.12789
1.12529
1.12287
1.12063
1.11858
1.11669
1.11497
1.11341
1.11199
1.1107
1.10954
1.10849
1.10754
1.10668
1.1059
1.1052
1.10456
1.10398
1.10346
1.10299
1.10257
1.1022
1.10187
1.10158
1.10134
1.10114
1.10098
1.10086
1.10078
1.10073
1.10072
1.10074
1.10078
1.10085
1.10093
1.10103
1.10114
1.10125
1.10136
1.10146
1.10156
1.10164
1.1017
1.10175
1.10177
1.14874
1.14884
1.14904
1.14933
1.14973
1.15023
1.15083
1.15153
1.15234
1.15326
1.15429
1.15543
1.15669
1.15806
1.15956
1.16118
1.16292
1.16479
1.16679
1.16891
1.17116
1.17352
1.176
1.17859
1.18127
1.18405
1.18689
1.1898
1.19276
1.19574
1.19873
1.20171
1.20466
1.20755
1.21037
1.21308
1.21568
1.21813
1.22043
1.22253
1.22444
1.22613
1.22759
1.2288
1.22975
1.23043
1.23083
1.23095
1.23079
1.23034
1.22961
1.22859
1.22729
1.22573
1.22391
1.22183
1.21953
1.21701
1.21429
1.21139
1.20834
1.20514
1.20184
1.19846
1.19501
1.19153
1.18803
1.18456
1.18112
1.17775
1.17446
1.17127
1.16819
1.16526
1.16246
1.15982
1.15733
1.15501
1.15284
1.15084
1.14899
1.14729
1.14574
1.14432
1.14302
1.14184
1.14076
1.13978
1.1389
1.13809
1.13735
1.13668
1.13608
1.13553
1.13503
1.13459
1.13419
1.13384
1.13353
1.13327
1.13304
1.13286
1.13271
1.1326
1.13252
1.13248
1.13246
1.13247
1.1325
1.13255
1.13261
1.13269
1.13276
1.13284
1.13292