/*--------------------------------*- C++ -*----------------------------------*\
| =========                 |                                                 |
| \\      /  F ield         | OpenFOAM: The Open Source CFD Toolbox           |
|  \\    /   O peration     | Version:  2406                                  |
|   \\  /    A nd           | Website:  www.openfoam.com                      |
|    \\/     M anipulation  |                                                 |
\*---------------------------------------------------------------------------*/
FoamFile
{
    version     2.0;
    format      ascii;
    arch        "LSB;label=32;scalar=64";
    class       volScalarField;
    location    "6";
    object      C_0;
}
// * * * * * * * * * * * * * * * * * * * * * * * * * * * * * * * * * * * * * //

dimensions      [1 -3 0 0 0 0 0];

internalField   nonuniform List<scalar> 
14400
(
0.268478
0.266837
0.264051
0.26079
0.257686
0.255255
0.253863
0.253744
0.254998
0.257597
0.261383
0.266039
0.271068
0.275749
0.279134
0.280153
0.278085
0.273757
0.268359
0.262967
0.258436
0.255423
0.254436
0.255885
0.26012
0.267459
0.278215
0.292706
0.311264
0.334248
0.362029
0.394978
0.433415
0.477496
0.52691
0.579527
0.619049
0.644951
0.666709
0.685638
0.702013
0.716051
0.727917
0.737744
0.745634
0.751665
0.755896
0.758368
0.759107
0.758124
0.755418
0.750973
0.744757
0.736726
0.726816
0.714945
0.701005
0.684863
0.666346
0.645237
0.621256
0.5902
0.544915
0.49131
0.442021
0.398486
0.360672
0.328251
0.300818
0.277967
0.259318
0.244532
0.233313
0.225411
0.22062
0.218776
0.219753
0.223458
0.229825
0.238808
0.250361
0.26442
0.280867
0.299469
0.319743
0.340428
0.356023
0.362536
0.361852
0.352491
0.337815
0.322577
0.308178
0.295239
0.284065
0.274785
0.267405
0.261837
0.257911
0.255389
0.25398
0.25337
0.253267
0.253466
0.2539
0.254682
0.256063
0.258375
0.261976
0.267202
0.274345
0.283638
0.295247
0.309257
0.325653
0.344266
0.364644
0.385534
0.401164
0.407656
0.278102
0.27596
0.272481
0.268549
0.264896
0.262064
0.260426
0.260211
0.261518
0.264326
0.268484
0.2737
0.279497
0.285151
0.289603
0.291339
0.288513
0.283046
0.276589
0.27034
0.265155
0.261659
0.260332
0.261563
0.265685
0.273007
0.283834
0.298478
0.317271
0.340568
0.368744
0.402175
0.44118
0.485882
0.535688
0.58686
0.623446
0.648133
0.669539
0.688191
0.704352
0.718221
0.729957
0.739682
0.747493
0.753465
0.757655
0.760101
0.760828
0.759848
0.757158
0.752742
0.746573
0.738604
0.728777
0.717012
0.703208
0.687237
0.668938
0.648107
0.624483
0.595455
0.552512
0.498895
0.449232
0.405208
0.366902
0.33403
0.306201
0.283012
0.264084
0.249077
0.237692
0.229682
0.22484
0.223002
0.224045
0.227877
0.234438
0.243681
0.255567
0.270036
0.286974
0.306138
0.326988
0.348079
0.363176
0.369105
0.368998
0.361236
0.346497
0.330702
0.315776
0.302411
0.290919
0.281431
0.273954
0.268398
0.264587
0.262264
0.261106
0.260752
0.260844
0.261115
0.261469
0.262051
0.263174
0.265236
0.268641
0.273754
0.280884
0.290272
0.302082
0.316398
0.333199
0.352294
0.373129
0.394048
0.408185
0.413601
0.29794
0.294536
0.289499
0.284158
0.279385
0.275752
0.273624
0.273218
0.274629
0.27784
0.282722
0.289022
0.296321
0.303952
0.310784
0.314643
0.309655
0.301634
0.293016
0.285083
0.278623
0.274187
0.272197
0.273001
0.276905
0.284198
0.29517
0.310122
0.329381
0.353299
0.382252
0.416616
0.456716
0.502657
0.553538
0.599696
0.630906
0.654427
0.675121
0.693236
0.708981
0.722526
0.734006
0.743532
0.75119
0.757048
0.761157
0.763552
0.764257
0.763281
0.760622
0.756267
0.750187
0.742342
0.732677
0.721119
0.707578
0.69194
0.674063
0.653771
0.630842
0.604554
0.56647
0.514077
0.463783
0.418765
0.379465
0.345688
0.317067
0.293205
0.27372
0.258268
0.246554
0.238327
0.233382
0.231559
0.232735
0.236824
0.243769
0.253531
0.266078
0.281359
0.299267
0.319547
0.341527
0.363021
0.376159
0.38138
0.381902
0.377137
0.363589
0.346877
0.330991
0.316817
0.304708
0.294812
0.287149
0.281629
0.278067
0.276176
0.275572
0.27579
0.276333
0.276778
0.276938
0.277057
0.277605
0.279118
0.282096
0.286964
0.294058
0.303626
0.31583
0.330745
0.348332
0.368365
0.390073
0.409917
0.420515
0.424781
0.329003
0.32299
0.315265
0.307707
0.301252
0.296435
0.293588
0.292904
0.294463
0.298249
0.304155
0.31197
0.321362
0.331756
0.341921
0.346932
0.34087
0.329141
0.317454
0.307157
0.298898
0.293122
0.290179
0.290368
0.29396
0.30122
0.312417
0.327837
0.347794
0.372629
0.402708
0.438391
0.479925
0.527074
0.577353
0.615207
0.641246
0.663546
0.683283
0.700652
0.715811
0.728894
0.74001
0.749251
0.756688
0.762381
0.766372
0.768694
0.769366
0.768397
0.765784
0.761515
0.755566
0.7479
0.738468
0.727209
0.714045
0.698881
0.681601
0.662073
0.640142
0.615662
0.584153
0.537443
0.485914
0.439329
0.398539
0.363416
0.333617
0.308748
0.288428
0.272312
0.260102
0.25155
0.246453
0.244653
0.246032
0.250508
0.258028
0.268562
0.282085
0.298554
0.317868
0.339753
0.36332
0.383546
0.393497
0.398304
0.399417
0.396964
0.387725
0.370825
0.353847
0.338577
0.325584
0.315096
0.307167
0.301727
0.298585
0.297421
0.297768
0.299012
0.300398
0.301204
0.300964
0.300218
0.299739
0.300307
0.302569
0.307025
0.31404
0.323863
0.336639
0.352404
0.371065
0.392249
0.41446
0.429769
0.436806
0.440225
0.369886
0.360852
0.349542
0.339138
0.330559
0.324245
0.320489
0.319451
0.321199
0.325706
0.332864
0.34247
0.354209
0.367281
0.378452
0.380503
0.377154
0.364176
0.349463
0.33649
0.326075
0.318641
0.3145
0.313912
0.317116
0.324351
0.335863
0.351918
0.372804
0.398838
0.430358
0.46768
0.510908
0.559116
0.602327
0.631316
0.65442
0.675227
0.693813
0.710276
0.724718
0.737229
0.747891
0.756772
0.763931
0.769414
0.773257
0.775485
0.776116
0.775156
0.772602
0.768444
0.762661
0.755222
0.746087
0.735205
0.722513
0.707936
0.691389
0.672776
0.651993
0.628929
0.60286
0.565667
0.514992
0.466948
0.424336
0.387479
0.356139
0.329941
0.308512
0.291508
0.278637
0.269651
0.264353
0.262588
0.264241
0.269234
0.27752
0.289073
0.30387
0.321859
0.342895
0.366524
0.390955
0.406864
0.414465
0.418924
0.420456
0.419209
0.414784
0.402146
0.384357
0.367827
0.353733
0.342491
0.334229
0.328928
0.326416
0.326352
0.328183
0.331117
0.33398
0.33556
0.334476
0.332217
0.330053
0.329152
0.330335
0.334175
0.34105
0.351191
0.364693
0.381493
0.401329
0.42331
0.441817
0.451156
0.456399
0.459089
0.408525
0.403871
0.391102
0.378092
0.367294
0.359297
0.354503
0.353064
0.355044
0.360389
0.368954
0.380427
0.394358
0.408625
0.414029
0.413781
0.412583
0.405002
0.388615
0.373074
0.360317
0.350992
0.345457
0.343957
0.346716
0.35395
0.365881
0.382747
0.404793
0.432285
0.465487
0.504572
0.549
0.594431
0.625758
0.64875
0.66989
0.689131
0.706464
0.721923
0.735554
0.747413
0.757551
0.766016
0.77285
0.778088
0.781756
0.783875
0.784457
0.783508
0.781025
0.776998
0.771412
0.764241
0.755454
0.74501
0.732864
0.718962
0.703244
0.68565
0.666122
0.644612
0.621096
0.592896
0.551106
0.501833
0.457123
0.418212
0.385008
0.357179
0.33437
0.316255
0.302552
0.293021
0.28747
0.285752
0.287753
0.293397
0.302639
0.315451
0.331801
0.351593
0.374568
0.399803
0.421424
0.431932
0.438358
0.442468
0.444275
0.443911
0.441643
0.435577
0.421627
0.404507
0.389284
0.377183
0.368534
0.363443
0.361787
0.363253
0.367194
0.372726
0.377918
0.381111
0.378306
0.37365
0.368922
0.365931
0.365622
0.368631
0.375296
0.385805
0.400157
0.418007
0.438442
0.457869
0.468684
0.474473
0.478545
0.480644
0.442881
0.442528
0.436899
0.423728
0.411314
0.401622
0.395759
0.393895
0.396165
0.402426
0.412454
0.425471
0.440437
0.447514
0.448175
0.447986
0.447081
0.444751
0.434084
0.416885
0.401824
0.390466
0.3834
0.380885
0.383164
0.390436
0.402903
0.420767
0.444204
0.473369
0.508361
0.549108
0.593221
0.624925
0.647267
0.667998
0.68726
0.704942
0.720992
0.735396
0.748164
0.759318
0.768884
0.776891
0.783366
0.78833
0.791804
0.793801
0.794329
0.793393
0.79099
0.787113
0.781748
0.774877
0.766476
0.756519
0.744972
0.731802
0.716974
0.700459
0.682234
0.662299
0.640684
0.617474
0.587339
0.542987
0.49694
0.455945
0.420668
0.390941
0.366489
0.347037
0.332326
0.322132
0.316276
0.314616
0.317041
0.323471
0.333854
0.348155
0.366307
0.388084
0.412806
0.437722
0.451682
0.458995
0.464564
0.468318
0.470264
0.470516
0.469289
0.466888
0.460513
0.44773
0.432068
0.419197
0.41014
0.40533
0.404703
0.408083
0.414552
0.423331
0.430694
0.433007
0.431049
0.424012
0.416135
0.410599
0.408459
0.410477
0.416859
0.427734
0.442968
0.461277
0.4788
0.489466
0.495015
0.499504
0.502665
0.504296
0.477506
0.477394
0.477127
0.472063
0.461714
0.450843
0.444148
0.441844
0.444483
0.451584
0.462685
0.475055
0.481628
0.482654
0.482958
0.482908
0.482424
0.481477
0.478138
0.466823
0.450575
0.43728
0.428681
0.425086
0.42688
0.434247
0.447366
0.466419
0.49144
0.522343
0.558664
0.599346
0.629194
0.650322
0.670028
0.688715
0.706209
0.722384
0.737164
0.750505
0.762388
0.772809
0.781776
0.789299
0.795391
0.800064
0.803329
0.805195
0.805667
0.804746
0.80243
0.798714
0.793589
0.787041
0.779056
0.769616
0.758703
0.7463
0.732393
0.716976
0.700057
0.681665
0.661862
0.640755
0.618448
0.587766
0.543529
0.500965
0.463599
0.431771
0.405423
0.384412
0.368512
0.357528
0.351307
0.349719
0.352648
0.359994
0.371687
0.387674
0.40783
0.431633
0.457215
0.473698
0.481571
0.48777
0.492587
0.495974
0.497946
0.4986
0.498108
0.496716
0.494732
0.489693
0.480387
0.467808
0.458634
0.454246
0.454553
0.459751
0.467594
0.47286
0.47562
0.476118
0.476203
0.47398
0.469266
0.462098
0.458308
0.45943
0.465403
0.476275
0.491715
0.504659
0.513354
0.518128
0.522391
0.525864
0.528314
0.529581
0.512243
0.51228
0.512418
0.512766
0.50994
0.504591
0.49841
0.495663
0.498753
0.505812
0.5126
0.516958
0.517437
0.517786
0.518098
0.518262
0.518229
0.518005
0.51767
0.514694
0.50537
0.491219
0.481507
0.476827
0.478207
0.485738
0.49957
0.519943
0.546549
0.578517
0.612848
0.639045
0.658021
0.676195
0.693806
0.710626
0.726475
0.741223
0.754776
0.767072
0.778073
0.787756
0.796112
0.803138
0.808834
0.813205
0.816254
0.817984
0.818397
0.817493
0.81527
0.811725
0.806852
0.800643
0.793091
0.784187
0.773925
0.762302
0.749321
0.734995
0.719353
0.702444
0.684345
0.665172
0.645076
0.624083
0.594582
0.553027
0.514167
0.480201
0.451737
0.428973
0.411709
0.399796
0.393142
0.391639
0.395158
0.403536
0.416652
0.434395
0.456494
0.481129
0.498164
0.50657
0.512743
0.517928
0.522041
0.525043
0.526948
0.527831
0.527827
0.527132
0.525997
0.524734
0.522196
0.517149
0.511692
0.508292
0.508549
0.510546
0.512457
0.512545
0.511851
0.5119
0.512661
0.514187
0.514749
0.513638
0.512644
0.513691
0.518887
0.526825
0.534543
0.539959
0.543632
0.547269
0.550557
0.553246
0.555147
0.556131
0.546943
0.547067
0.547363
0.54794
0.548974
0.549165
0.547964
0.54752
0.548978
0.551362
0.552625
0.552423
0.552594
0.552955
0.553385
0.553815
0.554223
0.554645
0.555176
0.555984
0.55506
0.549918
0.54122
0.535791
0.537129
0.544905
0.559243
0.580573
0.607573
0.632881
0.653907
0.670189
0.68648
0.70263
0.718377
0.733506
0.747843
0.761257
0.773645
0.784935
0.795075
0.80403
0.811778
0.818306
0.823604
0.827668
0.830497
0.832089
0.832443
0.831559
0.829433
0.826065
0.821451
0.815589
0.808477
0.800116
0.790507
0.779661
0.767593
0.75433
0.739916
0.724411
0.707903
0.69051
0.672381
0.653695
0.6345
0.607853
0.571738
0.536467
0.505816
0.481269
0.462504
0.449505
0.44234
0.440934
0.445142
0.454621
0.469107
0.48825
0.51097
0.526442
0.534388
0.539936
0.544904
0.549156
0.552606
0.555209
0.556972
0.557947
0.558237
0.557989
0.557389
0.556655
0.556021
0.555657
0.55423
0.552565
0.551563
0.550269
0.548441
0.547335
0.54684
0.546965
0.547716
0.549121
0.551212
0.55411
0.556399
0.558777
0.562246
0.565892
0.56834
0.571034
0.573923
0.57676
0.579321
0.581416
0.582898
0.583665
0.58152
0.581679
0.582028
0.582621
0.583523
0.584746
0.586269
0.58738
0.587635
0.587331
0.587173
0.587248
0.587562
0.588056
0.588674
0.589388
0.590205
0.591176
0.592404
0.594054
0.596372
0.598709
0.598692
0.599018
0.601826
0.609924
0.623622
0.640628
0.657671
0.672674
0.686388
0.700629
0.715079
0.729469
0.743567
0.757176
0.770136
0.782315
0.793612
0.803947
0.813261
0.821511
0.828666
0.834702
0.839606
0.843367
0.845977
0.847432
0.847729
0.846865
0.844839
0.84165
0.837298
0.831784
0.825113
0.817291
0.808328
0.798243
0.78706
0.774818
0.761568
0.74738
0.732347
0.716586
0.700241
0.683488
0.666532
0.649554
0.627336
0.599061
0.567226
0.541578
0.521298
0.507044
0.499296
0.49797
0.502981
0.513457
0.528608
0.547067
0.559083
0.565214
0.569633
0.573883
0.57778
0.581188
0.584016
0.586217
0.587783
0.588749
0.589185
0.589197
0.588914
0.588477
0.588013
0.587584
0.58709
0.586302
0.584936
0.583506
0.582297
0.581515
0.581208
0.581403
0.582118
0.583366
0.585153
0.587463
0.590147
0.592927
0.595271
0.597409
0.599607
0.601914
0.604265
0.606527
0.608551
0.6102
0.611364
0.611966
0.615938
0.616103
0.616447
0.616992
0.617749
0.618692
0.619721
0.620561
0.621035
0.621257
0.621484
0.621835
0.622351
0.623031
0.623866
0.624857
0.626032
0.62745
0.629209
0.631456
0.63439
0.638271
0.643485
0.648831
0.6547
0.662904
0.6732
0.684019
0.694508
0.705985
0.71819
0.730859
0.743738
0.7566
0.769245
0.781497
0.793209
0.804257
0.814541
0.82398
0.832512
0.840088
0.846671
0.852232
0.856752
0.860216
0.862612
0.863933
0.864175
0.863333
0.861407
0.858397
0.854306
0.849138
0.8429
0.835606
0.827271
0.817921
0.807587
0.796314
0.784158
0.771196
0.757519
0.743244
0.72851
0.713482
0.698355
0.683356
0.668752
0.652153
0.631761
0.608706
0.587471
0.57209
0.563851
0.562359
0.567988
0.578452
0.588446
0.595756
0.599003
0.60191
0.605046
0.608183
0.611144
0.613798
0.616054
0.617859
0.619195
0.62008
0.620558
0.6207
0.620593
0.620325
0.61997
0.619557
0.619047
0.61836
0.617454
0.616517
0.615727
0.615221
0.615073
0.615321
0.615986
0.617074
0.618571
0.62043
0.62254
0.624731
0.626808
0.628793
0.630766
0.632748
0.634698
0.636533
0.638155
0.639468
0.640392
0.640868
0.65019
0.650347
0.650666
0.65115
0.65179
0.652552
0.65336
0.654095
0.654686
0.655176
0.655672
0.656257
0.656976
0.657852
0.658901
0.660144
0.661617
0.663383
0.665527
0.66817
0.671459
0.675564
0.680646
0.686708
0.693767
0.701406
0.709562
0.718487
0.728165
0.738563
0.74953
0.760878
0.772413
0.783949
0.795315
0.806358
0.816945
0.826962
0.836314
0.844921
0.852719
0.859658
0.865696
0.870803
0.874955
0.878132
0.880322
0.881515
0.881704
0.880886
0.87906
0.876226
0.872391
0.86756
0.861745
0.854961
0.847231
0.838582
0.829053
0.818691
0.807556
0.795725
0.783289
0.770361
0.757072
0.743575
0.730051
0.716705
0.703774
0.691532
0.67992
0.666461
0.652899
0.64127
0.633544
0.630503
0.63101
0.633348
0.635163
0.635446
0.636621
0.638377
0.640459
0.642659
0.644816
0.646807
0.648543
0.649969
0.65106
0.651817
0.652267
0.652453
0.652432
0.652261
0.651985
0.651627
0.651182
0.650636
0.650005
0.64938
0.648871
0.64857
0.648541
0.648822
0.649433
0.650373
0.651625
0.653145
0.654854
0.656649
0.658435
0.660189
0.661917
0.663613
0.665244
0.666752
0.668068
0.669126
0.669867
0.670248
0.684285
0.68443
0.684721
0.685152
0.68571
0.686366
0.687072
0.687774
0.688439
0.689088
0.689772
0.690544
0.691443
0.692501
0.693742
0.695199
0.696911
0.698936
0.701347
0.704238
0.707713
0.71188
0.716823
0.722559
0.729057
0.736177
0.743872
0.752185
0.761103
0.770573
0.780489
0.79071
0.801087
0.811467
0.821707
0.831675
0.841252
0.850334
0.858832
0.86667
0.873786
0.880128
0.885654
0.89033
0.894131
0.897036
0.899029
0.900099
0.90024
0.899447
0.897719
0.895058
0.891471
0.886966
0.881557
0.875263
0.868108
0.860125
0.851352
0.84184
0.831651
0.820859
0.809553
0.797839
0.78584
0.773697
0.761569
0.749638
0.738104
0.727184
0.7171
0.708135
0.700266
0.692916
0.686632
0.682082
0.6785
0.675536
0.673911
0.673372
0.673656
0.67452
0.675752
0.677178
0.678655
0.68007
0.681342
0.682415
0.683257
0.683861
0.684238
0.684414
0.684423
0.684301
0.684081
0.683783
0.683419
0.682998
0.682548
0.682128
0.681807
0.681647
0.681699
0.681994
0.682548
0.68336
0.684413
0.685671
0.68708
0.688575
0.690096
0.69161
0.6931
0.694545
0.695913
0.697162
0.698241
0.699101
0.699701
0.700009
0.718234
0.718369
0.718635
0.719027
0.719532
0.720128
0.72079
0.721487
0.722209
0.722965
0.723784
0.724703
0.725753
0.726965
0.728369
0.729998
0.731892
0.734102
0.736688
0.739721
0.743275
0.747421
0.752208
0.757649
0.763724
0.770374
0.777563
0.785278
0.793488
0.802138
0.811141
0.820387
0.829757
0.839126
0.848372
0.857383
0.866053
0.874289
0.882009
0.889142
0.895627
0.901413
0.90646
0.910732
0.914203
0.916851
0.918658
0.919614
0.91971
0.918942
0.91731
0.914817
0.911468
0.907276
0.902255
0.896426
0.889815
0.882456
0.87439
0.865667
0.856348
0.846506
0.836224
0.825603
0.814753
0.803802
0.792891
0.782175
0.771821
0.761999
0.75288
0.744614
0.737253
0.730792
0.725206
0.720382
0.716476
0.713519
0.711557
0.710476
0.710113
0.710293
0.710852
0.711646
0.712554
0.713478
0.714341
0.71509
0.715692
0.716132
0.716411
0.716541
0.716543
0.71644
0.716255
0.716006
0.715711
0.715387
0.715063
0.714778
0.71458
0.714513
0.714615
0.714908
0.715405
0.716106
0.716996
0.718047
0.719221
0.720474
0.721763
0.723056
0.724328
0.725553
0.726702
0.727741
0.728631
0.729337
0.729826
0.730077
0.75205
0.752175
0.752423
0.752788
0.753261
0.753827
0.75447
0.755178
0.755944
0.756778
0.757698
0.758729
0.7599
0.761238
0.762771
0.764532
0.766558
0.768891
0.771581
0.774682
0.778246
0.782321
0.786937
0.792106
0.797815
0.804032
0.810729
0.817876
0.825434
0.83335
0.841549
0.849941
0.858428
0.866906
0.875274
0.883432
0.891289
0.898761
0.905773
0.912261
0.918165
0.923439
0.928041
0.931937
0.935099
0.937505
0.939139
0.939988
0.940044
0.939303
0.937763
0.93543
0.93231
0.928415
0.923761
0.91837
0.91227
0.905494
0.898084
0.890089
0.881569
0.872591
0.863237
0.853594
0.843767
0.833867
0.824018
0.814351
0.805003
0.796113
0.787806
0.780189
0.773319
0.767217
0.76188
0.757293
0.753496
0.750507
0.74832
0.746863
0.746026
0.745686
0.745716
0.746
0.746438
0.746945
0.747453
0.747913
0.74829
0.748565
0.748733
0.748797
0.748768
0.74866
0.748491
0.748277
0.748032
0.747778
0.747537
0.747341
0.747222
0.747212
0.747338
0.747617
0.748059
0.748663
0.749417
0.7503
0.751284
0.752337
0.753426
0.754523
0.755602
0.756637
0.757602
0.758469
0.759207
0.759789
0.760191
0.760397
0.78574
0.785859
0.786094
0.786443
0.786897
0.787448
0.788087
0.788809
0.789612
0.790504
0.791499
0.792617
0.793881
0.795315
0.796946
0.798801
0.800915
0.803323
0.806064
0.809179
0.812706
0.816678
0.821115
0.826024
0.831396
0.837212
0.843444
0.850061
0.857024
0.864279
0.871763
0.8794
0.887107
0.894798
0.902384
0.909781
0.916909
0.923692
0.930063
0.935962
0.941335
0.946137
0.950327
0.953874
0.95675
0.958932
0.960405
0.961155
0.961175
0.96046
0.95901
0.95683
0.953926
0.950312
0.946004
0.941024
0.9354
0.929166
0.922363
0.915038
0.907247
0.899055
0.890536
0.881771
0.872853
0.863881
0.854961
0.846207
0.83773
0.829642
0.822044
0.815017
0.808618
0.802876
0.797806
0.793412
0.789707
0.786694
0.784352
0.782628
0.781445
0.780709
0.780325
0.780201
0.780254
0.780411
0.780614
0.780818
0.780988
0.781105
0.781158
0.781145
0.781071
0.780943
0.780774
0.780576
0.780364
0.780154
0.779967
0.779826
0.779754
0.779774
0.779907
0.780164
0.780552
0.78107
0.781708
0.782452
0.783278
0.784163
0.785082
0.786008
0.786919
0.787791
0.788601
0.789324
0.789938
0.79042
0.790752
0.790922
0.81931
0.819425
0.819653
0.819991
0.820435
0.82098
0.821622
0.822358
0.823191
0.824127
0.825178
0.82636
0.827692
0.829196
0.830894
0.832813
0.834979
0.837422
0.840174
0.843264
0.846722
0.850569
0.85482
0.859477
0.864535
0.869975
0.875774
0.881902
0.888319
0.894979
0.901824
0.908789
0.915804
0.922794
0.929684
0.936401
0.942873
0.949035
0.954826
0.960189
0.965077
0.969445
0.973258
0.976483
0.979094
0.981069
0.982393
0.983053
0.983041
0.982353
0.980988
0.978952
0.976253
0.972903
0.968918
0.964322
0.959141
0.953408
0.947163
0.940451
0.933326
0.925846
0.91808
0.910102
0.901993
0.893842
0.885741
0.877785
0.870068
0.862682
0.855709
0.849218
0.843258
0.837864
0.833055
0.828841
0.825228
0.82221
0.819766
0.817854
0.816415
0.81538
0.814675
0.814225
0.813964
0.813831
0.813775
0.813755
0.813741
0.81371
0.81365
0.813555
0.813426
0.813267
0.813085
0.81289
0.812693
0.812508
0.812352
0.812241
0.812193
0.812225
0.812351
0.81258
0.812915
0.813356
0.813895
0.81452
0.815214
0.815957
0.816729
0.817508
0.818275
0.819007
0.819686
0.82029
0.820801
0.821201
0.821476
0.821617
0.852767
0.852879
0.853102
0.853434
0.853873
0.854416
0.855062
0.855811
0.856666
0.857634
0.858725
0.859952
0.861332
0.862882
0.864623
0.866576
0.868765
0.871213
0.873944
0.876983
0.880349
0.884058
0.888118
0.892531
0.89729
0.902379
0.907776
0.913453
0.919373
0.925494
0.931764
0.938128
0.944524
0.950889
0.957157
0.963264
0.969148
0.97475
0.980014
0.984892
0.989337
0.99331
0.996776
0.999705
1.00207
1.00386
1.00505
1.00562
1.00558
1.00492
1.00364
1.00174
0.999231
0.996127
0.992444
0.988204
0.983433
0.978162
0.97243
0.966279
0.959758
0.952924
0.945836
0.938563
0.931176
0.923754
0.916375
0.909122
0.902075
0.895309
0.888893
0.882886
0.877333
0.872267
0.867709
0.863669
0.860153
0.857152
0.854647
0.852605
0.850981
0.849722
0.848768
0.848061
0.847547
0.847175
0.8469
0.846688
0.846509
0.846343
0.846176
0.846
0.845812
0.845613
0.845409
0.845205
0.84501
0.844835
0.844691
0.844593
0.844553
0.844583
0.844692
0.844888
0.845173
0.845544
0.845996
0.846519
0.847099
0.847722
0.848368
0.849022
0.849664
0.850278
0.850845
0.851349
0.851775
0.852107
0.852335
0.852451
0.886111
0.886221
0.886441
0.88677
0.887206
0.887749
0.8884
0.889159
0.890029
0.891019
0.892136
0.893392
0.8948
0.896377
0.898139
0.900104
0.902291
0.90472
0.907408
0.910374
0.913633
0.917194
0.921063
0.925239
0.929714
0.934474
0.939499
0.94476
0.950227
0.955858
0.961611
0.967434
0.973277
0.979081
0.984792
0.990351
0.995706
1.0008
1.00559
1.01003
1.01407
1.01768
1.02083
1.02349
1.02563
1.02725
1.02831
1.02881
1.02875
1.02811
1.0269
1.02513
1.0228
1.01993
1.01653
1.01262
1.00822
1.00338
0.998116
0.992476
0.986506
0.980254
0.973778
0.967137
0.960395
0.953621
0.946884
0.940254
0.9338
0.927585
0.921668
0.916101
0.910922
0.906163
0.901843
0.897975
0.894562
0.891598
0.889066
0.886939
0.885184
0.883757
0.882613
0.881705
0.880988
0.88042
0.879963
0.879587
0.879265
0.878977
0.878711
0.878456
0.878208
0.877966
0.877732
0.87751
0.877306
0.877129
0.876986
0.876887
0.876843
0.876861
0.876948
0.877108
0.877343
0.877651
0.878026
0.878461
0.878944
0.879462
0.880001
0.880546
0.881083
0.881595
0.882068
0.882487
0.882841
0.883117
0.883306
0.883403
0.919345
0.919454
0.919672
0.919998
0.920433
0.920976
0.921629
0.922393
0.923274
0.924276
0.925408
0.926679
0.928101
0.929688
0.931453
0.93341
0.935576
0.937966
0.940594
0.943473
0.946614
0.950022
0.953701
0.957648
0.961854
0.966306
0.970984
0.975863
0.980914
0.986102
0.991386
0.996723
1.00207
1.00737
1.01258
1.01764
1.02252
1.02716
1.03152
1.03556
1.03923
1.04252
1.04538
1.04779
1.04973
1.05118
1.05213
1.05256
1.05248
1.05187
1.05074
1.04909
1.04692
1.04426
1.04112
1.03751
1.03347
1.02901
1.02418
1.01901
1.01353
1.00781
1.00188
0.995811
0.989647
0.983452
0.977286
0.971211
0.965285
0.959563
0.954095
0.948926
0.944091
0.939618
0.935526
0.931826
0.928523
0.925611
0.923078
0.920903
0.919058
0.91751
0.916222
0.915158
0.91428
0.913553
0.912946
0.912431
0.911985
0.911591
0.911234
0.910905
0.910599
0.910311
0.910043
0.909797
0.909577
0.909388
0.909236
0.909128
0.90907
0.909069
0.909129
0.909253
0.909441
0.909691
0.909998
0.910354
0.910753
0.911181
0.911628
0.91208
0.912525
0.912951
0.913343
0.913692
0.913985
0.914214
0.91437
0.91445
0.952469
0.952578
0.952794
0.953118
0.953551
0.954093
0.954746
0.955512
0.956396
0.957403
0.95854
0.959815
0.961238
0.96282
0.964573
0.966508
0.968638
0.970975
0.973529
0.976311
0.979327
0.98258
0.986072
0.989797
0.993748
0.997911
1.00227
1.00679
1.01147
1.01625
1.02111
1.026
1.0309
1.03575
1.0405
1.04513
1.04957
1.0538
1.05777
1.06144
1.06479
1.06777
1.07037
1.07256
1.07431
1.07562
1.07646
1.07684
1.07674
1.07615
1.07509
1.07355
1.07154
1.06908
1.06617
1.06285
1.05912
1.05502
1.05058
1.04583
1.04081
1.03557
1.03014
1.02458
1.01893
1.01325
1.0076
1.00202
0.996566
0.991286
0.986224
0.981418
0.976898
0.972692
0.968816
0.965281
0.962092
0.959246
0.956733
0.954536
0.952635
0.951002
0.949609
0.948425
0.947421
0.946567
0.945836
0.945206
0.944655
0.944167
0.943729
0.943332
0.942969
0.942637
0.942333
0.942059
0.941817
0.94161
0.941441
0.941317
0.941241
0.941217
0.941248
0.941334
0.941477
0.941673
0.941919
0.942207
0.942531
0.942882
0.943248
0.943621
0.943988
0.944339
0.944663
0.944951
0.945193
0.945382
0.945512
0.945578
0.985486
0.985593
0.985808
0.986129
0.986559
0.987099
0.987749
0.988513
0.989396
0.9904
0.991534
0.992803
0.994216
0.995782
0.99751
0.99941
1.00149
1.00377
1.00624
1.00891
1.0118
1.0149
1.01821
1.02172
1.02543
1.02932
1.03338
1.03758
1.0419
1.04632
1.05079
1.05529
1.05978
1.06421
1.06856
1.07279
1.07684
1.0807
1.08432
1.08766
1.0907
1.09342
1.09578
1.09776
1.09934
1.10052
1.10127
1.10159
1.10147
1.10091
1.09991
1.09848
1.09662
1.09433
1.09165
1.08858
1.08515
1.08138
1.07729
1.07293
1.06832
1.06351
1.05853
1.05342
1.04824
1.04303
1.03784
1.0327
1.02767
1.02279
1.0181
1.01362
1.00939
1.00544
1.00176
0.99839
0.995319
0.992548
0.990071
0.987874
0.985942
0.984254
0.982785
0.981513
0.980412
0.979457
0.978627
0.977901
0.977261
0.976693
0.976184
0.975725
0.975309
0.974933
0.974593
0.974289
0.974021
0.973792
0.973603
0.973458
0.97336
0.97331
0.97331
0.97336
0.97346
0.973606
0.973796
0.974024
0.974283
0.974566
0.974863
0.975167
0.975467
0.975754
0.97602
0.976256
0.976455
0.97661
0.976717
0.976771
1.0184
1.0185
1.01871
1.01903
1.01946
1.01999
1.02064
1.0214
1.02227
1.02327
1.02439
1.02565
1.02704
1.02858
1.03028
1.03213
1.03416
1.03636
1.03874
1.04131
1.04406
1.04701
1.05014
1.05345
1.05693
1.06057
1.06435
1.06825
1.07225
1.07633
1.08045
1.08459
1.0887
1.09277
1.09675
1.10061
1.10432
1.10784
1.11113
1.11418
1.11695
1.11942
1.12156
1.12336
1.12479
1.12584
1.12651
1.12678
1.12665
1.12611
1.12518
1.12384
1.12211
1.11999
1.11751
1.11468
1.11152
1.10804
1.10428
1.10027
1.09603
1.09161
1.08704
1.08235
1.07759
1.07279
1.06801
1.06328
1.05863
1.05411
1.04975
1.04558
1.04162
1.03789
1.03441
1.0312
1.02824
1.02556
1.02313
1.02095
1.01901
1.01729
1.01577
1.01443
1.01326
1.01222
1.01131
1.01051
1.0098
1.00916
1.00859
1.00807
1.00761
1.00719
1.00682
1.00648
1.00619
1.00593
1.00572
1.00555
1.00543
1.00535
1.00532
1.00534
1.00539
1.0055
1.00564
1.00581
1.00601
1.00623
1.00647
1.00672
1.00696
1.00719
1.00741
1.0076
1.00776
1.00789
1.00797
1.00802
1.0512
1.0513
1.05151
1.05183
1.05225
1.05278
1.05341
1.05416
1.05503
1.05601
1.05712
1.05835
1.05972
1.06123
1.06288
1.06468
1.06664
1.06877
1.07106
1.07351
1.07614
1.07893
1.08189
1.08501
1.08827
1.09167
1.09519
1.09882
1.10253
1.10629
1.11009
1.1139
1.11768
1.12141
1.12506
1.12859
1.13198
1.13519
1.1382
1.14098
1.1435
1.14574
1.14769
1.14931
1.15061
1.15156
1.15215
1.15237
1.15223
1.15172
1.15084
1.14959
1.14798
1.14602
1.14373
1.14111
1.13819
1.13499
1.13153
1.12783
1.12394
1.11987
1.11566
1.11135
1.10696
1.10255
1.09814
1.09376
1.08947
1.08527
1.08122
1.07732
1.07361
1.0701
1.06681
1.06374
1.06091
1.05831
1.05593
1.05379
1.05185
1.05011
1.04857
1.04718
1.04596
1.04487
1.04389
1.04303
1.04225
1.04156
1.04094
1.04037
1.03987
1.03941
1.039
1.03863
1.03831
1.03803
1.0378
1.0376
1.03745
1.03735
1.03729
1.03727
1.03729
1.03735
1.03744
1.03757
1.03772
1.03789
1.03807
1.03827
1.03846
1.03864
1.03882
1.03897
1.0391
1.0392
1.03927
1.03931
1.0839
1.084
1.08421
1.08452
1.08493
1.08545
1.08608
1.08682
1.08767
1.08863
1.08971
1.09092
1.09226
1.09373
1.09533
1.09708
1.09897
1.10101
1.1032
1.10555
1.10805
1.11069
1.11349
1.11642
1.11948
1.12265
1.12594
1.1293
1.13274
1.13622
1.13973
1.14324
1.14672
1.15014
1.15348
1.15672
1.15982
1.16275
1.1655
1.16803
1.17033
1.17237
1.17413
1.17561
1.17677
1.17762
1.17815
1.17833
1.17818
1.17769
1.17686
1.1757
1.1742
1.17239
1.17026
1.16784
1.16515
1.16219
1.159
1.1556
1.15201
1.14826
1.14439
1.14041
1.13637
1.1323
1.12822
1.12418
1.12019
1.1163
1.11252
1.10888
1.1054
1.10209
1.09897
1.09605
1.09333
1.09082
1.08852
1.08641
1.08449
1.08276
1.08119
1.07979
1.07852
1.07739
1.07637
1.07545
1.07463
1.07389
1.07322
1.07262
1.07207
1.07158
1.07114
1.07074
1.0704
1.07009
1.06983
1.06961
1.06943
1.0693
1.06921
1.06916
1.06914
1.06916
1.06922
1.0693
1.06941
1.06953
1.06967
1.06982
1.06997
1.07011
1.07025
1.07037
1.07047
1.07055
1.07061
1.07064
1.1165
1.1166
1.1168
1.1171
1.11751
1.11802
1.11863
1.11936
1.12019
1.12113
1.12219
1.12337
1.12466
1.12609
1.12764
1.12933
1.13115
1.13311
1.1352
1.13743
1.13981
1.14231
1.14494
1.1477
1.15056
1.15353
1.15659
1.15972
1.16291
1.16613
1.16937
1.1726
1.1758
1.17895
1.18202
1.18498
1.18782
1.1905
1.19301
1.19532
1.19741
1.19927
1.20087
1.20221
1.20326
1.20402
1.20448
1.20463
1.20448
1.20401
1.20323
1.20214
1.20075
1.19906
1.19709
1.19486
1.19237
1.18964
1.18669
1.18355
1.18024
1.17679
1.17321
1.16954
1.16581
1.16205
1.15828
1.15453
1.15083
1.14721
1.14368
1.14028
1.13701
1.13389
1.13094
1.12816
1.12556
1.12314
1.1209
1.11884
1.11696
1.11523
1.11367
1.11225
1.11096
1.10979
1.10874
1.10779
1.10693
1.10615
1.10544
1.1048
1.10422
1.1037
1.10323
1.10281
1.10243
1.1021
1.10182
1.10157
1.10137
1.10121
1.10109
1.10101
1.10096
1.10095
1.10097
1.10101
1.10108
1.10116
1.10126
1.10136
1.10148
1.10158
1.10169
1.10178
1.10186
1.10193
1.10197
1.10199
1.14899
1.14909
1.14929
1.14958
1.14998
1.15048
1.15108
1.15179
1.1526
1.15351
1.15454
1.15569
1.15695
1.15832
1.15982
1.16144
1.16319
1.16506
1.16706
1.16918
1.17143
1.1738
1.17628
1.17886
1.18155
1.18432
1.18717
1.19008
1.19304
1.19602
1.19902
1.202
1.20494
1.20784
1.21065
1.21337
1.21597
1.21842
1.22071
1.22282
1.22473
1.22642
1.22788
1.22909
1.23004
1.23072
1.23112
1.23124
1.23108
1.23063
1.2299
1.22888
1.22758
1.22602
1.22419
1.22212
1.21982
1.2173
1.21458
1.21168
1.20862
1.20543
1.20213
1.19874
1.19529
1.19181
1.18831
1.18484
1.1814
1.17802
1.17473
1.17154
1.16847
1.16553
1.16273
1.16009
1.1576
1.15527
1.15311
1.1511
1.14925
1.14755
1.14599
1.14457
1.14327
1.14209
1.14101
1.14003
1.13914
1.13833
1.1376
1.13693
1.13632
1.13577
1.13527
1.13483
1.13443
1.13407
1.13376
1.1335
1.13327
1.13308
1.13294
1.13283
1.13275
1.1327
1.13269
1.13269
1.13273
1.13277
1.13284
1.13291
1.13299
1.13307
1.13314
1.13321
1.13327
1.13332