/*--------------------------------*- C++ -*----------------------------------*\
| =========                 |                                                 |
| \\      /  F ield         | OpenFOAM: The Open Source CFD Toolbox           |
|  \\    /   O peration     | Version:  2406                                  |
|   \\  /    A nd           | Website:  www.openfoam.com                      |
|    \\/     M anipulation  |                                                 |
\*---------------------------------------------------------------------------*/
FoamFile
{
    version     2.0;
    format      ascii;
    arch        "LSB;label=32;scalar=64";
    class       volScalarField;
    location    "6";
    object      C_0_0;
}
// * * * * * * * * * * * * * * * * * * * * * * * * * * * * * * * * * * * * * //

dimensions      [1 -3 0 0 0 0 0];

internalField   nonuniform List<scalar> 
14400
(
0.268671
0.267028
0.264236
0.260968
0.25786
0.255424
0.254032
0.253914
0.255171
0.257777
0.261572
0.26624
0.271282
0.275978
0.279375
0.280403
0.278334
0.273999
0.268592
0.263192
0.258656
0.255641
0.254655
0.256108
0.260351
0.267703
0.278475
0.292985
0.311569
0.334582
0.362397
0.395385
0.433863
0.477986
0.527434
0.580053
0.619517
0.645377
0.667127
0.686048
0.702417
0.716449
0.728311
0.738135
0.746022
0.75205
0.756279
0.758749
0.759487
0.758504
0.755798
0.751353
0.745138
0.737108
0.7272
0.715331
0.701395
0.685257
0.666744
0.645641
0.621668
0.590669
0.545438
0.491792
0.442457
0.398879
0.361026
0.328568
0.301103
0.278224
0.259551
0.244745
0.233509
0.225594
0.220793
0.218942
0.219916
0.223621
0.229992
0.238981
0.250544
0.264616
0.28108
0.299701
0.319995
0.340702
0.356304
0.362814
0.362131
0.352766
0.338074
0.322817
0.3084
0.295445
0.284258
0.274966
0.267578
0.262005
0.258076
0.255552
0.254142
0.253533
0.253431
0.25363
0.254065
0.254847
0.256228
0.258541
0.262144
0.267374
0.274524
0.283826
0.295446
0.30947
0.325882
0.344513
0.364912
0.38582
0.401451
0.407937
0.278308
0.27616
0.272674
0.268735
0.265076
0.262239
0.2606
0.260386
0.261697
0.264511
0.26868
0.273908
0.279719
0.28539
0.289858
0.291606
0.288776
0.283298
0.276831
0.270573
0.265381
0.261882
0.260556
0.261791
0.265921
0.273256
0.284099
0.298764
0.317582
0.340909
0.36912
0.402589
0.441638
0.486386
0.536234
0.587374
0.623895
0.648558
0.669955
0.6886
0.704755
0.718619
0.73035
0.740071
0.74788
0.75385
0.758037
0.760482
0.761208
0.760227
0.757537
0.753122
0.746953
0.738986
0.729161
0.717399
0.703598
0.68763
0.669336
0.64851
0.624892
0.595912
0.553025
0.499381
0.449675
0.405609
0.367263
0.334354
0.306493
0.283276
0.264324
0.249295
0.237893
0.22987
0.225017
0.223173
0.224212
0.228045
0.234609
0.243859
0.255755
0.270238
0.287193
0.306376
0.327247
0.348357
0.363456
0.369382
0.369276
0.361515
0.346763
0.330948
0.316004
0.302622
0.291117
0.281617
0.274132
0.268571
0.264757
0.262433
0.261276
0.260922
0.261017
0.261288
0.261642
0.262223
0.263346
0.265408
0.268814
0.273931
0.281068
0.290465
0.302286
0.316617
0.333435
0.352548
0.373403
0.394337
0.408467
0.413879
0.29817
0.294757
0.289709
0.284358
0.279577
0.275939
0.273808
0.273404
0.274819
0.278037
0.282929
0.289241
0.296557
0.304208
0.311063
0.314946
0.309944
0.301906
0.293274
0.28533
0.278862
0.274422
0.272433
0.27324
0.277152
0.284458
0.295446
0.31042
0.329705
0.353654
0.382642
0.417046
0.45719
0.503177
0.554099
0.600186
0.631334
0.654847
0.675534
0.693643
0.709382
0.722922
0.734398
0.743921
0.751576
0.757432
0.761538
0.763932
0.764636
0.76366
0.761001
0.756646
0.750566
0.742723
0.733059
0.721504
0.707966
0.692331
0.674458
0.654172
0.631249
0.60499
0.566968
0.514577
0.464243
0.419181
0.379841
0.346026
0.317373
0.293481
0.27397
0.258498
0.246766
0.238525
0.23357
0.23174
0.232913
0.237002
0.243951
0.25372
0.266277
0.281572
0.299498
0.319797
0.341799
0.363306
0.376437
0.381656
0.382178
0.377416
0.363865
0.347134
0.33123
0.31704
0.304916
0.29501
0.287338
0.281813
0.278249
0.276357
0.275754
0.275976
0.276521
0.276968
0.277127
0.277244
0.27779
0.279302
0.282281
0.287152
0.294252
0.303829
0.316046
0.330975
0.34858
0.368632
0.39036
0.410203
0.420788
0.425055
0.329267
0.323238
0.315498
0.307927
0.301462
0.296638
0.293789
0.293105
0.294668
0.298462
0.304378
0.312207
0.321617
0.332033
0.342223
0.347233
0.341186
0.329437
0.317732
0.307422
0.299154
0.293374
0.290431
0.290624
0.294224
0.301496
0.31271
0.328153
0.348137
0.373004
0.403119
0.438844
0.480421
0.527609
0.577887
0.615663
0.641668
0.663961
0.683692
0.701055
0.716209
0.729288
0.740401
0.749638
0.757073
0.762763
0.766752
0.769073
0.769744
0.768774
0.766161
0.761893
0.755944
0.748279
0.738849
0.727592
0.714431
0.699269
0.681994
0.66247
0.640545
0.61607
0.58462
0.537971
0.486398
0.43977
0.398938
0.363776
0.333942
0.309043
0.288696
0.272558
0.26033
0.251763
0.246656
0.24485
0.246225
0.250701
0.258225
0.268767
0.2823
0.298784
0.318115
0.34002
0.363607
0.383832
0.393773
0.39858
0.399692
0.397238
0.388008
0.371098
0.354103
0.338815
0.325808
0.315309
0.307371
0.301926
0.298782
0.29762
0.297971
0.29922
0.300611
0.30142
0.301178
0.300428
0.299944
0.300509
0.30277
0.307229
0.31425
0.324082
0.33687
0.35265
0.371329
0.392531
0.414752
0.430043
0.437075
0.440495
0.370144
0.361123
0.349799
0.339381
0.330792
0.324469
0.320709
0.319672
0.321424
0.325938
0.333107
0.342728
0.354484
0.367575
0.378743
0.380786
0.377458
0.364491
0.349765
0.336779
0.326354
0.318915
0.314774
0.314189
0.317401
0.324649
0.33618
0.352258
0.373172
0.399239
0.430796
0.468161
0.511438
0.559686
0.602806
0.631736
0.654835
0.675636
0.694217
0.710675
0.725112
0.73762
0.748278
0.757157
0.764313
0.769794
0.773635
0.775863
0.776492
0.775531
0.772978
0.76882
0.763038
0.7556
0.746466
0.735586
0.722896
0.708322
0.691778
0.673169
0.652389
0.629331
0.603288
0.566165
0.515493
0.467417
0.424765
0.387869
0.356491
0.330261
0.308803
0.291776
0.278886
0.269885
0.264576
0.262804
0.264454
0.269447
0.277737
0.289298
0.304106
0.32211
0.343165
0.366813
0.391256
0.407145
0.414742
0.419199
0.42073
0.419481
0.415063
0.402439
0.384636
0.368087
0.353978
0.342723
0.334453
0.329148
0.326634
0.326574
0.328411
0.331354
0.334226
0.335814
0.334723
0.332456
0.330283
0.329377
0.330556
0.334398
0.341279
0.35143
0.364945
0.381762
0.401617
0.423611
0.442094
0.451419
0.456664
0.459354
0.408764
0.404127
0.391379
0.378361
0.367551
0.359545
0.354747
0.353308
0.355293
0.360645
0.369222
0.380708
0.394651
0.40892
0.414311
0.414067
0.412876
0.405327
0.388942
0.373391
0.360625
0.351294
0.345757
0.344261
0.347028
0.354276
0.366226
0.383117
0.405193
0.432718
0.465956
0.505079
0.549547
0.594921
0.626177
0.649162
0.670298
0.689534
0.706863
0.722317
0.735945
0.7478
0.757935
0.766398
0.77323
0.778465
0.782132
0.78425
0.784831
0.783881
0.781398
0.777372
0.771786
0.764616
0.75583
0.745388
0.733244
0.719344
0.703629
0.686038
0.666513
0.645006
0.621493
0.593343
0.551641
0.502343
0.457591
0.418638
0.385395
0.35753
0.334691
0.316551
0.302828
0.293281
0.287719
0.285993
0.28799
0.293635
0.302881
0.315701
0.332062
0.35187
0.374865
0.400118
0.42172
0.432211
0.438635
0.442744
0.444548
0.444182
0.441912
0.435858
0.421929
0.404792
0.389552
0.37744
0.368781
0.363685
0.36203
0.363502
0.367451
0.372997
0.3782
0.381415
0.378588
0.373923
0.369181
0.366182
0.365868
0.368877
0.375547
0.386067
0.400433
0.418301
0.438751
0.458147
0.468941
0.474732
0.478806
0.480905
0.443121
0.44277
0.437162
0.424021
0.411598
0.401895
0.396029
0.394166
0.39644
0.40271
0.412751
0.425775
0.440738
0.447802
0.448459
0.448275
0.447376
0.445068
0.43444
0.417237
0.402165
0.3908
0.383733
0.38122
0.383507
0.390794
0.403282
0.421173
0.444641
0.47384
0.508861
0.549625
0.593724
0.625358
0.647675
0.668402
0.68766
0.705339
0.721385
0.735786
0.748551
0.759701
0.769265
0.77727
0.783742
0.788705
0.792178
0.794173
0.794701
0.793764
0.791361
0.787484
0.782119
0.775249
0.76685
0.756894
0.745348
0.73218
0.717355
0.700841
0.682619
0.662686
0.641073
0.617863
0.58779
0.54353
0.497449
0.456413
0.421094
0.391329
0.366844
0.347366
0.332634
0.322423
0.316555
0.314887
0.317309
0.323739
0.334126
0.348435
0.366598
0.38839
0.413127
0.438035
0.451967
0.459276
0.464842
0.468593
0.470537
0.470787
0.469557
0.467153
0.460795
0.448036
0.432359
0.419481
0.410411
0.405597
0.404972
0.408362
0.414836
0.423635
0.43098
0.433285
0.431338
0.424319
0.416422
0.410881
0.40873
0.410747
0.417134
0.428022
0.443266
0.461591
0.479078
0.48972
0.49527
0.49976
0.502922
0.504554
0.47775
0.477638
0.477376
0.472334
0.462021
0.451139
0.444446
0.442146
0.444788
0.451894
0.463013
0.475357
0.481916
0.482935
0.483244
0.483199
0.482721
0.481781
0.478474
0.467208
0.450952
0.437649
0.42905
0.425457
0.427258
0.434641
0.447783
0.466867
0.49192
0.52286
0.559194
0.599848
0.629637
0.650726
0.670428
0.689112
0.706603
0.722775
0.737552
0.75089
0.76277
0.773189
0.782153
0.789674
0.795764
0.800436
0.8037
0.805565
0.806036
0.805114
0.802798
0.799083
0.793958
0.787411
0.779426
0.769988
0.759076
0.746674
0.732769
0.717353
0.700436
0.682046
0.662244
0.641137
0.618834
0.588218
0.544059
0.501474
0.464069
0.432201
0.405819
0.384779
0.368857
0.357856
0.351622
0.350026
0.352952
0.360297
0.371994
0.387987
0.408154
0.43197
0.457556
0.474001
0.481858
0.488053
0.492866
0.49625
0.49822
0.498871
0.498376
0.49698
0.494994
0.489973
0.480687
0.468121
0.458928
0.454534
0.454844
0.460061
0.467885
0.473132
0.475877
0.476363
0.476461
0.474254
0.469561
0.462411
0.458601
0.45972
0.465699
0.476588
0.49202
0.504936
0.513606
0.518379
0.522643
0.526117
0.528568
0.529835
0.512489
0.512527
0.512665
0.513017
0.510215
0.504891
0.498732
0.495994
0.499084
0.50613
0.512897
0.517239
0.517714
0.518068
0.518385
0.518554
0.518527
0.51831
0.517983
0.515046
0.505774
0.49162
0.48192
0.477236
0.478623
0.486169
0.500029
0.520439
0.547069
0.579077
0.613327
0.639473
0.658417
0.676589
0.694199
0.711015
0.726862
0.741608
0.755158
0.767452
0.77845
0.788132
0.796486
0.803509
0.809204
0.813574
0.816621
0.81835
0.818762
0.817858
0.815636
0.812091
0.807218
0.801009
0.793458
0.784555
0.774293
0.762671
0.749692
0.735367
0.719727
0.702818
0.684721
0.665547
0.645452
0.624472
0.595035
0.553564
0.514683
0.480676
0.452175
0.429382
0.412096
0.400165
0.393497
0.391987
0.395503
0.40388
0.417
0.434746
0.456854
0.481498
0.498488
0.506863
0.513031
0.518211
0.522321
0.525319
0.527221
0.528101
0.528094
0.527396
0.526258
0.524992
0.522467
0.517432
0.511988
0.508591
0.508839
0.510821
0.512717
0.512786
0.512093
0.512142
0.512902
0.514428
0.51501
0.513915
0.512937
0.513994
0.519187
0.527108
0.53481
0.540206
0.54388
0.547518
0.550807
0.553497
0.555399
0.556383
0.547192
0.547315
0.547612
0.54819
0.549225
0.549435
0.548247
0.547809
0.549267
0.551644
0.552893
0.552695
0.552871
0.553237
0.553672
0.554107
0.554522
0.55495
0.555488
0.556305
0.555422
0.550324
0.541682
0.536233
0.537579
0.545372
0.559735
0.581117
0.608094
0.633333
0.654304
0.670575
0.686866
0.703016
0.718761
0.733888
0.748224
0.761635
0.774022
0.785309
0.795448
0.804401
0.812148
0.818673
0.82397
0.828033
0.830861
0.832452
0.832806
0.831921
0.829795
0.826427
0.821813
0.815951
0.80884
0.800479
0.790872
0.780027
0.767959
0.754698
0.740284
0.72478
0.708273
0.69088
0.672751
0.654066
0.634884
0.608299
0.57229
0.536982
0.506298
0.481724
0.462938
0.449919
0.442739
0.441327
0.445533
0.455011
0.469502
0.488636
0.511359
0.52678
0.534688
0.54023
0.545193
0.54944
0.552886
0.555486
0.557245
0.558217
0.558504
0.558252
0.557649
0.556912
0.556274
0.555909
0.554494
0.552832
0.551823
0.550512
0.548682
0.547577
0.547081
0.547206
0.547957
0.549361
0.551451
0.554352
0.556659
0.559043
0.562508
0.56614
0.568583
0.571279
0.574169
0.577007
0.579569
0.581665
0.583147
0.583914
0.58177
0.581929
0.582278
0.582872
0.583774
0.584997
0.58652
0.587632
0.58789
0.587591
0.587441
0.587521
0.58784
0.588338
0.588961
0.58968
0.590503
0.59148
0.592715
0.594373
0.596699
0.599071
0.599089
0.599452
0.602297
0.610411
0.624107
0.641079
0.658081
0.673045
0.686763
0.701005
0.715456
0.729846
0.743943
0.757552
0.77051
0.782688
0.793983
0.804317
0.813629
0.821878
0.829031
0.835066
0.839969
0.843728
0.846337
0.847792
0.848088
0.847223
0.845197
0.842008
0.837656
0.832143
0.825472
0.81765
0.808688
0.798604
0.787422
0.775181
0.761931
0.747744
0.732711
0.71695
0.700605
0.683852
0.666896
0.649924
0.627772
0.599585
0.56774
0.542076
0.521785
0.507505
0.499739
0.498409
0.503423
0.513892
0.529054
0.547459
0.55943
0.56552
0.569933
0.574177
0.578068
0.581472
0.584296
0.586493
0.588056
0.589018
0.589451
0.58946
0.589174
0.588734
0.588266
0.587834
0.587336
0.586545
0.585178
0.583749
0.582539
0.581757
0.581449
0.581644
0.582359
0.583607
0.585393
0.587703
0.590385
0.593165
0.59551
0.59765
0.599849
0.602157
0.60451
0.606773
0.608797
0.610446
0.611611
0.612213
0.616189
0.616355
0.616699
0.617244
0.618002
0.618946
0.619975
0.620817
0.621294
0.62152
0.621752
0.622108
0.622629
0.623313
0.624153
0.625149
0.62633
0.627753
0.629519
0.631772
0.634712
0.638601
0.643823
0.649208
0.6551
0.663309
0.673593
0.684381
0.694868
0.706348
0.718556
0.731227
0.744107
0.756969
0.769614
0.781865
0.793576
0.804623
0.814906
0.824344
0.832875
0.84045
0.847031
0.852591
0.85711
0.860573
0.862969
0.864289
0.86453
0.863688
0.861762
0.858752
0.854661
0.849493
0.843256
0.835961
0.827627
0.818277
0.807944
0.796671
0.784516
0.771554
0.757878
0.743603
0.728868
0.713841
0.698714
0.683715
0.669111
0.652567
0.632226
0.609223
0.58801
0.572585
0.564322
0.562832
0.568477
0.578897
0.588829
0.596098
0.599314
0.602215
0.605345
0.608476
0.611432
0.614082
0.616334
0.618135
0.619468
0.620349
0.620824
0.620963
0.620853
0.620582
0.620223
0.619807
0.619295
0.618605
0.617698
0.61676
0.615969
0.615463
0.615314
0.615562
0.616227
0.617314
0.61881
0.620669
0.622779
0.624969
0.627047
0.629033
0.631007
0.63299
0.634941
0.636777
0.638399
0.639713
0.640637
0.641114
0.650443
0.6506
0.65092
0.651404
0.652045
0.652807
0.653617
0.654354
0.654948
0.655441
0.655941
0.65653
0.657253
0.658134
0.659187
0.660435
0.661914
0.663684
0.665835
0.668483
0.671778
0.675889
0.680976
0.687042
0.694105
0.701747
0.709907
0.718837
0.728519
0.73892
0.749889
0.761238
0.772774
0.784311
0.795677
0.80672
0.817307
0.827323
0.836674
0.84528
0.853077
0.860015
0.866052
0.871158
0.875309
0.878485
0.880674
0.881867
0.882055
0.881237
0.879411
0.876577
0.872742
0.867911
0.862096
0.855312
0.847582
0.838934
0.829405
0.819043
0.807909
0.796078
0.783643
0.770714
0.757425
0.743928
0.730404
0.717057
0.704126
0.691885
0.680295
0.666867
0.653333
0.641724
0.633994
0.630929
0.631407
0.633713
0.635485
0.635759
0.636928
0.638679
0.640755
0.642951
0.645103
0.64709
0.648822
0.650244
0.651331
0.652085
0.652532
0.652715
0.652692
0.652517
0.652238
0.651877
0.65143
0.650882
0.650249
0.649624
0.649114
0.648812
0.648783
0.649063
0.649673
0.650613
0.651865
0.653384
0.655092
0.656887
0.658674
0.660428
0.662158
0.663855
0.665486
0.666994
0.668311
0.669369
0.67011
0.670491
0.684539
0.684685
0.684976
0.685407
0.685966
0.686623
0.687331
0.688034
0.688702
0.689354
0.690042
0.690817
0.69172
0.692782
0.694028
0.695489
0.697206
0.699235
0.701652
0.704548
0.708028
0.712201
0.717148
0.722888
0.72939
0.736514
0.744212
0.752529
0.76145
0.770923
0.78084
0.791064
0.801441
0.811823
0.822063
0.832031
0.841607
0.850689
0.859186
0.867024
0.874139
0.88048
0.886005
0.890681
0.894481
0.897385
0.899377
0.900447
0.900588
0.899794
0.898066
0.895405
0.891818
0.887313
0.881904
0.87561
0.868456
0.860472
0.851699
0.842188
0.831999
0.821207
0.809901
0.798187
0.786188
0.774044
0.761916
0.749985
0.73845
0.727529
0.717443
0.708473
0.700606
0.693281
0.687003
0.682437
0.678824
0.675852
0.674225
0.673681
0.67396
0.674819
0.676046
0.677468
0.67894
0.680352
0.68162
0.682689
0.683528
0.684129
0.684503
0.684675
0.684681
0.684557
0.684334
0.684034
0.683667
0.683244
0.682793
0.682372
0.682049
0.681889
0.681941
0.682235
0.682788
0.6836
0.684652
0.68591
0.687319
0.688813
0.690334
0.691849
0.693339
0.694785
0.696154
0.697403
0.698482
0.699343
0.699942
0.700251
0.718489
0.718624
0.71889
0.719283
0.719789
0.720387
0.721049
0.721749
0.722473
0.723231
0.724054
0.724976
0.72603
0.727246
0.728654
0.730287
0.732185
0.734399
0.73699
0.740027
0.743587
0.747737
0.752528
0.757973
0.764052
0.770705
0.777898
0.785616
0.793829
0.802481
0.811486
0.820734
0.830105
0.839475
0.848722
0.857733
0.866403
0.874639
0.882358
0.88949
0.895975
0.901761
0.906807
0.911078
0.914549
0.917195
0.919003
0.919958
0.920054
0.919286
0.917653
0.91516
0.911811
0.907619
0.902598
0.896769
0.890158
0.882799
0.874733
0.86601
0.856691
0.846849
0.836567
0.825945
0.815095
0.804144
0.793232
0.782516
0.77216
0.762338
0.753216
0.744947
0.737584
0.731119
0.725529
0.720703
0.716793
0.713832
0.711866
0.710781
0.710414
0.710589
0.711144
0.711934
0.712838
0.713758
0.714617
0.715363
0.715962
0.716399
0.716675
0.716802
0.716801
0.716695
0.716508
0.716257
0.71596
0.715634
0.715308
0.715022
0.714823
0.714755
0.714856
0.715148
0.715645
0.716345
0.717234
0.718285
0.719459
0.720712
0.722001
0.723294
0.724566
0.725792
0.726942
0.727981
0.728871
0.729577
0.730067
0.730318
0.752305
0.752431
0.75268
0.753045
0.753519
0.754086
0.754731
0.75544
0.756209
0.757045
0.757968
0.759003
0.760177
0.761518
0.763055
0.764819
0.766849
0.769186
0.771881
0.774986
0.778554
0.782633
0.787253
0.792426
0.798138
0.804359
0.811058
0.818208
0.825769
0.833687
0.841888
0.850282
0.85877
0.867249
0.875617
0.883776
0.891633
0.899105
0.906117
0.912604
0.918509
0.923782
0.928383
0.932278
0.93544
0.937846
0.939479
0.940328
0.940384
0.939642
0.938102
0.935769
0.932648
0.928753
0.9241
0.918709
0.912608
0.905832
0.898422
0.890428
0.881907
0.87293
0.863574
0.853932
0.844104
0.834203
0.824353
0.814685
0.805337
0.796445
0.788137
0.780517
0.773644
0.767539
0.762199
0.757608
0.753808
0.750816
0.748625
0.747164
0.746324
0.745979
0.746005
0.746286
0.74672
0.747223
0.747728
0.748184
0.748558
0.74883
0.748995
0.749057
0.749025
0.748915
0.748744
0.748527
0.748281
0.748024
0.747782
0.747584
0.747464
0.747453
0.747578
0.747857
0.748299
0.748902
0.749655
0.750538
0.751522
0.752574
0.753663
0.75476
0.755839
0.756875
0.75784
0.758707
0.759445
0.760027
0.76043
0.760636
0.785996
0.786115
0.786351
0.7867
0.787155
0.787707
0.788348
0.789072
0.789877
0.790771
0.791769
0.79289
0.794157
0.795594
0.797228
0.799087
0.801205
0.803616
0.806361
0.80948
0.813011
0.816986
0.821426
0.826339
0.831715
0.837533
0.843768
0.850388
0.857353
0.86461
0.872096
0.879735
0.887444
0.895135
0.902722
0.91012
0.917247
0.924031
0.930402
0.936301
0.941673
0.946475
0.950665
0.954211
0.957087
0.959269
0.960741
0.961491
0.961511
0.960795
0.959345
0.957164
0.954261
0.950646
0.946338
0.941358
0.935734
0.9295
0.922696
0.915371
0.90758
0.899388
0.890869
0.882104
0.873185
0.864212
0.855292
0.846536
0.838058
0.829968
0.822368
0.815339
0.808937
0.803193
0.79812
0.793723
0.790015
0.786999
0.784653
0.782926
0.781739
0.781
0.780612
0.780485
0.780534
0.780688
0.780888
0.781088
0.781255
0.78137
0.78142
0.781404
0.781327
0.781197
0.781026
0.780826
0.780612
0.780401
0.780212
0.780069
0.779996
0.780016
0.780147
0.780403
0.780791
0.781308
0.781946
0.782689
0.783515
0.7844
0.785318
0.786245
0.787156
0.788028
0.788838
0.789562
0.790175
0.790657
0.79099
0.791159
0.819567
0.819682
0.819911
0.820249
0.820694
0.82124
0.821883
0.822621
0.823456
0.824394
0.825447
0.826632
0.827967
0.829474
0.831175
0.833097
0.835266
0.837713
0.840468
0.843562
0.847024
0.850874
0.855128
0.859788
0.864848
0.870292
0.876094
0.882224
0.888644
0.895305
0.902152
0.909118
0.916134
0.923125
0.930016
0.936734
0.943207
0.949369
0.955159
0.960523
0.96541
0.969779
0.973591
0.976816
0.979426
0.981401
0.982725
0.983385
0.983372
0.982684
0.981319
0.979283
0.976583
0.973233
0.969248
0.964652
0.959471
0.953738
0.947492
0.940781
0.933655
0.926175
0.918408
0.910429
0.90232
0.894168
0.886066
0.878109
0.87039
0.863003
0.856028
0.849535
0.843573
0.838176
0.833364
0.829148
0.825532
0.822511
0.820063
0.818148
0.816706
0.815668
0.814959
0.814506
0.814242
0.814106
0.814047
0.814024
0.814006
0.813973
0.81391
0.813813
0.813682
0.81352
0.813336
0.813139
0.81294
0.812754
0.812596
0.812484
0.812435
0.812466
0.812591
0.812818
0.813153
0.813593
0.814132
0.814756
0.81545
0.816193
0.816965
0.817744
0.818511
0.819243
0.819922
0.820526
0.821037
0.821437
0.821712
0.821853
0.853023
0.853136
0.853359
0.853692
0.854132
0.854676
0.855324
0.856074
0.856931
0.857901
0.858994
0.860223
0.861605
0.863158
0.864902
0.866858
0.86905
0.871501
0.874236
0.877278
0.880647
0.884359
0.888422
0.892838
0.897599
0.902691
0.908091
0.91377
0.919692
0.925815
0.932087
0.938452
0.94485
0.951215
0.957484
0.963592
0.969477
0.975078
0.980343
0.985221
0.989666
0.993639
0.997105
1.00003
1.0024
1.00419
1.00537
1.00595
1.00591
1.00525
1.00396
1.00207
0.999557
0.996453
0.99277
0.98853
0.983758
0.978488
0.972755
0.966604
0.960083
0.953247
0.946159
0.938885
0.931498
0.924075
0.916696
0.909441
0.902392
0.895625
0.889207
0.883199
0.877643
0.872575
0.868014
0.863972
0.860453
0.857449
0.854941
0.852896
0.851269
0.850006
0.849049
0.84834
0.847823
0.847447
0.84717
0.846955
0.846773
0.846605
0.846435
0.846257
0.846066
0.845866
0.845659
0.845453
0.845256
0.84508
0.844935
0.844836
0.844794
0.844823
0.844931
0.845126
0.84541
0.845781
0.846232
0.846755
0.847335
0.847957
0.848603
0.849257
0.849899
0.850513
0.85108
0.851584
0.852009
0.852342
0.85257
0.852686
0.886368
0.886478
0.886699
0.887028
0.887465
0.888009
0.888661
0.889421
0.890294
0.891285
0.892404
0.893662
0.895073
0.896652
0.898417
0.900385
0.902575
0.905006
0.907697
0.910666
0.913928
0.917492
0.921363
0.925542
0.93002
0.934783
0.939809
0.945073
0.950541
0.956174
0.961928
0.967754
0.973597
0.979403
0.985114
0.990674
0.996029
1.00113
1.00591
1.01035
1.01439
1.01801
1.02116
1.02381
1.02596
1.02757
1.02863
1.02913
1.02907
1.02843
1.02723
1.02546
1.02313
1.02025
1.01685
1.01294
1.00855
1.0037
0.998436
0.992796
0.986825
0.980573
0.974096
0.967454
0.960712
0.953938
0.9472
0.940568
0.934112
0.927896
0.921978
0.916408
0.911228
0.906466
0.902144
0.898274
0.894858
0.891891
0.889356
0.887227
0.885469
0.884039
0.882892
0.881981
0.881261
0.88069
0.880231
0.879852
0.879527
0.879237
0.878969
0.878712
0.878461
0.878217
0.877981
0.877758
0.877552
0.877373
0.877228
0.877129
0.877083
0.8771
0.877186
0.877345
0.87758
0.877887
0.878262
0.878696
0.879178
0.879696
0.880235
0.88078
0.881316
0.881828
0.882301
0.882721
0.883075
0.88335
0.88354
0.883636
0.919601
0.919711
0.919929
0.920256
0.920691
0.921235
0.921889
0.922655
0.923537
0.924541
0.925675
0.926948
0.928373
0.929961
0.931728
0.933689
0.935857
0.93825
0.940881
0.943762
0.946905
0.950317
0.953998
0.957947
0.962156
0.96661
0.97129
0.976171
0.981224
0.986413
0.991699
0.997037
1.00238
1.00768
1.01289
1.01796
1.02284
1.02748
1.03184
1.03587
1.03955
1.04284
1.0457
1.04811
1.05005
1.0515
1.05245
1.05288
1.0528
1.05219
1.05105
1.0494
1.04724
1.04458
1.04144
1.03783
1.03378
1.02933
1.02449
1.01932
1.01385
1.00812
1.0022
0.996124
0.989959
0.983763
0.977597
0.971521
0.965593
0.959869
0.9544
0.949229
0.944392
0.939917
0.935822
0.932121
0.928815
0.925901
0.923365
0.921187
0.919339
0.917789
0.916499
0.915432
0.914551
0.913821
0.913211
0.912694
0.912246
0.911849
0.91149
0.911159
0.91085
0.910561
0.910291
0.910044
0.909822
0.909631
0.909477
0.909368
0.90931
0.909308
0.909367
0.90949
0.909677
0.909926
0.910232
0.910588
0.910986
0.911414
0.911861
0.912313
0.912758
0.913183
0.913576
0.913924
0.914217
0.914446
0.914603
0.914682
0.952726
0.952834
0.953051
0.953375
0.953809
0.954352
0.955006
0.955773
0.956659
0.957667
0.958806
0.960083
0.961508
0.963092
0.964847
0.966784
0.968917
0.971256
0.973813
0.976597
0.979615
0.982871
0.986365
0.990093
0.994046
0.998211
1.00257
1.0071
1.01177
1.01656
1.02142
1.02631
1.03121
1.03606
1.04082
1.04544
1.04989
1.05411
1.05808
1.06176
1.0651
1.06809
1.07069
1.07287
1.07463
1.07593
1.07678
1.07715
1.07705
1.07647
1.0754
1.07386
1.07186
1.06939
1.06649
1.06316
1.05943
1.05533
1.05089
1.04614
1.04112
1.03588
1.03045
1.02488
1.01924
1.01356
1.0079
1.00232
0.996869
0.991588
0.986525
0.981716
0.977195
0.972987
0.969108
0.965572
0.962381
0.959532
0.957016
0.954817
0.952913
0.951278
0.949882
0.948696
0.947689
0.946833
0.9461
0.945467
0.944914
0.944424
0.943984
0.943585
0.94322
0.942885
0.94258
0.942304
0.94206
0.941852
0.941682
0.941557
0.941479
0.941454
0.941484
0.94157
0.941712
0.941907
0.942152
0.94244
0.942764
0.943114
0.94348
0.943852
0.944219
0.94457
0.944895
0.945182
0.945424
0.945613
0.945743
0.945808
0.985742
0.985849
0.986064
0.986386
0.986817
0.987357
0.988008
0.988774
0.989657
0.990663
0.991798
0.993069
0.994484
0.996052
0.997782
0.999685
1.00177
1.00404
1.00652
1.0092
1.01209
1.01519
1.0185
1.02201
1.02572
1.02962
1.03368
1.03788
1.04221
1.04662
1.0511
1.05559
1.06008
1.06452
1.06887
1.0731
1.07715
1.08101
1.08463
1.08797
1.09102
1.09373
1.09609
1.09807
1.09966
1.10083
1.10158
1.1019
1.10178
1.10122
1.10022
1.09879
1.09692
1.09464
1.09196
1.08889
1.08546
1.08168
1.0776
1.07324
1.06863
1.06381
1.05883
1.05373
1.04855
1.04333
1.03814
1.033
1.02797
1.02309
1.01839
1.01392
1.00969
1.00573
1.00205
0.998677
0.995604
0.992831
0.990351
0.988152
0.986218
0.984527
0.983056
0.981781
0.980677
0.979721
0.978888
0.97816
0.977518
0.976948
0.976437
0.975976
0.975558
0.97518
0.974838
0.974533
0.974264
0.974033
0.973843
0.973697
0.973597
0.973546
0.973545
0.973594
0.973693
0.973839
0.974029
0.974256
0.974515
0.974797
0.975094
0.975397
0.975697
0.975984
0.97625
0.976486
0.976685
0.97684
0.976946
0.977
1.01865
1.01876
1.01897
1.01929
1.01971
1.02025
1.0209
1.02166
1.02253
1.02353
1.02465
1.02591
1.02731
1.02885
1.03055
1.0324
1.03443
1.03663
1.03902
1.04159
1.04435
1.04729
1.05043
1.05374
1.05722
1.06086
1.06464
1.06855
1.07255
1.07663
1.08075
1.08489
1.08901
1.09307
1.09706
1.10092
1.10462
1.10814
1.11144
1.11449
1.11726
1.11972
1.12187
1.12366
1.12509
1.12615
1.12682
1.12709
1.12696
1.12642
1.12548
1.12414
1.12241
1.1203
1.11782
1.11498
1.11182
1.10834
1.10459
1.10057
1.09634
1.09191
1.08734
1.08265
1.07789
1.07309
1.06831
1.06357
1.05893
1.05441
1.05004
1.04587
1.04191
1.03818
1.0347
1.03148
1.02853
1.02584
1.0234
1.02122
1.01928
1.01756
1.01603
1.0147
1.01352
1.01248
1.01157
1.01077
1.01005
1.00941
1.00884
1.00832
1.00786
1.00744
1.00706
1.00672
1.00643
1.00617
1.00596
1.00579
1.00567
1.00559
1.00556
1.00557
1.00563
1.00573
1.00587
1.00604
1.00624
1.00646
1.0067
1.00694
1.00719
1.00742
1.00764
1.00783
1.00799
1.00812
1.0082
1.00825
1.05145
1.05156
1.05177
1.05208
1.0525
1.05303
1.05367
1.05442
1.05529
1.05627
1.05738
1.05861
1.05998
1.06149
1.06315
1.06495
1.06692
1.06904
1.07133
1.07379
1.07642
1.07922
1.08217
1.08529
1.08856
1.09196
1.09548
1.09911
1.10282
1.10659
1.11039
1.1142
1.11798
1.12171
1.12536
1.12889
1.13228
1.13549
1.1385
1.14128
1.1438
1.14605
1.14799
1.14962
1.15091
1.15186
1.15245
1.15268
1.15253
1.15202
1.15114
1.14989
1.14828
1.14632
1.14403
1.14141
1.13849
1.13529
1.13183
1.12813
1.12423
1.12016
1.11595
1.11164
1.10726
1.10284
1.09843
1.09406
1.08976
1.08556
1.0815
1.07761
1.07389
1.07038
1.06709
1.06402
1.06118
1.05858
1.05621
1.05406
1.05212
1.05038
1.04883
1.04745
1.04622
1.04512
1.04415
1.04328
1.04251
1.04181
1.04118
1.04062
1.04011
1.03965
1.03924
1.03888
1.03855
1.03827
1.03803
1.03784
1.03769
1.03758
1.03752
1.0375
1.03752
1.03758
1.03767
1.0378
1.03795
1.03812
1.0383
1.03849
1.03869
1.03887
1.03904
1.0392
1.03933
1.03943
1.0395
1.03954
1.08415
1.08426
1.08446
1.08477
1.08519
1.08571
1.08633
1.08707
1.08792
1.08889
1.08997
1.09118
1.09252
1.09399
1.0956
1.09735
1.09924
1.10128
1.10348
1.10582
1.10832
1.11097
1.11377
1.1167
1.11976
1.12294
1.12622
1.12959
1.13303
1.13651
1.14002
1.14353
1.14701
1.15044
1.15378
1.15701
1.16011
1.16305
1.16579
1.16833
1.17062
1.17267
1.17443
1.1759
1.17707
1.17792
1.17844
1.17863
1.17848
1.17799
1.17716
1.17599
1.1745
1.17268
1.17056
1.16814
1.16544
1.16249
1.1593
1.15589
1.1523
1.14856
1.14468
1.1407
1.13666
1.13259
1.12851
1.12447
1.12048
1.11659
1.1128
1.10916
1.10568
1.10237
1.09925
1.09633
1.09361
1.0911
1.08879
1.08668
1.08476
1.08302
1.08146
1.08005
1.07878
1.07764
1.07662
1.07571
1.07488
1.07414
1.07347
1.07286
1.07232
1.07182
1.07138
1.07098
1.07063
1.07033
1.07006
1.06985
1.06967
1.06953
1.06944
1.06939
1.06937
1.06939
1.06945
1.06953
1.06963
1.06976
1.0699
1.07004
1.07019
1.07034
1.07047
1.07059
1.0707
1.07078
1.07083
1.07086
1.11675
1.11685
1.11705
1.11735
1.11776
1.11827
1.11889
1.11961
1.12044
1.12139
1.12245
1.12363
1.12493
1.12635
1.12791
1.12959
1.13141
1.13337
1.13547
1.13771
1.14008
1.14258
1.14522
1.14797
1.15084
1.15381
1.15687
1.16001
1.16319
1.16642
1.16966
1.17289
1.17609
1.17924
1.18231
1.18527
1.18811
1.19079
1.1933
1.19561
1.1977
1.19956
1.20116
1.2025
1.20355
1.20431
1.20477
1.20493
1.20477
1.2043
1.20352
1.20243
1.20104
1.19935
1.19739
1.19515
1.19266
1.18993
1.18698
1.18384
1.18053
1.17708
1.1735
1.16983
1.1661
1.16234
1.15856
1.15482
1.15112
1.14749
1.14396
1.14056
1.13729
1.13417
1.13121
1.12843
1.12583
1.12341
1.12117
1.11911
1.11722
1.11549
1.11393
1.1125
1.11121
1.11005
1.10899
1.10804
1.10718
1.10639
1.10569
1.10505
1.10447
1.10394
1.10347
1.10305
1.10267
1.10234
1.10205
1.10181
1.10161
1.10144
1.10132
1.10124
1.10119
1.10118
1.10119
1.10124
1.1013
1.10139
1.10148
1.10159
1.1017
1.10181
1.10191
1.10201
1.10209
1.10215
1.10219
1.10221
1.14924
1.14934
1.14954
1.14984
1.15023
1.15073
1.15133
1.15204
1.15285
1.15377
1.1548
1.15594
1.1572
1.15858
1.16008
1.1617
1.16345
1.16533
1.16733
1.16945
1.1717
1.17407
1.17655
1.17914
1.18183
1.1846
1.18745
1.19036
1.19332
1.19631
1.1993
1.20228
1.20523
1.20812
1.21094
1.21366
1.21626
1.21871
1.221
1.22311
1.22502
1.22671
1.22817
1.22938
1.23033
1.23101
1.23141
1.23153
1.23137
1.23092
1.23018
1.22917
1.22787
1.22631
1.22448
1.22241
1.22011
1.21758
1.21486
1.21196
1.20891
1.20571
1.20241
1.19902
1.19557
1.19209
1.1886
1.18512
1.18168
1.1783
1.17501
1.17182
1.16874
1.1658
1.163
1.16035
1.15787
1.15554
1.15337
1.15136
1.14951
1.14781
1.14625
1.14482
1.14352
1.14234
1.14126
1.14028
1.13939
1.13858
1.13784
1.13717
1.13656
1.13601
1.13551
1.13506
1.13466
1.13431
1.134
1.13373
1.1335
1.13331
1.13317
1.13305
1.13298
1.13293
1.13291
1.13292
1.13295
1.133
1.13306
1.13313
1.13321
1.13329
1.13336
1.13343
1.13349