/*--------------------------------*- C++ -*----------------------------------*\
| =========                 |                                                 |
| \\      /  F ield         | OpenFOAM: The Open Source CFD Toolbox           |
|  \\    /   O peration     | Version:  2406                                  |
|   \\  /    A nd           | Website:  www.openfoam.com                      |
|    \\/     M anipulation  |                                                 |
\*---------------------------------------------------------------------------*/
FoamFile
{
    version     2.0;
    format      ascii;
    arch        "LSB;label=32;scalar=64";
    class       volScalarField;
    location    "6";
    object      D;
}
// * * * * * * * * * * * * * * * * * * * * * * * * * * * * * * * * * * * * * //

dimensions      [0 2 -1 0 0 0 0];

internalField   nonuniform List<scalar> 
14400
(
6.34446e-05
6.3295e-05
6.30696e-05
6.2838e-05
6.26397e-05
6.24918e-05
6.24003e-05
6.23678e-05
6.23975e-05
6.24955e-05
6.26705e-05
6.29326e-05
6.32844e-05
6.36962e-05
6.40488e-05
6.40813e-05
6.35831e-05
6.28817e-05
6.22053e-05
6.16219e-05
6.11321e-05
6.0719e-05
6.03665e-05
6.00626e-05
5.98007e-05
5.95779e-05
5.93952e-05
5.92567e-05
5.91702e-05
5.9149e-05
5.92149e-05
5.94073e-05
5.98037e-05
6.05883e-05
6.23516e-05
6.83633e-05
0.000127654
0.00013824
0.00013824
0.00013824
0.00013824
0.00013824
0.00013824
0.00013824
0.00013824
0.00013824
0.00013824
0.00013824
0.00013824
0.00013824
0.00013824
0.00013824
0.00013824
0.00013824
0.00013824
0.00013824
0.00013824
0.00013824
0.00013824
0.00013824
0.000138238
0.000103597
6.67019e-05
6.19995e-05
6.06014e-05
6.00054e-05
5.97418e-05
5.96606e-05
5.96968e-05
5.98155e-05
5.99944e-05
6.02166e-05
6.04666e-05
6.07297e-05
6.09915e-05
6.12394e-05
6.14649e-05
6.1666e-05
6.18499e-05
6.20348e-05
6.22528e-05
6.25565e-05
6.30374e-05
6.38887e-05
6.56744e-05
7.12705e-05
0.000112575
0.000138239
0.000127353
7.28076e-05
6.61231e-05
6.39629e-05
6.29351e-05
6.23729e-05
6.20563e-05
6.18891e-05
6.18203e-05
6.18191e-05
6.18637e-05
6.19354e-05
6.20155e-05
6.20839e-05
6.21197e-05
6.21064e-05
6.20383e-05
6.19248e-05
6.17843e-05
6.16377e-05
6.15043e-05
6.14009e-05
6.13437e-05
6.13516e-05
6.14504e-05
6.16827e-05
6.21288e-05
6.29711e-05
6.47665e-05
7.04298e-05
0.00011477
0.00013824
6.36948e-05
6.34602e-05
6.31425e-05
6.28418e-05
6.25982e-05
6.24228e-05
6.23163e-05
6.22782e-05
6.23103e-05
6.24195e-05
6.26183e-05
6.29254e-05
6.33627e-05
6.39366e-05
6.45646e-05
6.48699e-05
6.40633e-05
6.31048e-05
6.22882e-05
6.16358e-05
6.11132e-05
6.06859e-05
6.03288e-05
6.00261e-05
5.97687e-05
5.95526e-05
5.93784e-05
5.92499e-05
5.91753e-05
5.91689e-05
5.92552e-05
5.94789e-05
5.99334e-05
6.08556e-05
6.30852e-05
7.14346e-05
0.000136177
0.00013824
0.00013824
0.00013824
0.00013824
0.00013824
0.00013824
0.00013824
0.00013824
0.00013824
0.00013824
0.00013824
0.00013824
0.00013824
0.00013824
0.00013824
0.00013824
0.00013824
0.00013824
0.00013824
0.00013824
0.00013824
0.00013824
0.00013824
0.00013824
0.000116252
6.76303e-05
6.22849e-05
6.07395e-05
6.00797e-05
5.97796e-05
5.96734e-05
5.96898e-05
5.97911e-05
5.99537e-05
6.016e-05
6.03946e-05
6.06431e-05
6.08921e-05
6.11301e-05
6.13495e-05
6.15494e-05
6.17378e-05
6.19334e-05
6.21694e-05
6.25009e-05
6.30265e-05
6.39585e-05
6.59253e-05
7.21594e-05
0.000122795
0.00013824
0.000136395
7.66882e-05
6.69777e-05
6.42331e-05
6.30363e-05
6.24035e-05
6.20497e-05
6.18603e-05
6.17788e-05
6.17721e-05
6.18178e-05
6.18972e-05
6.19906e-05
6.20755e-05
6.21261e-05
6.21193e-05
6.20457e-05
6.19193e-05
6.17651e-05
6.16084e-05
6.14703e-05
6.13683e-05
6.13188e-05
6.13408e-05
6.1462e-05
6.17296e-05
6.22367e-05
6.32038e-05
6.53267e-05
7.21283e-05
0.000128842
0.00013824
6.44575e-05
6.39224e-05
6.33506e-05
6.28873e-05
6.25468e-05
6.23154e-05
6.21793e-05
6.21301e-05
6.2167e-05
6.2298e-05
6.25429e-05
6.29399e-05
6.35596e-05
6.45329e-05
6.60984e-05
6.84272e-05
6.55061e-05
6.36655e-05
6.24901e-05
6.16832e-05
6.10914e-05
6.06341e-05
6.02668e-05
5.99648e-05
5.97149e-05
5.95112e-05
5.93529e-05
5.92437e-05
5.91928e-05
5.92166e-05
5.93447e-05
5.96349e-05
6.02179e-05
6.14858e-05
6.5487e-05
9.55972e-05
0.000138232
0.00013824
0.00013824
0.00013824
0.00013824
0.00013824
0.00013824
0.00013824
0.00013824
0.00013824
0.00013824
0.00013824
0.00013824
0.00013824
0.00013824
0.00013824
0.00013824
0.00013824
0.00013824
0.00013824
0.00013824
0.00013824
0.00013824
0.00013824
0.00013824
0.000133646
7.01433e-05
6.3081e-05
6.10808e-05
6.0253e-05
5.98682e-05
5.97082e-05
5.96842e-05
5.97512e-05
5.98824e-05
6.00588e-05
6.02649e-05
6.04871e-05
6.07132e-05
6.09335e-05
6.11426e-05
6.13412e-05
6.15385e-05
6.17549e-05
6.20263e-05
6.24145e-05
6.30375e-05
6.41719e-05
6.67242e-05
7.54697e-05
0.000135644
0.00013824
0.000138236
0.000103623
6.9674e-05
6.48913e-05
6.32864e-05
6.2498e-05
6.20638e-05
6.1828e-05
6.17202e-05
6.17029e-05
6.17525e-05
6.18497e-05
6.19743e-05
6.20991e-05
6.21872e-05
6.2198e-05
6.21077e-05
6.19471e-05
6.1758e-05
6.1576e-05
6.14254e-05
6.13244e-05
6.1289e-05
6.13394e-05
6.15076e-05
6.18526e-05
6.25028e-05
6.38149e-05
6.7368e-05
8.68387e-05
0.000138135
0.00013824
6.69795e-05
6.50805e-05
6.38375e-05
6.3051e-05
6.2544e-05
6.22236e-05
6.20423e-05
6.19769e-05
6.20211e-05
6.21847e-05
6.24992e-05
6.30357e-05
6.39662e-05
6.57947e-05
7.08041e-05
9.8233e-05
7.01477e-05
6.48839e-05
6.28893e-05
6.18037e-05
6.10975e-05
6.059e-05
6.02033e-05
5.98989e-05
5.96573e-05
5.94694e-05
5.93332e-05
5.92524e-05
5.92373e-05
5.93083e-05
5.95051e-05
5.99097e-05
6.0723e-05
6.26009e-05
6.90947e-05
0.000128359
0.00013824
0.00013824
0.00013824
0.00013824
0.00013824
0.00013824
0.00013824
0.00013824
0.00013824
0.00013824
0.00013824
0.00013824
0.00013824
0.00013824
0.00013824
0.00013824
0.00013824
0.00013824
0.00013824
0.00013824
0.00013824
0.00013824
0.00013824
0.00013824
0.00013824
0.000138234
9.65645e-05
6.57745e-05
6.18058e-05
6.05787e-05
6.00342e-05
5.97831e-05
5.96951e-05
5.97108e-05
5.97971e-05
5.99323e-05
6.01005e-05
6.02885e-05
6.04859e-05
6.06849e-05
6.08823e-05
6.10811e-05
6.12926e-05
6.15398e-05
6.1864e-05
6.23409e-05
6.31294e-05
6.46786e-05
6.92088e-05
0.000100456
0.000138233
0.00013824
0.00013824
0.000133591
7.39701e-05
6.61893e-05
6.38234e-05
6.27376e-05
6.21564e-05
6.18405e-05
6.16897e-05
6.16568e-05
6.17156e-05
6.18476e-05
6.20328e-05
6.22412e-05
6.24151e-05
6.24738e-05
6.23331e-05
6.20905e-05
6.18254e-05
6.15906e-05
6.14126e-05
6.1308e-05
6.12924e-05
6.13878e-05
6.16352e-05
6.21197e-05
6.30462e-05
6.50706e-05
7.16716e-05
0.000125961
0.00013824
0.00013824
8.07011e-05
6.83228e-05
6.49272e-05
6.34718e-05
6.26816e-05
6.22226e-05
6.19751e-05
6.18871e-05
6.19426e-05
6.21545e-05
6.25728e-05
6.33228e-05
6.47935e-05
6.87713e-05
9.184e-05
0.000138173
9.35549e-05
6.77908e-05
6.36459e-05
6.20688e-05
6.11808e-05
6.05927e-05
6.0171e-05
5.98565e-05
5.96206e-05
5.94501e-05
5.93413e-05
5.9298e-05
5.93332e-05
5.94747e-05
5.97805e-05
6.03893e-05
6.17261e-05
6.5988e-05
9.95358e-05
0.000138237
0.00013824
0.00013824
0.00013824
0.00013824
0.00013824
0.00013824
0.00013824
0.00013824
0.00013824
0.00013824
0.00013824
0.00013824
0.00013824
0.00013824
0.00013824
0.00013824
0.00013824
0.00013824
0.00013824
0.00013824
0.00013824
0.00013824
0.00013824
0.00013824
0.00013824
0.00013824
0.000131746
6.99109e-05
6.3083e-05
6.11494e-05
6.03266e-05
5.9929e-05
5.97466e-05
5.96919e-05
5.97203e-05
5.98055e-05
5.99295e-05
6.00794e-05
6.0246e-05
6.04236e-05
6.06112e-05
6.08141e-05
6.10465e-05
6.13362e-05
6.17348e-05
6.23431e-05
6.3395e-05
6.56156e-05
7.27193e-05
0.000130172
0.00013824
0.00013824
0.00013824
0.00013824
0.00011591
7.09832e-05
6.51844e-05
6.33148e-05
6.24331e-05
6.19753e-05
6.17542e-05
6.16988e-05
6.17776e-05
6.19754e-05
6.22792e-05
6.26723e-05
6.3065e-05
6.3304e-05
6.2969e-05
6.25132e-05
6.20751e-05
6.17316e-05
6.14963e-05
6.13779e-05
6.13879e-05
6.15533e-05
6.19359e-05
6.26903e-05
6.4278e-05
6.9012e-05
0.000101697
0.000138236
0.00013824
0.00013824
0.000137554
8.16264e-05
6.77168e-05
6.44796e-05
6.31279e-05
6.24254e-05
6.20724e-05
6.19506e-05
6.20261e-05
6.23184e-05
6.29166e-05
6.40457e-05
6.66224e-05
7.60451e-05
0.000136587
0.00013824
0.000134618
7.30907e-05
6.50967e-05
6.26357e-05
6.14292e-05
6.07005e-05
6.02145e-05
5.98744e-05
5.96373e-05
5.94838e-05
5.9408e-05
5.9415e-05
5.95227e-05
5.97727e-05
6.02594e-05
6.12499e-05
6.38086e-05
7.5581e-05
0.000137718
0.00013824
0.00013824
0.00013824
0.00013824
0.00013824
0.00013824
0.00013824
0.00013824
0.00013824
0.00013824
0.00013824
0.00013824
0.00013824
0.00013824
0.00013824
0.00013824
0.00013824
0.00013824
0.00013824
0.00013824
0.00013824
0.00013824
0.00013824
0.00013824
0.00013824
0.00013824
0.00013824
0.00013824
0.00010914
6.72642e-05
6.23456e-05
6.08609e-05
6.02016e-05
5.98755e-05
5.97244e-05
5.96799e-05
5.97061e-05
5.97814e-05
5.98918e-05
6.00284e-05
6.01874e-05
6.03698e-05
6.05836e-05
6.08472e-05
6.11969e-05
6.17036e-05
6.25236e-05
6.41134e-05
6.87503e-05
0.000102034
0.000138236
0.00013824
0.00013824
0.00013824
0.00013824
0.000138232
9.86973e-05
6.94937e-05
6.47378e-05
6.31086e-05
6.23698e-05
6.20189e-05
6.19272e-05
6.20488e-05
6.23822e-05
6.29405e-05
6.38353e-05
6.49371e-05
6.63993e-05
6.47785e-05
6.36361e-05
6.27255e-05
6.21402e-05
6.17807e-05
6.16258e-05
6.16718e-05
6.19582e-05
6.26021e-05
6.39843e-05
6.76492e-05
8.58514e-05
0.000138126
0.00013824
0.00013824
0.00013824
0.00013824
0.000137124
7.7964e-05
6.73388e-05
6.43357e-05
6.30568e-05
6.25016e-05
6.23197e-05
6.2437e-05
6.28933e-05
6.3923e-05
6.60665e-05
7.3249e-05
0.000132546
0.00013824
0.00013824
0.00013824
0.000121227
7.03233e-05
6.40811e-05
6.20407e-05
6.10145e-05
6.04018e-05
6.00054e-05
5.97534e-05
5.96149e-05
5.95812e-05
5.96614e-05
5.98852e-05
6.03291e-05
6.11749e-05
6.31155e-05
7.01081e-05
0.000134002
0.00013824
0.00013824
0.00013824
0.00013824
0.00013824
0.00013824
0.00013824
0.00013824
0.00013824
0.00013824
0.00013824
0.00013824
0.00013824
0.00013824
0.00013824
0.00013824
0.00013824
0.00013824
0.00013824
0.00013824
0.00013824
0.00013824
0.00013824
0.00013824
0.00013824
0.00013824
0.00013824
0.00013824
0.00013824
0.000138182
8.56168e-05
6.52711e-05
6.18832e-05
6.07057e-05
6.01439e-05
5.98522e-05
5.97113e-05
5.96666e-05
5.96877e-05
5.97571e-05
5.98658e-05
6.0011e-05
6.01958e-05
6.04318e-05
6.07443e-05
6.11847e-05
6.18627e-05
6.30486e-05
6.57072e-05
7.58758e-05
0.00013705
0.00013824
0.00013824
0.00013824
0.00013824
0.00013824
0.00013824
0.000138213
9.44029e-05
6.94723e-05
6.48228e-05
6.33607e-05
6.26988e-05
6.25333e-05
6.27546e-05
6.34406e-05
6.46845e-05
6.78518e-05
7.21612e-05
8.82887e-05
7.1663e-05
6.74312e-05
6.44194e-05
6.3164e-05
6.24802e-05
6.22343e-05
6.23432e-05
6.28951e-05
6.42144e-05
6.79711e-05
8.33555e-05
0.000137952
0.00013824
0.00013824
0.00013824
0.00013824
0.00013824
0.00013824
0.000137147
8.14181e-05
6.85345e-05
6.47912e-05
6.37156e-05
6.3379e-05
6.36144e-05
6.45159e-05
6.73648e-05
7.43164e-05
0.000132076
0.00013824
0.00013824
0.00013824
0.00013824
0.000138239
0.000107728
6.9063e-05
6.35816e-05
6.17525e-05
6.08642e-05
6.03409e-05
6.00457e-05
5.99187e-05
5.99467e-05
6.01547e-05
6.06051e-05
6.15125e-05
6.33938e-05
6.97689e-05
0.000130209
0.00013824
0.00013824
0.00013824
0.00013824
0.00013824
0.00013824
0.00013824
0.00013824
0.00013824
0.00013824
0.00013824
0.00013824
0.00013824
0.00013824
0.00013824
0.00013824
0.00013824
0.00013824
0.00013824
0.00013824
0.00013824
0.00013824
0.00013824
0.00013824
0.00013824
0.00013824
0.00013824
0.00013824
0.00013824
0.00013824
0.00013824
0.000137427
7.45534e-05
6.41956e-05
6.17075e-05
6.06823e-05
6.01523e-05
5.9868e-05
5.97295e-05
5.96857e-05
5.97103e-05
5.97927e-05
5.99309e-05
6.01306e-05
6.04085e-05
6.08033e-05
6.13993e-05
6.24097e-05
6.44906e-05
7.11945e-05
0.00012867
0.00013824
0.00013824
0.00013824
0.00013824
0.00013824
0.00013824
0.00013824
0.00013824
0.000138219
0.000104227
7.10148e-05
6.63716e-05
6.44393e-05
6.40705e-05
6.45778e-05
6.6847e-05
7.10315e-05
9.84174e-05
0.000134299
0.000138187
0.000133263
9.48564e-05
7.0542e-05
6.62946e-05
6.42422e-05
6.37357e-05
6.39982e-05
6.54568e-05
6.9877e-05
9.40538e-05
0.000138044
0.00013824
0.00013824
0.00013824
0.00013824
0.00013824
0.00013824
0.00013824
0.00013824
0.000137931
0.000100154
7.11837e-05
6.79915e-05
6.67875e-05
6.76891e-05
7.05008e-05
9.04414e-05
0.000136098
0.00013824
0.00013824
0.00013824
0.00013824
0.00013824
0.00013824
0.000138238
0.000105211
6.90021e-05
6.3604e-05
6.19648e-05
6.10888e-05
6.06808e-05
6.05594e-05
6.06999e-05
6.12092e-05
6.22658e-05
6.51058e-05
7.22251e-05
0.000132412
0.00013824
0.00013824
0.00013824
0.00013824
0.00013824
0.00013824
0.00013824
0.00013824
0.00013824
0.00013824
0.00013824
0.00013824
0.00013824
0.00013824
0.00013824
0.00013824
0.00013824
0.00013824
0.00013824
0.00013824
0.00013824
0.00013824
0.00013824
0.00013824
0.00013824
0.00013824
0.00013824
0.00013824
0.00013824
0.00013824
0.00013824
0.00013824
0.00013824
0.000136106
7.2527e-05
6.42712e-05
6.18684e-05
6.07966e-05
6.02485e-05
5.99655e-05
5.98321e-05
5.98002e-05
5.98554e-05
5.9997e-05
6.02344e-05
6.05929e-05
6.11435e-05
6.20555e-05
6.39458e-05
6.99147e-05
0.000117456
0.00013824
0.00013824
0.00013824
0.00013824
0.00013824
0.00013824
0.00013824
0.00013824
0.00013824
0.00013824
0.000138238
0.000125294
8.33805e-05
7.06264e-05
6.95424e-05
7.10744e-05
8.88155e-05
0.000127282
0.000138233
0.00013824
0.00013824
0.00013824
0.000138226
0.000125047
8.45379e-05
7.04569e-05
6.90082e-05
6.98283e-05
7.71422e-05
0.000119385
0.000138223
0.00013824
0.00013824
0.00013824
0.00013824
0.00013824
0.00013824
0.00013824
0.00013824
0.00013824
0.00013824
0.000138235
0.0001277
9.9979e-05
8.56946e-05
9.63905e-05
0.000123486
0.000138203
0.00013824
0.00013824
0.00013824
0.00013824
0.00013824
0.00013824
0.00013824
0.00013824
0.000138239
0.000115561
7.0374e-05
6.55022e-05
6.29188e-05
6.21742e-05
6.20462e-05
6.24615e-05
6.42039e-05
6.80346e-05
8.98711e-05
0.000136828
0.00013824
0.00013824
0.00013824
0.00013824
0.00013824
0.00013824
0.00013824
0.00013824
0.00013824
0.00013824
0.00013824
0.00013824
0.00013824
0.00013824
0.00013824
0.00013824
0.00013824
0.00013824
0.00013824
0.00013824
0.00013824
0.00013824
0.00013824
0.00013824
0.00013824
0.00013824
0.00013824
0.00013824
0.00013824
0.00013824
0.00013824
0.00013824
0.00013824
0.00013824
0.00013824
0.000136351
7.58775e-05
6.55163e-05
6.23188e-05
6.10875e-05
6.05272e-05
6.02402e-05
6.01153e-05
6.01355e-05
6.02999e-05
6.06278e-05
6.11607e-05
6.20793e-05
6.38326e-05
6.96254e-05
0.000113702
0.00013824
0.00013824
0.00013824
0.00013824
0.00013824
0.00013824
0.00013824
0.00013824
0.00013824
0.00013824
0.00013824
0.00013824
0.00013824
0.000138074
0.000127982
0.00011952
0.000130471
0.000138189
0.00013824
0.00013824
0.00013824
0.00013824
0.00013824
0.00013824
0.00013824
0.000138119
0.000127746
0.000115462
0.000123828
0.000137566
0.00013824
0.00013824
0.00013824
0.00013824
0.00013824
0.00013824
0.00013824
0.00013824
0.00013824
0.00013824
0.00013824
0.00013824
0.00013824
0.00013824
0.000138234
0.000138119
0.000138227
0.00013824
0.00013824
0.00013824
0.00013824
0.00013824
0.00013824
0.00013824
0.00013824
0.00013824
0.00013824
0.00013824
0.00013824
0.000131484
9.05653e-05
6.93801e-05
6.73883e-05
6.72241e-05
6.85621e-05
8.11646e-05
0.000121461
0.000138219
0.00013824
0.00013824
0.00013824
0.00013824
0.00013824
0.00013824
0.00013824
0.00013824
0.00013824
0.00013824
0.00013824
0.00013824
0.00013824
0.00013824
0.00013824
0.00013824
0.00013824
0.00013824
0.00013824
0.00013824
0.00013824
0.00013824
0.00013824
0.00013824
0.00013824
0.00013824
0.00013824
0.00013824
0.00013824
0.00013824
0.00013824
0.00013824
0.00013824
0.00013824
0.00013824
0.00013824
0.00013824
0.000137714
9.01723e-05
6.76228e-05
6.31887e-05
6.1889e-05
6.12219e-05
6.08658e-05
6.08186e-05
6.10568e-05
6.16521e-05
6.26735e-05
6.5009e-05
7.05215e-05
0.000120065
0.00013824
0.00013824
0.00013824
0.00013824
0.00013824
0.00013824
0.00013824
0.00013824
0.00013824
0.00013824
0.00013824
0.00013824
0.00013824
0.00013824
0.00013824
0.00013824
0.00013824
0.00013824
0.00013824
0.00013824
0.00013824
0.00013824
0.00013824
0.00013824
0.00013824
0.00013824
0.00013824
0.00013824
0.00013824
0.00013824
0.00013824
0.00013824
0.00013824
0.00013824
0.00013824
0.00013824
0.00013824
0.00013824
0.00013824
0.00013824
0.00013824
0.00013824
0.00013824
0.00013824
0.00013824
0.00013824
0.00013824
0.00013824
0.00013824
0.00013824
0.00013824
0.00013824
0.00013824
0.00013824
0.00013824
0.00013824
0.00013824
0.00013824
0.00013824
0.00013824
0.00013824
0.000138218
0.000130484
0.000115229
0.000114762
0.000128178
0.000138101
0.00013824
0.00013824
0.00013824
0.00013824
0.00013824
0.00013824
0.00013824
0.00013824
0.00013824
0.00013824
0.00013824
0.00013824
0.00013824
0.00013824
0.00013824
0.00013824
0.00013824
0.00013824
0.00013824
0.00013824
0.00013824
0.00013824
0.00013824
0.00013824
0.00013824
0.00013824
0.00013824
0.00013824
0.00013824
0.00013824
0.00013824
0.00013824
0.00013824
0.00013824
0.00013824
0.00013824
0.00013824
0.00013824
0.00013824
0.00013824
0.000138219
0.000116635
7.12408e-05
6.67202e-05
6.41738e-05
6.27461e-05
6.25e-05
6.29995e-05
6.49241e-05
6.82023e-05
8.22815e-05
0.000131968
0.00013824
0.00013824
0.00013824
0.00013824
0.00013824
0.00013824
0.00013824
0.00013824
0.00013824
0.00013824
0.00013824
0.00013824
0.00013824
0.00013824
0.00013824
0.00013824
0.00013824
0.00013824
0.00013824
0.00013824
0.00013824
0.00013824
0.00013824
0.00013824
0.00013824
0.00013824
0.00013824
0.00013824
0.00013824
0.00013824
0.00013824
0.00013824
0.00013824
0.00013824
0.00013824
0.00013824
0.00013824
0.00013824
0.00013824
0.00013824
0.00013824
0.00013824
0.00013824
0.00013824
0.00013824
0.00013824
0.00013824
0.00013824
0.00013824
0.00013824
0.00013824
0.00013824
0.00013824
0.00013824
0.00013824
0.00013824
0.00013824
0.00013824
0.00013824
0.00013824
0.00013824
0.00013824
0.00013824
0.00013824
0.00013824
0.00013824
0.00013824
0.00013824
0.00013824
0.00013824
0.00013824
0.00013824
0.00013824
0.00013824
0.00013824
0.00013824
0.00013824
0.00013824
0.00013824
0.00013824
0.00013824
0.00013824
0.00013824
0.00013824
0.00013824
0.00013824
0.00013824
0.00013824
0.00013824
0.00013824
0.00013824
0.00013824
0.00013824
0.00013824
0.00013824
0.00013824
0.00013824
0.00013824
0.00013824
0.00013824
0.00013824
0.00013824
0.00013824
0.00013824
0.00013824
0.00013824
0.00013824
0.00013824
0.00013824
0.00013824
0.000136012
0.000110633
8.08158e-05
6.95249e-05
6.85245e-05
7.01452e-05
8.57133e-05
0.000119132
0.00013811
0.00013824
0.00013824
0.00013824
0.00013824
0.00013824
0.00013824
0.00013824
0.00013824
0.00013824
0.00013824
0.00013824
0.00013824
0.00013824
0.00013824
0.00013824
0.00013824
0.00013824
0.00013824
0.00013824
0.00013824
0.00013824
0.00013824
0.00013824
0.00013824
0.00013824
0.00013824
0.00013824
0.00013824
0.00013824
0.00013824
0.00013824
0.00013824
0.00013824
0.00013824
0.00013824
0.00013824
0.00013824
0.00013824
0.00013824
0.00013824
0.00013824
0.00013824
0.00013824
0.00013824
0.00013824
0.00013824
0.00013824
0.00013824
0.00013824
0.00013824
0.00013824
0.00013824
0.00013824
0.00013824
0.00013824
0.00013824
0.00013824
0.00013824
0.00013824
0.00013824
0.00013824
0.00013824
0.00013824
0.00013824
0.00013824
0.00013824
0.00013824
0.00013824
0.00013824
0.00013824
0.00013824
0.00013824
0.00013824
0.00013824
0.00013824
0.00013824
0.00013824
0.00013824
0.00013824
0.00013824
0.00013824
0.00013824
0.00013824
0.00013824
0.00013824
0.00013824
0.00013824
0.00013824
0.00013824
0.00013824
0.00013824
0.00013824
0.00013824
0.00013824
0.00013824
0.00013824
0.00013824
0.00013824
0.00013824
0.00013824
0.00013824
0.00013824
0.00013824
0.00013824
0.00013824
0.00013824
0.00013824
0.00013824
0.00013824
0.00013824
0.00013824
0.00013824
0.00013824
0.000138076
0.000133787
0.000129767
0.000134627
0.000138177
0.00013824
0.00013824
0.00013824
0.00013824
0.00013824
0.00013824
0.00013824
0.00013824
0.00013824
0.00013824
0.00013824
0.00013824
0.00013824
0.00013824
0.00013824
0.00013824
0.00013824
0.00013824
0.00013824
0.00013824
0.00013824
0.00013824
0.00013824
0.00013824
0.00013824
0.00013824
0.00013824
0.00013824
0.00013824
0.00013824
0.00013824
0.00013824
0.00013824
0.00013824
0.00013824
0.00013824
0.00013824
0.00013824
0.00013824
0.00013824
0.00013824
0.00013824
0.00013824
0.00013824
0.00013824
0.00013824
0.00013824
0.00013824
0.00013824
0.00013824
0.00013824
0.00013824
0.00013824
0.00013824
0.00013824
0.00013824
0.00013824
0.00013824
0.00013824
0.00013824
0.00013824
0.00013824
0.00013824
0.00013824
0.00013824
0.00013824
0.00013824
0.00013824
0.00013824
0.00013824
0.00013824
0.00013824
0.00013824
0.00013824
0.00013824
0.00013824
0.00013824
0.00013824
0.00013824
0.00013824
0.00013824
0.00013824
0.00013824
0.00013824
0.00013824
0.00013824
0.00013824
0.00013824
0.00013824
0.00013824
0.00013824
0.00013824
0.00013824
0.00013824
0.00013824
0.00013824
0.00013824
0.00013824
0.00013824
0.00013824
0.00013824
0.00013824
0.00013824
0.00013824
0.00013824
0.00013824
0.00013824
0.00013824
0.00013824
0.00013824
0.00013824
0.00013824
0.00013824
0.00013824
0.00013824
0.00013824
0.00013824
0.00013824
0.00013824
0.00013824
0.00013824
0.00013824
0.00013824
0.00013824
0.00013824
0.00013824
0.00013824
0.00013824
0.00013824
0.00013824
0.00013824
0.00013824
0.00013824
0.00013824
0.00013824
0.00013824
0.00013824
0.00013824
0.00013824
0.00013824
0.00013824
0.00013824
0.00013824
0.00013824
0.00013824
0.00013824
0.00013824
0.00013824
0.00013824
0.00013824
0.00013824
0.00013824
0.00013824
0.00013824
0.00013824
0.00013824
0.00013824
0.00013824
0.00013824
0.00013824
0.00013824
0.00013824
0.00013824
0.00013824
0.00013824
0.00013824
0.00013824
0.00013824
0.00013824
0.00013824
0.00013824
0.00013824
0.00013824
0.00013824
0.00013824
0.00013824
0.00013824
0.00013824
0.00013824
0.00013824
0.00013824
0.00013824
0.00013824
0.00013824
0.00013824
0.00013824
0.00013824
0.00013824
0.00013824
0.00013824
0.00013824
0.00013824
0.00013824
0.00013824
0.00013824
0.00013824
0.00013824
0.00013824
0.00013824
0.00013824
0.00013824
0.00013824
0.00013824
0.00013824
0.00013824
0.00013824
0.00013824
0.00013824
0.00013824
0.00013824
0.00013824
0.00013824
0.00013824
0.00013824
0.00013824
0.00013824
0.00013824
0.00013824
0.00013824
0.00013824
0.00013824
0.00013824
0.00013824
0.00013824
0.00013824
0.00013824
0.00013824
0.00013824
0.00013824
0.00013824
0.00013824
0.00013824
0.00013824
0.00013824
0.00013824
0.00013824
0.00013824
0.00013824
0.00013824
0.00013824
0.00013824
0.00013824
0.00013824
0.00013824
0.00013824
0.00013824
0.00013824
0.00013824
0.00013824
0.00013824
0.00013824
0.00013824
0.00013824
0.00013824
0.00013824
0.00013824
0.00013824
0.00013824
0.00013824
0.00013824
0.00013824
0.00013824
0.00013824
0.00013824
0.00013824
0.00013824
0.00013824
0.00013824
0.00013824
0.00013824
0.00013824
0.00013824
0.00013824
0.00013824
0.00013824
0.00013824
0.00013824
0.00013824
0.00013824
0.00013824
0.00013824
0.00013824
0.00013824
0.00013824
0.00013824
0.00013824
0.00013824
0.00013824
0.00013824
0.00013824
0.00013824
0.00013824
0.00013824
0.00013824
0.00013824
0.00013824
0.00013824
0.00013824
0.00013824
0.00013824
0.00013824
0.00013824
0.00013824
0.00013824
0.00013824
0.00013824
0.00013824
0.00013824
0.00013824
0.00013824
0.00013824
0.00013824
0.00013824
0.00013824
0.00013824
0.00013824
0.00013824
0.00013824
0.00013824
0.00013824
0.00013824
0.00013824
0.00013824
0.00013824
0.00013824
0.00013824
0.00013824
0.00013824
0.00013824
0.00013824
0.00013824
0.00013824
0.00013824
0.00013824
0.00013824
0.00013824
0.00013824
0.00013824
0.00013824
0.00013824
0.00013824
0.00013824
0.00013824
0.00013824
0.00013824
0.00013824
0.00013824
0.00013824
0.00013824
0.00013824
0.00013824
0.00013824
0.00013824
0.00013824
0.00013824
0.00013824
0.00013824
0.00013824
0.00013824
0.00013824
0.00013824
0.00013824
0.00013824
0.00013824
0.00013824
0.00013824
0.00013824
0.00013824
0.00013824
0.00013824
0.00013824
0.00013824
0.00013824
0.00013824
0.00013824
0.00013824
0.00013824
0.00013824
0.00013824
0.00013824
0.00013824
0.00013824
0.00013824
0.00013824
0.00013824
0.00013824
0.00013824
0.00013824
0.00013824
0.00013824
0.00013824
0.00013824
0.00013824
0.00013824
0.00013824
0.00013824
0.00013824
0.00013824
0.00013824
0.00013824
0.00013824
0.00013824
0.00013824
0.00013824
0.00013824
0.00013824
0.00013824
0.00013824
0.00013824
0.00013824
0.00013824
0.00013824
0.00013824
0.00013824
0.00013824
0.00013824
0.00013824
0.00013824
0.00013824
0.00013824
0.00013824
0.00013824
0.00013824
0.00013824
0.00013824
0.00013824
0.00013824
0.00013824
0.00013824
0.00013824
0.00013824
0.00013824
0.00013824
0.00013824
0.00013824
0.00013824
0.00013824
0.00013824
0.00013824
0.00013824
0.00013824
0.00013824
0.00013824
0.00013824
0.00013824
0.00013824
0.00013824
0.00013824
0.00013824
0.00013824
0.00013824
0.00013824
0.00013824
0.00013824
0.00013824
0.00013824
0.00013824
0.00013824
0.00013824
0.00013824
0.00013824
0.00013824
0.00013824
0.00013824
0.00013824
0.00013824
0.00013824
0.00013824
0.00013824
0.00013824
0.00013824
0.00013824
0.00013824
0.00013824
0.00013824
0.00013824
0.00013824
0.00013824
0.00013824
0.00013824
0.00013824
0.00013824
0.00013824
0.00013824
0.00013824
0.00013824
0.00013824
0.00013824
0.00013824
0.00013824
0.00013824
0.00013824
0.00013824
0.00013824
0.00013824
0.00013824
0.00013824
0.00013824
0.00013824
0.00013824
0.00013824
0.00013824
0.00013824
0.00013824
0.00013824
0.00013824
0.00013824
0.00013824
0.00013824
0.00013824
0.00013824
0.00013824
0.00013824
0.00013824
0.00013824
0.00013824
0.00013824
0.00013824
0.00013824
0.00013824
0.00013824
0.00013824
0.00013824
0.00013824
0.00013824
0.00013824
0.00013824
0.00013824
0.00013824
0.00013824
0.00013824
0.00013824
0.00013824
0.00013824
0.00013824
0.00013824
0.00013824
0.00013824
0.00013824
0.00013824
0.00013824
0.00013824
0.00013824
0.00013824
0.00013824
0.00013824
0.00013824
0.00013824
0.00013824
0.00013824
0.00013824
0.00013824
0.00013824
0.00013824
0.00013824
0.00013824
0.00013824
0.00013824
0.00013824
0.00013824
0.00013824
0.00013824
0.00013824
0.00013824
0.00013824
0.00013824
0.00013824
0.00013824
0.00013824
0.00013824
0.00013824
0.00013824
0.00013824
0.00013824
0.00013824
0.00013824
0.00013824
0.00013824
0.00013824
0.00013824
0.00013824
0.00013824
0.00013824
0.00013824
0.00013824
0.00013824
0.00013824
0.00013824
0.00013824
0.00013824
0.00013824
0.00013824
0.00013824
0.00013824
0.00013824
0.00013824
0.00013824
0.00013824
0.00013824
0.00013824
0.00013824
0.00013824
0.00013824
0.00013824
0.00013824
0.00013824
0.00013824
0.00013824
0.00013824
0.00013824
0.00013824
0.00013824
0.00013824
0.00013824
0.00013824
0.00013824
0.00013824
0.00013824
0.00013824
0.00013824
0.00013824
0.00013824
0.00013824
0.00013824
0.00013824
0.00013824
0.00013824
0.00013824
0.00013824
0.00013824
0.00013824
0.00013824
0.00013824
0.00013824
0.00013824
0.00013824
0.00013824
0.00013824
0.00013824
0.00013824
0.00013824
0.00013824
0.00013824
0.00013824
0.00013824
0.00013824
0.00013824
0.00013824
0.00013824
0.00013824
0.00013824
0.00013824
0.00013824
0.00013824
0.00013824
0.00013824
0.00013824
0.00013824
0.00013824
0.00013824
0.00013824
0.00013824
0.00013824
0.00013824
0.00013824
0.00013824
0.00013824
0.00013824
0.00013824
0.00013824
0.00013824
0.00013824
0.00013824
0.00013824
0.00013824
0.00013824
0.00013824
0.00013824
0.00013824
0.00013824
0.00013824
0.00013824
0.00013824
0.00013824
0.00013824
0.00013824
0.00013824
0.00013824
0.00013824
0.00013824
0.00013824
0.00013824
0.00013824
0.00013824
0.00013824
0.00013824
0.00013824
0.00013824
0.00013824
0.00013824
0.00013824
0.00013824
0.00013824
0.00013824
0.00013824
0.00013824
0.00013824
0.00013824
0.00013824
0.00013824
0.00013824
0.00013824
0.00013824
0.00013824
0.00013824
0.00013824
0.00013824
0.00013824
0.00013824
0.00013824
0.00013824
0.00013824
0.00013824
0.00013824
0.00013824
0.00013824
0.00013824
0.00013824
0.00013824
0.00013824
0.00013824
0.00013824
0.00013824
0.00013824
0.00013824
0.00013824
0.00013824
0.00013824
0.00013824
0.00013824
0.00013824
0.00013824
0.00013824
0.00013824
0.00013824
0.00013824
0.00013824
0.00013824
0.00013824
0.00013824
0.00013824
0.00013824
0.00013824
0.00013824
0.00013824
0.00013824
0.00013824
0.00013824
0.00013824
0.00013824
0.00013824
0.00013824
0.00013824
0.00013824
0.00013824
0.00013824
0.00013824
0.00013824
0.00013824
0.00013824
0.00013824
0.00013824
0.00013824
0.00013824
0.00013824
0.00013824
0.00013824
0.00013824
0.00013824
0.00013824
0.00013824
0.00013824
0.00013824
0.00013824
0.00013824
0.00013824
0.00013824
0.00013824
0.00013824
0.00013824
0.00013824
0.00013824
0.00013824
0.00013824
0.00013824
0.00013824
0.00013824
0.00013824
0.00013824
0.00013824
0.00013824
0.00013824
0.00013824
0.00013824
0.00013824
0.00013824
0.00013824
0.00013824
0.00013824
0.00013824
0.00013824
0.00013824
0.00013824
0.00013824
0.00013824
0.00013824
0.00013824
0.00013824
0.00013824
0.00013824
0.00013824
0.00013824
0.00013824
0.00013824
0.00013824
0.00013824
0.00013824
0.00013824
0.00013824
0.00013824
0.00013824
0.00013824
0.00013824
0.00013824
0.00013824
0.00013824
0.00013824
0.00013824
0.00013824
0.00013824
0.00013824
0.00013824
0.00013824
0.00013824
0.00013824
0.00013824
0.00013824
0.00013824
0.00013824
0.00013824
0.00013824
0.00013824
0.00013824
0.00013824
0.00013824
0.00013824
0.00013824
0.00013824
0.00013824
0.00013824
0.00013824
0.00013824
0.00013824
0.00013824
0.00013824
0.00013824
0.00013824
0.00013824
0.00013824
0.00013824
0.00013824
0.00013824
0.00013824
0.00013824
0.00013824
0.00013824
0.00013824
0.00013824
0.00013824
0.00013824
0.00013824
0.00013824
0.00013824
0.00013824
0.00013824
0.00013824
0.00013824
0.00013824
0.00013824
0.00013824
0.00013824
0.00013824
0.00013824
0.00013824
0.00013824
0.00013824
0.00013824
0.00013824
0.00013824
0.00013824
0.00013824
0.00013824
0.00013824
0.00013824
0.00013824
0.00013824
0.00013824
0.00013824
0.00013824
0.00013824
0.00013824
0.00013824
0.00013824
0.00013824
0.00013824
0.00013824
0.00013824
0.00013824
0.00013824
0.00013824
0.00013824
0.00013824
0.00013824
0.00013824
0.00013824
0.00013824
0.00013824
0.00013824
0.00013824
0.00013824
0.00013824
0.00013824
0.00013824
0.00013824
0.00013824
0.00013824
0.00013824
0.00013824