/*--------------------------------*- C++ -*----------------------------------*\
| =========                 |                                                 |
| \\      /  F ield         | OpenFOAM: The Open Source CFD Toolbox           |
|  \\    /   O peration     | Version:  2406                                  |
|   \\  /    A nd           | Website:  www.openfoam.com                      |
|    \\/     M anipulation  |                                                 |
\*---------------------------------------------------------------------------*/
FoamFile
{
    version     2.0;
    format      ascii;
    arch        "LSB;label=32;scalar=64";
    class       volScalarField;
    location    "7.5";
    object      C_0;
}
// * * * * * * * * * * * * * * * * * * * * * * * * * * * * * * * * * * * * * //

dimensions      [1 -3 0 0 0 0 0];

internalField   nonuniform List<scalar> 
14400
(
0.231759
0.230694
0.228835
0.226584
0.224356
0.222505
0.221293
0.220887
0.221351
0.222648
0.22464
0.227073
0.229575
0.231656
0.232755
0.23236
0.23025
0.226774
0.22255
0.218225
0.214372
0.211467
0.209904
0.210015
0.212095
0.216418
0.223253
0.232875
0.245571
0.261644
0.281424
0.305261
0.333515
0.366538
0.404604
0.44772
0.494623
0.535048
0.562834
0.583674
0.601648
0.617029
0.630026
0.640801
0.649477
0.65615
0.66089
0.663749
0.664757
0.663932
0.661272
0.656762
0.650369
0.642043
0.631716
0.619294
0.604657
0.587651
0.568076
0.545663
0.513985
0.469628
0.422943
0.380383
0.342887
0.310389
0.282578
0.259081
0.239526
0.22356
0.210857
0.201119
0.194075
0.189486
0.187147
0.186896
0.188614
0.19223
0.197705
0.205025
0.214182
0.225146
0.237838
0.252069
0.267446
0.283067
0.296206
0.302818
0.301822
0.294261
0.283641
0.272651
0.262216
0.252785
0.244598
0.237764
0.232295
0.228128
0.22514
0.223158
0.221979
0.22139
0.2212
0.221283
0.221606
0.222247
0.223377
0.225228
0.228055
0.232108
0.237609
0.244738
0.253627
0.264341
0.276863
0.291055
0.30657
0.322599
0.33686
0.344699
0.23885
0.237502
0.235215
0.232518
0.229901
0.227754
0.226357
0.225878
0.226387
0.227849
0.230126
0.232965
0.235981
0.238638
0.24025
0.240065
0.2376
0.233496
0.228606
0.22369
0.219357
0.216088
0.214265
0.214211
0.216208
0.220524
0.22742
0.237165
0.250043
0.266357
0.286436
0.310628
0.339291
0.372763
0.411286
0.454783
0.501804
0.540191
0.566058
0.58654
0.604241
0.619413
0.632249
0.642899
0.65148
0.658082
0.662772
0.665599
0.666592
0.665766
0.663122
0.658644
0.652301
0.644045
0.633811
0.621509
0.607026
0.590219
0.570902
0.54884
0.51926
0.476759
0.429516
0.386393
0.348392
0.315432
0.287202
0.263331
0.243446
0.227191
0.214242
0.204301
0.1971
0.192401
0.190005
0.189751
0.191526
0.195259
0.200915
0.208481
0.217952
0.229303
0.242459
0.257243
0.273276
0.289652
0.303066
0.309233
0.308984
0.301679
0.290649
0.279176
0.268302
0.258508
0.250042
0.243015
0.237438
0.233245
0.230306
0.228433
0.227398
0.226956
0.226879
0.227004
0.227284
0.227815
0.228803
0.230519
0.233249
0.237264
0.2428
0.250046
0.259137
0.270138
0.283035
0.297694
0.313779
0.330455
0.344534
0.351015
0.253545
0.251513
0.248262
0.244607
0.241179
0.238428
0.236652
0.236027
0.236623
0.238409
0.241254
0.244911
0.248987
0.252886
0.255712
0.256161
0.25274
0.247187
0.240875
0.234747
0.229449
0.225451
0.22311
0.222723
0.224553
0.22885
0.235862
0.245851
0.259091
0.275886
0.296559
0.321459
0.350939
0.385315
0.42475
0.468865
0.515056
0.549163
0.572389
0.592186
0.609364
0.624133
0.636657
0.647066
0.655462
0.661926
0.666518
0.669281
0.670244
0.669419
0.666807
0.662392
0.656146
0.648027
0.637972
0.625904
0.611721
0.595296
0.576472
0.555047
0.528719
0.489922
0.442364
0.398403
0.35947
0.32561
0.29655
0.271934
0.25139
0.234564
0.22113
0.21079
0.20328
0.19837
0.195864
0.195611
0.197503
0.201471
0.207486
0.21554
0.225631
0.237743
0.251808
0.26765
0.284865
0.302386
0.315731
0.321231
0.321842
0.316242
0.304682
0.292306
0.280586
0.270085
0.261073
0.253669
0.247887
0.243658
0.240837
0.239209
0.238499
0.238393
0.238574
0.238795
0.238972
0.239245
0.239908
0.241315
0.24382
0.247738
0.25333
0.260798
0.270279
0.281839
0.295459
0.310987
0.328015
0.345396
0.358115
0.362811
0.276848
0.273407
0.268433
0.263198
0.258495
0.254815
0.252465
0.251617
0.252337
0.254598
0.25828
0.263157
0.268859
0.274782
0.279859
0.281957
0.276314
0.26816
0.259567
0.251591
0.244853
0.239772
0.236659
0.235773
0.237349
0.241612
0.248793
0.259141
0.272922
0.29043
0.311988
0.33794
0.368633
0.404361
0.445212
0.490405
0.532142
0.560283
0.581625
0.600451
0.616895
0.631098
0.64318
0.653245
0.661377
0.667642
0.672093
0.674765
0.675684
0.67486
0.672293
0.66797
0.661866
0.653942
0.644147
0.632414
0.618657
0.602774
0.584642
0.564109
0.540799
0.507716
0.461468
0.416565
0.3763
0.341109
0.310816
0.285089
0.263565
0.245892
0.231741
0.220818
0.212863
0.20765
0.204995
0.204754
0.206825
0.211149
0.217699
0.226473
0.237478
0.250702
0.266089
0.283451
0.302273
0.320913
0.33277
0.337703
0.33897
0.336223
0.325584
0.312134
0.299252
0.287743
0.277941
0.269995
0.26393
0.259679
0.257083
0.255892
0.255761
0.256264
0.256928
0.257336
0.257302
0.257087
0.257153
0.258005
0.260101
0.263823
0.269464
0.277238
0.28728
0.299648
0.314301
0.331037
0.349222
0.366492
0.375622
0.378988
0.309947
0.303816
0.296118
0.288618
0.282165
0.277239
0.274126
0.27298
0.273856
0.276727
0.281483
0.287919
0.295718
0.304336
0.312521
0.315176
0.308044
0.296367
0.284764
0.274401
0.265809
0.259326
0.255205
0.253663
0.254899
0.259112
0.266514
0.277336
0.291831
0.310282
0.333004
0.360329
0.392583
0.429976
0.472246
0.517055
0.550435
0.573414
0.593375
0.611097
0.626669
0.640182
0.65172
0.661357
0.669158
0.675173
0.679445
0.682003
0.682866
0.682044
0.679535
0.675329
0.669405
0.66173
0.652261
0.640947
0.627719
0.612503
0.595211
0.575755
0.554063
0.52738
0.487334
0.44114
0.399124
0.362195
0.330279
0.303085
0.280268
0.261477
0.246389
0.234708
0.226181
0.220589
0.217754
0.217545
0.219866
0.224665
0.231923
0.241642
0.253834
0.268494
0.285566
0.304842
0.3256
0.34392
0.353059
0.357756
0.359591
0.358726
0.352301
0.338597
0.324505
0.31177
0.300966
0.292331
0.285923
0.281692
0.279477
0.278989
0.279799
0.281335
0.282856
0.28363
0.283172
0.282083
0.281133
0.281074
0.282505
0.285884
0.291537
0.299681
0.310433
0.323817
0.339741
0.357885
0.377022
0.390371
0.395877
0.398523
0.349632
0.342116
0.331207
0.320982
0.312426
0.305992
0.301959
0.300454
0.301516
0.305109
0.311117
0.319309
0.32935
0.340421
0.34856
0.348904
0.344317
0.330929
0.316323
0.30331
0.292574
0.284431
0.279098
0.276756
0.277574
0.281727
0.289405
0.300817
0.316201
0.335821
0.359968
0.388948
0.423042
0.462317
0.505733
0.543373
0.568461
0.588891
0.607366
0.623892
0.638503
0.651242
0.662161
0.671307
0.678724
0.684448
0.688512
0.690935
0.691734
0.690914
0.688475
0.684407
0.678694
0.67131
0.662222
0.651392
0.63877
0.624306
0.607945
0.589637
0.569349
0.54696
0.515915
0.471499
0.428076
0.38917
0.355288
0.326291
0.301875
0.281704
0.265461
0.252855
0.243636
0.237595
0.23456
0.234408
0.237053
0.242452
0.250588
0.261467
0.275101
0.291476
0.310497
0.331805
0.353945
0.368974
0.376126
0.380672
0.382904
0.382954
0.380699
0.371373
0.356502
0.342444
0.33047
0.32103
0.314231
0.310085
0.308452
0.309016
0.311257
0.314459
0.317456
0.319013
0.317647
0.315059
0.312475
0.311026
0.311455
0.314301
0.319905
0.328467
0.340051
0.354588
0.371809
0.390889
0.407006
0.414657
0.418647
0.420704
0.386607
0.383129
0.3725
0.360067
0.349384
0.341295
0.336246
0.334348
0.335628
0.340029
0.347404
0.357332
0.369172
0.380272
0.383187
0.381939
0.379691
0.370632
0.354049
0.338457
0.325434
0.315447
0.308732
0.305467
0.305804
0.309896
0.317911
0.330038
0.34649
0.367501
0.393305
0.424134
0.460116
0.500663
0.540571
0.567522
0.587695
0.606321
0.623305
0.638604
0.652206
0.664123
0.674374
0.682985
0.689981
0.695385
0.699217
0.701492
0.70222
0.701404
0.699043
0.695131
0.689653
0.682593
0.673927
0.663627
0.651664
0.638005
0.622624
0.605501
0.586632
0.566034
0.542542
0.507855
0.463497
0.422397
0.386248
0.355139
0.328835
0.307027
0.289413
0.275715
0.265688
0.259128
0.255875
0.25581
0.258857
0.264979
0.274162
0.286413
0.301727
0.320056
0.3412
0.36439
0.385032
0.395288
0.401544
0.405902
0.4084
0.409159
0.408385
0.404858
0.394442
0.3798
0.366662
0.356387
0.349154
0.345163
0.344338
0.346363
0.350581
0.356309
0.361532
0.364746
0.361511
0.356663
0.351632
0.348247
0.347289
0.349393
0.354879
0.363898
0.376396
0.392073
0.410006
0.426906
0.435886
0.440265
0.443349
0.444942
0.42046
0.420196
0.415945
0.405022
0.392951
0.383224
0.377184
0.374896
0.376425
0.381666
0.390454
0.401633
0.413361
0.417787
0.417145
0.415908
0.413982
0.410105
0.397335
0.379918
0.364687
0.352765
0.34454
0.340256
0.340064
0.344107
0.352536
0.365508
0.383211
0.40583
0.433475
0.466194
0.503737
0.543352
0.570846
0.590267
0.608467
0.625392
0.64093
0.655011
0.667596
0.678669
0.688228
0.696279
0.70283
0.707894
0.71148
0.713597
0.714249
0.713438
0.711163
0.707419
0.702196
0.695483
0.687265
0.677527
0.666252
0.653427
0.639046
0.623112
0.605643
0.58668
0.566293
0.541359
0.504341
0.461947
0.423516
0.390098
0.361655
0.337964
0.318767
0.303805
0.292848
0.285701
0.282207
0.282259
0.285786
0.292755
0.303156
0.31698
0.33419
0.354642
0.377825
0.401655
0.415927
0.423193
0.428859
0.432992
0.435635
0.436897
0.436958
0.436069
0.432311
0.422883
0.409356
0.398525
0.390803
0.387026
0.387198
0.391077
0.397479
0.406269
0.412529
0.414417
0.412672
0.406351
0.398407
0.392793
0.390107
0.391318
0.396613
0.406094
0.419467
0.435681
0.45079
0.459623
0.463789
0.467163
0.469543
0.470774
0.454566
0.454493
0.454392
0.450625
0.442115
0.431358
0.424708
0.422075
0.423874
0.429747
0.439566
0.448767
0.45295
0.452457
0.451675
0.450565
0.449036
0.447056
0.441555
0.427061
0.410492
0.396763
0.386958
0.3816
0.380853
0.384874
0.393805
0.407753
0.426868
0.451294
0.480817
0.514956
0.552124
0.578493
0.596806
0.614113
0.630513
0.645852
0.660013
0.672913
0.684497
0.694729
0.70359
0.711071
0.717168
0.721881
0.725213
0.727165
0.72774
0.726936
0.724753
0.721185
0.716229
0.709878
0.702124
0.692963
0.68239
0.670406
0.657022
0.642256
0.626147
0.608752
0.590159
0.570489
0.544823
0.50709
0.467287
0.431626
0.400883
0.375085
0.354096
0.337699
0.325688
0.317876
0.314118
0.31431
0.31839
0.326328
0.338106
0.353686
0.372948
0.395555
0.420126
0.437817
0.446262
0.452605
0.457706
0.461573
0.464251
0.465835
0.466479
0.466394
0.465849
0.463205
0.456595
0.446793
0.438692
0.435265
0.436359
0.442125
0.448984
0.453406
0.455525
0.455744
0.456113
0.454349
0.45025
0.443707
0.439386
0.439821
0.444795
0.454423
0.467837
0.478767
0.485802
0.489306
0.492466
0.495054
0.496887
0.497836
0.488746
0.488797
0.48896
0.489374
0.487536
0.483081
0.477548
0.474655
0.476711
0.481949
0.486556
0.488831
0.488
0.48728
0.486533
0.48564
0.484542
0.483233
0.481764
0.475893
0.462337
0.44764
0.436296
0.429926
0.428622
0.432662
0.442207
0.457225
0.477787
0.504103
0.534786
0.567005
0.590685
0.607345
0.623381
0.638866
0.653619
0.667489
0.680357
0.692133
0.702749
0.71216
0.720333
0.727247
0.732888
0.737249
0.740325
0.742112
0.74261
0.741815
0.739726
0.736341
0.731657
0.725674
0.718391
0.70981
0.699938
0.688786
0.676378
0.662744
0.647936
0.632023
0.615097
0.597283
0.578715
0.553485
0.517064
0.48004
0.447046
0.418968
0.396009
0.378011
0.364821
0.356267
0.352212
0.35256
0.357255
0.366269
0.379555
0.396999
0.418214
0.44201
0.461485
0.471328
0.477758
0.483259
0.487788
0.491343
0.493959
0.495714
0.49673
0.497179
0.497273
0.497277
0.496621
0.493516
0.489933
0.487766
0.488321
0.49015
0.491707
0.491372
0.490798
0.490917
0.491682
0.493182
0.494089
0.49325
0.492379
0.493112
0.497292
0.50373
0.509976
0.514078
0.516668
0.519301
0.521714
0.523702
0.525114
0.525846
0.522876
0.522988
0.523257
0.523776
0.524682
0.525285
0.524201
0.523405
0.523982
0.525085
0.524771
0.523606
0.522782
0.522131
0.521536
0.520922
0.52026
0.519568
0.518916
0.518415
0.514
0.504426
0.492284
0.485408
0.48357
0.48767
0.497995
0.514051
0.53549
0.562879
0.587679
0.607232
0.621774
0.636243
0.650506
0.664352
0.677608
0.690128
0.701793
0.712511
0.722207
0.730829
0.738334
0.744695
0.749889
0.753903
0.756725
0.75835
0.758771
0.757987
0.755995
0.752794
0.748385
0.74277
0.735955
0.727949
0.718765
0.708424
0.696958
0.684408
0.670832
0.656305
0.640925
0.624812
0.608108
0.590953
0.567508
0.534671
0.500411
0.470065
0.445088
0.425351
0.41088
0.401513
0.397121
0.397625
0.402966
0.413119
0.427964
0.447187
0.46935
0.488533
0.498827
0.504801
0.510184
0.514883
0.518844
0.522053
0.524529
0.52633
0.52755
0.528316
0.528786
0.529139
0.529557
0.530234
0.530316
0.529692
0.529105
0.527809
0.526367
0.525538
0.525217
0.525441
0.526221
0.527589
0.529558
0.532269
0.534614
0.536663
0.539376
0.541998
0.543585
0.545431
0.547472
0.549517
0.551386
0.552927
0.554021
0.554589
0.556893
0.557022
0.557306
0.557783
0.558495
0.559419
0.560494
0.561086
0.560713
0.559719
0.558783
0.557994
0.557389
0.556927
0.556557
0.556251
0.556007
0.555864
0.555904
0.556266
0.557165
0.555931
0.552041
0.546959
0.544731
0.548959
0.560212
0.576788
0.595783
0.613166
0.627468
0.639815
0.652531
0.66535
0.678046
0.690429
0.702333
0.713621
0.724178
0.733909
0.742741
0.750613
0.757481
0.763309
0.768071
0.771747
0.774323
0.77579
0.776139
0.775367
0.773473
0.770455
0.766318
0.761067
0.754711
0.747265
0.738748
0.729188
0.718621
0.707097
0.694677
0.681441
0.667487
0.652931
0.637914
0.622596
0.60715
0.586893
0.559721
0.528223
0.501717
0.480189
0.46443
0.454201
0.449425
0.450062
0.456003
0.467234
0.483396
0.503393
0.519723
0.528986
0.53405
0.538863
0.543294
0.547244
0.550653
0.553494
0.555774
0.557528
0.558824
0.55975
0.560416
0.560934
0.561399
0.561848
0.562128
0.562043
0.561353
0.560476
0.559679
0.559196
0.559092
0.559409
0.560171
0.561393
0.563071
0.565182
0.567542
0.569909
0.571789
0.573387
0.574951
0.576588
0.578272
0.579909
0.581386
0.582597
0.583455
0.583899
0.59078
0.590904
0.591159
0.591557
0.592095
0.592729
0.593345
0.593688
0.593582
0.59315
0.592648
0.592197
0.591855
0.591629
0.591516
0.591517
0.591653
0.591975
0.592569
0.593565
0.59515
0.597582
0.60027
0.601582
0.604105
0.609726
0.618685
0.629711
0.640971
0.650708
0.661011
0.671921
0.683185
0.694578
0.705902
0.716984
0.727675
0.737845
0.747387
0.756208
0.764233
0.771403
0.777668
0.782989
0.787338
0.790691
0.793031
0.794346
0.794628
0.79387
0.792073
0.789237
0.785366
0.780468
0.774558
0.767652
0.759775
0.750958
0.741243
0.730682
0.719339
0.707296
0.694649
0.681512
0.668021
0.654332
0.640628
0.627124
0.611233
0.590511
0.565234
0.542344
0.525693
0.51463
0.509404
0.51013
0.516382
0.528067
0.543917
0.555306
0.561924
0.565664
0.569521
0.573308
0.576884
0.580147
0.58303
0.585498
0.587543
0.589185
0.590466
0.591446
0.592194
0.592781
0.593256
0.593629
0.593839
0.593808
0.593497
0.593064
0.592675
0.592476
0.592546
0.592933
0.593662
0.59474
0.59615
0.597841
0.599695
0.601554
0.60324
0.604775
0.606244
0.607696
0.609119
0.610462
0.611653
0.61262
0.613302
0.613654
0.624544
0.624652
0.624869
0.625191
0.625601
0.626054
0.62647
0.626735
0.626779
0.626651
0.62646
0.626293
0.626203
0.62622
0.62636
0.626647
0.627114
0.627816
0.628832
0.630274
0.632284
0.635031
0.638678
0.64347
0.649056
0.655057
0.661492
0.668415
0.676132
0.684705
0.693942
0.703673
0.71371
0.723875
0.733998
0.74393
0.753536
0.762699
0.771316
0.779302
0.786582
0.793097
0.798797
0.803643
0.807601
0.810648
0.812765
0.813937
0.814155
0.813414
0.811712
0.809052
0.805439
0.800883
0.7954
0.78901
0.781741
0.773626
0.76471
0.755047
0.744702
0.733755
0.7223
0.710448
0.698325
0.686082
0.67389
0.661949
0.650495
0.639012
0.62459
0.608625
0.59317
0.581545
0.5758
0.576517
0.581984
0.588813
0.594613
0.597502
0.599618
0.602219
0.605062
0.607964
0.610787
0.61343
0.615823
0.617924
0.619715
0.621203
0.622409
0.623372
0.624135
0.624739
0.625216
0.625573
0.625792
0.625851
0.625763
0.625606
0.625483
0.625486
0.625682
0.626115
0.626805
0.627756
0.628948
0.630336
0.631843
0.633374
0.634841
0.636229
0.637556
0.638832
0.640047
0.641167
0.642143
0.642928
0.643478
0.643762
0.6582
0.658293
0.658475
0.658738
0.659063
0.659416
0.659747
0.660001
0.660149
0.660214
0.660249
0.660312
0.660446
0.660685
0.661059
0.661598
0.66234
0.663341
0.664669
0.666415
0.668681
0.671579
0.675207
0.679628
0.684722
0.690334
0.696414
0.703014
0.71022
0.718039
0.72638
0.735117
0.744109
0.753212
0.762287
0.771203
0.779842
0.788098
0.795878
0.8031
0.809696
0.815606
0.820782
0.825182
0.828776
0.831536
0.833442
0.834481
0.834641
0.833918
0.83231
0.82982
0.826455
0.822225
0.817149
0.811248
0.804552
0.797096
0.788925
0.780094
0.770667
0.760722
0.750349
0.739652
0.728751
0.717782
0.706902
0.696285
0.68613
0.676653
0.668139
0.65952
0.650286
0.642321
0.637109
0.635107
0.635325
0.635728
0.635173
0.635625
0.636826
0.638532
0.640544
0.642699
0.644871
0.646963
0.648908
0.650659
0.652192
0.653501
0.654597
0.655499
0.656233
0.656825
0.657296
0.657655
0.657903
0.658043
0.658097
0.658116
0.658163
0.658302
0.658583
0.659038
0.659687
0.66053
0.66155
0.662714
0.663968
0.665255
0.666523
0.667745
0.668916
0.67003
0.671071
0.672014
0.672826
0.673472
0.673921
0.674152
0.691763
0.691843
0.691999
0.692222
0.692497
0.6928
0.693101
0.693373
0.693603
0.693805
0.694011
0.694258
0.694582
0.695017
0.695593
0.696343
0.697309
0.698538
0.70009
0.702034
0.704445
0.707397
0.710945
0.715112
0.719852
0.725097
0.730815
0.737008
0.743693
0.750853
0.758421
0.766306
0.774397
0.782578
0.790733
0.798752
0.80653
0.813973
0.820996
0.827526
0.833495
0.83885
0.843541
0.84753
0.850784
0.853276
0.854988
0.855903
0.856011
0.855308
0.853791
0.851463
0.848334
0.844414
0.839723
0.834282
0.828122
0.82128
0.8138
0.805736
0.797151
0.788118
0.778722
0.769061
0.759244
0.749395
0.73965
0.73016
0.721087
0.712599
0.704857
0.697938
0.692058
0.687023
0.682677
0.678967
0.676002
0.674095
0.673132
0.673
0.673527
0.674541
0.675882
0.677416
0.679033
0.680645
0.682186
0.683611
0.684891
0.686014
0.686978
0.687793
0.688473
0.689033
0.689488
0.689849
0.690122
0.690321
0.690468
0.690597
0.690752
0.690977
0.691308
0.691769
0.692375
0.693126
0.694009
0.694999
0.696062
0.697156
0.698248
0.699313
0.700335
0.7013
0.702193
0.702993
0.703673
0.704211
0.704583
0.704773
0.725246
0.725317
0.725456
0.725656
0.725904
0.726186
0.726484
0.726785
0.727085
0.727394
0.727732
0.728127
0.728609
0.729207
0.729951
0.730875
0.732014
0.733413
0.735119
0.737187
0.739669
0.742617
0.746065
0.750024
0.754476
0.759389
0.764738
0.77051
0.776693
0.783256
0.790146
0.797289
0.804595
0.81197
0.819317
0.826541
0.833552
0.840267
0.846609
0.852511
0.85791
0.862756
0.867003
0.870612
0.873553
0.875798
0.87733
0.878131
0.878193
0.87751
0.876081
0.873909
0.871003
0.867376
0.863045
0.858035
0.852375
0.846102
0.83926
0.8319
0.824082
0.815876
0.80736
0.798625
0.789769
0.780902
0.772143
0.763618
0.75546
0.747798
0.74075
0.7344
0.728824
0.72398
0.71981
0.716299
0.713498
0.711496
0.710261
0.709714
0.709743
0.710221
0.711027
0.712051
0.7132
0.714397
0.715581
0.716709
0.717749
0.718684
0.719508
0.720222
0.720832
0.721346
0.721775
0.722129
0.722416
0.722652
0.722855
0.723051
0.723272
0.723547
0.723902
0.724356
0.724918
0.72559
0.726361
0.727213
0.728122
0.72906
0.730001
0.730923
0.731809
0.732643
0.733409
0.73409
0.734665
0.735116
0.735427
0.735585
0.758658
0.758724
0.758853
0.75904
0.759277
0.759555
0.759864
0.760199
0.760559
0.760952
0.761396
0.76191
0.76252
0.76325
0.764131
0.76519
0.766461
0.76798
0.769787
0.771923
0.774429
0.777338
0.780673
0.784443
0.78864
0.793245
0.798239
0.803602
0.809311
0.815333
0.82162
0.828108
0.834724
0.84139
0.848023
0.854543
0.860872
0.866934
0.872663
0.877997
0.882879
0.887262
0.891102
0.894363
0.897016
0.899035
0.900401
0.901099
0.90112
0.900459
0.899114
0.897089
0.894394
0.89104
0.887047
0.882437
0.877241
0.871494
0.865237
0.858521
0.851401
0.843943
0.836219
0.82831
0.820305
0.812301
0.804401
0.79671
0.789337
0.782385
0.775945
0.770087
0.764858
0.76026
0.756281
0.75292
0.750195
0.748129
0.746701
0.745854
0.745509
0.745573
0.745953
0.746562
0.74732
0.748162
0.749033
0.749893
0.750711
0.751466
0.752149
0.752755
0.753285
0.753744
0.754138
0.754474
0.754762
0.755015
0.755249
0.755482
0.755737
0.756036
0.756397
0.756833
0.757352
0.757954
0.758631
0.75937
0.760154
0.760961
0.761773
0.762569
0.763335
0.764054
0.764711
0.765292
0.76578
0.766161
0.766422
0.766555
0.792004
0.792067
0.792192
0.792374
0.79261
0.792893
0.793219
0.793587
0.793998
0.794461
0.794988
0.795597
0.796309
0.797145
0.798131
0.799292
0.800658
0.802259
0.804126
0.806291
0.808785
0.811631
0.814846
0.818436
0.822396
0.826713
0.83137
0.836346
0.841617
0.847147
0.852892
0.858798
0.864804
0.870842
0.876843
0.882737
0.888456
0.893935
0.899113
0.903934
0.908348
0.912309
0.915779
0.918723
0.921113
0.922925
0.92414
0.924745
0.92473
0.92409
0.922826
0.92094
0.918442
0.915344
0.911665
0.907427
0.902659
0.897395
0.891675
0.885545
0.879059
0.872276
0.865262
0.858091
0.850841
0.843598
0.836448
0.829484
0.822793
0.81646
0.810557
0.805144
0.80026
0.795922
0.792135
0.788904
0.786234
0.784126
0.78256
0.781493
0.780865
0.780609
0.780652
0.780922
0.781356
0.781897
0.782497
0.783119
0.783734
0.784321
0.784867
0.785364
0.785811
0.786207
0.786558
0.786867
0.787144
0.787398
0.787642
0.78789
0.788159
0.788463
0.788817
0.789229
0.789704
0.790242
0.790839
0.791483
0.792162
0.792859
0.793559
0.794247
0.794907
0.795526
0.79609
0.796586
0.797002
0.797325
0.797546
0.797659
0.825287
0.825349
0.825473
0.825655
0.825895
0.826188
0.826533
0.826931
0.827386
0.827905
0.828499
0.829182
0.829973
0.83089
0.831955
0.833191
0.834621
0.836271
0.838166
0.840331
0.842789
0.845556
0.848645
0.852058
0.855794
0.85984
0.864181
0.868798
0.873663
0.878745
0.884002
0.889389
0.894851
0.900331
0.90577
0.911106
0.916281
0.921237
0.925919
0.930279
0.934269
0.937849
0.940982
0.943637
0.945788
0.947411
0.948489
0.94901
0.948964
0.948347
0.947159
0.945404
0.94309
0.94023
0.936841
0.932946
0.928572
0.923751
0.918521
0.912926
0.907013
0.900839
0.894463
0.88795
0.881371
0.8748
0.868312
0.861984
0.855891
0.850103
0.844681
0.839673
0.835117
0.831033
0.827434
0.824326
0.82171
0.819581
0.817919
0.816691
0.815851
0.815347
0.815122
0.815118
0.815284
0.815572
0.815939
0.816353
0.816786
0.817217
0.817633
0.818024
0.818386
0.818717
0.819018
0.819294
0.819549
0.819791
0.820031
0.820278
0.820545
0.820842
0.821178
0.82156
0.821992
0.822473
0.822999
0.823561
0.82415
0.824754
0.825358
0.825952
0.826521
0.827053
0.827537
0.827962
0.828316
0.828591
0.828779
0.828875
0.858507
0.85857
0.858695
0.85888
0.859126
0.859431
0.859795
0.86022
0.86071
0.861274
0.861919
0.86266
0.863511
0.864488
0.865609
0.866895
0.868364
0.870038
0.871936
0.874079
0.876482
0.879159
0.882118
0.885359
0.888881
0.892672
0.896718
0.901
0.905493
0.910166
0.914984
0.919904
0.92488
0.929862
0.934799
0.939637
0.944325
0.948812
0.953049
0.956992
0.9606
0.963835
0.966664
0.969057
0.97099
0.972441
0.973396
0.973842
0.973769
0.973175
0.97206
0.970426
0.968284
0.965644
0.962524
0.958945
0.954932
0.950517
0.945734
0.940623
0.93523
0.929604
0.9238
0.917876
0.911893
0.905918
0.900014
0.894249
0.888685
0.883381
0.878388
0.873751
0.8695
0.865659
0.862242
0.859256
0.8567
0.854568
0.852844
0.8515
0.850501
0.849806
0.84937
0.849146
0.849092
0.849167
0.849335
0.849568
0.849839
0.850129
0.850424
0.850714
0.850992
0.851256
0.851505
0.85174
0.851966
0.852188
0.852412
0.852647
0.8529
0.85318
0.853493
0.853843
0.854232
0.85466
0.855122
0.855613
0.856125
0.856647
0.857169
0.857681
0.858171
0.858628
0.859044
0.859407
0.85971
0.859945
0.860105
0.860186
0.891664
0.891728
0.891855
0.892045
0.892298
0.892614
0.892995
0.893442
0.893962
0.89456
0.895245
0.896028
0.896922
0.897941
0.899099
0.900414
0.901902
0.90358
0.905463
0.907566
0.909903
0.912481
0.915307
0.918381
0.921698
0.925248
0.929019
0.932992
0.937143
0.941444
0.945863
0.950363
0.954903
0.959439
0.963926
0.968318
0.97257
0.976635
0.980473
0.984042
0.987304
0.990227
0.99278
0.994936
0.996672
0.997969
0.998812
0.999191
0.999096
0.998525
0.997478
0.995958
0.993975
0.991539
0.988666
0.985377
0.981696
0.97765
0.973274
0.968603
0.963679
0.958547
0.953257
0.947859
0.942409
0.936963
0.931579
0.926313
0.921219
0.916347
0.911742
0.907441
0.903474
0.899862
0.89662
0.893754
0.891266
0.889149
0.887389
0.885965
0.884848
0.884007
0.883404
0.883004
0.88277
0.882668
0.882668
0.882744
0.882872
0.883036
0.88322
0.883415
0.883613
0.88381
0.884004
0.884196
0.884387
0.884581
0.884783
0.884997
0.88523
0.885486
0.88577
0.886086
0.886433
0.886811
0.887217
0.887645
0.888088
0.88854
0.888991
0.889431
0.889853
0.890246
0.890602
0.890913
0.891172
0.891372
0.891509
0.891578
0.924758
0.924823
0.924953
0.925147
0.925407
0.925733
0.926127
0.926593
0.927135
0.927759
0.928473
0.929286
0.930209
0.931253
0.932433
0.933761
0.935251
0.936916
0.938768
0.94082
0.943081
0.945556
0.948249
0.951159
0.954281
0.957605
0.961119
0.964805
0.968642
0.972604
0.976661
0.980782
0.984929
0.989064
0.993148
0.997141
1.001
1.00469
1.00817
1.0114
1.01435
1.01699
1.01929
1.02123
1.02279
1.02395
1.02469
1.02501
1.0249
1.02435
1.02337
1.02195
1.02012
1.01787
1.01522
1.0122
1.00882
1.00511
1.00111
0.996836
0.992336
0.98765
0.98282
0.977894
0.97292
0.967948
0.963026
0.958205
0.953531
0.949047
0.944791
0.940797
0.937092
0.933695
0.93062
0.927875
0.92546
0.923372
0.921598
0.920121
0.91892
0.917969
0.917237
0.916696
0.916315
0.916067
0.915925
0.915866
0.915871
0.915921
0.916005
0.916112
0.916234
0.916367
0.916506
0.916652
0.916805
0.916967
0.91714
0.917328
0.917535
0.917764
0.918017
0.918297
0.918603
0.918935
0.919289
0.91966
0.920044
0.920434
0.920822
0.921201
0.921563
0.9219
0.922206
0.922472
0.922693
0.922864
0.92298
0.923039
0.957787
0.957853
0.957985
0.958184
0.958449
0.958784
0.959189
0.959668
0.960226
0.960868
0.961601
0.962433
0.963373
0.964431
0.965619
0.966946
0.968424
0.970064
0.971875
0.973866
0.976044
0.978413
0.980974
0.983725
0.986661
0.989772
0.993046
0.996468
1.00002
1.00367
1.0074
1.01117
1.01497
1.01874
1.02246
1.0261
1.0296
1.03295
1.0361
1.03903
1.0417
1.04409
1.04617
1.04792
1.04931
1.05035
1.051
1.05127
1.05114
1.05061
1.04969
1.04837
1.04667
1.0446
1.04216
1.03938
1.03628
1.03288
1.02921
1.0253
1.02118
1.0169
1.01248
1.00798
1.00343
0.998881
0.994373
0.98995
0.985652
0.981517
0.977578
0.973865
0.970402
0.967206
0.964292
0.961665
0.959329
0.95728
0.955509
0.954003
0.952743
0.95171
0.950879
0.950227
0.949729
0.94936
0.949099
0.948926
0.948823
0.948774
0.948768
0.948794
0.948846
0.948916
0.949002
0.949102
0.949215
0.949341
0.949483
0.949641
0.949819
0.950017
0.950238
0.950482
0.950748
0.951036
0.951343
0.951664
0.951995
0.95233
0.952663
0.952988
0.953298
0.953587
0.953848
0.954075
0.954264
0.95441
0.954509
0.954559
0.990751
0.990818
0.990951
0.991153
0.991423
0.991763
0.992176
0.992665
0.993234
0.993887
0.994631
0.995472
0.996419
0.997481
0.998664
0.99998
1.00144
1.00304
1.0048
1.00673
1.00882
1.01108
1.01351
1.01611
1.01887
1.02178
1.02483
1.028
1.03129
1.03465
1.03808
1.04155
1.04502
1.04847
1.05187
1.05517
1.05836
1.06141
1.06427
1.06692
1.06934
1.0715
1.07338
1.07495
1.0762
1.07712
1.07769
1.07791
1.07777
1.07727
1.0764
1.07518
1.0736
1.07169
1.06944
1.06688
1.06403
1.06091
1.05755
1.05396
1.05019
1.04627
1.04223
1.03811
1.03394
1.02977
1.02564
1.02157
1.01761
1.01379
1.01014
1.00668
1.00344
1.00044
0.997675
0.995166
0.992911
0.99091
0.989155
0.987637
0.98634
0.985248
0.984343
0.983605
0.983012
0.982545
0.982185
0.981915
0.98172
0.981584
0.981498
0.981452
0.981438
0.98145
0.981484
0.981538
0.981611
0.9817
0.981808
0.981935
0.982081
0.982248
0.982435
0.982644
0.982872
0.983119
0.983382
0.983657
0.98394
0.984227
0.984512
0.98479
0.985055
0.985301
0.985524
0.985718
0.985879
0.986003
0.986087
0.98613
1.02365
1.02371
1.02385
1.02405
1.02433
1.02467
1.02509
1.02558
1.02616
1.02681
1.02756
1.02841
1.02935
1.03041
1.03158
1.03287
1.0343
1.03586
1.03757
1.03942
1.04142
1.04357
1.04588
1.04833
1.05092
1.05364
1.05648
1.05943
1.06247
1.06558
1.06874
1.07192
1.0751
1.07826
1.08136
1.08437
1.08728
1.09004
1.09264
1.09505
1.09724
1.09919
1.10088
1.1023
1.10342
1.10424
1.10474
1.10492
1.10477
1.10429
1.10347
1.10233
1.10087
1.0991
1.09703
1.09468
1.09206
1.08919
1.0861
1.08281
1.07936
1.07576
1.07206
1.06828
1.06446
1.06063
1.05683
1.05308
1.04943
1.0459
1.04251
1.03929
1.03625
1.03342
1.03081
1.02841
1.02624
1.02429
1.02257
1.02105
1.01973
1.0186
1.01764
1.01684
1.01617
1.01562
1.01518
1.01483
1.01456
1.01435
1.01419
1.01408
1.014
1.01396
1.01395
1.01396
1.01399
1.01404
1.01412
1.01421
1.01432
1.01446
1.01461
1.01479
1.01498
1.01519
1.01541
1.01564
1.01588
1.01613
1.01637
1.0166
1.01683
1.01704
1.01723
1.01739
1.01753
1.01763
1.01771
1.01774
1.05648
1.05654
1.05668
1.05688
1.05716
1.0575
1.05792
1.05842
1.05899
1.05965
1.0604
1.06124
1.06218
1.06322
1.06437
1.06564
1.06702
1.06854
1.07018
1.07196
1.07387
1.07592
1.0781
1.08041
1.08284
1.08538
1.08803
1.09077
1.09359
1.09646
1.09936
1.10229
1.10521
1.1081
1.11093
1.11368
1.11633
1.11884
1.12121
1.12339
1.12538
1.12714
1.12867
1.12994
1.13095
1.13168
1.13212
1.13226
1.1321
1.13164
1.13087
1.12981
1.12846
1.12682
1.12491
1.12274
1.12033
1.11769
1.11485
1.11184
1.10866
1.10536
1.10196
1.09849
1.09498
1.09146
1.08796
1.08451
1.08113
1.07785
1.0747
1.0717
1.06886
1.06619
1.06372
1.06143
1.05935
1.05746
1.05577
1.05426
1.05294
1.05178
1.05078
1.04993
1.0492
1.0486
1.04809
1.04767
1.04733
1.04705
1.04683
1.04666
1.04654
1.04644
1.04638
1.04635
1.04635
1.04636
1.0464
1.04646
1.04654
1.04665
1.04677
1.04691
1.04707
1.04724
1.04742
1.04762
1.04782
1.04803
1.04823
1.04843
1.04862
1.0488
1.04896
1.0491
1.04921
1.0493
1.04936
1.04939
1.08924
1.08931
1.08944
1.08965
1.08992
1.09026
1.09068
1.09118
1.09175
1.0924
1.09314
1.09397
1.09489
1.09592
1.09704
1.09828
1.09962
1.10108
1.10267
1.10437
1.10619
1.10813
1.11019
1.11236
1.11464
1.11702
1.11949
1.12204
1.12464
1.1273
1.12998
1.13267
1.13534
1.13799
1.14058
1.14309
1.14551
1.1478
1.14995
1.15193
1.15373
1.15533
1.15671
1.15786
1.15876
1.1594
1.15978
1.15989
1.15973
1.15929
1.15857
1.15758
1.15632
1.15481
1.15304
1.15104
1.14882
1.1464
1.14379
1.14101
1.1381
1.13506
1.13194
1.12875
1.12552
1.12227
1.11904
1.11585
1.11273
1.10969
1.10676
1.10395
1.10129
1.09878
1.09643
1.09425
1.09225
1.09043
1.08878
1.08729
1.08597
1.08481
1.08378
1.08289
1.08213