/*--------------------------------*- C++ -*----------------------------------*\
| =========                 |                                                 |
| \\      /  F ield         | OpenFOAM: The Open Source CFD Toolbox           |
|  \\    /   O peration     | Version:  2406                                  |
|   \\  /    A nd           | Website:  www.openfoam.com                      |
|    \\/     M anipulation  |                                                 |
\*---------------------------------------------------------------------------*/
FoamFile
{
    version     2.0;
    format      ascii;
    arch        "LSB;label=32;scalar=64";
    class       volScalarField;
    location    "7.5";
    object      Da;
}
// * * * * * * * * * * * * * * * * * * * * * * * * * * * * * * * * * * * * * //

dimensions      [0 2 -1 0 0 0 0];

internalField   nonuniform List<scalar> 
14400
(
4.72023e-05
4.7168e-05
4.71157e-05
4.70622e-05
4.70173e-05
4.69846e-05
4.69641e-05
4.69557e-05
4.696e-05
4.69796e-05
4.70184e-05
4.70793e-05
4.71606e-05
4.72482e-05
4.73072e-05
4.72854e-05
4.71523e-05
4.69497e-05
4.67215e-05
4.64865e-05
4.62462e-05
4.59958e-05
4.5732e-05
4.54559e-05
4.51737e-05
4.48949e-05
4.46296e-05
4.43873e-05
4.41755e-05
4.40005e-05
4.38685e-05
4.37876e-05
4.37714e-05
4.38471e-05
4.40796e-05
4.46719e-05
4.66802e-05
6.13803e-05
7.79981e-05
7.8e-05
7.8e-05
7.8e-05
7.8e-05
7.8e-05
7.8e-05
7.8e-05
7.8e-05
7.8e-05
7.8e-05
7.8e-05
7.8e-05
7.8e-05
7.8e-05
7.8e-05
7.8e-05
7.8e-05
7.8e-05
7.8e-05
7.8e-05
7.79344e-05
5.42604e-05
4.6226e-05
4.474e-05
4.42746e-05
4.41223e-05
4.41257e-05
4.42328e-05
4.44236e-05
4.46897e-05
4.50264e-05
4.54267e-05
4.58757e-05
4.63466e-05
4.68004e-05
4.71934e-05
4.74883e-05
4.76635e-05
4.7717e-05
4.76654e-05
4.75408e-05
4.73856e-05
4.72502e-05
4.71954e-05
4.73122e-05
4.78044e-05
4.9469e-05
5.79625e-05
7.79314e-05
6.36231e-05
4.96697e-05
4.73816e-05
4.66282e-05
4.63012e-05
4.61644e-05
4.61338e-05
4.61684e-05
4.62436e-05
4.63421e-05
4.64499e-05
4.65547e-05
4.66449e-05
4.67087e-05
4.67351e-05
4.67161e-05
4.66492e-05
4.65392e-05
4.63957e-05
4.6231e-05
4.60574e-05
4.58871e-05
4.5732e-05
4.56047e-05
4.55198e-05
4.54969e-05
4.55674e-05
4.57936e-05
4.63335e-05
4.77686e-05
5.35865e-05
7.76852e-05
4.7109e-05
4.70488e-05
4.69623e-05
4.6878e-05
4.68095e-05
4.67606e-05
4.6731e-05
4.67199e-05
4.67278e-05
4.67574e-05
4.68133e-05
4.69005e-05
4.70207e-05
4.71627e-05
4.72854e-05
4.73021e-05
4.71278e-05
4.68685e-05
4.65977e-05
4.63382e-05
4.6088e-05
4.58387e-05
4.5584e-05
4.53227e-05
4.50585e-05
4.47988e-05
4.45522e-05
4.43271e-05
4.41309e-05
4.39697e-05
4.38505e-05
4.37822e-05
4.378e-05
4.3874e-05
4.41359e-05
4.47938e-05
4.70994e-05
6.69866e-05
7.79999e-05
7.8e-05
7.8e-05
7.8e-05
7.8e-05
7.8e-05
7.8e-05
7.8e-05
7.8e-05
7.8e-05
7.8e-05
7.8e-05
7.8e-05
7.8e-05
7.8e-05
7.8e-05
7.8e-05
7.8e-05
7.8e-05
7.8e-05
7.8e-05
7.7994e-05
5.9233e-05
4.66618e-05
4.48381e-05
4.43104e-05
4.4132e-05
4.41174e-05
4.42083e-05
4.43815e-05
4.46269e-05
4.49382e-05
4.53075e-05
4.57203e-05
4.61522e-05
4.65685e-05
4.69306e-05
4.72049e-05
4.73716e-05
4.74289e-05
4.73922e-05
4.72914e-05
4.71663e-05
4.7065e-05
4.70472e-05
4.7207e-05
4.77709e-05
4.97428e-05
6.18284e-05
7.79911e-05
6.93907e-05
5.01356e-05
4.74661e-05
4.66136e-05
4.6238e-05
4.60695e-05
4.60147e-05
4.60293e-05
4.60878e-05
4.61731e-05
4.62719e-05
4.63726e-05
4.64634e-05
4.65315e-05
4.65635e-05
4.65484e-05
4.64824e-05
4.63722e-05
4.62302e-05
4.60708e-05
4.59067e-05
4.57496e-05
4.56107e-05
4.55016e-05
4.54365e-05
4.54355e-05
4.55326e-05
4.57989e-05
4.64322e-05
4.83293e-05
5.93228e-05
7.79829e-05
4.70231e-05
4.68929e-05
4.6728e-05
4.65809e-05
4.6468e-05
4.63904e-05
4.63448e-05
4.63288e-05
4.63423e-05
4.63883e-05
4.64735e-05
4.66077e-05
4.68024e-05
4.70627e-05
4.73557e-05
4.75196e-05
4.71837e-05
4.67669e-05
4.63989e-05
4.6089e-05
4.58189e-05
4.557e-05
4.53296e-05
4.50921e-05
4.48575e-05
4.46298e-05
4.4415e-05
4.422e-05
4.40513e-05
4.39156e-05
4.38205e-05
4.3777e-05
4.38039e-05
4.39392e-05
4.42767e-05
4.51257e-05
4.8116e-05
7.50871e-05
7.8e-05
7.8e-05
7.8e-05
7.8e-05
7.8e-05
7.8e-05
7.8e-05
7.8e-05
7.8e-05
7.8e-05
7.8e-05
7.8e-05
7.8e-05
7.8e-05
7.8e-05
7.8e-05
7.8e-05
7.8e-05
7.8e-05
7.8e-05
7.8e-05
7.8e-05
6.82884e-05
4.74081e-05
4.50444e-05
4.43936e-05
4.41592e-05
4.41074e-05
4.41661e-05
4.43062e-05
4.45138e-05
4.478e-05
4.50953e-05
4.54461e-05
4.58114e-05
4.61635e-05
4.64718e-05
4.67096e-05
4.68609e-05
4.69245e-05
4.69138e-05
4.68547e-05
4.67829e-05
4.67427e-05
4.67933e-05
4.70367e-05
4.77369e-05
5.01952e-05
6.86424e-05
7.79999e-05
7.64884e-05
5.15301e-05
4.77792e-05
4.66395e-05
4.61493e-05
4.59167e-05
4.5817e-05
4.57965e-05
4.58269e-05
4.58908e-05
4.59758e-05
4.60713e-05
4.61658e-05
4.62446e-05
4.62893e-05
4.6282e-05
4.62156e-05
4.61013e-05
4.59583e-05
4.58048e-05
4.56546e-05
4.55186e-05
4.54063e-05
4.53283e-05
4.52984e-05
4.53385e-05
4.54884e-05
4.58378e-05
4.66564e-05
4.93122e-05
6.97614e-05
7.8e-05
4.71776e-05
4.68501e-05
4.6524e-05
4.62729e-05
4.60958e-05
4.59797e-05
4.59137e-05
4.58912e-05
4.59108e-05
4.59763e-05
4.6098e-05
4.62952e-05
4.66023e-05
4.70798e-05
4.78277e-05
4.885e-05
4.75959e-05
4.67541e-05
4.61997e-05
4.58088e-05
4.55077e-05
4.52553e-05
4.50286e-05
4.48163e-05
4.46142e-05
4.44227e-05
4.42452e-05
4.40866e-05
4.39527e-05
4.38504e-05
4.3789e-05
4.37824e-05
4.38564e-05
4.40676e-05
4.45816e-05
4.6236e-05
5.7962e-05
7.79925e-05
7.8e-05
7.8e-05
7.8e-05
7.8e-05
7.8e-05
7.8e-05
7.8e-05
7.8e-05
7.8e-05
7.8e-05
7.8e-05
7.8e-05
7.8e-05
7.8e-05
7.8e-05
7.8e-05
7.8e-05
7.8e-05
7.8e-05
7.8e-05
7.8e-05
7.8e-05
7.68896e-05
4.91269e-05
4.55109e-05
4.45675e-05
4.42228e-05
4.41085e-05
4.41189e-05
4.42131e-05
4.43711e-05
4.45806e-05
4.48307e-05
4.51083e-05
4.53965e-05
4.56743e-05
4.59198e-05
4.61143e-05
4.62468e-05
4.63173e-05
4.63372e-05
4.6328e-05
4.6321e-05
4.63581e-05
4.65029e-05
4.68811e-05
4.78551e-05
5.11793e-05
7.58248e-05
7.8e-05
7.79985e-05
6.40833e-05
4.90119e-05
4.68263e-05
4.6101e-05
4.57652e-05
4.56021e-05
4.55365e-05
4.55333e-05
4.55734e-05
4.56453e-05
4.57394e-05
4.58449e-05
4.59455e-05
4.60148e-05
4.60211e-05
4.59475e-05
4.58179e-05
4.5664e-05
4.55103e-05
4.53713e-05
4.52566e-05
4.51744e-05
4.51341e-05
4.51505e-05
4.52499e-05
4.54864e-05
4.59975e-05
4.7293e-05
5.27262e-05
7.76746e-05
7.8e-05
4.84145e-05
4.71927e-05
4.64816e-05
4.60517e-05
4.57823e-05
4.56164e-05
4.55252e-05
4.54946e-05
4.55205e-05
4.56082e-05
4.57743e-05
4.60548e-05
4.65338e-05
4.74498e-05
4.98425e-05
6.05008e-05
4.92823e-05
4.69979e-05
4.60799e-05
4.55647e-05
4.52175e-05
4.49532e-05
4.47343e-05
4.45425e-05
4.43693e-05
4.42117e-05
4.40707e-05
4.39496e-05
4.38535e-05
4.37901e-05
4.37707e-05
4.38146e-05
4.39604e-05
4.42999e-05
4.51293e-05
4.80683e-05
7.42501e-05
7.8e-05
7.8e-05
7.8e-05
7.8e-05
7.8e-05
7.8e-05
7.8e-05
7.8e-05
7.8e-05
7.8e-05
7.8e-05
7.8e-05
7.8e-05
7.8e-05
7.8e-05
7.8e-05
7.8e-05
7.8e-05
7.8e-05
7.8e-05
7.8e-05
7.8e-05
7.8e-05
7.79997e-05
6.46139e-05
4.69823e-05
4.49321e-05
4.43552e-05
4.414e-05
4.40837e-05
4.41207e-05
4.4222e-05
4.43706e-05
4.4554e-05
4.47598e-05
4.49741e-05
4.5182e-05
4.53689e-05
4.55228e-05
4.56375e-05
4.57147e-05
4.57641e-05
4.58043e-05
4.58636e-05
4.59854e-05
4.62484e-05
4.68511e-05
4.86927e-05
6.04414e-05
7.79903e-05
7.8e-05
7.8e-05
7.69307e-05
5.12901e-05
4.73322e-05
4.619e-05
4.56877e-05
4.5435e-05
4.53135e-05
4.5273e-05
4.52904e-05
4.53539e-05
4.54553e-05
4.55859e-05
4.57305e-05
4.58509e-05
4.58858e-05
4.57847e-05
4.56127e-05
4.54259e-05
4.52573e-05
4.51201e-05
4.50216e-05
4.49682e-05
4.49693e-05
4.50428e-05
4.5227e-05
4.56109e-05
4.64713e-05
4.92575e-05
7.13677e-05
7.8e-05
7.8e-05
5.79366e-05
4.88247e-05
4.68132e-05
4.60174e-05
4.55981e-05
4.53602e-05
4.52354e-05
4.5194e-05
4.52273e-05
4.53433e-05
4.55704e-05
4.59766e-05
4.67723e-05
4.89705e-05
6.27384e-05
7.79547e-05
5.69575e-05
4.78634e-05
4.61289e-05
4.54157e-05
4.49965e-05
4.4706e-05
4.44844e-05
4.43045e-05
4.4153e-05
4.40236e-05
4.39152e-05
4.38299e-05
4.37729e-05
4.3753e-05
4.37855e-05
4.38998e-05
4.41648e-05
4.47899e-05
4.68582e-05
6.34283e-05
7.79995e-05
7.8e-05
7.8e-05
7.8e-05
7.8e-05
7.8e-05
7.8e-05
7.8e-05
7.8e-05
7.8e-05
7.8e-05
7.8e-05
7.8e-05
7.8e-05
7.8e-05
7.8e-05
7.8e-05
7.8e-05
7.8e-05
7.8e-05
7.8e-05
7.8e-05
7.8e-05
7.8e-05
7.8e-05
7.73766e-05
4.97577e-05
4.56203e-05
4.46118e-05
4.42332e-05
4.40832e-05
4.40499e-05
4.40886e-05
4.41759e-05
4.42964e-05
4.4438e-05
4.45892e-05
4.4739e-05
4.4878e-05
4.49993e-05
4.51005e-05
4.51844e-05
4.52606e-05
4.53466e-05
4.54708e-05
4.56839e-05
4.60937e-05
4.7016e-05
5.00073e-05
7.36387e-05
7.8e-05
7.8e-05
7.8e-05
7.8e-05
7.1321e-05
4.95166e-05
4.66909e-05
4.57957e-05
4.53858e-05
4.51853e-05
4.50992e-05
4.50945e-05
4.51578e-05
4.52827e-05
4.54661e-05
4.57069e-05
4.59543e-05
4.60834e-05
4.58734e-05
4.55865e-05
4.53164e-05
4.51046e-05
4.49518e-05
4.486e-05
4.48333e-05
4.48822e-05
4.50332e-05
4.53566e-05
4.60539e-05
4.81022e-05
6.12366e-05
7.79963e-05
7.8e-05
7.8e-05
7.79559e-05
5.81118e-05
4.82762e-05
4.63626e-05
4.56291e-05
4.52643e-05
4.50869e-05
4.50296e-05
4.50737e-05
4.52332e-05
4.55645e-05
4.62094e-05
4.77846e-05
5.50393e-05
7.79013e-05
7.8e-05
7.49848e-05
4.97565e-05
4.65041e-05
4.54373e-05
4.48891e-05
4.45448e-05
4.43041e-05
4.41249e-05
4.39864e-05
4.38786e-05
4.37982e-05
4.3747e-05
4.37309e-05
4.3762e-05
4.3863e-05
4.40835e-05
4.45659e-05
4.59268e-05
5.33019e-05
7.79322e-05
7.8e-05
7.8e-05
7.8e-05
7.8e-05
7.8e-05
7.8e-05
7.8e-05
7.8e-05
7.8e-05
7.8e-05
7.8e-05
7.8e-05
7.8e-05
7.8e-05
7.8e-05
7.8e-05
7.8e-05
7.8e-05
7.8e-05
7.8e-05
7.8e-05
7.8e-05
7.8e-05
7.8e-05
7.8e-05
7.8e-05
7.1354e-05
4.78157e-05
4.51998e-05
4.44564e-05
4.4152e-05
4.40248e-05
4.39919e-05
4.40168e-05
4.40792e-05
4.41654e-05
4.42649e-05
4.43693e-05
4.44722e-05
4.457e-05
4.46628e-05
4.47551e-05
4.48574e-05
4.49885e-05
4.51819e-05
4.55068e-05
4.61533e-05
4.80234e-05
6.02117e-05
7.79929e-05
7.8e-05
7.8e-05
7.8e-05
7.8e-05
7.79994e-05
6.49176e-05
4.87815e-05
4.63527e-05
4.55645e-05
4.52249e-05
4.50678e-05
4.50371e-05
4.51144e-05
4.52973e-05
4.55967e-05
4.60992e-05
4.67855e-05
4.75536e-05
4.66137e-05
4.59454e-05
4.54406e-05
4.51228e-05
4.49191e-05
4.48192e-05
4.48197e-05
4.49361e-05
4.5216e-05
4.58374e-05
4.74807e-05
5.52945e-05
7.79371e-05
7.8e-05
7.8e-05
7.8e-05
7.8e-05
7.79274e-05
5.58533e-05
4.78935e-05
4.60982e-05
4.5425e-05
4.51475e-05
4.50619e-05
4.51258e-05
4.53694e-05
4.59497e-05
4.72872e-05
5.19147e-05
7.7488e-05
7.8e-05
7.8e-05
7.79998e-05
6.65332e-05
4.83395e-05
4.58379e-05
4.49663e-05
4.45053e-05
4.4217e-05
4.4023e-05
4.38876e-05
4.37949e-05
4.37393e-05
4.37224e-05
4.37539e-05
4.38538e-05
4.40616e-05
4.44759e-05
4.5467e-05
4.9268e-05
7.72259e-05
7.8e-05
7.8e-05
7.8e-05
7.8e-05
7.8e-05
7.8e-05
7.8e-05
7.8e-05
7.8e-05
7.8e-05
7.8e-05
7.8e-05
7.8e-05
7.8e-05
7.8e-05
7.8e-05
7.8e-05
7.8e-05
7.8e-05
7.8e-05
7.8e-05
7.8e-05
7.8e-05
7.8e-05
7.8e-05
7.8e-05
7.8e-05
7.7999e-05
6.20811e-05
4.7015e-05
4.49837e-05
4.43534e-05
4.40791e-05
4.39546e-05
4.39111e-05
4.3917e-05
4.39542e-05
4.40113e-05
4.40805e-05
4.4157e-05
4.42393e-05
4.43294e-05
4.44338e-05
4.45657e-05
4.47492e-05
4.50311e-05
4.55201e-05
4.6563e-05
5.00606e-05
7.63831e-05
7.8e-05
7.8e-05
7.8e-05
7.8e-05
7.8e-05
7.8e-05
7.79983e-05
6.33044e-05
4.8651e-05
4.62819e-05
4.5607e-05
4.52832e-05
4.52071e-05
4.53338e-05
4.56848e-05
4.62947e-05
4.8008e-05
5.105e-05
6.00804e-05
5.01637e-05
4.76723e-05
4.60942e-05
4.54775e-05
4.51194e-05
4.49803e-05
4.50181e-05
4.52712e-05
4.58583e-05
4.75871e-05
5.46473e-05
7.78682e-05
7.8e-05
7.8e-05
7.8e-05
7.8e-05
7.8e-05
7.8e-05
7.79284e-05
5.75892e-05
4.81852e-05
4.6155e-05
4.56228e-05
4.54684e-05
4.55823e-05
4.60434e-05
4.77105e-05
5.31234e-05
7.74122e-05
7.8e-05
7.8e-05
7.8e-05
7.8e-05
7.79892e-05
5.84264e-05
4.73673e-05
4.5405e-05
4.46571e-05
4.42608e-05
4.40266e-05
4.38816e-05
4.37976e-05
4.3766e-05
4.37896e-05
4.38878e-05
4.41058e-05
4.45434e-05
4.5493e-05
4.86947e-05
7.61789e-05
7.8e-05
7.8e-05
7.8e-05
7.8e-05
7.8e-05
7.8e-05
7.8e-05
7.8e-05
7.8e-05
7.8e-05
7.8e-05
7.8e-05
7.8e-05
7.8e-05
7.8e-05
7.8e-05
7.8e-05
7.8e-05
7.8e-05
7.8e-05
7.8e-05
7.8e-05
7.8e-05
7.8e-05
7.8e-05
7.8e-05
7.8e-05
7.8e-05
7.8e-05
7.79763e-05
5.57148e-05
4.64678e-05
4.48449e-05
4.42769e-05
4.40108e-05
4.388e-05
4.38244e-05
4.38142e-05
4.38339e-05
4.38748e-05
4.39322e-05
4.40057e-05
4.40993e-05
4.42226e-05
4.43947e-05
4.46539e-05
4.50857e-05
4.59491e-05
4.86159e-05
6.98641e-05
7.8e-05
7.8e-05
7.8e-05
7.8e-05
7.8e-05
7.8e-05
7.8e-05
7.8e-05
7.79987e-05
6.75964e-05
4.92301e-05
4.71893e-05
4.60791e-05
4.58717e-05
4.61852e-05
4.74066e-05
4.9292e-05
6.47962e-05
7.74135e-05
7.79939e-05
7.69274e-05
6.19186e-05
4.88768e-05
4.69581e-05
4.58571e-05
4.55841e-05
4.57025e-05
4.64502e-05
4.8389e-05
5.97164e-05
7.79215e-05
7.8e-05
7.8e-05
7.8e-05
7.8e-05
7.8e-05
7.8e-05
7.8e-05
7.8e-05
7.79805e-05
6.58179e-05
4.91909e-05
4.76558e-05
4.7137e-05
4.75197e-05
4.8849e-05
6.16137e-05
7.78258e-05
7.8e-05
7.8e-05
7.8e-05
7.8e-05
7.8e-05
7.8e-05
7.79474e-05
5.52154e-05
4.70233e-05
4.52185e-05
4.45271e-05
4.41981e-05
4.40201e-05
4.39372e-05
4.39356e-05
4.402e-05
4.42402e-05
4.47545e-05
4.6057e-05
4.97752e-05
7.64248e-05
7.8e-05
7.8e-05
7.8e-05
7.8e-05
7.8e-05
7.8e-05
7.8e-05
7.8e-05
7.8e-05
7.8e-05
7.8e-05
7.8e-05
7.8e-05
7.8e-05
7.8e-05
7.8e-05
7.8e-05
7.8e-05
7.8e-05
7.8e-05
7.8e-05
7.8e-05
7.8e-05
7.8e-05
7.8e-05
7.8e-05
7.8e-05
7.8e-05
7.8e-05
7.8e-05
7.8e-05
7.78993e-05
5.31085e-05
4.62834e-05
4.47987e-05
4.42337e-05
4.39612e-05
4.38246e-05
4.376e-05
4.37421e-05
4.37579e-05
4.3801e-05
4.38718e-05
4.39769e-05
4.4132e-05
4.43686e-05
4.4764e-05
4.55336e-05
4.77293e-05
6.21494e-05
7.79984e-05
7.8e-05
7.8e-05
7.8e-05
7.8e-05
7.8e-05
7.8e-05
7.8e-05
7.8e-05
7.8e-05
7.79999e-05
7.48084e-05
5.88295e-05
4.9245e-05
4.84886e-05
4.97391e-05
6.11007e-05
7.53204e-05
7.79996e-05
7.8e-05
7.8e-05
7.8e-05
7.79981e-05
7.37035e-05
5.7344e-05
4.87556e-05
4.79771e-05
4.83508e-05
5.28115e-05
7.06489e-05
7.79943e-05
7.8e-05
7.8e-05
7.8e-05
7.8e-05
7.8e-05
7.8e-05
7.8e-05
7.8e-05
7.8e-05
7.8e-05
7.79998e-05
7.54948e-05
6.46134e-05
5.82221e-05
6.29225e-05
7.38494e-05
7.79977e-05
7.8e-05
7.8e-05
7.8e-05
7.8e-05
7.8e-05
7.8e-05
7.8e-05
7.8e-05
7.79453e-05
5.73673e-05
4.7382e-05
4.53274e-05
4.47356e-05
4.4453e-05
4.43527e-05
4.44159e-05
4.46366e-05
4.51836e-05
4.70763e-05
5.58479e-05
7.75301e-05
7.8e-05
7.8e-05
7.8e-05
7.8e-05
7.8e-05
7.8e-05
7.8e-05
7.8e-05
7.8e-05
7.8e-05
7.8e-05
7.8e-05
7.8e-05
7.8e-05
7.8e-05
7.8e-05
7.8e-05
7.8e-05
7.8e-05
7.8e-05
7.8e-05
7.8e-05
7.8e-05
7.8e-05
7.8e-05
7.8e-05
7.8e-05
7.8e-05
7.8e-05
7.8e-05
7.8e-05
7.8e-05
7.8e-05
7.78685e-05
5.377e-05
4.65175e-05
4.48504e-05
4.42448e-05
4.39702e-05
4.38242e-05
4.37591e-05
4.37481e-05
4.37799e-05
4.38548e-05
4.39849e-05
4.41999e-05
4.45619e-05
4.52857e-05
4.72704e-05
5.80901e-05
7.7988e-05
7.8e-05
7.8e-05
7.8e-05
7.8e-05
7.8e-05
7.8e-05
7.8e-05
7.8e-05
7.8e-05
7.8e-05
7.8e-05
7.8e-05
7.79909e-05
7.61268e-05
7.33705e-05
7.68262e-05
7.79968e-05
7.8e-05
7.8e-05
7.8e-05
7.8e-05
7.8e-05
7.8e-05
7.8e-05
7.79832e-05
7.50292e-05
7.01707e-05
7.31641e-05
7.78525e-05
7.8e-05
7.8e-05
7.8e-05
7.8e-05
7.8e-05
7.8e-05
7.8e-05
7.8e-05
7.8e-05
7.8e-05
7.8e-05
7.8e-05
7.8e-05
7.8e-05
7.79995e-05
7.79866e-05
7.79987e-05
7.8e-05
7.8e-05
7.8e-05
7.8e-05
7.8e-05
7.8e-05
7.8e-05
7.8e-05
7.8e-05
7.8e-05
7.8e-05
7.79871e-05
6.59774e-05
4.8387e-05
4.67312e-05
4.58518e-05
4.56202e-05
4.60295e-05
4.68848e-05
4.89228e-05
6.8171e-05
7.79823e-05
7.8e-05
7.8e-05
7.8e-05
7.8e-05
7.8e-05
7.8e-05
7.8e-05
7.8e-05
7.8e-05
7.8e-05
7.8e-05
7.8e-05
7.8e-05
7.8e-05
7.8e-05
7.8e-05
7.8e-05
7.8e-05
7.8e-05
7.8e-05
7.8e-05
7.8e-05
7.8e-05
7.8e-05
7.8e-05
7.8e-05
7.8e-05
7.8e-05
7.8e-05
7.8e-05
7.8e-05
7.8e-05
7.8e-05
7.8e-05
7.8e-05
7.79403e-05
5.81827e-05
4.70952e-05
4.50323e-05
4.44237e-05
4.40932e-05
4.39472e-05
4.38988e-05
4.39196e-05
4.40103e-05
4.41952e-05
4.45532e-05
4.52424e-05
4.73411e-05
5.84971e-05
7.79822e-05
7.8e-05
7.8e-05
7.8e-05
7.8e-05
7.8e-05
7.8e-05
7.8e-05
7.8e-05
7.8e-05
7.8e-05
7.8e-05
7.8e-05
7.8e-05
7.8e-05
7.8e-05
7.8e-05
7.8e-05
7.8e-05
7.8e-05
7.8e-05
7.8e-05
7.8e-05
7.8e-05
7.8e-05
7.8e-05
7.8e-05
7.8e-05
7.8e-05
7.8e-05
7.8e-05
7.8e-05
7.8e-05
7.8e-05
7.8e-05
7.8e-05
7.8e-05
7.8e-05
7.8e-05
7.8e-05
7.8e-05
7.8e-05
7.8e-05
7.8e-05
7.8e-05
7.8e-05
7.8e-05
7.8e-05
7.8e-05
7.8e-05
7.8e-05
7.8e-05
7.8e-05
7.8e-05
7.8e-05
7.8e-05
7.8e-05
7.8e-05
7.8e-05
7.8e-05
7.79999e-05
7.5523e-05
6.3316e-05
5.35644e-05
5.17455e-05
5.65937e-05
6.72596e-05
7.71482e-05
7.8e-05
7.8e-05
7.8e-05
7.8e-05
7.8e-05
7.8e-05
7.8e-05
7.8e-05
7.8e-05
7.8e-05
7.8e-05
7.8e-05
7.8e-05
7.8e-05
7.8e-05
7.8e-05
7.8e-05
7.8e-05
7.8e-05
7.8e-05
7.8e-05
7.8e-05
7.8e-05
7.8e-05
7.8e-05
7.8e-05
7.8e-05
7.8e-05
7.8e-05
7.8e-05
7.8e-05
7.8e-05
7.8e-05
7.8e-05
7.8e-05
7.8e-05
7.8e-05
7.8e-05
7.79938e-05
6.69514e-05
4.80275e-05
4.60497e-05
4.48626e-05
4.45162e-05
4.43869e-05
4.43891e-05
4.4529e-05
4.48628e-05
4.5783e-05
4.79478e-05
6.39984e-05
7.79922e-05
7.8e-05
7.8e-05
7.8e-05
7.8e-05
7.8e-05
7.8e-05
7.8e-05
7.8e-05
7.8e-05
7.8e-05
7.8e-05
7.8e-05
7.8e-05
7.8e-05
7.8e-05
7.8e-05
7.8e-05
7.8e-05
7.8e-05
7.8e-05
7.8e-05
7.8e-05
7.8e-05
7.8e-05
7.8e-05
7.8e-05
7.8e-05
7.8e-05
7.8e-05
7.8e-05
7.8e-05
7.8e-05
7.8e-05
7.8e-05
7.8e-05
7.8e-05
7.8e-05
7.8e-05
7.8e-05
7.8e-05
7.8e-05
7.8e-05
7.8e-05
7.8e-05
7.8e-05
7.8e-05
7.8e-05
7.8e-05
7.8e-05
7.8e-05
7.8e-05
7.8e-05
7.8e-05
7.8e-05
7.8e-05
7.8e-05
7.8e-05
7.8e-05
7.8e-05
7.8e-05
7.8e-05
7.8e-05
7.79994e-05
7.79292e-05
7.78282e-05
7.79845e-05
7.79999e-05
7.8e-05
7.8e-05
7.8e-05
7.8e-05
7.8e-05
7.8e-05
7.8e-05
7.8e-05
7.8e-05
7.8e-05
7.8e-05
7.8e-05
7.8e-05
7.8e-05
7.8e-05
7.8e-05
7.8e-05
7.8e-05
7.8e-05
7.8e-05
7.8e-05
7.8e-05
7.8e-05
7.8e-05
7.8e-05
7.8e-05
7.8e-05
7.8e-05
7.8e-05
7.8e-05
7.8e-05
7.8e-05
7.8e-05
7.8e-05
7.8e-05
7.8e-05
7.8e-05
7.8e-05
7.8e-05
7.8e-05
7.79999e-05
7.54554e-05
5.86946e-05
4.77345e-05
4.66503e-05
4.61318e-05
4.60361e-05
4.64518e-05
4.74041e-05
5.29558e-05
7.30079e-05
7.79996e-05
7.8e-05
7.8e-05
7.8e-05
7.8e-05
7.8e-05
7.8e-05
7.8e-05
7.8e-05
7.8e-05
7.8e-05
7.8e-05
7.8e-05
7.8e-05
7.8e-05
7.8e-05
7.8e-05
7.8e-05
7.8e-05
7.8e-05
7.8e-05
7.8e-05
7.8e-05
7.8e-05
7.8e-05
7.8e-05
7.8e-05
7.8e-05
7.8e-05
7.8e-05
7.8e-05
7.8e-05
7.8e-05
7.8e-05
7.8e-05
7.8e-05
7.8e-05
7.8e-05
7.8e-05
7.8e-05
7.8e-05
7.8e-05
7.8e-05
7.8e-05
7.8e-05
7.8e-05
7.8e-05
7.8e-05
7.8e-05
7.8e-05
7.8e-05
7.8e-05
7.8e-05
7.8e-05
7.8e-05
7.8e-05
7.8e-05
7.8e-05
7.8e-05
7.8e-05
7.8e-05
7.8e-05
7.8e-05
7.8e-05
7.8e-05
7.8e-05
7.8e-05
7.8e-05
7.8e-05
7.8e-05
7.8e-05
7.8e-05
7.8e-05
7.8e-05
7.8e-05
7.8e-05
7.8e-05
7.8e-05
7.8e-05
7.8e-05
7.8e-05
7.8e-05
7.8e-05
7.8e-05
7.8e-05
7.8e-05
7.8e-05
7.8e-05
7.8e-05
7.8e-05
7.8e-05
7.8e-05
7.8e-05
7.8e-05
7.8e-05
7.8e-05
7.8e-05
7.8e-05
7.8e-05
7.8e-05
7.8e-05
7.8e-05
7.8e-05
7.8e-05
7.8e-05
7.8e-05
7.8e-05
7.8e-05
7.8e-05
7.8e-05
7.8e-05
7.79958e-05
7.48721e-05
6.55073e-05
5.83828e-05
5.6768e-05
6.15738e-05
7.13856e-05
7.7922e-05
7.8e-05
7.8e-05
7.8e-05
7.8e-05
7.8e-05
7.8e-05
7.8e-05
7.8e-05
7.8e-05
7.8e-05
7.8e-05
7.8e-05
7.8e-05
7.8e-05
7.8e-05
7.8e-05
7.8e-05
7.8e-05
7.8e-05
7.8e-05
7.8e-05
7.8e-05
7.8e-05
7.8e-05
7.8e-05
7.8e-05
7.8e-05
7.8e-05
7.8e-05
7.8e-05
7.8e-05
7.8e-05
7.8e-05
7.8e-05
7.8e-05
7.8e-05
7.8e-05
7.8e-05
7.8e-05
7.8e-05
7.8e-05
7.8e-05
7.8e-05
7.8e-05
7.8e-05
7.8e-05
7.8e-05
7.8e-05
7.8e-05
7.8e-05
7.8e-05
7.8e-05
7.8e-05
7.8e-05
7.8e-05
7.8e-05
7.8e-05
7.8e-05
7.8e-05
7.8e-05
7.8e-05
7.8e-05
7.8e-05
7.8e-05
7.8e-05
7.8e-05
7.8e-05
7.8e-05
7.8e-05
7.8e-05
7.8e-05
7.8e-05
7.8e-05
7.8e-05
7.8e-05
7.8e-05
7.8e-05
7.8e-05
7.8e-05
7.8e-05
7.8e-05
7.8e-05
7.8e-05
7.8e-05
7.8e-05
7.8e-05
7.8e-05
7.8e-05
7.8e-05
7.8e-05
7.8e-05
7.8e-05
7.8e-05
7.8e-05
7.8e-05
7.8e-05
7.8e-05
7.8e-05
7.8e-05
7.8e-05
7.8e-05
7.8e-05
7.8e-05
7.8e-05
7.8e-05
7.8e-05
7.8e-05
7.8e-05
7.8e-05
7.8e-05
7.8e-05
7.8e-05
7.8e-05
7.8e-05
7.79998e-05
7.79936e-05
7.7986e-05
7.79986e-05
7.8e-05
7.8e-05
7.8e-05
7.8e-05
7.8e-05
7.8e-05
7.8e-05
7.8e-05
7.8e-05
7.8e-05
7.8e-05
7.8e-05
7.8e-05
7.8e-05
7.8e-05
7.8e-05
7.8e-05
7.8e-05
7.8e-05
7.8e-05
7.8e-05
7.8e-05
7.8e-05
7.8e-05
7.8e-05
7.8e-05
7.8e-05
7.8e-05
7.8e-05
7.8e-05
7.8e-05
7.8e-05
7.8e-05
7.8e-05
7.8e-05
7.8e-05
7.8e-05
7.8e-05
7.8e-05
7.8e-05
7.8e-05
7.8e-05
7.8e-05
7.8e-05
7.8e-05
7.8e-05
7.8e-05
7.8e-05
7.8e-05
7.8e-05
7.8e-05
7.8e-05
7.8e-05
7.8e-05
7.8e-05
7.8e-05
7.8e-05
7.8e-05
7.8e-05
7.8e-05
7.8e-05
7.8e-05
7.8e-05
7.8e-05
7.8e-05
7.8e-05
7.8e-05
7.8e-05
7.8e-05
7.8e-05
7.8e-05
7.8e-05
7.8e-05
7.8e-05
7.8e-05
7.8e-05
7.8e-05
7.8e-05
7.8e-05
7.8e-05
7.8e-05
7.8e-05
7.8e-05
7.8e-05
7.8e-05
7.8e-05
7.8e-05
7.8e-05
7.8e-05
7.8e-05
7.8e-05
7.8e-05
7.8e-05
7.8e-05
7.8e-05
7.8e-05
7.8e-05
7.8e-05
7.8e-05
7.8e-05
7.8e-05
7.8e-05
7.8e-05
7.8e-05
7.8e-05
7.8e-05
7.8e-05
7.8e-05
7.8e-05
7.8e-05
7.8e-05
7.8e-05
7.8e-05
7.8e-05
7.8e-05
7.8e-05
7.8e-05
7.8e-05
7.8e-05
7.8e-05
7.8e-05
7.8e-05
7.8e-05
7.8e-05
7.8e-05
7.8e-05
7.8e-05
7.8e-05
7.8e-05
7.8e-05
7.8e-05
7.8e-05
7.8e-05
7.8e-05
7.8e-05
7.8e-05
7.8e-05
7.8e-05
7.8e-05
7.8e-05
7.8e-05
7.8e-05
7.8e-05
7.8e-05
7.8e-05
7.8e-05
7.8e-05
7.8e-05
7.8e-05
7.8e-05
7.8e-05
7.8e-05
7.8e-05
7.8e-05
7.8e-05
7.8e-05
7.8e-05
7.8e-05
7.8e-05
7.8e-05
7.8e-05
7.8e-05
7.8e-05
7.8e-05
7.8e-05
7.8e-05
7.8e-05
7.8e-05
7.8e-05
7.8e-05
7.8e-05
7.8e-05
7.8e-05
7.8e-05
7.8e-05
7.8e-05
7.8e-05
7.8e-05
7.8e-05
7.8e-05
7.8e-05
7.8e-05
7.8e-05
7.8e-05
7.8e-05
7.8e-05
7.8e-05
7.8e-05
7.8e-05
7.8e-05
7.8e-05
7.8e-05
7.8e-05
7.8e-05
7.8e-05
7.8e-05
7.8e-05
7.8e-05
7.8e-05
7.8e-05
7.8e-05
7.8e-05
7.8e-05
7.8e-05
7.8e-05
7.8e-05
7.8e-05
7.8e-05
7.8e-05
7.8e-05
7.8e-05
7.8e-05
7.8e-05
7.8e-05
7.8e-05
7.8e-05
7.8e-05
7.8e-05
7.8e-05
7.8e-05
7.8e-05
7.8e-05
7.8e-05
7.8e-05
7.8e-05
7.8e-05
7.8e-05
7.8e-05
7.8e-05
7.8e-05
7.8e-05
7.8e-05
7.8e-05
7.8e-05
7.8e-05
7.8e-05
7.8e-05
7.8e-05
7.8e-05
7.8e-05
7.8e-05
7.8e-05
7.8e-05
7.8e-05
7.8e-05
7.8e-05
7.8e-05
7.8e-05
7.8e-05
7.8e-05
7.8e-05
7.8e-05
7.8e-05
7.8e-05
7.8e-05
7.8e-05
7.8e-05
7.8e-05
7.8e-05
7.8e-05
7.8e-05
7.8e-05
7.8e-05
7.8e-05
7.8e-05
7.8e-05
7.8e-05
7.8e-05
7.8e-05
7.8e-05
7.8e-05
7.8e-05
7.8e-05
7.8e-05
7.8e-05
7.8e-05
7.8e-05
7.8e-05
7.8e-05
7.8e-05
7.8e-05
7.8e-05
7.8e-05
7.8e-05
7.8e-05
7.8e-05
7.8e-05
7.8e-05
7.8e-05
7.8e-05
7.8e-05
7.8e-05
7.8e-05
7.8e-05
7.8e-05
7.8e-05
7.8e-05
7.8e-05
7.8e-05
7.8e-05
7.8e-05
7.8e-05
7.8e-05
7.8e-05
7.8e-05
7.8e-05
7.8e-05
7.8e-05
7.8e-05
7.8e-05
7.8e-05
7.8e-05
7.8e-05
7.8e-05
7.8e-05
7.8e-05
7.8e-05
7.8e-05
7.8e-05
7.8e-05
7.8e-05
7.8e-05
7.8e-05
7.8e-05
7.8e-05
7.8e-05
7.8e-05
7.8e-05
7.8e-05
7.8e-05
7.8e-05
7.8e-05
7.8e-05
7.8e-05
7.8e-05
7.8e-05
7.8e-05
7.8e-05
7.8e-05
7.8e-05
7.8e-05
7.8e-05
7.8e-05
7.8e-05
7.8e-05
7.8e-05
7.8e-05
7.8e-05
7.8e-05
7.8e-05
7.8e-05
7.8e-05
7.8e-05
7.8e-05
7.8e-05
7.8e-05
7.8e-05
7.8e-05
7.8e-05
7.8e-05
7.8e-05
7.8e-05
7.8e-05
7.8e-05
7.8e-05
7.8e-05
7.8e-05
7.8e-05
7.8e-05
7.8e-05
7.8e-05
7.8e-05
7.8e-05
7.8e-05
7.8e-05
7.8e-05
7.8e-05
7.8e-05
7.8e-05
7.8e-05
7.8e-05
7.8e-05
7.8e-05
7.8e-05
7.8e-05
7.8e-05
7.8e-05
7.8e-05
7.8e-05
7.8e-05
7.8e-05
7.8e-05
7.8e-05
7.8e-05
7.8e-05
7.8e-05
7.8e-05
7.8e-05
7.8e-05
7.8e-05
7.8e-05
7.8e-05
7.8e-05
7.8e-05
7.8e-05
7.8e-05
7.8e-05
7.8e-05
7.8e-05
7.8e-05
7.8e-05
7.8e-05
7.8e-05
7.8e-05
7.8e-05
7.8e-05
7.8e-05
7.8e-05
7.8e-05
7.8e-05
7.8e-05
7.8e-05
7.8e-05
7.8e-05
7.8e-05
7.8e-05
7.8e-05
7.8e-05
7.8e-05
7.8e-05
7.8e-05
7.8e-05
7.8e-05
7.8e-05
7.8e-05
7.8e-05
7.8e-05
7.8e-05
7.8e-05
7.8e-05
7.8e-05
7.8e-05
7.8e-05
7.8e-05
7.8e-05
7.8e-05
7.8e-05
7.8e-05
7.8e-05
7.8e-05
7.8e-05
7.8e-05
7.8e-05
7.8e-05
7.8e-05
7.8e-05
7.8e-05
7.8e-05
7.8e-05
7.8e-05
7.8e-05
7.8e-05
7.8e-05
7.8e-05
7.8e-05
7.8e-05
7.8e-05
7.8e-05
7.8e-05
7.8e-05
7.8e-05
7.8e-05
7.8e-05
7.8e-05
7.8e-05
7.8e-05
7.8e-05
7.8e-05
7.8e-05
7.8e-05
7.8e-05
7.8e-05
7.8e-05
7.8e-05
7.8e-05
7.8e-05
7.8e-05
7.8e-05
7.8e-05
7.8e-05
7.8e-05
7.8e-05
7.8e-05
7.8e-05
7.8e-05
7.8e-05
7.8e-05
7.8e-05
7.8e-05
7.8e-05
7.8e-05
7.8e-05
7.8e-05
7.8e-05
7.8e-05
7.8e-05
7.8e-05
7.8e-05
7.8e-05
7.8e-05
7.8e-05
7.8e-05
7.8e-05
7.8e-05
7.8e-05
7.8e-05
7.8e-05
7.8e-05
7.8e-05
7.8e-05
7.8e-05
7.8e-05
7.8e-05
7.8e-05
7.8e-05
7.8e-05
7.8e-05
7.8e-05
7.8e-05
7.8e-05
7.8e-05
7.8e-05
7.8e-05
7.8e-05
7.8e-05
7.8e-05
7.8e-05
7.8e-05
7.8e-05
7.8e-05
7.8e-05
7.8e-05
7.8e-05
7.8e-05
7.8e-05
7.8e-05
7.8e-05
7.8e-05
7.8e-05
7.8e-05
7.8e-05
7.8e-05
7.8e-05
7.8e-05
7.8e-05
7.8e-05
7.8e-05
7.8e-05
7.8e-05
7.8e-05
7.8e-05
7.8e-05
7.8e-05
7.8e-05
7.8e-05
7.8e-05
7.8e-05
7.8e-05
7.8e-05
7.8e-05
7.8e-05
7.8e-05
7.8e-05
7.8e-05
7.8e-05
7.8e-05
7.8e-05
7.8e-05
7.8e-05
7.8e-05
7.8e-05
7.8e-05
7.8e-05
7.8e-05
7.8e-05
7.8e-05
7.8e-05
7.8e-05
7.8e-05
7.8e-05
7.8e-05
7.8e-05
7.8e-05
7.8e-05
7.8e-05
7.8e-05
7.8e-05
7.8e-05
7.8e-05
7.8e-05
7.8e-05
7.8e-05
7.8e-05
7.8e-05
7.8e-05
7.8e-05
7.8e-05
7.8e-05
7.8e-05
7.8e-05
7.8e-05
7.8e-05
7.8e-05
7.8e-05
7.8e-05
7.8e-05
7.8e-05
7.8e-05
7.8e-05
7.8e-05
7.8e-05
7.8e-05
7.8e-05
7.8e-05
7.8e-05
7.8e-05
7.8e-05
7.8e-05
7.8e-05
7.8e-05
7.8e-05
7.8e-05
7.8e-05
7.8e-05
7.8e-05
7.8e-05
7.8e-05
7.8e-05
7.8e-05
7.8e-05
7.8e-05
7.8e-05
7.8e-05
7.8e-05
7.8e-05
7.8e-05
7.8e-05
7.8e-05
7.8e-05
7.8e-05
7.8e-05
7.8e-05
7.8e-05
7.8e-05
7.8e-05
7.8e-05
7.8e-05
7.8e-05
7.8e-05
7.8e-05
7.8e-05
7.8e-05
7.8e-05
7.8e-05
7.8e-05
7.8e-05
7.8e-05
7.8e-05
7.8e-05
7.8e-05
7.8e-05
7.8e-05
7.8e-05
7.8e-05
7.8e-05
7.8e-05
7.8e-05
7.8e-05
7.8e-05
7.8e-05
7.8e-05
7.8e-05
7.8e-05
7.8e-05
7.8e-05
7.8e-05
7.8e-05
7.8e-05
7.8e-05
7.8e-05
7.8e-05
7.8e-05
7.8e-05
7.8e-05
7.8e-05
7.8e-05
7.8e-05
7.8e-05
7.8e-05
7.8e-05
7.8e-05
7.8e-05
7.8e-05
7.8e-05
7.8e-05
7.8e-05
7.8e-05
7.8e-05
7.8e-05
7.8e-05
7.8e-05
7.8e-05
7.8e-05
7.8e-05
7.8e-05
7.8e-05
7.8e-05
7.8e-05
7.8e-05
7.8e-05
7.8e-05
7.8e-05
7.8e-05
7.8e-05
7.8e-05
7.8e-05
7.8e-05
7.8e-05
7.8e-05
7.8e-05
7.8e-05
7.8e-05
7.8e-05
7.8e-05
7.8e-05
7.8e-05
7.8e-05
7.8e-05
7.8e-05
7.8e-05
7.8e-05
7.8e-05
7.8e-05
7.8e-05
7.8e-05
7.8e-05
7.8e-05
7.8e-05
7.8e-05
7.8e-05
7.8e-05
7.8e-05
7.8e-05
7.8e-05
7.8e-05
7.8e-05
7.8e-05
7.8e-05
7.8e-05
7.8e-05
7.8e-05
7.8e-05
7.8e-05
7.8e-05
7.8e-05
7.8e-05
7.8e-05
7.8e-05
7.8e-05
7.8e-05
7.8e-05
7.8e-05
7.8e-05
7.8e-05
7.8e-05
7.8e-05
7.8e-05
7.8e-05
7.8e-05
7.8e-05
7.8e-05
7.8e-05
7.8e-05
7.8e-05
7.8e-05
7.8e-05
7.8e-05
7.8e-05
7.8e-05
7.8e-05
7.8e-05
7.8e-05
7.8e-05
7.8e-05
7.8e-05
7.8e-05
7.8e-05
7.8e-05
7.8e-05
7.8e-05
7.8e-05
7.8e-05
7.8e-05
7.8e-05
7.8e-05
7.8e-05
7.8e-05
7.8e-05
7.8e-05
7.8e-05
7.8e-05
7.8e-05
7.8e-05
7.8e-05
7.8e-05
7.8e-05
7.8e-05
7.8e-05
7.8e-05
7.8e-05
7.8e-05
7.8e-05
7.8e-05
7.8e-05
7.8e-05
7.8e-05
7.8e-05
7.8e-05
7.8e-05
7.8e-05
7.8e-05
7.8e-05
7.8e-05
7.8e-05
7.8e-05
7.8e-05
7.8e-05
7.8e-05
7.8e-05
7.8e-05
7.8e-05
7.8e-05
7.8e-05
7.8e-05
7.8e-05
7.8e-05
7.8e-05
7.8e-05
7.8e-05
7.8e-05
7.8e-05
7.8e-05
7.8e-05
7.8e-05
7.8e-05
7.8e-05
7.8e-05
7.8e-05
7.8e-05
7.8e-05
7.8e-05
7.8e-05
7.8e-05
7.8e-05
7.8e-05
7.8e-05
7.8e-05
7.8e-05
7.8e-05
7.8e-05
7.8e-05
7.8e-05
7.8e-05
7.8e-05
7.8e-05
7.8e-05
7.8e-05
7.8e-05
7.8e-05
7.8e-05
7.8e-05
7.8e-05
7.8e-05
7.8e-05
7.8e-05
7.8e-05
7.8e-05
7.8e-05
7.8e-05
7.8e-05
7.8e-05
7.8e-05
7.8e-05
7.8e-05
7.8e-05
7.8e-05
7.8e-05
7.8e-05
7.8e-05
7.8e-05
7.8e-05
7.8e-05
7.8e-05
7.8e-05
7.8e-05
7.8e-05
7.8e-05
7.8e-05
7.8e-05
7.8e-05
7.8e-05
7.8e-05
7.8e-05
7.8e-05
7.8e-05
7.8e-05
7.8e-05
7.8e-05
7.8e-05
7.8e-05
7.8e-05
7.8e-05
7.8e-05
7.8e-05
7.8e-05
7.8e-05
7.8e-05
7.8e-05
7.8e-05
7.8e-05
7.8e-05
7.8e-05
7.8e-05
7.8e-05
7.8e-05
7.8e-05
7.8e-05
7.8e-05
7.8e-05
7.8e-05
7.8e-05
7.8e-05
7.8e-05
7.8e-05
7.8e-05
7.8e-05
7.8e-05
7.8e-05
7.8e-05
7.8e-05
7.8e-05
7.8e-05
7.8e-05
7.8e-05
7.8e-05
7.8e-05
7.8e-05
7.8e-05
7.8e-05
7.8e-05
7.8e-05
7.8e-05
7.8e-05
7.8e-05
7.8e-05
7.8e-05
7.8e-05
7.8e-05
7.8e-05
7.8e-05
7.8e-05
7.8e-05
7.8e-05
7.8e-05
7.8e-05
7.8e-05
7.8e-05
7.8e-05
7.8e-05
7.8e-05
7.8e-05
7.8e-05
7.8e-05
7.8e-05
7.8e-05
7.8e-05
7.8e-05
7.8e-05
7.8e-05
7.8e-05
7.8e-05
7.8e-05
7.8e-05
7.8e-05
7.8e-05
7.8e-05
7.8e-05
7.8e-05
7.8e-05
7.8e-05
7.8e-05
7.8e-05
7.8e-05
7.8e-05
7.8e-05
7.8e-05
7.8e-05
7.8e-05
7.8e-05
7.8e-05
7.8e-05
7.8e-05
7.8e-05
7.8e-05
7.8e-05
7.8e-05
7.8e-05
7.8e-05
7.8e-05
7.8e-05
7.8e-05
7.8e-05
7.8e-05
7.8e-05
7.8e-05
7.8e-05
7.8e-05
7.8e-05
7.8e-05
7.8e-05
7.8e-05
7.8e-05
7.8e-05
7.8e-05
7.8e-05
7.8e-05
7.8e-05
7.8e-05
7.8e-05
7.8e-05
7.8e-05
7.8e-05
7.8e-05
7.8e-05
7.8e-05
7.8e-05
7.8e-05
7.8e-05
7.8e-05
7.8e-05
7.8e-05
7.8e-05
7.8e-05
7.8e-05
7.8e-05
7.8e-05
7.8e-05
7.8e-05
7.8e-05
7.8e-05
7.8e-05
7.8e-05
7.8e-05
7.8e-05
7.8e-05
7.8e-05
7.8e-05
7.8e-05
7.8e-05
7.8e-05
7.8e-05
7.8e-05
7.8e-05
7.8e-05
7.8e-05
7.8e-05
7.8e-05
7.8e-05
7.8e-05
7.8e-05
7.8e-05
7.8e-05
7.8e-05
7.8e-05
7.8e-05
7.8e-05
7.8e-05
7.8e-05
7.8e-05
7.8e-05
7.8e-05
7.8e-05
7.8e-05
7.8e-05
7.8e-05
7.8e-05
7.8e-05
7.8e-05
7.8e-05
7.8e-05
7.8e-05
7.8e-05
7.8e-05
7.8e-05
7.8e-05
7.8e-05
7.8e-05
7.8e-05
7.8e-05
7.8e-05
7.8e-05
7.8e-05
7.8e-05
7.8e-05
7.8e-05
7.8e-05
7.8e-05
7.8e-05
7.8e-05
7.8e-05
7.8e-05
7.8e-05
7.8e-05
7.8e-05
7.8e-05
7.8e-05
7.8e-05
7.8e-05
7.8e-05
7.8e-05
7.8e-05
7.8e-05
7.8e-05
7.8e-05
7.8e-05
7.8e-05
7.8e-05
7.8e-05
7.8e-05
7.8e-05
7.8e-05
7.8e-05
7.8e-05
7.8e-05
7.8e-05
7.8e-05
7.8e-05
7.8e-05
7.8e-05
7.8e-05
7.8e-05
7.8e-05
7.8e-05
7.8e-05
7.8e-05
7.8e-05
7.8e-05
7.8e-05
7.8e-05
7.8e-05
7.8e-05
7.8e-05
7.8e-05
7.8e-05
7.8e-05
7.8e-05
7.8e-05
7.8e-05
7.8e-05
7.8e-05
7.8e-05
7.8e-05
7.8e-05
7.8e-05
7.8e-05
7.8e-05
7.8e-05
7.8e-05
7.8e-05
7.8e-05
7.8e-05
7.8e-05
7.8e-05
7.8e-05
7.8e-05
7.8e-05
7.8e-05
7.8e-05
7.8e-05
7.8e-05
7.8e-05
7.8e-05
7.8e-05
7.8e-05
7.8e-05
7.8e-05
7.8e-05
7.8e-05
7.8e-05
7.8e-05
7.8e-05
7.8e-05
7.8e-05
7.8e-05
7.8e-05
7.8e-05
7.8e-05
7.8e-05
7.8e-05
7.8e-05
7.8e-05
7.8e-05
7.8e-05
7.8e-05
7.8e-05
7.8e-05
7.8e-05
7.8e-05
7.8e-05
7.8e-05
7.8e-05
7.8e-05
7.8e-05
7.8e-05
7.8e-05
7.8e-05
7.8e-05
7.8e-05
7.8e-05
7.8e-05
7.8e-05
7.8e-05
7.8e-05
7.8e-05
7.8e-05
7.8e-05
7.8e-05
7.8e-05
7.8e-05
7.8e-05
7.8e-05
7.8e-05
7.8e-05
7.8e-05
7.8e-05
7.8e-05
7.8e-05
7.8e-05
7.8e-05
7.8e-05
7.8e-05
7.8e-05
7.8e-05
7.8e-05
7.8e-05
7.8e-05
7.8e-05
7.8e-05
7.8e-05
7.8e-05
7.8e-05
7.8e-05
7.8e-05
7.8e-05
7.8e-05
7.8e-05
7.8e-05
7.8e-05
7.8e-05
7.8e-05
7.8e-05
7.8e-05
7.8e-05
7.8e-05
7.8e-05