/*--------------------------------*- C++ -*----------------------------------*\
| =========                 |                                                 |
| \\      /  F ield         | OpenFOAM: The Open Source CFD Toolbox           |
|  \\    /   O peration     | Version:  2406                                  |
|   \\  /    A nd           | Website:  www.openfoam.com                      |
|    \\/     M anipulation  |                                                 |
\*---------------------------------------------------------------------------*/
FoamFile
{
    version     2.0;
    format      ascii;
    arch        "LSB;label=32;scalar=64";
    class       volScalarField;
    location    "2.7";
    object      C;
}
// * * * * * * * * * * * * * * * * * * * * * * * * * * * * * * * * * * * * * //

dimensions      [1 -3 0 0 0 0 0];

internalField   nonuniform List<scalar> 
14400
(
0.903786
0.893843
0.868786
0.83717
0.810461
0.791272
0.780879
0.779991
0.788908
0.807532
0.835361
0.871328
0.912913
0.946823
0.964843
0.973655
0.975579
0.970392
0.954698
0.925198
0.892967
0.868111
0.853023
0.848867
0.856388
0.876034
0.907991
0.952147
1.00788
1.07284
1.13453
1.1772
1.20713
1.23331
1.25633
1.27663
1.29453
1.3103
1.32414
1.3362
1.34662
1.35549
1.36289
1.36888
1.37353
1.37686
1.3789
1.37968
1.37921
1.37749
1.37451
1.37026
1.36473
1.35788
1.34966
1.34004
1.32895
1.31631
1.30202
1.28597
1.26802
1.24798
1.22564
1.20072
1.17286
1.14161
1.1054
1.04988
0.974457
0.904077
0.842972
0.792303
0.752369
0.723151
0.704502
0.696233
0.698142
0.710026
0.731639
0.76262
0.802305
0.849041
0.896592
0.928816
0.946752
0.95905
0.966408
0.969192
0.967533
0.961339
0.950262
0.932929
0.901002
0.85826
0.819899
0.789208
0.767333
0.754596
0.750851
0.755519
0.767513
0.784835
0.803475
0.813063
0.803603
0.785042
0.767781
0.755876
0.751349
0.755313
0.768371
0.7907
0.822012
0.861182
0.904871
0.93758
0.955855
0.968265
0.976203
0.980079
0.912882
0.905501
0.885715
0.854661
0.827065
0.806952
0.795941
0.794836
0.803971
0.8232
0.851901
0.888616
0.929322
0.957428
0.972268
0.980542
0.98269
0.978564
0.967085
0.942487
0.910103
0.884396
0.868554
0.863898
0.871263
0.891112
0.923593
0.968518
1.02522
1.09077
1.14507
1.18165
1.21087
1.23648
1.25906
1.27902
1.29666
1.31223
1.32591
1.33785
1.34817
1.35695
1.36429
1.37023
1.37484
1.37814
1.38017
1.38094
1.38046
1.37874
1.37578
1.37155
1.36605
1.35923
1.35107
1.34151
1.3305
1.31795
1.30378
1.28788
1.2701
1.25029
1.22822
1.20366
1.17625
1.14558
1.11107
1.0624
0.99205
0.920624
0.858359
0.806758
0.766121
0.736428
0.717524
0.709209
0.711283
0.723542
0.74574
0.777504
0.818176
0.866056
0.909153
0.935567
0.952358
0.96399
0.970982
0.973636
0.972067
0.966222
0.955865
0.940547
0.914842
0.875206
0.83597
0.804451
0.782129
0.76933
0.765954
0.771447
0.784836
0.804109
0.822706
0.828503
0.822818
0.804308
0.78507
0.771752
0.766383
0.769956
0.783051
0.8058
0.837915
0.877953
0.918322
0.944768
0.961072
0.972736
0.980263
0.983956
0.929297
0.923874
0.912338
0.888839
0.859869
0.837985
0.825776
0.82423
0.833815
0.854234
0.884636
0.92256
0.954595
0.97357
0.986044
0.993553
0.996077
0.993564
0.98596
0.970806
0.943418
0.916578
0.8994
0.893755
0.900821
0.921077
0.954557
1.0007
1.05827
1.11757
1.1595
1.19066
1.21822
1.24267
1.2644
1.28372
1.30087
1.31606
1.32943
1.34112
1.35124
1.35987
1.36708
1.37293
1.37746
1.3807
1.38269
1.38344
1.38295
1.38125
1.37831
1.37412
1.36868
1.36194
1.35388
1.34444
1.33358
1.32122
1.30728
1.29165
1.27422
1.25483
1.23331
1.20943
1.18291
1.15339
1.1204
1.08114
1.02431
0.952749
0.888815
0.835577
0.793615
0.763014
0.743619
0.735219
0.737608
0.750588
0.773903
0.807029
0.848792
0.895446
0.928247
0.94826
0.963122
0.973568
0.979895
0.9823
0.980876
0.975617
0.966427
0.953147
0.935211
0.906214
0.867165
0.834441
0.811395
0.798471
0.795786
0.802665
0.818191
0.838883
0.850625
0.852936
0.850647
0.838987
0.818333
0.802862
0.796072
0.798916
0.812085
0.835494
0.868722
0.908404
0.937991
0.95668
0.970926
0.981345
0.988158
0.991524
0.951135
0.947366
0.940199
0.92778
0.906419
0.883323
0.869634
0.867408
0.877693
0.899591
0.931016
0.960743
0.980565
0.994343
1.00479
1.01155
1.0145
1.01366
1.00919
1.00158
0.986586
0.963059
0.944959
0.937881
0.944558
0.965434
1.00036
1.04725
1.10239
1.14438
1.17519
1.20328
1.22869
1.25159
1.27215
1.29059
1.30705
1.32169
1.33463
1.34597
1.35581
1.36421
1.37124
1.37694
1.38135
1.38452
1.38645
1.38716
1.38667
1.38498
1.38208
1.37795
1.37259
1.36597
1.35805
1.3488
1.33816
1.32607
1.31245
1.29723
1.2803
1.26152
1.24076
1.21784
1.19256
1.16467
1.13391
1.09999
1.0579
0.998491
0.933773
0.878583
0.834799
0.802944
0.782866
0.774345
0.777169
0.791153
0.816061
0.851047
0.893598
0.92823
0.949561
0.965748
0.978303
0.987264
0.99273
0.994794
0.99352
0.988941
0.981079
0.969987
0.955853
0.938184
0.911339
0.877983
0.854378
0.841195
0.839525
0.847795
0.865168
0.876982
0.880713
0.881913
0.88067
0.876938
0.865157
0.847825
0.839595
0.84137
0.854721
0.878598
0.912342
0.939594
0.957795
0.97264
0.984606
0.99356
0.9995
1.00246
0.976741
0.974257
0.969634
0.9636
0.954097
0.939893
0.925655
0.922555
0.933741
0.956215
0.978272
0.994929
1.00746
1.01845
1.02721
1.03335
1.03672
1.03737
1.03555
1.0318
1.02697
1.01671
1.00345
0.994821
1.0013
1.02285
1.05932
1.10223
1.13879
1.16678
1.19352
1.21856
1.24168
1.26283
1.28205
1.29942
1.31505
1.32902
1.34142
1.35233
1.36181
1.36992
1.37671
1.38223
1.38651
1.38956
1.39142
1.3921
1.3916
1.38992
1.38706
1.38302
1.37777
1.3713
1.36356
1.35454
1.34418
1.33244
1.31924
1.30453
1.28821
1.27019
1.25037
1.22862
1.20481
1.17883
1.15057
1.12
1.0873
1.04611
0.991079
0.93523
0.889395
0.856156
0.835292
0.826621
0.829917
0.84495
0.871581
0.907229
0.93833
0.958675
0.973958
0.986867
0.997078
1.00446
1.00897
1.01063
1.00947
1.00555
0.998961
0.989869
0.978593
0.965714
0.951086
0.930552
0.908904
0.89515
0.894944
0.90196
0.909179
0.911478
0.912832
0.913333
0.912722
0.911261
0.908908
0.901662
0.894698
0.894963
0.908769
0.930508
0.951274
0.966235
0.97961
0.991478
1.0013
1.00879
1.01382
1.01635
1.00483
1.00329
1.00048
0.996986
0.993664
0.989836
0.984807
0.984606
0.993091
1.00555
1.01627
1.0261
1.03589
1.04479
1.05225
1.05792
1.06166
1.06355
1.06385
1.06308
1.06201
1.06175
1.05997
1.05967
1.06766
1.08844
1.11603
1.1429
1.16645
1.19025
1.21354
1.23577
1.25664
1.27599
1.29378
1.31001
1.32471
1.33792
1.3497
1.3601
1.36917
1.37695
1.38347
1.38877
1.39288
1.39581
1.39758
1.39821
1.39769
1.39604
1.39324
1.38929
1.38418
1.37788
1.37037
1.36162
1.3516
1.34026
1.32755
1.31343
1.29782
1.28067
1.2619
1.24144
1.21925
1.19527
1.16953
1.14214
1.11335
1.08364
1.04767
1.00316
0.956209
0.922196
0.900593
0.891761
0.895404
0.91072
0.937765
0.960681
0.976716
0.989208
1.00073
1.01068
1.01868
1.02451
1.02806
1.02927
1.02818
1.02483
1.01935
1.01194
1.00294
0.992866
0.982468
0.972347
0.960252
0.950252
0.947035
0.947123
0.945862
0.945629
0.945805
0.945863
0.945624
0.945271
0.94533
0.946454
0.946291
0.949443
0.959411
0.971544
0.981839
0.992517
1.00293
1.01236
1.02031
1.02647
1.03066
1.03277
1.03446
1.03357
1.03201
1.0302
1.02876
1.02847
1.03015
1.03296
1.03747
1.04275
1.0496
1.05733
1.06519
1.07259
1.07908
1.08441
1.08846
1.09132
1.09323
1.09465
1.09623
1.09887
1.10376
1.11138
1.12188
1.13761
1.15499
1.17369
1.19372
1.21425
1.23461
1.25434
1.27311
1.29072
1.30708
1.32212
1.33584
1.34825
1.35937
1.36922
1.37783
1.38523
1.39145
1.3965
1.40042
1.40321
1.40489
1.40546
1.40493
1.4033
1.40057
1.39673
1.39177
1.38567
1.37841
1.36997
1.36032
1.34944
1.33728
1.3238
1.30898
1.29276
1.27511
1.25602
1.23546
1.21348
1.19016
1.16566
1.14031
1.11455
1.08904
1.06157
1.02982
0.998643
0.976654
0.967674
0.971209
0.982102
0.994487
1.00354
1.01195
1.02071
1.02907
1.03645
1.04247
1.04686
1.04947
1.05023
1.04914
1.04624
1.04166
1.03559
1.02835
1.02035
1.01214
1.00434
0.997579
0.991787
0.986456
0.982621
0.980451
0.979372
0.978894
0.978688
0.978641
0.97887
0.979705
0.98164
0.985247
0.990401
0.996101
1.00287
1.01073
1.01906
1.02724
1.03473
1.04112
1.04613
1.04956
1.0513
1.06499
1.06454
1.06379
1.06304
1.0627
1.06321
1.06494
1.06783
1.07159
1.07633
1.08206
1.08841
1.09496
1.10129
1.10709
1.11216
1.11645
1.12003
1.12311
1.12605
1.12937
1.13372
1.1398
1.14821
1.15921
1.17204
1.18679
1.20311
1.2205
1.23841
1.25633
1.27387
1.29073
1.30671
1.32168
1.33556
1.3483
1.35988
1.3703
1.37957
1.3877
1.3947
1.40059
1.40538
1.40909
1.41172
1.4133
1.41381
1.41327
1.41167
1.40901
1.40529
1.40049
1.39461
1.38763
1.37953
1.37029
1.3599
1.34832
1.33553
1.32153
1.30628
1.28978
1.27204
1.2531
1.23303
1.21194
1.19006
1.16767
1.14521
1.12323
1.10246
1.08322
1.0634
1.04677
1.03715
1.03493
1.03645
1.03794
1.04166
1.04683
1.05262
1.05838
1.06358
1.06787
1.07098
1.07273
1.07305
1.0719
1.06933
1.06545
1.06043
1.05451
1.04804
1.0414
1.03501
1.0292
1.02409
1.01968
1.01627
1.01395
1.01251
1.01171
1.01136
1.01138
1.01186
1.01298
1.01499
1.01811
1.02228
1.02719
1.03286
1.03916
1.04576
1.05223
1.05819
1.06332
1.06736
1.07015
1.07157
1.09596
1.0958
1.09557
1.09548
1.09578
1.09674
1.09854
1.10122
1.10469
1.10894
1.11388
1.11931
1.12494
1.13051
1.13581
1.14071
1.14516
1.14924
1.15312
1.15708
1.1615
1.16683
1.1735
1.18186
1.19203
1.20378
1.21701
1.23146
1.24677
1.26255
1.27842
1.29407
1.30923
1.32372
1.33738
1.35013
1.36191
1.37266
1.38238
1.39106
1.39869
1.40527
1.41082
1.41534
1.41883
1.4213
1.42276
1.42321
1.42266
1.42109
1.41851
1.41492
1.41031
1.40466
1.39797
1.39023
1.38142
1.37154
1.36056
1.34849
1.33532
1.32104
1.30568
1.28927
1.27187
1.25358
1.23454
1.21495
1.19511
1.17538
1.15622
1.13818
1.12181
1.10769
1.09607
1.087
1.08071
1.07748
1.07691
1.07833
1.08109
1.08457
1.08823
1.09164
1.09446
1.09645
1.09743
1.09732
1.09609
1.09374
1.09038
1.08615
1.08124
1.0759
1.07042
1.06508
1.06013
1.0557
1.05189
1.04883
1.04656
1.04502
1.04408
1.04364
1.04367
1.04421
1.04536
1.04724
1.04993
1.0534
1.05752
1.0622
1.0673
1.07257
1.07773
1.08249
1.0866
1.08986
1.09211
1.09326
1.1271
1.12712
1.12721
1.12752
1.1282
1.12942
1.13127
1.13382
1.13703
1.14086
1.14523
1.14999
1.15498
1.16001
1.16494
1.16969
1.17424
1.17864
1.18304
1.18765
1.19273
1.19859
1.20551
1.21371
1.22325
1.23406
1.24602
1.25894
1.27256
1.28659
1.30074
1.31476
1.32841
1.34154
1.354
1.36568
1.37653
1.38648
1.39551
1.4036
1.41072
1.41689
1.42209
1.42632
1.42959
1.43189
1.43324
1.43363
1.43306
1.43153
1.42903
1.42558
1.42115
1.41575
1.40936
1.40199
1.39363
1.38427
1.37391
1.36255
1.3502
1.33689
1.32264
1.3075
1.29154
1.27488
1.25767
1.2401
1.22243
1.20497
1.1881
1.17223
1.15777
1.14509
1.13443
1.12592
1.11969
1.11575
1.11388
1.11367
1.11464
1.11634
1.11834
1.12028
1.12188
1.12292
1.12323
1.12273
1.12137
1.11917
1.11619
1.11255
1.10838
1.1039
1.09929
1.09477
1.09053
1.08668
1.08334
1.08059
1.07846
1.07692
1.07594
1.07545
1.07545
1.07596
1.07701
1.07867
1.08097
1.08387
1.08729
1.09113
1.09527
1.0995
1.10363
1.10744
1.11074
1.11335
1.11516
1.11609
1.15823
1.15835
1.15865
1.1592
1.16009
1.16145
1.16332
1.16575
1.16874
1.17223
1.17617
1.18046
1.18498
1.18961
1.19426
1.19888
1.20346
1.20805
1.21276
1.21774
1.22318
1.22929
1.23626
1.24421
1.25319
1.26318
1.27408
1.28573
1.29795
1.31051
1.3232
1.3358
1.34813
1.36003
1.37138
1.38208
1.39205
1.40123
1.40959
1.41709
1.42372
1.42947
1.43432
1.43826
1.44131
1.44344
1.44468
1.445
1.44442
1.44292
1.44052
1.4372
1.43297
1.42781
1.42174
1.41475
1.40683
1.39799
1.38825
1.3776
1.36606
1.35368
1.34048
1.32653
1.31192
1.29674
1.28116
1.26535
1.24953
1.23398
1.21899
1.20487
1.19193
1.18046
1.17063
1.16258
1.15637
1.15196
1.14921
1.14781
1.14746
1.1478
1.14849
1.14927
1.14987
1.15011
1.14984
1.14899
1.1475
1.14538
1.14267
1.13946
1.13586
1.13201
1.12807
1.1242
1.12052
1.11717
1.11421
1.11173
1.10975
1.10828
1.1073
1.10678
1.10673
1.10715
1.10806
1.10948
1.11141
1.11381
1.11663
1.11978
1.12313
1.12654
1.12986
1.13291
1.13555
1.13765
1.13911
1.13985
1.18923
1.18942
1.18983
1.19051
1.19153
1.19295
1.19481
1.19714
1.19993
1.20316
1.20677
1.2107
1.21486
1.21918
1.22361
1.2281
1.23266
1.23734
1.2422
1.24737
1.25297
1.25914
1.26601
1.27367
1.28214
1.2914
1.30138
1.31196
1.32299
1.33431
1.34574
1.35711
1.36827
1.37907
1.38941
1.3992
1.40834
1.4168
1.42452
1.43146
1.43761
1.44294
1.44745
1.45111
1.45393
1.4559
1.45702
1.45728
1.45668
1.45523
1.45292
1.44974
1.4457
1.4408
1.43504
1.42842
1.42095
1.41264
1.40349
1.39352
1.38277
1.37127
1.35907
1.34623
1.33284
1.31901
1.30488
1.2906
1.27638
1.26243
1.24899
1.23632
1.22464
1.21417
1.20506
1.1974
1.19124
1.18653
1.18316
1.18092
1.17959
1.17889
1.17858
1.17842
1.17822
1.1778
1.17705
1.17588
1.17426
1.17218
1.16966
1.16676
1.16358
1.16022
1.15679
1.15342
1.1502
1.14724
1.14462
1.14237
1.14054
1.13915
1.13819
1.13765
1.13753
1.13785
1.13859
1.13977
1.14136
1.14334
1.14565
1.14821
1.15092
1.15367
1.15634
1.15879
1.16091
1.16259
1.16376
1.16436
1.22004
1.22026
1.22074
1.2215
1.22257
1.22401
1.22584
1.22806
1.23069
1.2337
1.23705
1.24069
1.24458
1.24866
1.25289
1.25726
1.26176
1.26644
1.27134
1.27656
1.28218
1.28829
1.29499
1.30231
1.31029
1.31889
1.32807
1.33773
1.34775
1.358
1.36834
1.37864
1.38876
1.39858
1.40801
1.41695
1.42534
1.43311
1.44022
1.44663
1.45231
1.45725
1.46141
1.4648
1.46741
1.46921
1.47022
1.47042
1.46981
1.4684
1.46617
1.46314
1.4593
1.45465
1.4492
1.44295
1.43592
1.42811
1.41954
1.41024
1.40024
1.38957
1.3783
1.36648
1.35421
1.34159
1.32874
1.3158
1.30295
1.29036
1.27824
1.26677
1.25615
1.24653
1.23803
1.23073
1.22465
1.21976
1.21597
1.21314
1.21108
1.20961
1.20852
1.20763
1.20677
1.20582
1.20467
1.20324
1.20149
1.19941
1.19701
1.19435
1.19148
1.18849
1.18546
1.18247
1.17963
1.17699
1.17463
1.17259
1.1709
1.16959
1.16865
1.16809
1.16791
1.16811
1.16869
1.16964
1.17094
1.17255
1.17442
1.17649
1.17868
1.18089
1.18303
1.185
1.1867
1.18805
1.18898
1.18946
1.25061
1.25086
1.25137
1.25216
1.25326
1.25468
1.25646
1.25859
1.26107
1.2639
1.26703
1.27045
1.27411
1.27798
1.28204
1.28627
1.29069
1.2953
1.30017
1.30535
1.31089
1.31687
1.32333
1.3303
1.33781
1.34582
1.35428
1.36313
1.37227
1.3816
1.39099
1.40034
1.40954
1.41849
1.42709
1.43526
1.44294
1.45008
1.45662
1.46252
1.46776
1.47232
1.47616
1.47929
1.48167
1.48332
1.48422
1.48436
1.48375
1.48237
1.48024
1.47735
1.4737
1.4693
1.46415
1.45827
1.45166
1.44434
1.43633
1.42766
1.41836
1.40848
1.39807
1.38719
1.37594
1.36439
1.35268
1.34091
1.32925
1.31783
1.30683
1.29639
1.28666
1.27777
1.2698
1.26283
1.25687
1.25189
1.24783
1.24457
1.24199
1.23993
1.23825
1.23679
1.23543
1.23405
1.23256
1.23091
1.22904
1.22695
1.22464
1.22215
1.21951
1.2168
1.21407
1.21139
1.20884
1.20647
1.20432
1.20246
1.20089
1.19964
1.19873
1.19815
1.19791
1.19801
1.19843
1.19916
1.20019
1.20148
1.20299
1.20466
1.20641
1.20819
1.2099
1.21148
1.21284
1.21392
1.21467
1.21505
1.28094
1.2812
1.28172
1.28252
1.28361
1.285
1.28672
1.28876
1.29112
1.29378
1.29674
1.29996
1.30343
1.30712
1.31101
1.3151
1.3194
1.32392
1.3287
1.33377
1.33917
1.34496
1.35115
1.35777
1.36482
1.37228
1.38011
1.38825
1.39661
1.40512
1.41368
1.4222
1.43058
1.43874
1.44659
1.45406
1.4611
1.46764
1.47365
1.47908
1.4839
1.48809
1.49163
1.4945
1.49669
1.49818
1.49897
1.49906
1.49844
1.49711
1.49507
1.49231
1.48885
1.4847
1.47984
1.47431
1.46811
1.46126
1.45378
1.4457
1.43707
1.42791
1.4183
1.40828
1.39794
1.38737
1.37666
1.36593
1.3553
1.34489
1.33485
1.32529
1.31633
1.30807
1.30059
1.29393
1.28811
1.28311
1.27887
1.27533
1.27237
1.26989
1.26775
1.26586
1.2641
1.26238
1.26063
1.25878
1.25681
1.2547
1.25245
1.25008
1.24762
1.24512
1.24263
1.24019
1.23787
1.23571
1.23375
1.23202
1.23055
1.22937
1.22847
1.22788
1.22758
1.22757
1.22784
1.22839
1.22919
1.23021
1.2314
1.23273
1.23413
1.23554
1.23691
1.23817
1.23925
1.24011
1.24071
1.24102
1.31101
1.31127
1.31179
1.31258
1.31365
1.315
1.31666
1.31861
1.32085
1.32338
1.32618
1.32923
1.33253
1.33605
1.33979
1.34373
1.3479
1.35229
1.35693
1.36185
1.36708
1.37263
1.37854
1.38481
1.39143
1.39838
1.40563
1.41313
1.42081
1.4286
1.43642
1.4442
1.45184
1.45929
1.46646
1.4733
1.47974
1.48574
1.49125
1.49624
1.50067
1.50452
1.50777
1.5104
1.51239
1.51374
1.51443
1.51447
1.51385
1.51256
1.5106
1.50798
1.50471
1.50078
1.49622
1.49102
1.48521
1.4788
1.47182
1.46431
1.45629
1.44781
1.43893
1.4297
1.42019
1.41048
1.40067
1.39085
1.38112
1.3716
1.36238
1.35359
1.3453
1.3376
1.33055
1.32419
1.31853
1.31355
1.30923
1.3055
1.30228
1.29948
1.29702
1.2948
1.29274
1.29075
1.28878
1.28679
1.28473
1.2826
1.28038
1.2781
1.27578
1.27344
1.27113
1.26888
1.26674
1.26475
1.26293
1.26132
1.25994
1.2588
1.25792
1.2573
1.25695
1.25684
1.25699
1.25737
1.25797
1.25875
1.25968
1.26072
1.26183
1.26295
1.26403
1.26503
1.26589
1.26657
1.26705
1.26729
1.34083
1.34108
1.34159
1.34236
1.3434
1.34471
1.3463
1.34816
1.3503
1.3527
1.35536
1.35826
1.3614
1.36477
1.36835
1.37214
1.37616
1.3804
1.38489
1.38963
1.39465
1.39996
1.40557
1.41149
1.4177
1.42418
1.43091
1.43783
1.44489
1.45204
1.4592
1.46632
1.47331
1.48012
1.48668
1.49293
1.49883
1.50433
1.50938
1.51396
1.51802
1.52155
1.52453
1.52693
1.52874
1.52995
1.53055
1.53054
1.52991
1.52867
1.5268
1.52431
1.52122
1.51751
1.51322
1.50834
1.5029
1.49691
1.49041
1.48342
1.47597
1.46812
1.4599
1.45138
1.44263
1.4337
1.42469
1.41567
1.40674
1.39799
1.3895
1.38137
1.37368
1.36647
1.35982
1.35374
1.34826
1.34335
1.339
1.33516
1.33176
1.32875
1.32605
1.32358
1.32129
1.3191
1.31697
1.31485
1.31273
1.31057
1.30838
1.30617
1.30394
1.30173
1.29956
1.29746
1.29547
1.29361
1.29191
1.29039
1.28908
1.28798
1.28711
1.28647
1.28606
1.28587
1.2859
1.28614
1.28656
1.28714
1.28785
1.28865
1.28951
1.29039
1.29124
1.29202
1.2927
1.29324
1.29362
1.29381
1.37039
1.37064
1.37113
1.37188
1.37288
1.37414
1.37566
1.37744
1.37948
1.38176
1.38429
1.38706
1.39005
1.39326
1.39669
1.40033
1.40419
1.40827
1.41258
1.41713
1.42193
1.42699
1.4323
1.43788
1.4437
1.44975
1.45599
1.46239
1.4689
1.47547
1.48204
1.48855
1.49496
1.50119
1.5072
1.51292
1.51833
1.52336
1.52799
1.53219
1.53591
1.53914
1.54186
1.54405
1.54569
1.54677
1.54729
1.54723
1.5466
1.5454
1.54361
1.54125
1.53833
1.53484
1.5308
1.52623
1.52114
1.51555
1.50948
1.50298
1.49606
1.48878
1.48118
1.47331
1.46523
1.45701
1.44871
1.44041
1.43218
1.42411
1.41627
1.40873
1.40156
1.3948
1.38851
1.38271
1.3774
1.37259
1.36826
1.36436
1.36086
1.35771
1.35484
1.3522
1.34973
1.34739
1.34514
1.34293
1.34075
1.33857
1.3364
1.33424
1.33209
1.32998
1.32792
1.32594
1.32406
1.32231
1.3207
1.31926
1.318
1.31693
1.31607
1.3154
1.31495
1.31468
1.31461
1.31472
1.31499
1.3154
1.31592
1.31652
1.31718
1.31786
1.31852
1.31913
1.31966
1.32008
1.32037
1.32052
1.3997
1.39994
1.40042
1.40114
1.4021
1.40331
1.40477
1.40647
1.4084
1.41058
1.41299
1.41563
1.41848
1.42155
1.42482
1.42831
1.43201
1.43591
1.44004
1.44438
1.44895
1.45375
1.45877
1.46402
1.46947
1.47511
1.48091
1.48683
1.49284
1.49889
1.50493
1.51091
1.51678
1.52249
1.52799
1.53324
1.53819
1.5428
1.54704
1.55088
1.55429
1.55724
1.55972
1.56171
1.56319
1.56415
1.56459
1.5645
1.56387
1.5627
1.561
1.55876
1.556
1.55271
1.54892
1.54463
1.53987
1.53465
1.529
1.52295
1.51652
1.50977
1.50273
1.49545
1.48798
1.48039
1.47273
1.46507
1.45747
1.45
1.44273
1.43572
1.42902
1.42267
1.41672
1.41117
1.40606
1.40136
1.39708
1.39317
1.38962
1.38637
1.3834
1.38064
1.37805
1.3756
1.37326
1.37098
1.36876
1.36657
1.36442
1.3623
1.36021
1.35818
1.3562
1.35432
1.35253
1.35086
1.34933
1.34795
1.34673
1.34569
1.34482
1.34414
1.34363
1.3433
1.34314
1.34314
1.34328
1.34354
1.3439
1.34434
1.34483
1.34534
1.34584
1.34631
1.34671
1.34704
1.34727
1.34738
1.42877
1.429
1.42947
1.43016
1.43108
1.43224
1.43363
1.43525
1.4371
1.43917
1.44146
1.44397
1.44669
1.44962
1.45275
1.45608
1.45961
1.46334
1.46727
1.4714
1.47574
1.48029
1.48503
1.48995
1.49506
1.50032
1.5057
1.51119
1.51674
1.52232
1.52787
1.53337
1.53876
1.544
1.54904
1.55385
1.55838
1.56261
1.56649
1.57
1.57312
1.57582
1.57808
1.57988
1.58121
1.58206
1.58243
1.5823
1.58167
1.58054
1.57892
1.5768
1.57419
1.57109
1.56753
1.56352
1.55906
1.55419
1.54892
1.54328
1.53731
1.53104
1.52451
1.51777
1.51086
1.50384
1.49675
1.48966
1.48262
1.4757
1.46894
1.4624
1.45612
1.45015
1.44451
1.43922
1.43429
1.42972
1.42551
1.42163
1.41807
1.41478
1.41173
1.4089
1.40623
1.40371
1.4013
1.39898
1.39673
1.39454
1.3924
1.39031
1.38828
1.3863
1.3844
1.38259
1.38088
1.37928
1.37781
1.37647
1.37529
1.37426
1.37339
1.37269
1.37214
1.37176
1.37152
1.37142
1.37145
1.37159
1.37182
1.37211
1.37246
1.37283
1.3732
1.37355
1.37385
1.3741
1.37427
1.37436
1.45762
1.45784
1.45828
1.45894
1.45983
1.46093
1.46226
1.4638
1.46556
1.46754
1.46972
1.47211
1.4747
1.47749
1.48047
1.48364
1.48701
1.49056
1.4943
1.49822
1.50233
1.50662
1.51109
1.51571
1.52049
1.52539
1.5304
1.53549
1.54062
1.54576
1.55088
1.55594
1.56089
1.5657
1.57032
1.57473
1.57889
1.58276
1.58631
1.58953
1.59237
1.59483
1.59688
1.59852
1.59971
1.60046
1.60076
1.6006
1.59997
1.59888
1.59733
1.59532
1.59286
1.58995
1.5866
1.58284
1.57867
1.57412
1.5692
1.56395
1.5584
1.55258
1.54652
1.54026
1.53385
1.52734
1.52077
1.5142
1.50767
1.50123
1.49493
1.48882
1.48293
1.47729
1.47194
1.46689
1.46215
1.45773
1.45361
1.44979
1.44624
1.44294
1.43986
1.43698
1.43428
1.43171
1.42926
1.42691
1.42465
1.42246
1.42034
1.41828
1.41628
1.41436
1.41252
1.41077
1.40911
1.40757
1.40614
1.40485
1.40369
1.40267
1.4018
1.40108
1.4005
1.40006
1.39975
1.39957
1.39951
1.39954
1.39966
1.39984
1.40006
1.40032
1.40058
1.40083
1.40105
1.40123
1.40136
1.40143
1.48624
1.48645
1.48687
1.4875
1.48835
1.4894
1.49067
1.49214
1.49381
1.49569
1.49777
1.50004
1.50251
1.50516
1.508
1.51102
1.51422
1.51759
1.52114
1.52486
1.52874
1.53279
1.53699
1.54132
1.54579
1.55036
1.55502
1.55973
1.56448
1.56924
1.57396
1.57861
1.58316
1.58758
1.59183
1.59587
1.59968
1.60322
1.60648
1.60941
1.61201
1.61425
1.61612
1.61759
1.61866
1.61931
1.61955
1.61936
1.61874
1.61769
1.6162
1.6143
1.61197
1.60923
1.60609
1.60256
1.59866
1.59441
1.58982
1.58493
1.57976
1.57434
1.56871
1.5629
1.55695
1.55091
1.54481
1.5387
1.53262
1.52662
1.52074
1.51501
1.50947
1.50415
1.49908
1.49426
1.48971
1.48543
1.48142
1.47766
1.47415
1.47087
1.46779
1.4649
1.46217
1.45959
1.45712
1.45476
1.45249
1.45031
1.4482
1.44617
1.44422
1.44234
1.44054
1.43884
1.43723
1.43573
1.43435
1.43308
1.43195
1.43094
1.43006
1.42932
1.42871
1.42822
1.42786
1.42761
1.42747
1.42741
1.42743
1.42751
1.42764
1.4278
1.42797
1.42814
1.42829
1.42842
1.42851
1.42856
1.51465
1.51485
1.51525
1.51586
1.51666
1.51767
1.51887
1.52027
1.52186
1.52365
1.52563
1.52779
1.53013
1.53265
1.53535
1.53821
1.54125
1.54445
1.54781
1.55133
1.55499
1.5588
1.56275
1.56681
1.57098
1.57524
1.57957
1.58395
1.58835
1.59274
1.59709
1.60138
1.60557
1.60963
1.61353
1.61724
1.62073
1.62398
1.62696
1.62964
1.63201
1.63405
1.63574
1.63706
1.63802
1.63859
1.63877
1.63855
1.63793
1.63692
1.6355
1.63369
1.6315
1.62892
1.62597
1.62266
1.61901
1.61503
1.61075
1.60619
1.60137
1.59632
1.59108
1.58568
1.58015
1.57452
1.56885
1.56316
1.55749
1.55189
1.54639
1.54101
1.5358
1.53077
1.52595
1.52136
1.51699
1.51286
1.50896
1.50529
1.50184
1.4986
1.49554
1.49266
1.48993
1.48734
1.48487
1.48251
1.48025
1.47808
1.476
1.47399
1.47207
1.47023
1.46848
1.46682
1.46525
1.46379
1.46243
1.46119
1.46007
1.45907
1.45819
1.45743
1.45679
1.45627
1.45586
1.45555
1.45533
1.4552
1.45514
1.45514
1.45519
1.45527
1.45536
1.45546
1.45556
1.45564
1.4557
1.45573
1.54286
1.54305
1.54343
1.54401
1.54477
1.54573
1.54687
1.54821
1.54972
1.55142
1.5533
1.55535
1.55757
1.55997
1.56252
1.56524
1.56812
1.57115
1.57433
1.57764
1.5811
1.58468
1.58838
1.59219
1.59608
1.60006
1.60408
1.60815
1.61222
1.61628
1.6203
1.62425
1.62811
1.63184
1.63542
1.63883
1.64203
1.645
1.64773
1.65018
1.65234
1.65419
1.65572
1.65691
1.65776
1.65825
1.65838
1.65814
1.65753
1.65655
1.6552
1.65348
1.6514
1.64897
1.6462
1.6431
1.63968
1.63596
1.63196
1.6277
1.6232
1.6185
1.61362
1.60858
1.60343
1.59819
1.5929
1.5876
1.58231
1.57706
1.5719
1.56685
1.56194
1.55719
1.55261
1.54822
1.54404
1.54006
1.53628
1.53271
1.52933
1.52614
1.52312
1.52026
1.51755
1.51497
1.51251
1.51017
1.50792
1.50577
1.50371
1.50173
1.49984
1.49804
1.49632
1.49469
1.49316
1.49173
1.49041
1.48919
1.48808
1.48708
1.4862
1.48542
1.48476
1.4842
1.48375
1.48339
1.48312
1.48292
1.4828
1.48273
1.4827
1.48271
1.48275
1.48279
1.48284
1.48289
1.48292
1.48294
1.57087
1.57105
1.57142
1.57197
1.5727
1.5736
1.57469
1.57596
1.5774
1.57901
1.58079
1.58274
1.58485
1.58711
1.58954
1.59211
1.59484
1.5977
1.6007
1.60383
1.60708
1.61044
1.61391
1.61747
1.62111
1.62481
1.62856
1.63233
1.6361
1.63986
1.64357
1.64722
1.65077
1.6542
1.6575
1.66062
1.66356
1.66628
1.66877
1.67101
1.67297
1.67466
1.67604
1.67711
1.67786
1.67828
1.67836
1.6781
1.67749
1.67655
1.67526
1.67363
1.67166
1.66937
1.66676
1.66385
1.66064
1.65716
1.65342
1.64944
1.64525
1.64086
1.6363
1.63161
1.6268
1.62191
1.61697
1.61202
1.60707
1.60216
1.59731
1.59256
1.58792
1.58342
1.57907
1.57489
1.57088
1.56705
1.5634
1.55992
1.55663
1.5535
1.55053
1.54771
1.54503
1.54248
1.54004
1.53772
1.5355
1.53337
1.53133
1.52939
1.52753
1.52575
1.52407
1.52248
1.52098
1.51958
1.51827
1.51707
1.51597
1.51498
1.51409
1.5133
1.51262
1.51204
1.51155
1.51114
1.51082
1.51058
1.51039
1.51027
1.51018
1.51014
1.51012
1.51012
1.51013
1.51014
1.51016
1.51016
1.5987
1.59888
1.59922
1.59974
1.60044
1.6013
1.60233
1.60353
1.6049
1.60643
1.60812
1.60996
1.61196
1.61411
1.6164
1.61884
1.62141
1.62411
1.62694
1.62989
1.63294
1.6361
1.63935
1.64268
1.64608
1.64952
1.65301
1.65651
1.66001
1.66348
1.66691
1.67027
1.67355
1.67671
1.67973
1.6826
1.6853
1.68779
1.69006
1.69211
1.6939
1.69542
1.69667
1.69763
1.69829
1.69864
1.69868
1.6984
1.6978
1.69689
1.69565
1.69411
1.69225
1.69009
1.68763
1.6849
1.68189
1.67863
1.67512
1.6714
1.66748
1.66338
1.65913
1.65474
1.65025
1.64568
1.64107
1.63643
1.63179
1.62718
1.62263
1.61815
1.61377
1.6095
1.60537
1.60138
1.59754
1.59386
1.59033
1.58697
1.58376
1.58071
1.5778
1.57503
1.57239
1.56987
1.56746
1.56517
1.56297
1.56087
1.55887
1.55695
1.55512
1.55338
1.55173
1.55017
1.5487
1.54732
1.54603
1.54485
1.54376
1.54277
1.54188
1.54108
1.54038
1.53978
1.53926
1.53882
1.53846
1.53816
1.53793
1.53776
1.53763
1.53754
1.53748
1.53744
1.53741
1.5374
1.5374
1.5374
1.62636
1.62653
1.62686
1.62735
1.62801
1.62883
1.62981
1.63094
1.63224
1.63369
1.63529
1.63703
1.63892
1.64096
1.64312
1.64543
1.64785
1.6504
1.65306
1.65583
1.6587
1.66167
1.66471
1.66782
1.67099
1.6742
1.67744
1.68069
1.68393
1.68715
1.69032
1.69342
1.69644
1.69935
1.70213
1.70476
1.70723
1.70951
1.71159
1.71346
1.71508
1.71647
1.71759
1.71844
1.71902
1.71931
1.71931
1.71902
1.71843
1.71755
1.71637
1.71489
1.71314
1.7111
1.70879
1.70621
1.70339
1.70033
1.69705
1.69356
1.68989
1.68606
1.68208
1.67798
1.67378
1.66951
1.66518
1.66083
1.65648
1.65215
1.64786
1.64364
1.6395
1.63546
1.63153
1.62772
1.62404
1.6205
1.61711
1.61385
1.61074
1.60776
1.60492
1.60221
1.59962
1.59714
1.59478
1.59252
1.59035
1.58829
1.58631
1.58443
1.58263
1.58092
1.5793
1.57776
1.57632
1.57496
1.5737
1.57253
1.57145
1.57046
1.56957
1.56877
1.56805
1.56743
1.56688
1.56641
1.56602
1.56569
1.56542
1.5652
1.56503
1.5649
1.56481
1.56474
1.56469
1.56465
1.56463
1.56463
1.65386
1.65401
1.65432
1.65479
1.65541
1.65619
1.65712
1.6582
1.65942
1.66079
1.66231
1.66396
1.66575
1.66767
1.66972
1.67189
1.67417
1.67657
1.67908
1.68168
1.68437
1.68715
1.69
1.6929
1.69586
1.69885
1.70186
1.70488
1.70788
1.71086
1.71379
1.71665
1.71943
1.72211
1.72467
1.72709
1.72935
1.73144
1.73334
1.73504
1.73652
1.73777
1.73878
1.73954
1.74004
1.74027
1.74024
1.73994
1.73936
1.7385
1.73737
1.73597
1.7343
1.73238
1.7302
1.72778
1.72512
1.72225
1.71918
1.71591
1.71247
1.70888
1.70516
1.70132
1.69738
1.69338
1.68932
1.68524
1.68115
1.67708
1.67304
1.66905
1.66513
1.6613
1.65756
1.65392
1.65041
1.64701
1.64374
1.6406
1.63758
1.63469
1.63192
1.62927
1.62673
1.62431
1.62199
1.61976
1.61764
1.61561
1.61367
1.61182
1.61005
1.60837
1.60678
1.60527
1.60385
1.60252
1.60127
1.60012
1.59905
1.59806
1.59717
1.59636
1.59564
1.59499
1.59443
1.59394
1.59351
1.59315
1.59285
1.5926
1.5924
1.59224
1.59211
1.59201
1.59194
1.59189
1.59186
1.59185
1.68119
1.68134
1.68164
1.68208
1.68267
1.6834
1.68428
1.6853
1.68646
1.68776
1.68919
1.69075
1.69244
1.69425
1.69618
1.69823
1.70038
1.70264
1.70499
1.70744
1.70996
1.71256
1.71522
1.71794
1.72069
1.72348
1.72628
1.72908
1.73186
1.73462
1.73733
1.73997
1.74253
1.745
1.74735
1.74957
1.75165
1.75356
1.75529
1.75684
1.75818
1.75931
1.76022
1.76089
1.76132
1.76151
1.76144
1.76113
1.76055
1.75973
1.75865
1.75731
1.75573
1.75391
1.75185
1.74957
1.74708
1.74438
1.74149
1.73843
1.7352
1.73184
1.72834
1.72474
1.72106
1.7173
1.71349
1.70966
1.70581
1.70197
1.69816
1.69439
1.69068
1.68704
1.68348
1.68002
1.67665
1.67339
1.67025
1.66721
1.6643
1.66149
1.6588
1.65621
1.65374
1.65137
1.64909
1.64692
1.64483
1.64284
1.64094
1.63912
1.63739
1.63574
1.63417
1.63269
1.6313
1.62999
1.62876
1.62761
1.62655
1.62558
1.62469
1.62387
1.62314
1.62249
1.6219
1.62139
1.62094
1.62056
1.62023
1.61995
1.61972
1.61953
1.61938
1.61927
1.61918
1.61911
1.61907
1.61905
1.70838
1.70852
1.7088
1.70922
1.70978
1.71047
1.7113
1.71227
1.71336
1.71459
1.71594
1.71741
1.71901
1.72072
1.72253
1.72446
1.72649
1.72861
1.73082
1.73311
1.73548
1.73791
1.7404
1.74293
1.7455
1.74809
1.75069
1.75329
1.75587
1.75842
1.76093
1.76337
1.76573
1.768
1.77016
1.7722
1.7741
1.77585
1.77743
1.77884
1.78006
1.78108
1.78189
1.78248
1.78285
1.78299
1.7829
1.78257
1.78201
1.78121
1.78017
1.7789
1.7774
1.77568
1.77374
1.77159
1.76924
1.7667
1.76398
1.76111
1.75808
1.75492
1.75164
1.74826
1.7448
1.74127
1.73769
1.73408
1.73046
1.72684
1.72324
1.71967
1.71616
1.7127
1.70931
1.70601
1.70279
1.69967
1.69664
1.69372
1.6909
1.68818
1.68557
1.68305
1.68064
1.67832
1.6761
1.67397
1.67194
1.66998
1.66812
1.66634
1.66464
1.66302
1.66148
1.66003
1.65866
1.65737
1.65616
1.65503
1.65398
1.65301
1.65212
1.6513
1.65057
1.6499
1.64931
1.64878
1.64831
1.64791
1.64756
1.64726
1.64701
1.6468
1.64662
1.64649
1.64638
1.64631
1.64626
1.64623
1.73543
1.73556
1.73582
1.73622
1.73675
1.73741
1.73819
1.7391
1.74014
1.74129
1.74257
1.74396
1.74546
1.74707
1.74878
1.75059
1.7525
1.75449
1.75656
1.75871
1.76093
1.7632
1.76553
1.76789
1.77028
1.77269
1.77511
1.77752
1.77991
1.78227
1.78459
1.78684
1.78902
1.79111
1.7931
1.79497
1.79671
1.79831