/*--------------------------------*- C++ -*----------------------------------*\
| =========                 |                                                 |
| \\      /  F ield         | OpenFOAM: The Open Source CFD Toolbox           |
|  \\    /   O peration     | Version:  2406                                  |
|   \\  /    A nd           | Website:  www.openfoam.com                      |
|    \\/     M anipulation  |                                                 |
\*---------------------------------------------------------------------------*/
FoamFile
{
    version     2.0;
    format      ascii;
    arch        "LSB;label=32;scalar=64";
    class       volScalarField;
    location    "2.7";
    object      C_0_0;
}
// * * * * * * * * * * * * * * * * * * * * * * * * * * * * * * * * * * * * * //

dimensions      [1 -3 0 0 0 0 0];

internalField   nonuniform List<scalar> 
14400
(
0.910146
0.900308
0.875268
0.843436
0.816506
0.797143
0.786646
0.78573
0.794696
0.813444
0.841464
0.877668
0.919492
0.953351
0.971223
0.980034
0.981988
0.976863
0.961405
0.931983
0.899528
0.874456
0.859194
0.85493
0.862426
0.882134
0.91423
0.95858
1.01453
1.07969
1.14088
1.18305
1.2129
1.239
1.26196
1.28219
1.30004
1.31577
1.32956
1.34159
1.35197
1.3608
1.36818
1.37415
1.37877
1.38209
1.38412
1.38489
1.38441
1.38268
1.3797
1.37545
1.36992
1.36307
1.35486
1.34525
1.33417
1.32155
1.30728
1.29126
1.27334
1.25333
1.23103
1.20616
1.17835
1.14717
1.11122
1.05615
0.980813
0.910199
0.848801
0.79786
0.757701
0.728319
0.709574
0.701276
0.703227
0.715221
0.737012
0.768238
0.808231
0.855296
0.902689
0.934584
0.952455
0.964712
0.97204
0.974804
0.973136
0.966944
0.955883
0.938656
0.906867
0.864011
0.825445
0.794583
0.772601
0.759828
0.756117
0.760892
0.773061
0.790616
0.80947
0.819053
0.809595
0.790815
0.773312
0.761222
0.756577
0.760493
0.773574
0.795993
0.827457
0.866809
0.910584
0.943137
0.961293
0.973673
0.981593
0.985461
0.919198
0.911859
0.892184
0.861022
0.8332
0.812903
0.801786
0.800652
0.80984
0.829197
0.858098
0.895041
0.93587
0.963847
0.978615
0.986891
0.989067
0.984994
0.97366
0.949267
0.916761
0.890846
0.874813
0.870034
0.87737
0.897287
0.929921
0.975049
1.03194
1.09749
1.15125
1.18749
1.21663
1.24216
1.26467
1.28457
1.30217
1.31769
1.33133
1.34323
1.35351
1.36227
1.36958
1.3755
1.38008
1.38337
1.38538
1.38614
1.38565
1.38393
1.38096
1.37673
1.37123
1.36442
1.35627
1.34672
1.33572
1.32319
1.30904
1.29316
1.27541
1.25563
1.23361
1.20909
1.18174
1.15113
1.1167
1.06854
0.998687
0.926899
0.8643
0.81241
0.771538
0.741676
0.722673
0.71433
0.716445
0.728814
0.751188
0.783187
0.82414
0.872294
0.915164
0.941303
0.958046
0.96964
0.976603
0.979237
0.977658
0.971813
0.961466
0.946168
0.920662
0.881094
0.841596
0.809892
0.787462
0.774627
0.771285
0.776881
0.790441
0.809953
0.828616
0.834333
0.828721
0.810143
0.790658
0.777161
0.771675
0.775202
0.788319
0.811159
0.843439
0.88372
0.923992
0.950221
0.966492
0.978133
0.985644
0.989329
0.93554
0.930124
0.918691
0.895342
0.866167
0.844085
0.831772
0.830195
0.839839
0.860389
0.891018
0.929173
0.96102
0.979854
0.992328
0.999847
1.00239
0.999919
0.992359
0.977428
0.950301
0.923241
0.905826
0.900024
0.907051
0.92739
0.961059
1.00744
1.0652
1.12392
1.16541
1.19648
1.22396
1.24834
1.27
1.28926
1.30637
1.3215
1.33484
1.34649
1.35658
1.36518
1.37236
1.37819
1.38269
1.38592
1.38789
1.38863
1.38814
1.38643
1.38348
1.3793
1.37385
1.36712
1.35907
1.34964
1.33879
1.32645
1.31253
1.29693
1.27952
1.26017
1.23868
1.21484
1.18837
1.15891
1.12598
1.08701
1.03075
0.95915
0.894943
0.841408
0.799198
0.768418
0.748921
0.740492
0.742925
0.756018
0.779507
0.812862
0.854859
0.901597
0.934107
0.953975
0.968788
0.979197
0.985496
0.987882
0.986446
0.981184
0.971998
0.958728
0.940867
0.91203
0.872859
0.839991
0.816851
0.803896
0.801241
0.808214
0.823861
0.844673
0.856329
0.858641
0.856343
0.844762
0.823986
0.808386
0.80149
0.804289
0.817476
0.840963
0.874309
0.914088
0.943501
0.9621
0.976321
0.986721
0.993521
0.996881
0.957299
0.953529
0.946352
0.934099
0.912911
0.889605
0.875847
0.873573
0.883935
0.905936
0.937603
0.967115
0.986746
1.00054
1.011
1.01777
1.02075
1.01993
1.01548
1.00789
0.993157
0.969943
0.951587
0.944308
0.950935
0.971911
1.00707
1.05416
1.10876
1.15033
1.18104
1.20905
1.23439
1.25722
1.27773
1.29611
1.31253
1.32712
1.34002
1.35133
1.36113
1.36951
1.37651
1.38219
1.38658
1.38973
1.39165
1.39235
1.39185
1.39015
1.38724
1.38312
1.37776
1.37114
1.36323
1.35399
1.34336
1.33129
1.31769
1.30249
1.28558
1.26684
1.24611
1.22323
1.198
1.17016
1.13945
1.1056
1.06394
1.00519
0.940209
0.884678
0.840617
0.808571
0.788391
0.779844
0.782716
0.796821
0.821902
0.857136
0.899911
0.934201
0.955283
0.97142
0.983934
0.992862
0.998303
1.00035
0.999061
0.994477
0.986614
0.975525
0.961398
0.943864
0.917145
0.883685
0.86001
0.846807
0.845156
0.853506
0.870902
0.882646
0.88631
0.887514
0.886259
0.882584
0.870863
0.853513
0.845185
0.846927
0.860285
0.884221
0.918032
0.945145
0.963199
0.978022
0.989969
0.998909
1.00484
1.00779
0.982827
0.98034
0.975708
0.969659
0.960335
0.946257
0.932125
0.928902
0.940235
0.962639
0.984546
1.00101
1.01356
1.02457
1.03335
1.0395
1.04289
1.04356
1.04176
1.03802
1.0332
1.02321
1.01022
1.00136
1.0078
1.02945
1.06619
1.10858
1.14474
1.17263
1.1993
1.22428
1.24734
1.26843
1.2876
1.30492
1.32051
1.33443
1.3468
1.35767
1.36712
1.3752
1.38197
1.38747
1.39172
1.39476
1.39661
1.39727
1.39676
1.39508
1.39222
1.38818
1.38293
1.37646
1.36873
1.35972
1.34937
1.33764
1.32447
1.30977
1.29348
1.27549
1.2557
1.23398
1.21022
1.18428
1.15606
1.12554
1.09288
1.05217
0.997804
0.941619
0.895487
0.862059
0.841104
0.832413
0.835758
0.850929
0.87769
0.913588
0.944321
0.964361
0.979614
0.992487
1.00267
1.01002
1.0145
1.01614
1.01497
1.01105
1.00445
0.99536
0.984083
0.971198
0.95669
0.936246
0.914708
0.90097
0.900729
0.907613
0.914756
0.916975
0.918343
0.918846
0.918225
0.916741
0.914457
0.90728
0.900434
0.900721
0.914496
0.936106
0.956765
0.971599
0.984964
0.996818
1.00662
1.01411
1.01913
1.02166
1.01084
1.00929
1.00648
1.00297
0.999638
0.995934
0.991003
0.990829
0.999299
1.01166
1.02225
1.03211
1.04192
1.05084
1.05831
1.06399
1.06775
1.06965
1.06997
1.0692
1.06814
1.0679
1.06634
1.06611
1.07419
1.09495
1.12231
1.1488
1.17229
1.19604
1.21927
1.24144
1.26226
1.28156
1.2993
1.31548
1.33014
1.34331
1.35506
1.36543
1.37447
1.38222
1.38871
1.39399
1.39808
1.401
1.40275
1.40337
1.40285
1.40119
1.39839
1.39444
1.38932
1.38302
1.37552
1.36678
1.35677
1.34544
1.33276
1.31865
1.30307
1.28594
1.2672
1.24678
1.22462
1.20068
1.17498
1.14762
1.11887
1.0892
1.05369
1.00971
0.962539
0.928387
0.906745
0.897896
0.901561
0.917048
0.944001
0.96663
0.982356
0.994827
1.00632
1.01625
1.02423
1.03003
1.03355
1.03475
1.03364
1.03028
1.0248
1.01738
1.00837
0.998295
0.987883
0.977812
0.965801
0.95584
0.952591
0.952577
0.951275
0.951058
0.951242
0.951301
0.951054
0.950683
0.950718
0.951866
0.951798
0.95497
0.964882
0.976914
0.987151
0.997829
1.00824
1.01766
1.0256
1.03176
1.03593
1.03804
1.04041
1.03951
1.03794
1.03612
1.03466
1.03435
1.03602
1.0389
1.04335
1.04864
1.05552
1.06327
1.07115
1.07856
1.08507
1.09041
1.09447
1.09734
1.09926
1.10068
1.10226
1.1049
1.10979
1.11754
1.12806
1.14369
1.16085
1.17951
1.19949
1.21997
1.24029
1.25997
1.27869
1.29625
1.31256
1.32757
1.34125
1.35362
1.3647
1.37452
1.3831
1.39048
1.39667
1.40171
1.40561
1.40838
1.41004
1.41061
1.41007
1.40843
1.4057
1.40186
1.39689
1.3908
1.38355
1.37512
1.36548
1.35461
1.34246
1.32901
1.3142
1.29801
1.28039
1.26132
1.24079
1.21885
1.19555
1.1711
1.14577
1.12005
1.09457
1.06746
1.036
1.00503
0.983146
0.974143
0.977523
0.988135
1.0003
1.00913
1.01752
1.02627
1.0346
1.04196
1.04796
1.05233
1.05492
1.05567
1.05456
1.05165
1.04706
1.04099
1.03374
1.02573
1.0175
1.00969
1.00289
0.997097
0.99177
0.987964
0.985809
0.98474
0.984267
0.984061
0.984006
0.984221
0.985036
0.986946
0.990515
0.995653
1.00134
1.00813
1.016
1.02433
1.0325
1.03999
1.04638
1.05138
1.0548
1.05654
1.07086
1.07041
1.06966
1.0689
1.06854
1.06904
1.07076
1.07364
1.07741
1.08217
1.08792
1.09429
1.10085
1.10719
1.113
1.11809
1.12239
1.12597
1.12905
1.132
1.13532
1.13966
1.14573
1.15412
1.16508
1.17787
1.19258
1.20886
1.22621
1.24407
1.26195
1.27944
1.29626
1.3122
1.32713
1.34097
1.35367
1.36522
1.37561
1.38485
1.39295
1.39992
1.40579
1.41056
1.41425
1.41688
1.41843
1.41894
1.41839
1.41678
1.41412
1.4104
1.4056
1.39972
1.39275
1.38466
1.37543
1.36504
1.35348
1.34071
1.32672
1.31149
1.29502
1.27731
1.2584
1.23835
1.2173
1.19544
1.17308
1.15065
1.1287
1.10796
1.08888
1.06923
1.05273
1.04311
1.04077
1.04207
1.04347
1.04718
1.05234
1.05811
1.06385
1.06904
1.07331
1.0764
1.07814
1.07844
1.07728
1.0747
1.07081
1.06578
1.05985
1.05337
1.04672
1.04031
1.03449
1.02938
1.02496
1.02157
1.01926
1.01783
1.01702
1.01667
1.01669
1.01716
1.01826
1.02025
1.02335
1.0275
1.03241
1.03808
1.04438
1.05098
1.05745
1.06341
1.06853
1.07257
1.07536
1.07677
1.10177
1.10161
1.10137
1.10128
1.10157
1.10252
1.10432
1.107
1.11047
1.11473
1.11968
1.12512
1.13077
1.13635
1.14166
1.14656
1.15102
1.1551
1.15898
1.16295
1.16737
1.17268
1.17934
1.18768
1.19782
1.20954
1.22274
1.23714
1.25241
1.26815
1.28399
1.2996
1.31472
1.32917
1.34279
1.35551
1.36725
1.37797
1.38766
1.39631
1.40391
1.41048
1.416
1.4205
1.42397
1.42643
1.42788
1.42832
1.42776
1.42619
1.4236
1.42001
1.41539
1.40975
1.40307
1.39533
1.38653
1.37666
1.3657
1.35364
1.34048
1.32623
1.31089
1.2945
1.27713
1.25886
1.23984
1.22028
1.20046
1.18076
1.16163
1.1436
1.12725
1.11312
1.1015
1.09244
1.08616
1.08295
1.08237
1.08379
1.08654
1.09
1.09365
1.09704
1.09985
1.10182
1.10279
1.10267
1.10142
1.09907
1.0957
1.09145
1.08653
1.08118
1.07569
1.07035
1.06538
1.06095
1.05714
1.05408
1.05182
1.05028
1.04934
1.0489
1.04892
1.04946
1.05059
1.05246
1.05513
1.05859
1.06271
1.06739
1.07248
1.07776
1.08291
1.08767
1.09178
1.09503
1.09728
1.09842
1.13285
1.13286
1.13296
1.13326
1.13394
1.13514
1.137
1.13954
1.14276
1.14659
1.15097
1.15575
1.16074
1.16578
1.17072
1.17547
1.18002
1.18443
1.18883
1.19343
1.19851
1.20436
1.21127
1.21944
1.22896
1.23974
1.25168
1.26456
1.27815
1.29214
1.30626
1.32023
1.33385
1.34694
1.35937
1.37102
1.38184
1.39176
1.40076
1.40882
1.41592
1.42206
1.42724
1.43146
1.43471
1.437
1.43834
1.43871
1.43813
1.4366
1.4341
1.43064
1.42621
1.42081
1.41443
1.40707
1.39871
1.38936
1.37901
1.36767
1.35534
1.34204
1.32781
1.31269
1.29676
1.28012
1.26293
1.24538
1.22773
1.21029
1.19344
1.17758
1.16313
1.15045
1.1398
1.1313
1.12508
1.12115
1.11928
1.11905
1.12002
1.1217
1.12369
1.12563
1.12721
1.12824
1.12854
1.12803
1.12666
1.12445
1.12146
1.11781
1.11363
1.10914
1.10452
1.1
1.09574
1.0919
1.08855
1.0858
1.08367
1.08214
1.08115
1.08066
1.08065
1.08115
1.0822
1.08385
1.08613
1.08902
1.09244
1.09628
1.10041
1.10464
1.10877
1.11258
1.11587
1.11848
1.12029
1.12122
1.16391
1.16404
1.16433
1.16488
1.16577
1.16712
1.16899
1.17143
1.17441
1.17791
1.18186
1.18615
1.19068
1.19531
1.19997
1.20459
1.20917
1.21376
1.21847
1.22345
1.22889
1.23499
1.24193
1.24987
1.25883
1.26879
1.27966
1.29129
1.30347
1.316
1.32866
1.34122
1.35352
1.36539
1.37671
1.38737
1.39731
1.40647
1.4148
1.42228
1.42889
1.43461
1.43944
1.44337
1.4464
1.44853
1.44975
1.45006
1.44947
1.44797
1.44556
1.44224
1.43801
1.43286
1.42679
1.4198
1.41189
1.40306
1.39332
1.38269
1.37117
1.35879
1.34561
1.33168
1.31709
1.30193
1.28637
1.27058
1.25478
1.23924
1.22427
1.21016
1.19724
1.18576
1.17594
1.1679
1.16169
1.15729
1.15453
1.15314
1.15278
1.15311
1.1538
1.15456
1.15515
1.15538
1.1551
1.15424
1.15274
1.15061
1.14789
1.14467
1.14106
1.13721
1.13326
1.12938
1.1257
1.12234
1.11938
1.1169
1.11492
1.11345
1.11246
1.11194
1.11188
1.11229
1.1132
1.11461
1.11653
1.11893
1.12174
1.12488
1.12823
1.13164
1.13495
1.13801
1.14065
1.14274
1.1442
1.14494
1.19485
1.19504
1.19546
1.19614
1.19715
1.19857
1.20043
1.20276
1.20555
1.20878
1.2124
1.21633
1.2205
1.22482
1.22925
1.23375
1.23831
1.24298
1.24784
1.253
1.2586
1.26476
1.27162
1.27925
1.2877
1.29694
1.30689
1.31745
1.32846
1.33975
1.35115
1.36249
1.37361
1.38439
1.3947
1.40445
1.41358
1.422
1.4297
1.43662
1.44275
1.44806
1.45254
1.45619
1.459
1.46096
1.46206
1.46231
1.46171
1.46025
1.45793
1.45475
1.45071
1.44582
1.44006
1.43345
1.42598
1.41767
1.40853
1.39858
1.38784
1.37636
1.36417
1.35134
1.33797
1.32416
1.31004
1.29578
1.28157
1.26764
1.25422
1.24155
1.22989
1.21942
1.21031
1.20266
1.1965
1.1918
1.18842
1.18619
1.18485
1.18414
1.18383
1.18366
1.18344
1.18302
1.18226
1.18108
1.17945
1.17736
1.17483
1.17193
1.16874
1.16537
1.16193
1.15855
1.15533
1.15237
1.14974
1.14749
1.14566
1.14427
1.1433
1.14276
1.14264
1.14295
1.14369
1.14486
1.14644
1.14842
1.15072
1.15328
1.15599
1.15873
1.16139
1.16384
1.16596
1.16764
1.16881
1.16941
1.2256
1.22583
1.22631
1.22706
1.22814
1.22957
1.2314
1.23363
1.23626
1.23926
1.24262
1.24626
1.25015
1.25424
1.25847
1.26283
1.26734
1.27201
1.27691
1.28212
1.28773
1.29384
1.30052
1.30783
1.31578
1.32437
1.33352
1.34316
1.35315
1.36338
1.37369
1.38396
1.39405
1.40385
1.41325
1.42217
1.43053
1.43827
1.44536
1.45175
1.45741
1.46233
1.46648
1.46986
1.47244
1.47424
1.47523
1.47542
1.47481
1.47339
1.47116
1.46813
1.46428
1.45964
1.45419
1.44794
1.44092
1.43311
1.42455
1.41526
1.40527
1.39462
1.38336
1.37155
1.3593
1.34669
1.33385
1.32093
1.30809
1.29552
1.28341
1.27195
1.26134
1.25172
1.24323
1.23593
1.22985
1.22497
1.22118
1.21834
1.21628
1.2148
1.2137
1.21281
1.21195
1.21099
1.20983
1.20839
1.20663
1.20454
1.20214
1.19947
1.1966
1.19359
1.19056
1.18757
1.18472
1.18208
1.17971
1.17767
1.17598
1.17466
1.17372
1.17315
1.17297
1.17317
1.17374
1.17468
1.17597
1.17758
1.17945
1.18152
1.1837
1.18591
1.18805
1.19001
1.19171
1.19306
1.19399
1.19447
1.25612
1.25637
1.25688
1.25767
1.25876
1.26019
1.26196
1.26409
1.26658
1.2694
1.27254
1.27596
1.27962
1.28349
1.28755
1.29178
1.29619
1.30081
1.30568
1.31084
1.31638
1.32234
1.32879
1.33575
1.34324
1.35123
1.35967
1.3685
1.37762
1.38692
1.39629
1.40562
1.41479
1.42371
1.43228
1.44043
1.44809
1.4552
1.46172
1.46761
1.47283
1.47737
1.4812
1.4843
1.48668
1.48832
1.4892
1.48934
1.48872
1.48734
1.4852
1.48231
1.47866
1.47426
1.46911
1.46323
1.45662
1.44931
1.44131
1.43264
1.42336
1.41348
1.40308
1.39222
1.38098
1.36945
1.35774
1.34599
1.33434
1.32293
1.31194
1.30151
1.29179
1.2829
1.27494
1.26798
1.26202
1.25704
1.25297
1.24972
1.24713
1.24507
1.24338
1.24192
1.24055
1.23916
1.23767
1.23601
1.23413
1.23203
1.22972
1.22722
1.22458
1.22186
1.21912
1.21644
1.21388
1.21151
1.20936
1.20749
1.20592
1.20467
1.20375
1.20317
1.20293
1.20301
1.20343
1.20416
1.20519
1.20647
1.20798
1.20964
1.21139
1.21317
1.21488
1.21645
1.21781
1.21889
1.21963
1.22002
1.28639
1.28665
1.28717
1.28796
1.28905
1.29045
1.29216
1.2942
1.29656
1.29923
1.30219
1.30541
1.30888
1.31257
1.31646
1.32055
1.32485
1.32936
1.33413
1.3392
1.34459
1.35036
1.35655
1.36315
1.37019
1.37763
1.38544
1.39356
1.4019
1.41039
1.41893
1.42742
1.43578
1.44391
1.45174
1.45919
1.46621
1.47273
1.47871
1.48413
1.48893
1.49311
1.49663
1.49949
1.50166
1.50314
1.50393
1.50401
1.50338
1.50204
1.49999
1.49724
1.49378
1.48962
1.48477
1.47924
1.47304
1.46619
1.45872
1.45065
1.44203
1.43288
1.42327
1.41327
1.40294
1.39238
1.38168
1.37096
1.36034
1.34994
1.33991
1.33035
1.3214
1.31315
1.30567
1.29902
1.2932
1.2882
1.28396
1.28042
1.27746
1.27497
1.27283
1.27094
1.26917
1.26745
1.26569
1.26383
1.26186
1.25974
1.25748
1.25511
1.25264
1.25014
1.24764
1.2452
1.24287
1.2407
1.23874
1.23701
1.23554
1.23435
1.23345
1.23285
1.23254
1.23253
1.2328
1.23335
1.23414
1.23515
1.23634
1.23767
1.23907
1.24048
1.24184
1.2431
1.24418
1.24504
1.24564
1.24595
1.31641
1.31666
1.31718
1.31797
1.31904
1.32039
1.32205
1.32399
1.32624
1.32877
1.33157
1.33462
1.33792
1.34144
1.34517
1.34912
1.35328
1.35766
1.3623
1.36721
1.37243
1.37798
1.38387
1.39013
1.39673
1.40367
1.4109
1.41838
1.42604
1.43381
1.44161
1.44937
1.45699
1.46442
1.47157
1.47839
1.48481
1.49079
1.49628
1.50125
1.50567
1.5095
1.51273
1.51535
1.51733
1.51867
1.51935
1.51938
1.51875
1.51745
1.5155
1.51288
1.5096
1.50567
1.50111
1.49591
1.4901
1.4837
1.47673
1.46922
1.46121
1.45274
1.44386
1.43464
1.42514
1.41545
1.40564
1.39583
1.38611
1.3766
1.36739
1.3586
1.35032
1.34262
1.33558
1.32922
1.32356
1.31859
1.31427
1.31053
1.30731
1.30451
1.30205
1.29982
1.29775
1.29576
1.29379
1.29179
1.28973
1.28759
1.28537
1.28308
1.28075
1.27841
1.27609
1.27384
1.2717
1.2697
1.26788
1.26626
1.26488
1.26374
1.26285
1.26223
1.26187
1.26176
1.26191
1.26228
1.26287
1.26365
1.26458
1.26562
1.26672
1.26784
1.26892
1.26992
1.27078
1.27146
1.27194
1.27218
1.34616
1.34642
1.34693
1.3477
1.34873
1.35004
1.35163
1.35349
1.35563
1.35803
1.36069
1.36359
1.36673
1.37009
1.37367
1.37746
1.38147
1.38571
1.39019
1.39493
1.39994
1.40524
1.41084
1.41675
1.42294
1.42941
1.43612
1.44302
1.45007
1.4572
1.46434
1.47143
1.47841
1.4852
1.49174
1.49798
1.50386
1.50934
1.51437
1.51893
1.52298
1.52649
1.52945
1.53184
1.53364
1.53484
1.53544
1.53542
1.53479
1.53353
1.53166
1.52917
1.52607
1.52237
1.51808
1.5132
1.50776
1.50178
1.49528
1.48829
1.48085
1.473
1.4648
1.45629
1.44754
1.43862
1.42961
1.42061
1.41168
1.40294
1.39446
1.38634
1.37864
1.37145
1.3648
1.35872
1.35324
1.34833
1.34398
1.34014
1.33674
1.33373
1.33102
1.32855
1.32625
1.32406
1.32193
1.3198
1.31767
1.31551
1.31332
1.3111
1.30887
1.30665
1.30448
1.30238
1.30038
1.29851
1.29681
1.29529
1.29397
1.29287
1.292
1.29135
1.29094
1.29075
1.29078
1.29101
1.29142
1.292
1.2927
1.29351
1.29436
1.29524
1.29609
1.29687
1.29755
1.29809
1.29846
1.29865
1.37566
1.37591
1.37641
1.37715
1.37816
1.37942
1.38094
1.38271
1.38475
1.38703
1.38956
1.39233
1.39532
1.39853
1.40196
1.40559
1.40945
1.41352
1.41782
1.42237
1.42716
1.4322
1.43751
1.44307
1.44888
1.45491
1.46114
1.46752
1.47402
1.48057
1.48712
1.49362
1.50001
1.50622
1.51221
1.51792
1.52331
1.52832
1.53294
1.53712
1.54083
1.54404
1.54675
1.54892
1.55055
1.55163
1.55214
1.55207
1.55144
1.55023
1.54844
1.54608
1.54315
1.53966
1.53562
1.53105
1.52596
1.52037
1.51431
1.50781
1.5009
1.49363
1.48603
1.47817
1.4701
1.46188
1.45359
1.44529
1.43708
1.42901
1.42118
1.41364
1.40647
1.39972
1.39344
1.38763
1.38233
1.37752
1.37319
1.36929
1.36579
1.36263
1.35976
1.35712
1.35465
1.3523
1.35004
1.34783
1.34564
1.34347
1.34129
1.33912
1.33697
1.33485
1.33279
1.33081
1.32892
1.32717
1.32556
1.32411
1.32285
1.32178
1.32091
1.32024
1.31978
1.31951
1.31944
1.31954
1.31981
1.32021
1.32073
1.32133
1.32199
1.32266
1.32332
1.32393
1.32446
1.32488
1.32517
1.32532
1.40492
1.40516
1.40564
1.40636
1.40732
1.40853
1.40998
1.41168
1.41362
1.41579
1.4182
1.42083
1.42369
1.42675
1.43003
1.43351
1.4372
1.4411
1.44522
1.44955
1.45412
1.45891
1.46392
1.46916
1.4746
1.48022
1.486
1.49191
1.4979
1.50394
1.50996
1.51592
1.52178
1.52747
1.53296
1.53819
1.54312
1.54772
1.55195
1.55577
1.55916
1.56211
1.56457
1.56655
1.56802
1.56897
1.5694
1.5693
1.56867
1.5675
1.56579
1.56355
1.56078
1.5575
1.5537
1.54942
1.54466
1.53944
1.53379
1.52774
1.52132
1.51457
1.50754
1.50026
1.4928
1.48522
1.47756
1.46991
1.46231
1.45486
1.44759
1.44058
1.43388
1.42754
1.42159
1.41605
1.41093
1.40624
1.40195
1.39805
1.39449
1.39125
1.38827
1.3855
1.38292
1.38046
1.37811
1.37584
1.37361
1.37142
1.36926
1.36713
1.36504
1.363
1.36103
1.35914
1.35734
1.35567
1.35414
1.35275
1.35153
1.35048
1.34962
1.34893
1.34842
1.34809
1.34793
1.34792
1.34806
1.34832
1.34868
1.34911
1.3496
1.3501
1.3506
1.35107
1.35147
1.3518
1.35202
1.35214
1.43393
1.43416
1.43463
1.43532
1.43624
1.4374
1.43879
1.4404
1.44225
1.44432
1.44662
1.44912
1.45184
1.45476
1.45789
1.46121
1.46474
1.46846
1.47239
1.47652
1.48085
1.48538
1.49011
1.49503
1.50012
1.50537
1.51074
1.51622
1.52175
1.52731
1.53286
1.53834
1.54371
1.54893
1.55396
1.55875
1.56327
1.56748
1.57135
1.57485
1.57796
1.58064
1.58289
1.58468
1.586
1.58685
1.5872
1.58707
1.58643
1.5853
1.58367
1.58155
1.57893
1.57584
1.57228
1.56826
1.56381
1.55894
1.55367
1.54804
1.54207
1.53581
1.52928
1.52254
1.51564
1.50862
1.50154
1.49445
1.48742
1.4805
1.47375
1.46721
1.46094
1.45497
1.44933
1.44404
1.43911
1.43455
1.43034
1.42646
1.42289
1.4196
1.41655
1.41371
1.41105
1.40852
1.40611
1.40379
1.40153
1.39934
1.39719
1.3951
1.39306
1.39108
1.38918
1.38736
1.38565
1.38404
1.38257
1.38123
1.38004
1.37901
1.37814
1.37743
1.37689
1.3765
1.37626
1.37616
1.37618
1.37632
1.37654
1.37684
1.37718
1.37755
1.37792
1.37826
1.37857
1.37882
1.37899
1.37907
1.46272
1.46294
1.46338
1.46404
1.46493
1.46603
1.46736
1.4689
1.47066
1.47263
1.47481
1.4772
1.47979
1.48257
1.48555
1.48872
1.49208
1.49563
1.49936
1.50328
1.50738
1.51166
1.51612
1.52073
1.5255
1.53039
1.53538
1.54046
1.54558
1.55071
1.55581
1.56085
1.56579
1.57058
1.5752
1.57959
1.58373
1.58759
1.59113
1.59433
1.59717
1.59961
1.60166
1.60328
1.60446
1.60521
1.6055
1.60533
1.6047
1.6036
1.60205
1.60003
1.59756
1.59465
1.59131
1.58754
1.58338
1.57883
1.57391
1.56867
1.56312
1.5573
1.55124
1.54499
1.53859
1.53208
1.52552
1.51895
1.51242
1.50598
1.49969
1.49358
1.48769
1.48206
1.47671
1.47166
1.46693
1.4625
1.45838
1.45456
1.45101
1.44771
1.44463
1.44175
1.43904
1.43647
1.43402
1.43167
1.4294
1.42721
1.42508
1.42302
1.42102
1.41909
1.41725
1.41549
1.41383
1.41229
1.41086
1.40956
1.4084
1.40738
1.4065
1.40578
1.40519
1.40475
1.40445
1.40426
1.40419
1.40422
1.40434
1.40452
1.40474
1.40499
1.40525
1.4055
1.40573
1.40591
1.40603
1.4061
1.49128
1.4915
1.49192
1.49255
1.49339
1.49445
1.49571
1.49718
1.49885
1.50073
1.50281
1.50508
1.50754
1.51019
1.51302
1.51604
1.51923
1.5226
1.52614
1.52985
1.53373
1.53777
1.54196
1.54629
1.55074
1.5553
1.55995
1.56465
1.56939
1.57413
1.57883
1.58347
1.58801
1.59242
1.59665
1.60068
1.60448
1.60801
1.61125
1.61417
1.61676
1.61899
1.62085
1.62231
1.62337
1.62402
1.62425
1.62405
1.62342
1.62237
1.62088
1.61897
1.61664
1.6139
1.61076
1.60723
1.60333
1.59908
1.59449
1.5896
1.58444
1.57902
1.57339
1.56758
1.56164
1.5556
1.5495
1.54339
1.53732
1.53133
1.52545
1.51972
1.51419
1.50887
1.5038
1.49898
1.49443
1.49015
1.48614
1.48238
1.47887
1.47559
1.47251
1.46962
1.46689
1.4643
1.46183
1.45947
1.4572
1.45501
1.4529
1.45086
1.4489
1.44702
1.44523
1.44352
1.44191
1.44041
1.43902
1.43775
1.43661
1.4356
1.43472
1.43397
1.43336
1.43287
1.43251
1.43226
1.43211
1.43205
1.43207
1.43215
1.43228
1.43243
1.4326
1.43277
1.43292
1.43305
1.43314
1.43318
1.51964
1.51984
1.52024
1.52084
1.52165
1.52265
1.52385
1.52525
1.52685
1.52863
1.5306
1.53276
1.5351
1.53762
1.54031
1.54318
1.54621
1.5494
1.55276
1.55627
1.55992
1.56373
1.56766
1.57172
1.57588
1.58013
1.58445
1.58881
1.5932
1.59758
1.60192
1.6062
1.61037
1.61442
1.61831
1.622
1.62548
1.62872
1.63168
1.63436
1.63672
1.63874
1.64042
1.64174
1.64269
1.64325
1.64342
1.6432
1.64258
1.64156
1.64014
1.63833
1.63613
1.63354
1.63059
1.62728
1.62363
1.61966
1.61538
1.61082
1.606
1.60096
1.59572
1.59032
1.58479
1.57917
1.5735
1.56781
1.56215
1.55655
1.55105
1.54568
1.54047
1.53544
1.53062
1.52603
1.52166
1.51753
1.51363
1.50997
1.50651
1.50327
1.50021
1.49732
1.49459
1.492
1.48953
1.48717
1.48491
1.48273
1.48064
1.47864
1.47671
1.47487
1.47311
1.47145
1.46988
1.46841
1.46706
1.46581
1.46469
1.46368
1.4628
1.46204
1.4614
1.46087
1.46046
1.46015
1.45993
1.4598
1.45974
1.45974
1.45978
1.45985
1.45995
1.46005
1.46015
1.46023
1.46029
1.46032
1.54779
1.54798
1.54836
1.54894
1.5497
1.55066
1.5518
1.55313
1.55465
1.55634
1.55822
1.56027
1.56249
1.56488
1.56743
1.57015
1.57302
1.57604
1.57921
1.58253
1.58597
1.58955
1.59324
1.59704
1.60092
1.60489
1.6089
1.61296
1.61702
1.62107
1.62507
1.62902
1.63286
1.63658
1.64015
1.64355
1.64674
1.6497
1.65241
1.65485
1.657
1.65884
1.66037
1.66155
1.66239
1.66287
1.66299
1.66275
1.66213
1.66115
1.65979
1.65807
1.65599
1.65356
1.65079
1.64768
1.64426
1.64054
1.63654
1.63228
1.62779
1.62309
1.61821
1.61318
1.60803
1.60279
1.59751
1.5922
1.58691
1.58168
1.57652
1.57147
1.56656
1.56181
1.55723
1.55284
1.54866
1.54468
1.5409
1.53733
1.53395
1.53076
1.52774
1.52488
1.52216
1.51958
1.51712
1.51477
1.51253
1.51037
1.50831
1.50633
1.50444
1.50263
1.50091
1.49928
1.49775
1.49631
1.49498
1.49376
1.49265
1.49165
1.49076
1.48999
1.48932
1.48876
1.48831
1.48795
1.48767
1.48747
1.48735
1.48727
1.48725
1.48726
1.48729
1.48734
1.48739
1.48743
1.48746
1.48748
1.57575
1.57593
1.57629
1.57684
1.57757
1.57848
1.57956
1.58083
1.58226
1.58387
1.58565
1.5876
1.5897
1.59197
1.59439
1.59696
1.59968
1.60253
1.60553
1.60865
1.6119
1.61525
1.61871
1.62227
1.6259
1.62959
1.63332
1.63709
1.64085
1.64459
1.6483
1.65193
1.65547
1.6589
1.66218
1.66529
1.66822
1.67093
1.67341
1.67564
1.67759
1.67927
1.68064
1.6817
1.68244
1.68286
1.68293
1.68266
1.68206
1.6811
1.67981
1.67818
1.67621
1.67392
1.67131
1.66839
1.66519
1.6617
1.65796
1.65399
1.64979
1.6454
1.64085
1.63616
1.63135
1.62647
1.62153
1.61657
1.61163
1.60672
1.60188
1.59713
1.59249
1.58799
1.58364
1.57946
1.57545
1.57162
1.56797
1.5645
1.5612
1.55807
1.5551
1.55228
1.5496
1.54704
1.5446
1.54228
1.54005
1.53792
1.53588
1.53393
1.53207
1.5303
1.52861
1.52702
1.52551
1.52411
1.5228
1.5216
1.5205
1.5195
1.51861
1.51782
1.51714
1.51655
1.51606
1.51565
1.51533
1.51508
1.5149
1.51477
1.51469
1.51464
1.51462
1.51462
1.51463
1.51464
1.51465
1.51466
1.60352
1.6037
1.60404
1.60456
1.60525
1.60612
1.60715
1.60835
1.60971
1.61124
1.61292
1.61477
1.61676
1.61891
1.6212
1.62363
1.62619
1.62889
1.63171
1.63465
1.6377
1.64085
1.6441
1.64742
1.65081
1.65425
1.65772
1.66121
1.6647
1.66816
1.67158
1.67494
1.6782
1.68135
1.68437
1.68723
1.68991
1.69239
1.69466
1.69669
1.69847
1.69999
1.70123
1.70218
1.70283
1.70317
1.70321
1.70293
1.70232
1.7014
1.70017
1.69861
1.69675
1.69459
1.69214
1.6894
1.68639
1.68313
1.67963
1.6759
1.67198
1.66788
1.66363
1.65925
1.65476
1.65019
1.64558
1.64094
1.6363
1.6317
1.62714
1.62267
1.61829
1.61403
1.60989
1.6059
1.60206
1.59838
1.59486
1.59149
1.58828
1.58523
1.58232
1.57954
1.5769
1.57438
1.57198
1.56968
1.56748
1.56538
1.56337
1.56145
1.55962
1.55788
1.55622
1.55466
1.55318
1.5518
1.55052
1.54933
1.54824
1.54725
1.54635
1.54556
1.54485
1.54424
1.54372
1.54328
1.54292
1.54262
1.54239
1.54222
1.54208
1.54199
1.54193
1.54189
1.54187
1.54186
1.54185
1.54185
1.63113
1.63129
1.63162
1.63211
1.63277
1.63359
1.63456
1.6357
1.63699
1.63844
1.64004
1.64178
1.64367
1.6457
1.64786
1.65016
1.65258
1.65512
1.65778
1.66055
1.66341
1.66636
1.6694
1.67251
1.67567
1.67887
1.6821
1.68534
1.68857
1.69178
1.69494
1.69803
1.70104
1.70394
1.70671
1.70934
1.7118
1.71407
1.71614
1.71799
1.71961
1.72099
1.7221
1.72295
1.72352
1.72381
1.7238
1.7235
1.72291
1.72202
1.72084
1.71936
1.7176
1.71556
1.71325
1.71067
1.70785
1.70479
1.70151
1.69802
1.69435
1.69052
1.68654
1.68244
1.67824
1.67397
1.66965
1.6653
1.66095
1.65662
1.65234
1.64811
1.64397
1.63993
1.636
1.63219
1.62852
1.62498
1.62158
1.61833
1.61521
1.61224
1.60939
1.60668
1.60409
1.60161
1.59924
1.59698
1.59482
1.59275
1.59077
1.58888
1.58708
1.58537
1.58375
1.58221
1.58076
1.5794
1.57814
1.57696
1.57588
1.57489
1.574
1.57319
1.57248
1.57185
1.5713
1.57083
1.57043
1.5701
1.56983
1.56962
1.56944
1.56931
1.56922
1.56914
1.56909
1.56906
1.56904
1.56903
1.65856
1.65872
1.65903
1.6595
1.66012
1.66089
1.66182
1.6629
1.66412
1.66549
1.667
1.66865
1.67044
1.67235
1.6744
1.67656
1.67885
1.68124
1.68374
1.68634
1.68903
1.69179
1.69463
1.69753
1.70048
1.70347
1.70647
1.70948
1.71247
1.71544
1.71836
1.72122
1.72399
1.72666
1.72921
1.73162
1.73387
1.73595
1.73784
1.73953
1.741
1.74225
1.74325
1.744
1.7445
1.74473
1.74469
1.74438
1.74379
1.74293
1.7418
1.74039
1.73873
1.7368
1.73462
1.73219
1.72954
1.72667
1.72359
1.72032
1.71689
1.7133
1.70957
1.70573
1.7018
1.69779
1.69374
1.68966
1.68557
1.6815
1.67746
1.67347
1.66956
1.66572
1.66198
1.65835
1.65483
1.65144
1.64817
1.64502
1.64201
1.63911
1.63634
1.63369
1.63115
1.62873
1.6264
1.62418
1.62205
1.62002
1.61808
1.61622
1.61446
1.61278
1.61118
1.60967
1.60825
1.60691
1.60566
1.6045
1.60343
1.60245
1.60155
1.60074
1.60002
1.59937
1.5988
1.59831
1.59788
1.59752
1.59722
1.59697
1.59677
1.5966
1.59647
1.59638
1.59631
1.59625
1.59622
1.59621
1.68584
1.68599
1.68629
1.68673
1.68732
1.68805
1.68893
1.68995
1.6911
1.6924
1.69383
1.69539
1.69707
1.69888
1.70081
1.70285
1.705
1.70725
1.7096
1.71204
1.71456
1.71715
1.71981
1.72251
1.72526
1.72804
1.73083
1.73362
1.7364
1.73915
1.74185
1.74448
1.74704
1.7495
1.75184
1.75405
1.75612
1.75802
1.75975
1.76129
1.76262
1.76374
1.76464
1.76531
1.76573
1.76592
1.76585
1.76552
1.76495
1.76412
1.76303
1.76169
1.76011
1.75829
1.75623
1.75395
1.75145
1.74875
1.74586
1.7428
1.73957
1.73621
1.73271
1.72911
1.72543
1.72167
1.71786
1.71403
1.71018
1.70635
1.70254
1.69877
1.69506
1.69142
1.68786
1.68439
1.68103
1.67777
1.67463
1.67159
1.66867
1.66587
1.66317
1.66059
1.65811
1.65574
1.65346
1.65128
1.6492
1.6472
1.6453
1.64348
1.64174
1.64009
1.63853
1.63704
1.63565
1.63433
1.6331
1.63196
1.63089
1.62992
1.62902
1.62821
1.62747
1.62682
1.62623
1.62572
1.62527
1.62488
1.62455
1.62428
1.62404
1.62386
1.6237
1.62358
1.62349
1.62343
1.62339
1.62337
1.71298
1.71312
1.7134
1.71381
1.71437
1.71506
1.71589
1.71686
1.71795
1.71917
1.72052
1.72199
1.72358
1.72529
1.72711
1.72903
1.73105
1.73317
1.73537
1.73766
1.74002
1.74245
1.74493
1.74745
1.75002
1.7526
1.75519
1.75779
1.76036
1.7629
1.7654
1.76783
1.77019
1.77245
1.7746
1.77663
1.77853
1.78027
1.78184
1.78324
1.78445
1.78546
1.78627
1.78685
1.78722
1.78735
1.78726
1.78693
1.78636
1.78555
1.78451
1.78324
1.78174
1.78001
1.77807
1.77591
1.77356
1.77102
1.76831
1.76543
1.7624
1.75924
1.75596
1.75259
1.74912
1.74559
1.74202
1.73841
1.73479
1.73117
1.72757
1.724
1.72049
1.71703
1.71364
1.71034
1.70712
1.70399
1.70097
1.69805
1.69522
1.69251
1.68989
1.68738
1.68496
1.68265
1.68042
1.67829
1.67625
1.6743
1.67243
1.67065
1.66895
1.66733
1.66579
1.66433
1.66296
1.66167
1.66045
1.65932
1.65827
1.6573
1.65641
1.65559
1.65485
1.65419
1.65359
1.65306
1.65259
1.65219
1.65184
1.65154
1.65128
1.65107
1.6509
1.65076
1.65066
1.65058
1.65053
1.65051
1.73997
1.7401
1.74036
1.74076
1.74129
1.74194
1.74273
1.74363
1.74467
1.74582
1.74709
1.74848
1.74998
1.75159
1.7533
1.7551
1.75701
1.75899
1.76106
1.76321
1.76542
1.76768
1.77
1.77236
1.77475
1.77715
1.77956
1.78196
1.78435
1.7867
1.78901
1.79125
1.79343
1.79551
1.79749
1.79935
1.80108