/*--------------------------------*- C++ -*----------------------------------*\
| =========                 |                                                 |
| \\      /  F ield         | OpenFOAM: The Open Source CFD Toolbox           |
|  \\    /   O peration     | Version:  2406                                  |
|   \\  /    A nd           | Website:  www.openfoam.com                      |
|    \\/     M anipulation  |                                                 |
\*---------------------------------------------------------------------------*/
FoamFile
{
    version     2.0;
    format      ascii;
    arch        "LSB;label=32;scalar=64";
    class       volScalarField;
    location    "4.2";
    object      C_0;
}
// * * * * * * * * * * * * * * * * * * * * * * * * * * * * * * * * * * * * * //

dimensions      [1 -3 0 0 0 0 0];

internalField   nonuniform List<scalar> 
14400
(
0.412872
0.406479
0.397405
0.388092
0.380069
0.374287
0.371341
0.371584
0.375191
0.38218
0.392414
0.40557
0.421069
0.43791
0.454137
0.464159
0.460665
0.448488
0.433902
0.420487
0.409831
0.402849
0.400165
0.402259
0.409538
0.422379
0.441147
0.46621
0.497929
0.536643
0.582589
0.635672
0.694459
0.749332
0.787476
0.814443
0.83815
0.858998
0.877297
0.893288
0.907162
0.919067
0.929124
0.937426
0.944049
0.949048
0.952467
0.954335
0.954672
0.953483
0.950765
0.946504
0.940674
0.933237
0.924142
0.913324
0.900698
0.886162
0.869585
0.850805
0.829622
0.805783
0.778969
0.747356
0.69941
0.635746
0.576392
0.52376
0.478179
0.43947
0.407288
0.381251
0.360991
0.346181
0.336545
0.331862
0.331963
0.336727
0.346072
0.359939
0.378264
0.400939
0.427717
0.458017
0.490078
0.513867
0.525677
0.530818
0.530214
0.523416
0.505768
0.480084
0.454941
0.432398
0.413208
0.397639
0.385708
0.377257
0.371977
0.369396
0.368882
0.369644
0.370804
0.371557
0.371507
0.371093
0.371157
0.372614
0.376293
0.38287
0.392865
0.406649
0.424447
0.446327
0.472113
0.501156
0.531456
0.553248
0.563837
0.568755
0.430233
0.42101
0.409842
0.399124
0.390158
0.383763
0.38046
0.380569
0.384249
0.391513
0.402223
0.416071
0.432489
0.450459
0.467752
0.476954
0.474589
0.461649
0.445584
0.431071
0.419612
0.412047
0.408961
0.410812
0.417997
0.430886
0.449838
0.47521
0.507357
0.546608
0.593182
0.646951
0.706334
0.757028
0.791239
0.817699
0.841008
0.861547
0.879604
0.895406
0.909129
0.920916
0.930878
0.939107
0.945672
0.950628
0.954017
0.955868
0.956197
0.955012
0.952308
0.948073
0.94228
0.934894
0.925865
0.91513
0.902609
0.888203
0.871786
0.853208
0.832279
0.808758
0.782336
0.752342
0.708217
0.64633
0.586565
0.53322
0.486972
0.447693
0.415041
0.388629
0.368088
0.353087
0.343351
0.338657
0.338837
0.343771
0.353377
0.367601
0.386385
0.409622
0.43704
0.467881
0.499616
0.521105
0.531642
0.536562
0.536214
0.530502
0.516094
0.491443
0.465654
0.442485
0.42284
0.40699
0.39496
0.386608
0.381637
0.379581
0.379788
0.381392
0.383337
0.384486
0.384027
0.382819
0.382035
0.382767
0.385916
0.392177
0.402065
0.415934
0.433996
0.456308
0.48268
0.512271
0.541386
0.559794
0.56912
0.573674
0.459019
0.448182
0.433937
0.420862
0.410212
0.402683
0.398705
0.398562
0.402391
0.410195
0.421831
0.436998
0.455112
0.474987
0.492264
0.498104
0.497046
0.486096
0.468351
0.452061
0.439151
0.430484
0.42662
0.427996
0.434999
0.447989
0.46731
0.493298
0.526286
0.566569
0.614275
0.668841
0.726742
0.769226
0.798665
0.824105
0.846636
0.866577
0.884168
0.899602
0.913034
0.924589
0.934367
0.94245
0.948903
0.953775
0.957106
0.958921
0.959236
0.958058
0.955384
0.951199
0.94548
0.938194
0.929295
0.918723
0.906406
0.892252
0.87615
0.857963
0.837526
0.814633
0.789035
0.760437
0.723147
0.66801
0.606956
0.552156
0.504618
0.46423
0.430653
0.403498
0.382396
0.367016
0.35708
0.352365
0.352702
0.357972
0.368096
0.383021
0.4027
0.427033
0.455729
0.487773
0.517123
0.533887
0.543032
0.547573
0.547573
0.543045
0.533274
0.513171
0.486713
0.462532
0.442078
0.4257
0.413478
0.405317
0.400964
0.399974
0.401683
0.40511
0.408901
0.411197
0.409562
0.406489
0.403872
0.403094
0.405169
0.4108
0.420479
0.434515
0.453071
0.476153
0.50351
0.533784
0.557855
0.57112
0.579161
0.583146
0.490489
0.484345
0.468434
0.452822
0.440041
0.431001
0.426091
0.425599
0.42966
0.438254
0.451199
0.468174
0.488348
0.509489
0.521226
0.524318
0.524088
0.518466
0.501505
0.483266
0.468445
0.458244
0.453273
0.453961
0.460702
0.473853
0.493734
0.520636
0.554843
0.596585
0.645901
0.701491
0.749817
0.782745
0.809448
0.833419
0.854856
0.873955
0.890887
0.9058
0.918816
0.930038
0.93955
0.947424
0.953714
0.958465
0.96171
0.963473
0.963769
0.962602
0.959969
0.955858
0.950248
0.943108
0.934396
0.924062
0.912039
0.89825
0.882598
0.86497
0.845229
0.823213
0.798731
0.771547
0.740539
0.696311
0.636529
0.580425
0.531208
0.489256
0.454332
0.426081
0.404145
0.388198
0.377963
0.373215
0.373787
0.379556
0.390442
0.406389
0.42734
0.453164
0.483371
0.515891
0.538885
0.551119
0.559025
0.563124
0.56346
0.560127
0.553331
0.540572
0.51717
0.492267
0.470873
0.453775
0.441269
0.43337
0.429922
0.430527
0.434566
0.440942
0.448046
0.453123
0.448654
0.442243
0.436667
0.433549
0.434016
0.438724
0.448115
0.462397
0.481618
0.505565
0.533546
0.560622
0.57676
0.586605
0.593259
0.596602
0.522883
0.521365
0.511872
0.494472
0.479392
0.468661
0.462609
0.461697
0.466073
0.475684
0.490192
0.50924
0.530894
0.545622
0.551191
0.553781
0.554202
0.552525
0.543365
0.524332
0.507474
0.495439
0.489099
0.488903
0.495306
0.50869
0.529336
0.557428
0.593132
0.636383
0.686494
0.736598
0.771687
0.798434
0.822963
0.845268
0.865414
0.8835
0.899627
0.913895
0.926392
0.937195
0.946373
0.95398
0.960064
0.964659
0.967796
0.969494
0.969764
0.968611
0.966032
0.962017
0.956545
0.949592
0.941121
0.931088
0.91944
0.90611
0.891022
0.874088
0.855206
0.834261
0.811129
0.785684
0.757823
0.724261
0.675281
0.618122
0.566917
0.523029
0.486385
0.456703
0.433667
0.41697
0.406337
0.401547
0.402428
0.408857
0.420738
0.437984
0.4605
0.488051
0.519548
0.547444
0.562516
0.572156
0.578825
0.582439
0.583015
0.58067
0.575648
0.568365
0.554345
0.530986
0.509069
0.491147
0.478264
0.470643
0.468329
0.470929
0.477978
0.487938
0.498765
0.502148
0.499303
0.489131
0.47996
0.473823
0.472279
0.475829
0.484909
0.499521
0.519491
0.543887
0.570402
0.587432
0.597421
0.605278
0.610667
0.613401
0.556583
0.555834
0.553346
0.543834
0.527526
0.515478
0.508111
0.506741
0.511498
0.522319
0.538182
0.558384
0.572675
0.579375
0.583019
0.585413
0.586392
0.585992
0.583986
0.573975
0.555955
0.542068
0.534264
0.532997
0.53898
0.552689
0.574333
0.603838
0.641156
0.685189
0.732297
0.766727
0.792283
0.816337
0.838701
0.859274
0.878033
0.895002
0.910226
0.92376
0.93566
0.94598
0.954766
0.962061
0.967901
0.972313
0.975322
0.976941
0.977182
0.976046
0.973533
0.969631
0.964325
0.957593
0.949407
0.939731
0.928521
0.915727
0.901293
0.885155
0.867245
0.847495
0.82584
0.802236
0.776683
0.749263
0.714153
0.663795
0.611621
0.565803
0.527177
0.495762
0.471378
0.453755
0.442631
0.437787
0.439051
0.446292
0.459387
0.478142
0.502328
0.531278
0.561175
0.578452
0.588339
0.596161
0.601682
0.604791
0.605491
0.603889
0.600208
0.594799
0.58806
0.575162
0.555759
0.537367
0.524129
0.516693
0.515665
0.520199
0.529988
0.539273
0.543847
0.544296
0.544372
0.540387
0.531839
0.522941
0.519438
0.521673
0.530531
0.545452
0.565804
0.58779
0.603225
0.612337
0.620181
0.626417
0.630732
0.632934
0.591033
0.590674
0.590082
0.588285
0.581363
0.570465
0.561826
0.560174
0.565217
0.577158
0.592421
0.603538
0.609343
0.612977
0.616098
0.618462
0.619961
0.62064
0.620686
0.619403
0.611636
0.597422
0.588735
0.586212
0.591686
0.605822
0.628738
0.65959
0.697834
0.73738
0.768276
0.791681
0.814331
0.835928
0.856231
0.875094
0.892443
0.908249
0.922515
0.93526
0.94651
0.956297
0.96465
0.971597
0.977164
0.981372
0.984235
0.985767
0.985975
0.98486
0.98242
0.978648
0.97353
0.96705
0.959184
0.949906
0.939185
0.926985
0.913268
0.897994
0.881126
0.862633
0.8425
0.820738
0.797406
0.772634
0.746632
0.712243
0.664496
0.617705
0.577053
0.543665
0.517726
0.499032
0.487326
0.482416
0.484125
0.492307
0.506822
0.527151
0.55273
0.581544
0.599113
0.608377
0.616209
0.622467
0.62695
0.629552
0.630269
0.629188
0.626496
0.622482
0.617528
0.612069
0.602546
0.590039
0.577368
0.569914
0.570254
0.57517
0.579624
0.581757
0.581069
0.581028
0.581636
0.582912
0.58142
0.577763
0.573831
0.574657
0.583491
0.597826
0.612311
0.623891
0.631363
0.638385
0.644547
0.649478
0.65291
0.654667
0.625841
0.625746
0.625658
0.625785
0.625993
0.623245
0.620214
0.619638
0.623946
0.63089
0.63746
0.64098
0.644019
0.647094
0.649935
0.652373
0.65435
0.655923
0.65727
0.658696
0.659787
0.656574
0.651276
0.647579
0.652683
0.667256
0.691446
0.721914
0.751231
0.776134
0.796728
0.817294
0.837431
0.856813
0.8752
0.892429
0.908394
0.923036
0.936325
0.948253
0.958824
0.968047
0.975939
0.982514
0.987788
0.991773
0.994481
0.995918
0.996091
0.994999
0.992641
0.98901
0.984098
0.977891
0.970373
0.961526
0.951329
0.93976
0.926799
0.912426
0.89663
0.879411
0.860788
0.840809
0.819568
0.797215
0.773973
0.750113
0.718886
0.677706
0.63599
0.600613
0.573071
0.553238
0.54087
0.53588
0.538058
0.547191
0.563279
0.584559
0.609116
0.624623
0.63259
0.639587
0.645654
0.650549
0.654096
0.6562
0.656845
0.656098
0.654107
0.651102
0.647387
0.643339
0.639409
0.634232
0.627849
0.622856
0.621026
0.620854
0.619567
0.617946
0.617168
0.61711
0.617748
0.619129
0.621403
0.623414
0.624456
0.627408
0.633758
0.641624
0.648421
0.654018
0.659793
0.665293
0.670142
0.67404
0.676762
0.678159
0.660746
0.660812
0.661018
0.661508
0.662491
0.664278
0.665986
0.667404
0.669824
0.671992
0.673682
0.676001
0.678662
0.681443
0.684173
0.686747
0.689143
0.69143
0.693775
0.696448
0.699834
0.704361
0.707126
0.710796
0.718734
0.732801
0.751558
0.771354
0.789502
0.80704
0.825131
0.843334
0.861285
0.878692
0.895329
0.911027
0.925669
0.939175
0.951497
0.962604
0.972483
0.98113
0.988544
0.994732
0.999699
1.00345
1.006
1.00733
1.00747
1.0064
1.00413
1.00065
0.99596
0.990042
0.98289
0.974494
0.964843
0.953928
0.941741
0.928281
0.913558
0.897594
0.880432
0.862144
0.842841
0.822685
0.801891
0.780738
0.759559
0.733706
0.701756
0.665775
0.637315
0.616524
0.603402
0.598328
0.600917
0.610455
0.627645
0.644042
0.655383
0.661085
0.666567
0.671726
0.676271
0.679978
0.682687
0.684306
0.684812
0.684251
0.682733
0.680433
0.677579
0.674441
0.671309
0.668428
0.665951
0.663242
0.660041
0.656949
0.654719
0.65327
0.652546
0.652498
0.653116
0.654433
0.656521
0.659466
0.663385
0.667564
0.671411
0.675146
0.679367
0.683905
0.688499
0.692852
0.696689
0.699778
0.701937
0.703048
0.695583
0.695739
0.696096
0.696739
0.697773
0.699278
0.70114
0.703162
0.70483
0.706527
0.708436
0.710679
0.713185
0.715845
0.718566
0.721298
0.724044
0.72688
0.729952
0.733485
0.737787
0.743246
0.75036
0.759268
0.769183
0.780981
0.793736
0.807144
0.821822
0.837373
0.853422
0.869627
0.885685
0.901342
0.916395
0.930681
0.944078
0.9565
0.967882
0.978183
0.987376
0.995444
1.00238
1.00817
1.01283
1.01634
1.01872
1.01995
1.02005
1.01901
1.01684
1.01351
1.00905
1.00343
0.996652
0.988718
0.979623
0.969367
0.957955
0.945401
0.931728
0.916975
0.901201
0.884492
0.866969
0.848792
0.830168
0.811357
0.792672
0.774495
0.755201
0.732373
0.708195
0.687448
0.673509
0.668354
0.671084
0.678154
0.685458
0.690891
0.693704
0.697164
0.700868
0.704478
0.707726
0.710405
0.712368
0.713525
0.713847
0.713359
0.71214
0.710317
0.708054
0.705538
0.702958
0.700456
0.698079
0.695673
0.693186
0.690889
0.68909
0.687871
0.687248
0.687219
0.687786
0.688965
0.690781
0.693239
0.69628
0.699613
0.702971
0.706387
0.709996
0.713734
0.717444
0.720927
0.723986
0.726444
0.728163
0.729046
0.730264
0.730463
0.730887
0.731579
0.732584
0.733919
0.73552
0.737268
0.739016
0.740847
0.742855
0.745095
0.747553
0.750185
0.75295
0.755833
0.758857
0.762094
0.765667
0.769755
0.774583
0.780406
0.787476
0.795893
0.805557
0.816127
0.827621
0.840007
0.85327
0.867206
0.881559
0.896065
0.910483
0.924598
0.938227
0.951222
0.963464
0.974863
0.985349
0.994871
1.00339
1.01089
1.01735
1.02275
1.02709
1.03037
1.03257
1.03371
1.03377
1.03276
1.03068
1.02752
1.02328
1.01797
1.01157
1.0041
0.995563
0.985961
0.975311
0.963638
0.950977
0.937376
0.922904
0.907655
0.891751
0.875346
0.858634
0.841849
0.825268
0.809216
0.794067
0.780142
0.765227
0.75099
0.739716
0.733091
0.730815
0.730705
0.7299
0.729919
0.731099
0.733
0.735263
0.737593
0.739749
0.741548
0.742853
0.74358
0.743692
0.743199
0.742152
0.740641
0.73878
0.7367
0.734527
0.732358
0.730237
0.728155
0.726141
0.724331
0.72288
0.721875
0.721357
0.721343
0.721842
0.722862
0.7244
0.726431
0.728882
0.731607
0.734471
0.737435
0.740495
0.743592
0.746616
0.749427
0.751882
0.753849
0.755223
0.755929
0.764747
0.764963
0.765409
0.766104
0.767067
0.768294
0.76975
0.771375
0.773117
0.774992
0.777042
0.779292
0.781746
0.784391
0.787217
0.790228
0.793457
0.79697
0.800868
0.805286
0.810381
0.816321
0.823244
0.831207
0.840163
0.849984
0.860613
0.871992
0.884045
0.896624
0.90954
0.922593
0.935586
0.948339
0.960694
0.972516
0.983694
0.994139
1.00378
1.01256
1.02044
1.02738
1.03337
1.03839
1.04242
1.04546
1.0475
1.04854
1.04857
1.04759
1.0456
1.0426
1.0386
1.03358
1.02757
1.02056
1.01257
1.0036
0.993691
0.982865
0.971165
0.958647
0.945386
0.931474
0.917033
0.902206
0.887172
0.872135
0.857335
0.843034
0.829517
0.817056
0.805883
0.796208
0.787843
0.780781
0.775115
0.771095
0.768779
0.767769
0.767771
0.768474
0.769592
0.770879
0.772131
0.773184
0.773917
0.77425
0.774143
0.773592
0.772629
0.771314
0.769726
0.767956
0.766093
0.76421
0.762358
0.760569
0.758892
0.757413
0.756223
0.755392
0.754961
0.754953
0.755379
0.75624
0.757525
0.759201
0.76121
0.763462
0.765873
0.768385
0.770957
0.773524
0.776001
0.778283
0.780265
0.781848
0.782951
0.783517
0.799014
0.799234
0.799681
0.800363
0.801285
0.802441
0.803812
0.805366
0.807083
0.808964
0.811027
0.813286
0.815749
0.818418
0.821297
0.824403
0.827772
0.831461
0.83555
0.840138
0.845336
0.851253
0.857973
0.86553
0.873903
0.883031
0.892854
0.903304
0.914294
0.925704
0.937385
0.94918
0.960928
0.972478
0.983693
0.994454
1.00466
1.01422
1.02307
1.03115
1.03841
1.04483
1.05037
1.05501
1.05875
1.06156
1.06343
1.06437
1.06437
1.06342
1.06153
1.05869
1.05492
1.0502
1.04456
1.038
1.03054
1.02219
1.01299
1.00297
0.992171
0.980662
0.968516
0.955824
0.942699
0.929275
0.915711
0.902186
0.888901
0.876069
0.863911
0.852633
0.842409
0.833357
0.825477
0.818783
0.813332
0.809197
0.806351
0.804605
0.803743
0.803532
0.803751
0.804202
0.804711
0.80514
0.805381
0.80536
0.805036
0.804397
0.803459
0.802259
0.800853
0.799305
0.797678
0.796032
0.794415
0.79287
0.791446
0.790205
0.789209
0.788509
0.788142
0.788129
0.788481
0.789195
0.790258
0.79164
0.793294
0.795159
0.797172
0.799277
0.801422
0.803547
0.80558
0.80744
0.809047
0.810326
0.811215
0.811672
0.83306
0.833278
0.833717
0.834381
0.835268
0.836375
0.837689
0.839195
0.840884
0.842755
0.844815
0.847076
0.849546
0.852233
0.85515
0.858317
0.861769
0.865553
0.869732
0.874379
0.879572
0.885382
0.891863
0.899036
0.906889
0.915384
0.924467
0.934075
0.944123
0.954511
0.965118
0.975814
0.986467
0.996951
1.00715
1.01695
1.02626
1.03501
1.04313
1.05055
1.05724
1.06315
1.06826
1.07255
1.07599
1.07858
1.0803
1.08115
1.08111
1.0802
1.0784
1.07573
1.07217
1.06775
1.06247
1.05634
1.04939
1.04163
1.0331
1.02384
1.01389
1.00332
0.992192
0.980606
0.968663
0.956485
0.944212
0.931998
0.920012
0.90843
0.897424
0.887157
0.877762
0.869334
0.861917
0.855541
0.850233
0.846009
0.842823
0.84056
0.839062
0.838159
0.83768
0.837465
0.837372
0.837283
0.837106
0.836774
0.836245
0.835501
0.834549
0.833411
0.832124
0.830731
0.829283
0.827824
0.8264
0.82505
0.823818
0.822752
0.821898
0.821293
0.820969
0.820941
0.82122
0.821801
0.822672
0.823806
0.825167
0.826708
0.828378
0.830129
0.831908
0.833663
0.835331
0.83685
0.838157
0.839194
0.839913
0.840282
0.866888
0.867102
0.86753
0.868174
0.869032
0.870101
0.871373
0.872842
0.874503
0.876355
0.878404
0.880658
0.883126
0.885819
0.888752
0.891946
0.895432
0.899249
0.903446
0.908075
0.913191
0.918841
0.925061
0.931861
0.939234
0.947147
0.955557
0.964404
0.973614
0.9831
0.992761
1.00249
1.01218
1.02171
1.03099
1.03993
1.04844
1.05644
1.06387
1.07069
1.07683
1.08227
1.08698
1.09093
1.0941
1.09647
1.09804
1.0988
1.09874
1.09786
1.09616
1.09364
1.0903
1.08616
1.08123
1.07552
1.06905
1.06185
1.05395
1.0454
1.03623
1.02652
1.01633
1.00574
0.994861
0.98379
0.972652
0.961583
0.950721
0.940213
0.930199
0.920808
0.912148
0.904301
0.897317
0.891228
0.886051
0.881781
0.878374
0.875747
0.873786
0.872363
0.871345
0.870605
0.870028
0.869515
0.868987
0.868384
0.867667
0.866815
0.865826
0.864712
0.863498
0.862214
0.860897
0.859583
0.858309
0.857111
0.856025
0.855088
0.854336
0.853798
0.853497
0.853448
0.853656
0.854118
0.854822
0.855746
0.85686
0.858127
0.859505
0.860951
0.86242
0.863863
0.865231
0.866473
0.867537
0.868379
0.868962
0.869261
0.900502
0.90071
0.901127
0.901753
0.902585
0.903623
0.904862
0.906298
0.90793
0.909758
0.911788
0.914026
0.916481
0.919164
0.922092
0.925283
0.928764
0.932566
0.936726
0.941283
0.946274
0.951732
0.957677
0.964115
0.971036
0.978415
0.98621
0.994369
1.00283
1.01151
1.02034
1.02921
1.03803
1.04672
1.05519
1.06334
1.07111
1.07843
1.08524
1.09149
1.09713
1.10213
1.10646
1.11009
1.113
1.11517
1.1166
1.11728
1.11719
1.11634
1.11473
1.11236
1.10923
1.10536
1.10076
1.09544
1.08944
1.08276
1.07546
1.06756
1.05912
1.0502
1.04086
1.03118
1.02125
1.01116
1.00103
0.990958
0.981077
0.971503
0.962351
0.953728
0.945722
0.938404
0.931822
0.926004
0.920964
0.916689
0.913145
0.910268
0.907973
0.906162
0.904732
0.903582
0.90262
0.901762
0.900943
0.900109
0.899223
0.898265
0.897227
0.896114
0.894942
0.893731
0.892508
0.891302
0.890143
0.889059
0.888082
0.88724
0.88656
0.886065
0.885774
0.885697
0.885838
0.886193
0.886752
0.887496
0.8884
0.889434
0.890563
0.891751
0.892956
0.89414
0.895259
0.896272
0.897138
0.897823
0.898296
0.898538
0.933907
0.93411
0.934516
0.935124
0.935934
0.936944
0.938152
0.939557
0.94116
0.94296
0.944963
0.947176
0.949607
0.952266
0.955168
0.958331
0.961775
0.965525
0.96961
0.974057
0.978892
0.984135
0.9898
0.995886
1.00238
1.00926
1.0165
1.02404
1.03182
1.03979
1.04786
1.05597
1.06403
1.07196
1.07969
1.08714
1.09424
1.10094
1.10718
1.1129
1.11808
1.12266
1.12663
1.12996
1.13263
1.13462
1.13591
1.13651
1.1364
1.13559
1.13406
1.13183
1.12891
1.12529
1.12101
1.11606
1.11049
1.10431
1.09756
1.09027
1.0825
1.0743
1.06573
1.05687
1.04779
1.03858
1.02933
1.02015
1.01113
1.00237
0.993975
0.98603
0.978609
0.971771
0.965561
0.960004
0.955109
0.950867
0.94725
0.944207
0.941675
0.939579
0.937838
0.936372
0.935106
0.933972
0.932913
0.931884
0.930852
0.929794
0.928702
0.927576
0.926423
0.925259
0.924103
0.922975
0.9219
0.920902
0.920003
0.919229
0.918598
0.91813
0.917837
0.917728
0.917805
0.918064
0.918496
0.919085
0.91981
0.920646
0.921564
0.922531
0.923515
0.924481
0.925393
0.926217
0.926921
0.927477
0.927861
0.928057
0.96711
0.967308
0.967702
0.968294
0.969082
0.970066
0.971246
0.97262
0.974191
0.975959
0.97793
0.980109
0.982504
0.985125
0.987984
0.991096
0.994479
0.99815
1.00213
1.00644
1.0111
1.01612
1.0215
1.02725
1.03334
1.03976
1.04648
1.05345
1.06063
1.06795
1.07536
1.08278
1.09015
1.09741
1.10447
1.11128
1.11778
1.12391
1.12962
1.13486
1.13961
1.14381
1.14745
1.1505
1.15294
1.15475
1.15592
1.15645
1.15632
1.15554
1.1541
1.15201
1.14927
1.1459
1.14191
1.13732
1.13215
1.12643
1.12018
1.11346
1.10631
1.09877
1.0909
1.08278
1.07446
1.06603
1.05757
1.04917
1.04091
1.03288
1.02515
1.01781
1.01091
1.00451
0.998647
0.993341
0.988601
0.984421
0.980778
0.977635
0.974942
0.972641
0.970669
0.968962
0.96746
0.966107
0.964854
0.963664
0.962505
0.961358
0.960212
0.959064
0.957917
0.95678
0.955668
0.954595
0.953581
0.952644
0.951802
0.951073
0.950474
0.950019
0.949716
0.949573
0.949589
0.949762
0.950083
0.950538
0.95111
0.951777
0.952514
0.953296
0.954092
0.954875
0.955614
0.956283
0.956853
0.957303
0.957614
0.957773
1.00012
1.00031
1.00069
1.00127
1.00203
1.00299
1.00414
1.00549
1.00702
1.00876
1.01069
1.01283
1.01517
1.01775
1.02055
1.02359
1.02689
1.03047
1.03432
1.03848
1.04295
1.04773
1.05284
1.05826
1.06397
1.06997
1.07621
1.08267
1.08929
1.09603
1.10284
1.10964
1.1164
1.12304
1.1295
1.13574
1.14168
1.14729
1.15252
1.15733
1.16167
1.16553
1.16886
1.17165
1.17388
1.17552
1.17658
1.17704
1.1769
1.17614
1.17478
1.17282
1.17027
1.16712
1.16341
1.15915
1.15436
1.14906
1.14329
1.13709
1.1305
1.12356
1.11633
1.10887
1.10124
1.09352
1.08576
1.07805
1.07047
1.06307
1.05594
1.04914
1.04272
1.03672
1.03117
1.02611
1.02153
1.01744
1.01381
1.01061
1.00782
1.00537
1.00323
1.00135
0.999665
0.99814
0.996733
0.995411
0.994147
0.992922
0.991725
0.99055
0.989399
0.988277
0.987192
0.986157
0.985185
0.98429
0.983486
0.982788
0.982207
0.981754
0.981436
0.981257
0.981217
0.981313
0.981536
0.981875
0.982315
0.982837
0.983421
0.984044
0.984683
0.985312
0.985907
0.986446
0.986906
0.987268
0.987519
0.987647
1.03293
1.03311
1.03349
1.03405
1.0348
1.03573
1.03685
1.03816
1.03966
1.04135
1.04324
1.04533
1.04762
1.05013
1.05287
1.05583
1.05904
1.06249
1.06622
1.07021
1.07448
1.07903
1.08386
1.08897
1.09433
1.09992
1.10573
1.11171
1.11783
1.12405
1.13031
1.13656
1.14276
1.14884
1.15477
1.16048
1.16592
1.17106
1.17585
1.18025
1.18423
1.18776
1.19081
1.19336
1.19539
1.19689
1.19784
1.19824
1.19808
1.19736
1.19607
1.19423
1.19185
1.18892
1.18547
1.18151
1.17707
1.17217
1.16684
1.16111
1.15504
1.14865
1.142
1.13514
1.12813
1.12103
1.1139
1.10681
1.09983
1.09301
1.08641
1.08009
1.0741
1.06846
1.06322
1.05839
1.05398
1.04999
1.0464
1.04319
1.04034
1.0378
1.03555
1.03353
1.03171
1.03006
1.02853
1.0271
1.02575
1.02446
1.02321
1.02201
1.02085
1.01974
1.01867
1.01766
1.01671
1.01584
1.01507
1.01439
1.01381
1.01335
1.01302
1.0128
1.01271
1.01274
1.01287
1.01311
1.01344
1.01384
1.01429
1.01478
1.01528
1.01578
1.01626
1.01669
1.01706
1.01735
1.01755
1.01765
1.06555
1.06574
1.0661
1.06664
1.06737
1.06828
1.06937
1.07064
1.0721
1.07375
1.07559
1.07763
1.07986
1.0823
1.08495
1.08783
1.09093
1.09426
1.09784
1.10166
1.10573
1.11005
1.11462
1.11942
1.12444
1.12967
1.13507
1.14062
1.14628
1.15202
1.15778
1.16354
1.16923
1.17481
1.18025
1.18548
1.19047
1.19518
1.19957
1.2036
1.20724
1.21047
1.21326
1.21559
1.21744
1.2188
1.21965
1.22
1.21982
1.21913
1.21792
1.2162
1.21396
1.21124
1.20803
1.20436
1.20024
1.1957
1.19077
1.18549
1.17988
1.17399
1.16787
1.16155
1.1551
1.14856
1.142
1.13547
1.12902
1.12272
1.1166
1.11072
1.10511
1.09982
1.09486
1.09026
1.08602
1.08214
1.07861
1.07542
1.07254
1.06995
1.06762
1.06551
1.0636
1.06184
1.06022
1.05871
1.05729
1.05594
1.05466
1.05344
1.05226
1.05115
1.05009
1.04909
1.04816
1.04731
1.04655
1.04587
1.0453
1.04483
1.04448
1.04423
1.04408
1.04405
1.04411
1.04426
1.04449
1.04478
1.04512
1.0455
1.04589
1.04628
1.04665
1.04699
1.04728
1.04751
1.04767
1.04775
1.098
1.09818
1.09853
1.09906
1.09976
1.10064
1.1017
1.10294
1.10436
1.10596
1.10775
1.10972
1.11189
1.11426
1.11682
1.1196
1.12258
1.12579
1.12921
1.13286
1.13673
1.14083
1.14514
1.14965
1.15436
1.15924
1.16427
1.16942
1.17466
1.17996
1.18528
1.19057
1.19581
1.20094
1.20592
1.21072
1.2153
1.21962
1.22364
1.22733
1.23067
1.23362
1.23617
1.2383
1.23998
1.24121
1.24198
1.24227
1.24208
1.24142
1.24028
1.23866
1.23658
1.23404
1.23106
1.22765
1.22383
1.21963
1.21507
1.21019
1.20501
1.19957
1.19392
1.1881
1.18215
1.17613
1.17008
1.16404
1.15808
1.15223
1.14655
1.14107
1.13582
1.13084
1.12615
1.12176
1.11769
1.11393
1.11048
1.10733
1.10446
1.10185
1.09947
1.0973
1.09532
1.09349
1.09181
1.09023
1.08876
1.08737
1.08605
1.0848
1.08362
1.0825
1.08144
1.08045
1.07953
1.07869
1.07793
1.07726
1.07669
1.07621
1.07582
1.07554
1.07535
1.07526
1.07525
1.07533
1.07547
1.07567
1.07592
1.0762
1.07649
1.07679
1.07708
1.07734
1.07757
1.07775
1.07787
1.07794
1.13027
1.13044
1.13078
1.13129
1.13198
1.13283
1.13386
1.13506
1.13643
1.13799
1.13972
1.14163
1.14372
1.14601
1.14848
1.15115
1.15402
1.15709
1.16036
1.16384
1.16751
1.17139
1.17545
1.17969
1.1841
1.18866
1.19334
1.19812
1.20298
1.20788
1.21279
1.21767
1.22249
1.2272
1.23178
1.23619
1.24039
1.24435
1.24803
1.25142
1.25447
1.25718
1.25951
1.26145
1.26298
1.26409
1.26477
1.26502
1.26483
1.26419
1.26311
1.2616
1.25965
1.25729
1.25451
1.25134
1.2478
1.24391
1.23969
1.23518
1.23039
1.22537
1.22015
1.21478
1.20929
1.20372
1.19813
1.19255
1.18702
1.18159
1.1763
1.17118
1.16626
1.16157
1.15713
1.15295
1.14905
1.14542
1.14206
1.13896
1.13612
1.1335
1.13111
1.12891
1.12688
1.12501
1.12327
1.12166
1.12014
1.11872
1.11738
1.11611
1.11491
1.11379
1.11273
1.11174
1.11083
1.10999
1.10923
1.10856
1.10798
1.10748
1.10707
1.10676
1.10653
1.10639
1.10632
1.10633
1.1064
1.10652
1.10668
1.10688
1.1071
1.10732
1.10753
1.10773
1.10791
1.10804
1.10814
1.10819
1.16237
1.16253
1.16286
1.16336
1.16402
1.16485
1.16584
1.167
1.16833
1.16983
1.1715
1.17335
1.17537
1.17757
1.17995
1.18251
1.18526
1.18819
1.19131
1.19461
1.19809
1.20175
1.20558
1.20957
1.21369
1.21795
1.22231
1.22675
1.23126
1.23579
1.24033
1.24483
1.24927
1.25361
1.25782
1.26187
1.26572
1.26936
1.27273
1.27583
1.27863
1.28111
1.28323
1.285
1.28639
1.2874
1.28801
1.28821
1.28801
1.2874
1.28638
1.28496
1.28314
1.28094
1.27836
1.27542
1.27213
1.26852
1.26461
1.26043
1.25601
1.25136
1.24654
1.24157
1.2365
1.23135
1.22617
1.22099
1.21586
1.21081
1.20588
1.20109
1.19647
1.19205
1.18785
1.18387
1.18013
1.17663
1.17337
1.17034
1.16754
1.16495
1.16255
1.16034
1.15829
1.15639
1.15463
1.15298
1.15143
1.14999
1.14862
1.14734
1.14614
1.145
1.14394
1.14296
1.14204
1.14121
1.14045
1.13977
1.13918
1.13866
1.13823
1.13789
1.13762
1.13743
1.13732
1.13726
1.13727
1.13732
1.13742
1.13755
1.13769
1.13785
1.138
1.13815
1.13828
1.13838
1.13845
1.13849
1.1943
1.19446
1.19478
1.19526
1.19589
1.19669
1.19765
1.19877
1.20006
1.2015
1.20312
1.20489
1.20684
1.20895
1.21123
1.21369
1.21631
1.21911
1.22207
1.22521
1.2285
1.23195
1.23556
1.2393
1.24316
1.24713
1.2512
1.25533
1.25951
1.2637
1.26789
1.27205
1.27614
1.28014
1.28402
1.28774
1.29128
1.29461
1.29771
1.30055
1.30312
1.30538
1.30732
1.30893
1.3102
1.3111
1.31164
1.31181
1.3116
1.31102
1.31005
1.30872
1.30702
1.30497
1.30256
1.29983
1.29678
1.29343
1.28981
1.28594
1.28184
1.27754
1.27307
1.26847
1.26377
1.259
1.2542
1.24939
1.24462
1.23992
1.23531
1.23083
1.22649
1.22232
1.21834
1.21455
1.21097
1.2076
1.20445
1.2015
1.19875
1.19619
1.19381
1.19161
1.18955
1.18764
1.18586
1.18419
1.18263
1.18117
1.17979
1.1785
1.17729
1.17615
1.17509
1.1741
1.17318
1.17235
1.17158
1.1709
1.17029
1.16976
1.16931
1.16894
1.16864
1.16841
1.16824
1.16814
1.16809
1.16809
1.16813
1.16819
1.16828
1.16838
1.16848
1.16858
1.16867
1.16874
1.16879
1.16882
1.22607
1.22623
1.22653
1.227
1.22761
1.22838
1.22931
1.23039
1.23162
1.23301
1.23456
1.23627
1.23813
1.24016
1.24234
1.24469
1.24719
1.24985
1.25267
1.25564
1.25875
1.26201
1.26539
1.2689
1.27252
1.27623
1.28001
1.28386
1.28773
1.29162
1.2955
1.29934
1.30311
1.3068
1.31037
1.31379
1.31704
1.32011
1.32295
1.32555
1.3279
1.32997
1.33174
1.33321
1.33436
1.33517
1.33565
1.33578
1.33557
1.33501
1.3341
1.33285
1.33126
1.32934
1.3271
1.32456
1.32173
1.31862
1.31526
1.31166
1.30786
1.30388
1.29974
1.29548
1.29112
1.28669
1.28223
1.27776
1.27332
1.26893
1.26462
1.26042
1.25634
1.2524
1.24863
1.24503
1.2416
1.23837
1.23532
1.23245
1.22977
1.22725
1.22491
1.22272
1.22067
1.21876
1.21697
1.2153
1.21373
1.21226
1.21088
1.20958
1.20836
1.20722
1.20616
1.20517
1.20425
1.20341
1.20264
1.20195
1.20133
1.20078
1.20031
1.19991
1.19958
1.19932
1.19911
1.19897
1.19887
1.19882
1.1988
1.19882
1.19885
1.1989
1.19896
1.19903
1.19908
1.19913
1.19916
1.19918
1.25769
1.25784
1.25814
1.25858
1.25917
1.25991
1.2608
1.26184
1.26303
1.26437
1.26585
1.26749
1.26927
1.27121
1.2733
1.27553
1.27791
1.28044
1.28311
1.28592
1.28886
1.29193
1.29511
1.2984
1.30178
1.30525
1.30878
1.31235
1.31595
1.31955
1.32314
1.32669
1.33017
1.33357
1.33686
1.34001
1.343
1.34581
1.34842
1.35081
1.35296
1.35485
1.35647
1.35781
1.35885
1.35958
1.36
1.3601
1.35989
1.35935
1.35849
1.35731
1.35582
1.35403
1.35195
1.34958
1.34694
1.34406
1.34094
1.3376
1.33407
1.33038
1.32654
1.32258
1.31853
1.31442
1.31027
1.30611
1.30196
1.29786
1.29383
1.28988
1.28604
1.28232
1.27875
1.27532
1.27205
1.26894
1.266
1.26322
1.26061
1.25815
1.25585
1.25368
1.25166
1.24976
1.24798
1.2463
1.24473
1.24326
1.24188
1.24058
1.23936
1.23822
1.23715
1.23616
1.23524
1.2344
1.23362
1.23292
1.23229
1.23173
1.23124
1.23082
1.23046
1.23016
1.22993
1.22974
1.2296
1.22951
1.22945
1.22942
1.22941
1.22942
1.22945
1.22947
1.2295
1.22953
1.22955
1.22956
1.28916
1.28931
1.28959
1.29002
1.29059
1.2913
1.29215
1.29315
1.29429
1.29557
1.29699
1.29856
1.30026
1.30211
1.3041
1.30623
1.30849
1.31089
1.31342
1.31607
1.31884
1.32173
1.32472
1.3278
1.33097
1.3342
1.33749
1.34081
1.34416
1.3475
1.35082
1.3541
1.35732
1.36046
1.36349
1.36639
1.36914
1.37172
1.37412
1.37631
1.37828
1.38001
1.38149
1.3827
1.38364
1.3843
1.38467
1.38475
1.38453
1.38401
1.38319
1.38209
1.38069
1.37902
1.37707
1.37487
1.37241
1.36973
1.36683
1.36373
1.36045
1.35702
1.35345
1.34977
1.34601
1.34218
1.33831
1.33443
1.33056
1.32673
1.32294
1.31924
1.31562
1.31211
1.30872
1.30546
1.30233
1.29935
1.29652
1.29384
1.2913
1.2889
1.28664
1.28452
1.28252
1.28064
1.27887
1.2772
1.27564
1.27417
1.27279
1.27149
1.27028
1.26914
1.26807
1.26708
1.26616
1.26531
1.26453
1.26383
1.26319
1.26261
1.26211
1.26166
1.26128
1.26095
1.26068
1.26046
1.26029
1.26016
1.26006
1.25999
1.25995
1.25993
1.25992
1.25992
1.25993
1.25994
1.25994
1.25995
1.32049
1.32063
1.3209
1.32131
1.32186
1.32254
1.32336
1.32431
1.3254
1.32663
1.32799
1.32948
1.33111
1.33287
1.33476
1.33679
1.33893
1.34121
1.3436
1.3461
1.34871
1.35143
1.35424
1.35713
1.36009
1.36311
1.36617
1.36926
1.37237
1.37547
1.37855
1.38158
1.38456
1.38745
1.39024
1.39291
1.39545
1.39782
1.40002
1.40203
1.40383
1.40542
1.40676
1.40787
1.40872
1.40931
1.40963
1.40968
1.40946
1.40896
1.40819
1.40715
1.40584
1.40428
1.40246
1.4004
1.39812
1.39562
1.39292
1.39003
1.38699
1.38379
1.38047
1.37705
1.37354
1.36998
1.36637
1.36275
1.35913
1.35554
1.35199
1.3485
1.34509
1.34177
1.33856
1.33545
1.33247
1.32962
1.32689
1.3243
1.32184
1.31951
1.3173