/*--------------------------------*- C++ -*----------------------------------*\
| =========                 |                                                 |
| \\      /  F ield         | OpenFOAM: The Open Source CFD Toolbox           |
|  \\    /   O peration     | Version:  2406                                  |
|   \\  /    A nd           | Website:  www.openfoam.com                      |
|    \\/     M anipulation  |                                                 |
\*---------------------------------------------------------------------------*/
FoamFile
{
    version     2.0;
    format      ascii;
    arch        "LSB;label=32;scalar=64";
    class       volScalarField;
    location    "1.5";
    object      C;
}
// * * * * * * * * * * * * * * * * * * * * * * * * * * * * * * * * * * * * * //

dimensions      [1 -3 0 0 0 0 0];

internalField   nonuniform List<scalar> 
14400
(
2.48343
2.47986
2.47236
2.46008
2.43964
2.40424
2.37148
2.36099
2.37733
2.41571
2.45549
2.47971
2.49602
2.50797
2.51646
2.52195
2.52463
2.52449
2.5213
2.51453
2.50317
2.48367
2.44973
2.42005
2.41377
2.4352
2.47945
2.5247
2.55386
2.57532
2.5931
2.60816
2.62109
2.63228
2.64202
2.65049
2.65786
2.66422
2.66968
2.67431
2.67814
2.68124
2.68363
2.68535
2.68641
2.68682
2.68661
2.68577
2.68431
2.68223
2.67953
2.67618
2.67219
2.66753
2.66218
2.65611
2.64929
2.64168
2.63322
2.62385
2.6135
2.60207
2.58945
2.57549
2.56
2.54274
2.52339
2.50148
2.47637
2.44711
2.40847
2.34923
2.28352
2.23465
2.20682
2.20009
2.21437
2.24954
2.30158
2.34978
2.37909
2.39886
2.41372
2.42476
2.43267
2.43788
2.44065
2.44115
2.43941
2.4354
2.42895
2.41979
2.40739
2.3909
2.3671
2.32787
2.28865
2.27024
2.27762
2.30616
2.33692
2.35306
2.36099
2.36331
2.36045
2.35202
2.33539
2.30408
2.2748
2.26662
2.28425
2.32273
2.36142
2.38484
2.40102
2.41317
2.42219
2.4286
2.43272
2.43474
2.487
2.48379
2.47715
2.46661
2.45142
2.42731
2.39911
2.38703
2.40499
2.43836
2.46665
2.4857
2.50036
2.51144
2.51947
2.52476
2.52745
2.52755
2.52488
2.51911
2.50968
2.49576
2.4731
2.44753
2.43978
2.46282
2.50184
2.53532
2.55912
2.57898
2.59583
2.61029
2.62283
2.63374
2.64328
2.6516
2.65885
2.66513
2.67052
2.67509
2.67888
2.68195
2.68431
2.686
2.68705
2.68745
2.68723
2.68639
2.68494
2.68286
2.68016
2.67683
2.67285
2.66822
2.66289
2.65686
2.65008
2.64252
2.63412
2.62483
2.61457
2.60326
2.59079
2.57702
2.56177
2.54484
2.52594
2.50467
2.48052
2.45274
2.42017
2.37407
2.31492
2.26606
2.23896
2.23226
2.2458
2.28096
2.32712
2.36269
2.38587
2.40377
2.41753
2.42789
2.43536
2.44031
2.44294
2.44338
2.44169
2.43782
2.43167
2.42301
2.41149
2.39655
2.3774
2.34957
2.31595
2.29581
2.30493
2.32891
2.34871
2.36017
2.36659
2.36848
2.36603
2.35906
2.34708
2.32673
2.30206
2.29212
2.31145
2.34438
2.37169
2.39044
2.40504
2.4163
2.42479
2.43088
2.43482
2.43676
2.49378
2.49115
2.48583
2.47778
2.4671
2.45458
2.43965
2.43123
2.44526
2.46474
2.48136
2.49608
2.50829
2.51795
2.5252
2.53015
2.53287
2.53336
2.53156
2.52736
2.52068
2.51162
2.50103
2.48848
2.48409
2.50314
2.52758
2.54881
2.56832
2.58566
2.60093
2.61436
2.62617
2.63658
2.64574
2.65378
2.66082
2.66693
2.67218
2.67664
2.68035
2.68335
2.68566
2.68731
2.68832
2.68871
2.68847
2.68763
2.68617
2.68411
2.68143
2.67812
2.67418
2.66959
2.66432
2.65836
2.65166
2.6442
2.63592
2.62678
2.6167
2.60562
2.59342
2.58001
2.56523
2.54891
2.53084
2.51075
2.48831
2.46315
2.43492
2.40361
2.36408
2.32377
2.30058
2.29403
2.30367
2.33051
2.35856
2.37972
2.3979
2.41284
2.42474
2.4339
2.4406
2.44505
2.4474
2.44775
2.44613
2.44254
2.4369
2.4291
2.41899
2.40641
2.39134
2.37429
2.35454
2.3388
2.3443
2.35565
2.36497
2.3723
2.37672
2.378
2.37612
2.37111
2.3632
2.35327
2.34128
2.33498
2.34992
2.36903
2.38557
2.4002
2.4124
2.42221
2.42979
2.43532
2.43893
2.44071
2.50318
2.50119
2.49726
2.49158
2.48462
2.47745
2.47225
2.47116
2.47705
2.48665
2.49796
2.50899
2.51876
2.52688
2.53323
2.53778
2.54052
2.54146
2.54063
2.5381
2.53405
2.529
2.5241
2.52169
2.52411
2.5343
2.54824
2.56401
2.57968
2.5944
2.60787
2.62003
2.63093
2.64067
2.64932
2.65697
2.6637
2.66957
2.67464
2.67895
2.68253
2.68543
2.68766
2.68926
2.69022
2.69058
2.69032
2.68947
2.68802
2.68597
2.68332
2.68005
2.67616
2.67163
2.66645
2.66058
2.654
2.64669
2.63859
2.62966
2.61984
2.60907
2.59728
2.58437
2.57023
2.55474
2.53777
2.51917
2.49881
2.47662
2.45273
2.42772
2.40311
2.37894
2.36271
2.3565
2.35999
2.37187
2.38529
2.3997
2.41319
2.42494
2.43468
2.44237
2.44808
2.45188
2.45387
2.45408
2.45256
2.44929
2.44428
2.4375
2.42897
2.41877
2.40725
2.39527
2.38466
2.37734
2.37609
2.37877
2.38324
2.38734
2.38997
2.39068
2.38934
2.38607
2.38133
2.37621
2.37283
2.37335
2.37995
2.38993
2.40136
2.41239
2.42216
2.43034
2.43684
2.44167
2.44486
2.44645
2.51458
2.51316
2.51043
2.50666
2.50234
2.49835
2.49597
2.49652
2.50029
2.50684
2.51486
2.52314
2.53087
2.53759
2.54307
2.54721
2.54995
2.55133
2.55141
2.55035
2.54844
2.54623
2.54467
2.54513
2.54901
2.55654
2.56709
2.5793
2.59199
2.60439
2.61611
2.62696
2.63687
2.64584
2.6539
2.66108
2.66745
2.67302
2.67785
2.68197
2.6854
2.68817
2.69031
2.69183
2.69274
2.69305
2.69277
2.69191
2.69047
2.68844
2.68582
2.6826
2.67878
2.67433
2.66925
2.66351
2.65709
2.64996
2.64208
2.63342
2.62393
2.61356
2.60225
2.58995
2.57657
2.56205
2.54632
2.52935
2.51114
2.49181
2.47167
2.4514
2.43221
2.41578
2.40367
2.39774
2.39802
2.40288
2.41102
2.42059
2.43022
2.43906
2.44666
2.45282
2.45745
2.46054
2.4621
2.46216
2.46071
2.4578
2.45343
2.44766
2.4406
2.43245
2.42362
2.41487
2.40729
2.40212
2.39979
2.40012
2.40188
2.40383
2.40516
2.40542
2.40449
2.40248
2.39985
2.39741
2.39637
2.39798
2.40246
2.40939
2.41755
2.42583
2.4335
2.44015
2.44556
2.44966
2.45239
2.45376
2.52739
2.52644
2.52465
2.52228
2.51974
2.51765
2.51676
2.51772
2.52075
2.52556
2.5315
2.53783
2.54398
2.54954
2.55426
2.55802
2.56076
2.5625
2.56334
2.56344
2.56311
2.56281
2.56323
2.56515
2.56927
2.57575
2.58427
2.59413
2.60458
2.61507
2.62523
2.63482
2.64373
2.65191
2.65934
2.66602
2.67197
2.67722
2.68178
2.68567
2.68893
2.69155
2.69358
2.695
2.69584
2.69611
2.69581
2.69493
2.6935
2.69149
2.68891
2.68575
2.68201
2.67767
2.67271
2.66712
2.66088
2.65397
2.64635
2.63801
2.62889
2.61898
2.60823
2.59659
2.58405
2.57056
2.55613
2.54077
2.52459
2.50779
2.49073
2.47402
2.45854
2.44537
2.43554
2.4299
2.4285
2.43062
2.4353
2.44143
2.44804
2.45442
2.46009
2.46479
2.46837
2.47073
2.47185
2.47172
2.47034
2.46775
2.46398
2.45912
2.45331
2.44679
2.43993
2.43328
2.42752
2.42328
2.42084
2.42005
2.42031
2.42095
2.4214
2.42136
2.42069
2.41953
2.41818
2.4172
2.41726
2.41898
2.42252
2.42761
2.43362
2.43989
2.44586
2.45118
2.4556
2.459
2.4613
2.46245
2.54116
2.54056
2.53946
2.53806
2.53669
2.53574
2.53569
2.53687
2.53941
2.54316
2.54774
2.55272
2.55768
2.56231
2.56641
2.56984
2.57256
2.57458
2.57599
2.57696
2.57774
2.57869
2.58027
2.58297
2.58715
2.59293
2.60013
2.60834
2.61713
2.62609
2.6349
2.64336
2.65134
2.65874
2.66553
2.67169
2.67721
2.6821
2.68636
2.69002
2.69307
2.69554
2.69744
2.69876
2.69953
2.69974
2.69941
2.69852
2.69709
2.69511
2.69258
2.6895
2.68584
2.68161
2.6768
2.67138
2.66535
2.65868
2.65136
2.64336
2.63466
2.62524
2.61508
2.60416
2.59247
2.58002
2.56684
2.55301
2.53867
2.52403
2.50944
2.4954
2.48255
2.47161
2.46321
2.45782
2.45547
2.45578
2.45813
2.4618
2.4661
2.47047
2.47449
2.4779
2.48049
2.48216
2.48285
2.48253
2.48119
2.47887
2.47562
2.47152
2.46673
2.46147
2.45603
2.45081
2.44623
2.44265
2.44024
2.43892
2.43838
2.43824
2.43815
2.4379
2.43741
2.43675
2.43614
2.43593
2.4365
2.43817
2.44102
2.4449
2.44944
2.45423
2.45889
2.46311
2.46667
2.46945
2.47134
2.47229
2.55552
2.55517
2.55455
2.55382
2.5532
2.55296
2.55337
2.55465
2.55686
2.55992
2.56359
2.56761
2.5717
2.57563
2.57922
2.58238
2.58506
2.58727
2.58909
2.59067
2.59219
2.59394
2.59621
2.5993
2.60344
2.60869
2.61495
2.62199
2.62951
2.63724
2.64493
2.65239
2.65951
2.66618
2.67235
2.67799
2.68308
2.6876
2.69156
2.69496
2.69781
2.7001
2.70186
2.70308
2.70376
2.70392
2.70355
2.70266
2.70124
2.69929
2.69681
2.6938
2.69025
2.68615
2.68149
2.67626
2.67045
2.66405
2.65704
2.64941
2.64115
2.63224
2.62269
2.61249
2.60165
2.5902
2.57822
2.56577
2.55303
2.54021
2.5276
2.5156
2.50467
2.49529
2.48788
2.48271
2.47978
2.47889
2.47964
2.48153
2.48408
2.48686
2.48952
2.4918
2.49353
2.49457
2.49486
2.49434
2.49303
2.49092
2.48809
2.48462
2.48063
2.47632
2.47192
2.46769
2.46393
2.46084
2.45855
2.457
2.45605
2.45548
2.45507
2.45469
2.45429
2.45392
2.45371
2.45388
2.45465
2.45617
2.45849
2.46151
2.46501
2.46871
2.47235
2.47568
2.47853
2.48077
2.48231
2.48309
2.57023
2.57005
2.56976
2.56947
2.56932
2.56951
2.57019
2.5715
2.57347
2.57605
2.5791
2.58244
2.58589
2.58928
2.59247
2.5954
2.59802
2.60035
2.60244
2.60442
2.60642
2.60865
2.61131
2.61459
2.61862
2.62345
2.62901
2.63515
2.64169
2.64843
2.65517
2.66178
2.66812
2.67412
2.67971
2.68485
2.6895
2.69366
2.69731
2.70046
2.70309
2.70521
2.70682
2.70793
2.70853
2.70862
2.70822
2.70731
2.70591
2.704
2.70158
2.69865
2.6952
2.69124
2.68674
2.68172
2.67614
2.67002
2.66334
2.65609
2.64828
2.63989
2.63094
2.62145
2.61143
2.60094
2.59004
2.57884
2.56748
2.55617
2.54515
2.53472
2.52523
2.517
2.51032
2.50533
2.50207
2.50038
2.5
2.5006
2.50183
2.50337
2.50492
2.50627
2.50725
2.50774
2.50766
2.50696
2.50564
2.50371
2.50121
2.49822
2.49486
2.49127
2.48762
2.48412
2.48094
2.47824
2.4761
2.47449
2.47335
2.47254
2.47195
2.47149
2.47114
2.47091
2.47091
2.47124
2.47203
2.47337
2.47527
2.47765
2.48038
2.48326
2.48611
2.48874
2.491
2.4928
2.49403
2.49467
2.58511
2.58505
2.58498
2.58497
2.58512
2.58556
2.58639
2.58769
2.58947
2.59171
2.59431
2.59716
2.60013
2.60311
2.60599
2.60872
2.61127
2.61365
2.61592
2.61814
2.62043
2.62294
2.62579
2.62912
2.633
2.63747
2.64247
2.64791
2.65367
2.6596
2.66556
2.67142
2.67708
2.68247
2.68752
2.69218
2.69642
2.70023
2.70358
2.70646
2.70888
2.71082
2.71229
2.71328
2.71379
2.71383
2.71339
2.71247
2.71108
2.70921
2.70685
2.70401
2.70068
2.69685
2.69253
2.68771
2.68239
2.67655
2.6702
2.66334
2.65597
2.6481
2.63975
2.63093
2.62169
2.61207
2.60216
2.59205
2.58189
2.57183
2.5621
2.55291
2.54453
2.53718
2.53104
2.52624
2.52277
2.52054
2.51938
2.51904
2.51929
2.51985
2.52052
2.52111
2.52147
2.52148
2.52108
2.52021
2.51887
2.51705
2.51481
2.5122
2.50932
2.50627
2.50318
2.50021
2.49748
2.49509
2.4931
2.49152
2.49031
2.48939
2.4887
2.4882
2.48785
2.48769
2.48776
2.48813
2.48887
2.49001
2.49155
2.49345
2.49559
2.49785
2.50008
2.50215
2.50395
2.50538
2.50637
2.50687
2.60004
2.60006
2.60013
2.6003
2.60064
2.60122
2.60212
2.60338
2.60502
2.607
2.60927
2.61176
2.61438
2.61703
2.61966
2.62222
2.62469
2.62708
2.62942
2.63178
2.63423
2.63688
2.6398
2.64309
2.6468
2.65094
2.65549
2.66037
2.66549
2.67075
2.67603
2.68125
2.68632
2.69115
2.69571
2.69993
2.70378
2.70725
2.71031
2.71294
2.71514
2.71691
2.71823
2.7191
2.71953
2.71951
2.71903
2.71811
2.71673
2.7149
2.71261
2.70986
2.70664
2.70297
2.69883
2.69422
2.68914
2.68359
2.67758
2.6711
2.66417
2.6568
2.64901
2.64084
2.63231
2.6235
2.61447
2.60532
2.59618
2.58718
2.5785
2.57031
2.56279
2.55613
2.55044
2.54581
2.54223
2.53964
2.53793
2.53691
2.53641
2.53623
2.53621
2.53618
2.53602
2.53563
2.53495
2.53393
2.53256
2.53083
2.52878
2.52646
2.52393
2.52129
2.51864
2.51606
2.51367
2.51154
2.50971
2.50819
2.50696
2.506
2.50527
2.50473
2.50439
2.50424
2.50431
2.50465
2.50529
2.50624
2.50749
2.509
2.51068
2.51245
2.51421
2.51584
2.51726
2.51839
2.51918
2.51958
2.61496
2.61503
2.61518
2.61546
2.6159
2.61656
2.61749
2.6187
2.62021
2.622
2.62402
2.62624
2.62857
2.63098
2.6334
2.63581
2.63819
2.64055
2.64292
2.64533
2.64784
2.65053
2.65344
2.65665
2.66017
2.66402
2.66817
2.67257
2.67716
2.68186
2.68658
2.69124
2.69578
2.70012
2.70423
2.70804
2.71153
2.71468
2.71746
2.71985
2.72184
2.72343
2.72461
2.72537
2.72572
2.72564
2.72513
2.7242
2.72284
2.72104
2.71882
2.71616
2.71307
2.70955
2.70558
2.70119
2.69636
2.69109
2.68541
2.67931
2.6728
2.66591
2.65866
2.65109
2.64323
2.63514
2.6269
2.61859
2.61032
2.60221
2.5944
2.58702
2.58021
2.5741
2.56879
2.56431
2.56069
2.55787
2.55577
2.55426
2.55321
2.55246
2.55189
2.55137
2.5508
2.55008
2.54917
2.54801
2.5466
2.54493
2.54302
2.54091
2.53866
2.53633
2.534
2.53173
2.52961
2.52769
2.52599
2.52455
2.52335
2.52239
2.52164
2.52108
2.52072
2.52056
2.5206
2.52088
2.5214
2.52217
2.52317
2.52436
2.52569
2.52708
2.52846
2.52974
2.53086
2.53175
2.53238
2.5327
2.6298
2.6299
2.63011
2.63045
2.63095
2.63165
2.63256
2.63372
2.63512
2.63675
2.63859
2.64058
2.6427
2.64491
2.64715
2.64943
2.65172
2.65402
2.65636
2.65877
2.66128
2.66394
2.6668
2.66988
2.67321
2.67679
2.68059
2.68459
2.68873
2.69295
2.69718
2.70136
2.70543
2.70934
2.71303
2.71647
2.71963
2.72248
2.72499
2.72715
2.72895
2.73037
2.73141
2.73207
2.73233
2.73219
2.73165
2.73071
2.72937
2.72762
2.72547
2.72291
2.71994
2.71656
2.71277
2.70859
2.704
2.69902
2.69366
2.68792
2.68182
2.67539
2.66864
2.66162
2.65437
2.64694
2.6394
2.63182
2.62431
2.61695
2.60986
2.60315
2.59693
2.59128
2.58628
2.58197
2.57835
2.57539
2.57302
2.57116
2.56969
2.56852
2.56753
2.56662
2.56571
2.56473
2.56362
2.56235
2.5609
2.55926
2.55746
2.55551
2.55347
2.55138
2.54929
2.54726
2.54535
2.5436
2.54203
2.54067
2.53951
2.53856
2.5378
2.53724
2.53686
2.53666
2.53666
2.53686
2.53727
2.53787
2.53866
2.53959
2.54063
2.54172
2.5428
2.5438
2.54468
2.54538
2.54588
2.54613
2.64455
2.64467
2.6449
2.64527
2.6458
2.6465
2.6474
2.6485
2.64981
2.65131
2.65298
2.65481
2.65675
2.65878
2.66088
2.66303
2.66522
2.66745
2.66974
2.6721
2.67457
2.67717
2.67993
2.68287
2.686
2.68933
2.69283
2.69647
2.70022
2.70402
2.70783
2.71159
2.71525
2.71876
2.72209
2.72519
2.72804
2.7306
2.73287
2.73481
2.73642
2.73769
2.7386
2.73915
2.73933
2.73914
2.73858
2.73763
2.73631
2.73461
2.73252
2.73005
2.7272
2.72397
2.72037
2.71639
2.71204
2.70734
2.70228
2.69689
2.69118
2.68517
2.67889
2.67239
2.66569
2.65885
2.65193
2.645
2.63813
2.63142
2.62494
2.6188
2.61307
2.60781
2.6031
2.59894
2.59535
2.59231
2.58976
2.58765
2.58589
2.58439
2.58308
2.58187
2.5807
2.5795
2.57823
2.57686
2.57537
2.57376
2.57203
2.57021
2.56833
2.56642
2.56452
2.56268
2.56093
2.55932
2.55786
2.55657
2.55546
2.55453
2.55378
2.55321
2.5528
2.55257
2.55252
2.55264
2.55293
2.55339
2.55399
2.55472
2.55552
2.55637
2.55721
2.55799
2.55868
2.55923
2.55961
2.55981
2.65919
2.65931
2.65956
2.65994
2.66047
2.66117
2.66203
2.66308
2.6643
2.66569
2.66723
2.66891
2.6707
2.67259
2.67456
2.67659
2.67868
2.68082
2.68303
2.68533
2.68772
2.69023
2.69287
2.69566
2.6986
2.70169
2.70491
2.70824
2.71165
2.71509
2.71852
2.72191
2.72521
2.72837
2.73137
2.73416
2.73672
2.73903
2.74107
2.74281
2.74425
2.74536
2.74615
2.7466
2.74671
2.74647
2.74588
2.74493
2.74363
2.74197
2.73995
2.73758
2.73485
2.73177
2.72833
2.72456
2.72044
2.716
2.71124
2.70617
2.70083
2.69522
2.68938
2.68334
2.67714
2.67083
2.66446
2.6581
2.6518
2.64564
2.6397
2.63404
2.62872
2.62381
2.61934
2.61534
2.61181
2.60873
2.60607
2.60379
2.60181
2.60008
2.59852
2.59709
2.59571
2.59434
2.59295
2.5915
2.58997
2.58837
2.5867
2.58497
2.58321
2.58144
2.57969
2.57799
2.57638
2.57488
2.57352
2.5723
2.57123
2.57033
2.56959
2.569
2.56858
2.56831
2.5682
2.56824
2.56843
2.56876
2.56921
2.56976
2.57037
2.57102
2.57167
2.57227
2.57281
2.57323
2.57353
2.57369
2.6737
2.67382
2.67407
2.67446
2.67498
2.67566
2.67648
2.67747
2.67861
2.67991
2.68134
2.6829
2.68456
2.68633
2.68817
2.69009
2.69207
2.69413
2.69625
2.69846
2.70075
2.70315
2.70567
2.7083
2.71105
2.71392
2.71689
2.71994
2.72304
2.72616
2.72927
2.73233
2.7353
2.73815
2.74084
2.74336
2.74566
2.74774
2.74956
2.75111
2.75238
2.75336
2.75403
2.75439
2.75443
2.75414
2.75353
2.75258
2.75131
2.74969
2.74774
2.74546
2.74285
2.73991
2.73664
2.73306
2.72917
2.72497
2.72049
2.71574
2.71074
2.7055
2.70006
2.69445
2.68871
2.68288
2.677
2.67113
2.66533
2.65966
2.65417
2.64892
2.64397
2.63936
2.63512
2.63127
2.62781
2.62473
2.62201
2.61961
2.61749
2.61558
2.61385
2.61224
2.61071
2.60921
2.60771
2.6062
2.60465
2.60306
2.60143
2.59977
2.5981
2.59643
2.5948
2.59322
2.59172
2.59031
2.58903
2.58787
2.58685
2.58596
2.58523
2.58464
2.58419
2.58388
2.58372
2.58369
2.58379
2.58401
2.58432
2.58473
2.58519
2.58568
2.58617
2.58663
2.58704
2.58737
2.5876
2.58772
2.68808
2.68821
2.68846
2.68883
2.68934
2.68999
2.69078
2.69171
2.69278
2.69399
2.69532
2.69677
2.69833
2.69998
2.70171
2.70352
2.7054
2.70736
2.70939
2.71149
2.71368
2.71596
2.71834
2.72082
2.72339
2.72605
2.72879
2.73158
2.73441
2.73725
2.74006
2.74283
2.74551
2.74808
2.7505
2.75276
2.75483
2.75669
2.75832
2.7597
2.76082
2.76166
2.76223
2.7625
2.76248
2.76215
2.76151
2.76057
2.75931
2.75775
2.75587
2.75368
2.75118
2.74837
2.74527
2.74187
2.73819
2.73424
2.73002
2.72556
2.72087
2.71598
2.71091
2.7057
2.70037
2.69496
2.68952
2.6841
2.67873
2.67348
2.66839
2.66351
2.65888
2.65454
2.65051
2.6468
2.64343
2.64038
2.63763
2.63517
2.63294
2.63092
2.62906
2.62732
2.62567
2.62407
2.6225
2.62094
2.61936
2.61778
2.61618
2.61458
2.61298
2.6114
2.60986
2.60837
2.60695
2.60563
2.60441
2.6033
2.60231
2.60145
2.60072
2.60013
2.59966
2.59932
2.5991
2.59901
2.59903
2.59915
2.59936
2.59964
2.59997
2.60033
2.6007
2.60104
2.60135
2.6016
2.60178
2.60187
2.70235
2.70247
2.70271
2.70307
2.70356
2.70418
2.70493
2.70581
2.70681
2.70794
2.70919
2.71054
2.71199
2.71354
2.71517
2.71688
2.71866
2.72051
2.72244
2.72444
2.72652
2.72868
2.73092
2.73324
2.73563
2.7381
2.74062
2.74319
2.74577
2.74835
2.75091
2.75341
2.75583
2.75814
2.76033
2.76236
2.76422
2.76588
2.76732
2.76854
2.76952
2.77025
2.77071
2.77091
2.77082
2.77046
2.76981
2.76887
2.76763
2.76611
2.7643
2.7622
2.75981
2.75714
2.75419
2.75097
2.74749
2.74376
2.73979
2.73561
2.73121
2.72664
2.72191
2.71705
2.7121
2.70708
2.70203
2.697
2.69202
2.68715
2.68241
2.67785
2.67351
2.6694
2.66557
2.662
2.65872
2.65572
2.65298
2.65047
2.64819
2.64609
2.64414
2.64231
2.64057
2.6389
2.63728
2.63568
2.63409
2.63251
2.63094
2.62938
2.62784
2.62633
2.62486
2.62344
2.6221
2.62084
2.61967
2.61861
2.61765
2.61681
2.61609
2.61548
2.615
2.61463
2.61437
2.61422
2.61416
2.6142
2.61432
2.6145
2.61472
2.61498
2.61524
2.61549
2.61572
2.61591
2.61604
2.6161
2.71649
2.7166
2.71684
2.71718
2.71765
2.71824
2.71895
2.71977
2.72072
2.72177
2.72294
2.72421
2.72557
2.72702
2.72855
2.73016
2.73184
2.7336
2.73542
2.73731
2.73927
2.74131
2.74341
2.74558
2.74781
2.75009
2.75242
2.75477
2.75713
2.75948
2.7618
2.76407
2.76626
2.76834
2.77031
2.77213
2.77379
2.77527
2.77655
2.77763
2.77848
2.77909
2.77947
2.77959
2.77945
2.77905
2.77839
2.77745
2.77624
2.77477
2.77302
2.771
2.76872
2.76617
2.76337
2.76032
2.75704
2.75352
2.74979
2.74585
2.74174
2.73746
2.73304
2.72851
2.72389
2.71922
2.71452
2.70984
2.70521
2.70067
2.69625
2.69198
2.68789
2.684
2.68035
2.67692
2.67374
2.67079
2.66807
2.66557
2.66325
2.6611
2.65909
2.65721
2.65541
2.65369
2.65203
2.6504
2.64881
2.64724
2.64569
2.64417
2.64267
2.64121
2.6398
2.63845
2.63716
2.63595
2.63483
2.6338
2.63288
2.63205
2.63133
2.63072
2.63022
2.62982
2.62952
2.62932
2.62921
2.62918
2.62921
2.62931
2.62945
2.62961
2.62979
2.62997
2.63013
2.63026
2.63036
2.63041
2.73052
2.73063
2.73085
2.73118
2.73162
2.73218
2.73284
2.73362
2.73451
2.7355
2.73659
2.73778
2.73906
2.74042
2.74186
2.74337
2.74496
2.74661
2.74833
2.75011
2.75196
2.75387
2.75584
2.75786
2.75993
2.76204
2.76418
2.76634
2.7685
2.77064
2.77275
2.7748
2.77678
2.77866
2.78043
2.78206
2.78355
2.78486
2.786
2.78693
2.78767
2.78818
2.78847
2.78852
2.78834
2.78791
2.78723
2.78631
2.78513
2.78369
2.78201
2.78007
2.77789
2.77547
2.77281
2.76992
2.76681
2.76349
2.75998
2.75628
2.75242
2.74841
2.74428
2.74005
2.73574
2.73138
2.727
2.72264
2.71832
2.71407
2.70993
2.70592
2.70206
2.69838
2.69489
2.6916
2.68852
2.68564
2.68296
2.68047
2.67814
2.67597
2.67393
2.67201
2.67018
2.66843
2.66674
2.6651
2.6635
2.66194
2.66041
2.65892
2.65746
2.65605
2.65469
2.65338
2.65215
2.65098
2.6499
2.6489
2.64799
2.64718
2.64647
2.64586
2.64534
2.64491
2.64458
2.64434
2.64417
2.64408
2.64405
2.64408
2.64414
2.64424
2.64435
2.64446
2.64457
2.64466
2.64472
2.64476
2.74443
2.74453
2.74474
2.74506
2.74548
2.746
2.74663
2.74736
2.74819
2.74912
2.75015
2.75126
2.75246
2.75373
2.75508
2.75651
2.758
2.75955
2.76117
2.76285
2.76458
2.76637
2.76821
2.77009
2.77201
2.77396
2.77593
2.77791
2.77989
2.78184
2.78376
2.78561
2.7874
2.7891
2.79068
2.79215
2.79347
2.79463
2.79563
2.79645
2.79707
2.79749
2.79771
2.7977
2.79747
2.79702
2.79633
2.79541
2.79426
2.79287
2.79124
2.78939
2.7873
2.785
2.78247
2.77973
2.77679
2.77366
2.77035
2.76687
2.76325
2.75949
2.75562
2.75166
2.74763
2.74356
2.73947
2.73539
2.73135
2.72737
2.72348
2.7197
2.71605
2.71256
2.70923
2.70607
2.70309
2.70029
2.69766
2.69519
2.69288
2.69071
2.68866
2.68672
2.68487
2.6831
2.6814
2.67975
2.67816
2.67661
2.6751
2.67363
2.67221
2.67084
2.66951
2.66825
2.66705
2.66593
2.66487
2.6639
2.66302
2.66222
2.66151
2.66089
2.66036
2.65991
2.65955
2.65927
2.65906
2.65892
2.65883
2.6588
2.65881
2.65884
2.6589
2.65896
2.65902
2.65908
2.65912
2.65914
2.75824
2.75834
2.75853
2.75883
2.75923
2.75972
2.76031
2.761
2.76178
2.76265
2.76361
2.76465
2.76577
2.76697
2.76824
2.76958
2.77098
2.77244
2.77395
2.77552
2.77715
2.77882
2.78053
2.78228
2.78406
2.78586
2.78767
2.78949
2.79129
2.79307
2.79481
2.7965
2.79811
2.79964
2.80106
2.80237
2.80354
2.80457
2.80544
2.80615
2.80668
2.80701
2.80716
2.8071
2.80683
2.80636
2.80566
2.80475
2.80362
2.80228
2.80071
2.79893
2.79694
2.79474
2.79234
2.78975
2.78696
2.78401
2.78089
2.77762
2.77421
2.77068
2.76705
2.76334
2.75956
2.75575
2.75192
2.7481
2.74431
2.74057
2.73691
2.73335
2.7299
2.72658
2.7234
2.72037
2.71749
2.71477
2.71219
2.70977
2.70748
2.70532
2.70327
2.70133
2.69947
2.6977
2.696
2.69435
2.69277
2.69123
2.68974
2.6883
2.68691
2.68557
2.68428
2.68305
2.68189
2.68079
2.67977
2.67882
2.67795
2.67716
2.67646
2.67583
2.67529
2.67483
2.67444
2.67413
2.67388
2.6737
2.67357
2.67348
2.67344
2.67343
2.67343
2.67346
2.67348
2.67351
2.67353
2.67354
2.77195
2.77204
2.77223
2.77251
2.77288
2.77334
2.7739
2.77454
2.77528
2.77609
2.77699
2.77797
2.77902
2.78014
2.78133
2.78258
2.78389
2.78526
2.78668
2.78815
2.78967
2.79122
2.79281
2.79444
2.79608
2.79774
2.79941
2.80108
2.80273
2.80435
2.80593
2.80745
2.80891
2.81028
2.81155
2.81272
2.81376
2.81467
2.81543
2.81603
2.81647
2.81673
2.81681
2.8167
2.8164
2.81591
2.81521
2.81431
2.81321
2.8119
2.81039
2.80869
2.80678
2.80469
2.8024
2.79994
2.79731
2.79452
2.79157
2.78849
2.78528
2.78197
2.77856
2.77508
2.77154
2.76796
2.76437
2.76078
2.75722
2.7537
2.75025
2.74688
2.74361
2.74045
2.73741
2.7345
2.73173
2.72909
2.72658
2.7242
2.72195
2.71981
2.71778
2.71585
2.714
2.71223
2.71053
2.7089
2.70733
2.70581
2.70434
2.70292
2.70156
2.70024
2.69899
2.69779
2.69666
2.69559
2.69459
2.69366
2.6928
2.69202
2.69132
2.69069
2.69014
2.68966
2.68926
2.68892
2.68864
2.68842
2.68825
2.68813
2.68804
2.68799
2.68796
2.68795
2.68794
2.68795
2.68795
2.68795
2.78556
2.78565
2.78582
2.78609
2.78644
2.78687
2.78739
2.788
2.78868
2.78945
2.79029
2.7912
2.79219
2.79324
2.79435
2.79552
2.79675
2.79803
2.79936
2.80073
2.80214
2.80359
2.80507
2.80657
2.80809
2.80962
2.81115
2.81268
2.81418
2.81566
2.81709
2.81847
2.81978
2.82101
2.82216
2.82319
2.82411
2.82491
2.82556
2.82608
2.82643
2.82663
2.82665
2.8265
2.82617
2.82566
2.82496
2.82407
2.82299
2.82173
2.82027
2.81864
2.81682
2.81482
2.81265
2.81031
2.80782
2.80518
2.8024
2.79949
2.79647
2.79335
2.79014
2.78687
2.78354
2.78018
2.77681
2.77343
2.77008
2.76677
2.76351
2.76032
2.75721
2.7542
2.7513
2.74851
2.74583
2.74328
2.74084
2.73851
2.7363
2.7342
2.73219
2.73028
2.72844
2.72669
2.72501
2.72339
2.72183
2.72033
2.71888
2.71749
2.71615
2.71486
2.71363
2.71246
2.71135
2.71031
2.70933
2.70842
2.70758
2.70681
2.70611
2.70548
2.70492
2.70443
2.704
2.70364
2.70334
2.70309
2.70289
2.70273
2.70261
2.70253
2.70246
2.70242
2.7024
2.70238
2.70237
2.70237
2.79908
2.79917
2.79933
2.79958
2.79991
2.80032
2.8008
2.80137
2.80201
2.80273
2.80352
2.80437
2.80529
2.80627
2.80731
2.80841
2.80956
2.81075
2.81199
2.81327
2.81458
2.81592
2.81729
2.81868
2.82009
2.8215
2.8229
2.8243
2.82567
2.82701
2.82831
2.82956
2.83074
2.83184
2.83286
2.83378
2.83459
2.83528
2.83585
2.83628
2.83656
2.83669
2.83666
2.83647
2.83612
2.83559
2.83489
2.83402
2.83297
2.83174
2.83034
2.82877
2.82703
2.82512
2.82306
2.82084
2.81847
2.81597
2.81335
2.8106
2.80776
2.80481
2.8018
2.79871
2.79558
2.79242
2.78924
2.78607
2.7829
2.77977
2.77669
2.77367
2.77072
2.76785
2.76507
2.76239
2.75982
2.75734
2.75498
2.75271
2.75055
2.74848
2.74651
2.74462
2.74281
2.74108
2.73941
2.73781
2.73627
2.73479
2.73337
2.732
2.73068
2.72942
2.72822
2.72707
2.72599
2.72497
2.72401
2.72311
2.72228
2.72152
2.72082
2.72019
2.71963
2.71913
2.71869
2.71831
2.71798
2.71771
2.71748
2.7173
2.71715
2.71704
2.71695
2.71688
2.71684
2.71681
2.71679
2.71678
2.81252
2.8126
2.81276
2.81299
2.8133
2.81368
2.81414
2.81467
2.81527
2.81594
2.81667
2.81747
2.81833
2.81925
2.82022
2.82124
2.82231
2.82342
2.82458
2.82577
2.82699
2.82823
2.8295
2.83079
2.83208
2.83337
2.83466
2.83593
2.83719
2.8384
2.83958
2.84071
2.84177
2.84276
2.84366
2.84448
2.84519
2.84579
2.84627
2.84662
2.84684
2.84691
2.84684
2.84662
2.84624
2.8457
2.845
2.84414
2.84311
2.84192
2.84057
2.83906
2.8374
2.83558
2.83361
2.83151
2.82927
2.8269
2.82441
2.82182
2.81913
2.81636
2.81351
2.81061
2.80766
2.80468
2.80168
2.79868
2.79569
2.79273
2.78981
2.78694
2.78414
2.7814
2.77875
2.77617
2.77369
2.77131
2.76901
2.76681
2.7647
2.76268
2.76074
2.75888
2.7571
2.75539
2.75375
2.75217
2.75066
2.7492
2.7478
2.74645
2.74516
2.74393
2.74275
2.74163
2.74056
2.73956
2.73861
2.73773
2.73692
2.73616
2.73547
2.73484
2.73427
2.73376
2.73331
2.73291
2.73257
2.73228
2.73203
2.73182
2.73165
2.73152
2.73141
2.73133
2.73126
2.73122
2.73119
2.73118
2.82588
2.82596
2.8261
2.82632
2.82661
2.82697
2.82739
2.82789
2.82845
2.82908
2.82976
2.83051
2.83131
2.83217
2.83307
2.83403
2.83502
2.83606
2.83713
2.83824
2.83937
2.84052
2.84169
2.84288
2.84406
2.84525
2.84643
2.84759
2.84873
2.84984
2.8509
2.85192
2.85287
2.85375
2.85456
2.85527
2.85589
2.85641
2.85681
2.85709
2.85725
2.85728
2.85717
2.85691
2.85651
2.85597
2.85527
2.85442
2.85342
2.85227
2.85097
2.84952
2.84792
2.84619
2.84431
2.84231
2.84018
2.83794
2.83558
2.83313
2.83059
2.82797
2.82528
2.82254
2.81976
2.81694
2.81411
2.81128
2.80846
2.80565
2.80288
2.80016
2.79748
2.79487
2.79233
2.78987
2.78748
2.78517
2.78295
2.78081
2.77876
2.77679
2.77489
2.77307
2.77132
2.76964
2.76803
2.76647
2.76498
2.76355
2.76217
2.76085
2.75958
2.75837
2.75722
2.75612
2.75507
2.75409
2.75316
2.75229
2.75149
2.75074
2.75005
2.74942
2.74885
2.74834
2.74788
2.74747
2.74711
2.7468
2.74654
2.74631
2.74612
2.74597
2.74584
2.74574
2.74567
2.74561
2.74558
2.74556
2.83917
2.83924
2.83938
2.83958
2.83985
2.84018
2.84058
2.84105
2.84157
2.84215
2.84279
2.84349
2.84424
2.84504
2.84588
2.84677
2.84769
2.84866
2.84965
2.85068
2.85172
2.85279
2.85387
2.85496
2.85605
2.85714
2.85822
2.85928
2.86031
2.86132
2.86228
2.86319
2.86404
2.86483
2.86554
2.86617
2.8667
2.86714
2.86748
2.8677
2.8678
2.86778
2.86763
2.86735
2.86694
2.86638
2.86569
2.86486
2.86388
2.86276
2.86151
2.86012
2.85859
2.85693
2.85514
2.85324
2.85121
2.84908
2.84685
2.84453
2.84213
2.83965
2.83711
2.83452
2.83189
2.82923
2.82655
2.82387
2.82119
2.81854
2.81591
2.81331
2.81077
2.80827
2.80584
2.80348
2.80118
2.79896
2.79681
2.79474
2.79274
2.79081
2.78896
2.78718
2.78547
2.78382
2.78224
2.78071
2.77925
2.77784
2.77649
2.77519
2.77395
2.77276
2.77163
2.77055
2.76953
2.76856
2.76765
2.76679
2.766
2.76526
2.76457
2.76395
2.76337
2.76285
2.76239
2.76197
2.76161
2.76128
2.761
2.76076
2.76056
2.76039
2.76025
2.76014
2.76005
2.75999
2.75995
2.75993
2.85239
2.85245
2.85258
2.85277
2.85302
2.85334
2.85371
2.85414
2.85463
2.85517
2.85577
2.85642
2.85712
2.85786
2.85864
2.85947
2.86033
2.86122
2.86214
2.86309
2.86406
2.86504
2.86604
2.86704
2.86804
2.86904
2.87002
2.87099
2.87193
2.87283
2.8737
2.87451
2.87528
2.87597
2.8766
2.87715
2.87761
2.87798
2.87825
2.87841
2.87847
2.87841
2.87823
2.87793
2.8775
2.87694
2.87625
2.87543
2.87448
2.8734
2.87219
2.87085
2.86938
2.8678
2.86609
2.86428
2.86235
2.86033
2.85821
2.85601
2.85373
2.85139
2.84899
2.84653
2.84404
2.84153
2.83899
2.83645
2.83392
2.83139
2.82889
2.82643
2.824
2.82162
2.81929
2.81702
2.81481
2.81266
2.81059
2.80858
2.80664
2.80477
2.80296
2.80123
2.79955
2.79794
2.79639
2.79489
2.79346
2.79208
2.79075
2.78948
2.78826
2.7871
2.78598
2.78493
2.78392
2.78297
2.78208
2.78123
2.78045
2.77972
2.77904
2.77841
2.77784
2.77732
2.77685
2.77643
2.77605
2.77572
2.77543
2.77518
2.77496
2.77478
2.77463
2.77451
2.77441
2.77434
2.7743
2.77427
2.86555
2.8656
2.86572
2.8659
2.86613
2.86643
2.86677
2.86718
2.86763
2.86814
2.86869
2.8693
2.86994
2.87063
2.87136
2.87213
2.87293
2.87375
2.87461
2.87548
2.87638
2.87728
2.8782
2.87912
2.88004
2.88095
2.88184
2.88272
2.88357
2.88439
2.88517
2.8859
2.88657
2.88719
2.88774
2.88821
2.88861
2.88891
2.88913
2.88924
2.88925
2.88916
2.88895
2.88863
2.88819
2.88762
2.88694
2.88614
2.88521
2.88416
2.88299
2.8817
2.8803
2.87878
2.87715
2.87542
2.87359
2.87167
2.86966
2.86757
2.86541
2.86319
2.86091
2.85859
2.85623
2.85384
2.85144
2.84903
2.84662
2.84423
2.84185
2.8395
2.83718
2.8349
2.83267
2.83049
2.82837
2.8263
2.8243
2.82236
2.82047
2.81866
2.8169
2.8152
2.81357
2.81199
2.81048
2.80901
2.80761
2.80626
2.80496
2.80371
2.80252
2.80138
2.80029
2.79925
2.79826
2.79733
2.79645
2.79562
2.79484
2.79412
2.79345
2.79283
2.79226
2.79174
2.79126
2.79084
2.79045
2.79011
2.78981
2.78955
2.78933
2.78913
2.78897
2.78885
2.78874
2.78867
2.78862
2.78859
2.87864
2.87869
2.8788
2.87897
2.87919
2.87946
2.87978
2.88016
2.88058
2.88105
2.88157
2.88213
2.88273
2.88337
2.88405
2.88476
2.8855
2.88626
2.88705
2.88786
2.88868
2.88951
2.89035
2.8912
2.89204
2.89287
2.89368
2.89448
2.89525
2.89598
2.89668
2.89733
2.89793
2.89848
2.89895
2.89936
2.89969
2.89994
2.9001
2.90017
2.90015
2.90002
2.89978
2.89944
2.89899
2.89843
2.89775
2.89696
2.89606
2.89504
2.89391
2.89267
2.89132
2.88987
2.88832
2.88666
2.88492
2.88309
2.88118
2.8792
2.87715
2.87504
2.87288
2.87067
2.86844
2.86617
2.86389
2.86161
2.85932
2.85704
2.85477
2.85253
2.85032
2.84814
2.846
2.84391
2.84187
2.83988
2.83795
2.83607
2.83424
2.83248
2.83077
2.82912
2.82753