/*--------------------------------*- C++ -*----------------------------------*\
| =========                 |                                                 |
| \\      /  F ield         | OpenFOAM: The Open Source CFD Toolbox           |
|  \\    /   O peration     | Version:  2406                                  |
|   \\  /    A nd           | Website:  www.openfoam.com                      |
|    \\/     M anipulation  |                                                 |
\*---------------------------------------------------------------------------*/
FoamFile
{
    version     2.0;
    format      ascii;
    arch        "LSB;label=32;scalar=64";
    class       volScalarField;
    location    "1.5";
    object      C_0;
}
// * * * * * * * * * * * * * * * * * * * * * * * * * * * * * * * * * * * * * //

dimensions      [1 -3 0 0 0 0 0];

internalField   nonuniform List<scalar> 
14400
(
2.4934
2.48985
2.48241
2.47021
2.45
2.4148
2.38198
2.37143
2.38779
2.42618
2.46573
2.48969
2.50589
2.51777
2.5262
2.53166
2.53432
2.53419
2.53103
2.52431
2.51304
2.49377
2.46002
2.43026
2.42389
2.44531
2.48951
2.53445
2.56331
2.58461
2.60227
2.61723
2.63006
2.64118
2.65084
2.65925
2.66657
2.67289
2.6783
2.68289
2.6867
2.68977
2.69214
2.69384
2.69488
2.69529
2.69507
2.69423
2.69278
2.69071
2.68801
2.68468
2.68071
2.67607
2.67075
2.66471
2.65793
2.65036
2.64195
2.63263
2.62234
2.61098
2.59843
2.58455
2.56915
2.55199
2.53275
2.51096
2.486
2.45691
2.41866
2.35988
2.2943
2.24539
2.21755
2.21086
2.22522
2.2605
2.31253
2.36038
2.38937
2.40901
2.42377
2.43474
2.4426
2.44777
2.45053
2.45102
2.4493
2.4453
2.4389
2.42979
2.41747
2.40108
2.3775
2.33849
2.29926
2.28083
2.2883
2.31692
2.34755
2.36352
2.37139
2.37369
2.37086
2.36248
2.34603
2.31485
2.28549
2.27723
2.29487
2.33337
2.37185
2.39504
2.41112
2.4232
2.43216
2.43853
2.44263
2.44463
2.49694
2.49375
2.48716
2.47669
2.46161
2.43777
2.4097
2.3975
2.41556
2.44874
2.47672
2.49564
2.51021
2.52121
2.52918
2.53444
2.53712
2.53722
2.53458
2.52886
2.5195
2.50569
2.48329
2.45784
2.44993
2.47303
2.51179
2.5449
2.56853
2.58825
2.60498
2.61934
2.63179
2.64263
2.65209
2.66036
2.66755
2.67379
2.67914
2.68367
2.68743
2.69047
2.69281
2.69449
2.69552
2.69592
2.69569
2.69485
2.6934
2.69133
2.68864
2.68533
2.68137
2.67676
2.67146
2.66546
2.65872
2.6512
2.64285
2.63361
2.62341
2.61216
2.59976
2.58607
2.57091
2.55408
2.53528
2.51414
2.49013
2.46251
2.43013
2.38453
2.32588
2.27691
2.2498
2.24314
2.25674
2.29209
2.3379
2.37307
2.3961
2.41389
2.42756
2.43785
2.44528
2.45019
2.4528
2.45324
2.45156
2.44772
2.4416
2.43299
2.42154
2.40669
2.38766
2.36011
2.32666
2.30645
2.3157
2.33961
2.35919
2.37057
2.37695
2.37883
2.37639
2.36947
2.35757
2.33744
2.31285
2.30277
2.32218
2.35494
2.38197
2.40061
2.41512
2.42631
2.43475
2.4408
2.44472
2.44664
2.50367
2.50106
2.49578
2.48778
2.47717
2.46473
2.45001
2.44159
2.45557
2.4748
2.49132
2.50595
2.51808
2.52768
2.53488
2.5398
2.5425
2.54299
2.54121
2.53705
2.53041
2.52142
2.51089
2.49855
2.49411
2.51307
2.5372
2.55829
2.57766
2.59488
2.61004
2.62338
2.63511
2.64545
2.65454
2.66252
2.6695
2.67557
2.68079
2.68521
2.68889
2.69186
2.69415
2.69579
2.69679
2.69716
2.69692
2.69608
2.69463
2.69257
2.6899
2.68661
2.68269
2.67812
2.67288
2.66695
2.66029
2.65287
2.64464
2.63554
2.62553
2.6145
2.60238
2.58904
2.57435
2.55813
2.54016
2.52018
2.49787
2.47286
2.4448
2.41367
2.37462
2.33465
2.31158
2.30507
2.31464
2.34128
2.36895
2.38998
2.40806
2.4229
2.43472
2.44382
2.45048
2.4549
2.45724
2.45758
2.45598
2.4524
2.4468
2.43905
2.429
2.41649
2.40151
2.38456
2.36504
2.34935
2.35488
2.36606
2.37534
2.38262
2.38701
2.38828
2.38642
2.38144
2.37357
2.36369
2.35187
2.34553
2.36044
2.37932
2.39577
2.41031
2.42243
2.43218
2.43971
2.44521
2.4488
2.45057
2.51301
2.51103
2.50713
2.50148
2.49457
2.48744
2.48227
2.48123
2.48703
2.49657
2.50781
2.51877
2.52847
2.53655
2.54286
2.54737
2.5501
2.55104
2.55022
2.5477
2.54369
2.53867
2.53379
2.53139
2.53383
2.54388
2.55773
2.57339
2.58895
2.60356
2.61694
2.62901
2.63984
2.64951
2.6581
2.66569
2.67237
2.6782
2.68323
2.6875
2.69106
2.69393
2.69614
2.69772
2.69867
2.69902
2.69876
2.69791
2.69646
2.69442
2.69178
2.68853
2.68465
2.68015
2.67499
2.66916
2.66262
2.65534
2.64728
2.6384
2.62864
2.61794
2.60621
2.59337
2.57932
2.56392
2.54705
2.52856
2.50832
2.48626
2.46251
2.43765
2.4132
2.38936
2.37337
2.3672
2.37056
2.3822
2.39552
2.40984
2.42325
2.43493
2.4446
2.45224
2.45791
2.46169
2.46367
2.46388
2.46236
2.45911
2.45413
2.44739
2.43891
2.42877
2.41732
2.40541
2.39486
2.38764
2.38635
2.38904
2.39348
2.39756
2.40018
2.40088
2.39955
2.39629
2.39158
2.38648
2.38311
2.38366
2.39017
2.4001
2.41146
2.42242
2.43213
2.44026
2.44672
2.45152
2.45469
2.45627
2.52433
2.52292
2.52021
2.51646
2.51217
2.5082
2.50583
2.50637
2.51012
2.51663
2.5246
2.53282
2.5405
2.54718
2.55263
2.55674
2.55947
2.56084
2.56092
2.55986
2.55796
2.55577
2.55422
2.55467
2.55851
2.56598
2.57645
2.58858
2.60118
2.61349
2.62513
2.6359
2.64573
2.65464
2.66264
2.66978
2.67609
2.68163
2.68642
2.6905
2.69391
2.69666
2.69877
2.70027
2.70117
2.70148
2.7012
2.70033
2.69889
2.69687
2.69426
2.69106
2.68725
2.68283
2.67778
2.67207
2.66568
2.65859
2.65075
2.64214
2.63271
2.6224
2.61116
2.59892
2.58562
2.57119
2.55555
2.53868
2.52058
2.50136
2.48134
2.4612
2.44213
2.42581
2.41379
2.40791
2.40818
2.41301
2.42109
2.43061
2.44017
2.44896
2.45651
2.46263
2.46723
2.4703
2.47185
2.4719
2.47046
2.46756
2.46322
2.45749
2.45047
2.44236
2.4336
2.42489
2.41736
2.41222
2.40992
2.41025
2.412
2.41394
2.41526
2.41552
2.41459
2.4126
2.40998
2.40755
2.40651
2.4081
2.41255
2.41944
2.42755
2.43578
2.4434
2.45001
2.45539
2.45946
2.46218
2.46354
2.53705
2.53611
2.53433
2.53197
2.52945
2.52737
2.52648
2.52744
2.53044
2.53522
2.54113
2.54742
2.55352
2.55905
2.56374
2.56747
2.5702
2.57193
2.57276
2.57286
2.57253
2.57224
2.57264
2.57455
2.57863
2.58507
2.59352
2.6033
2.61368
2.6241
2.63418
2.64371
2.65256
2.66068
2.66805
2.67468
2.68059
2.68579
2.69032
2.69418
2.69741
2.70001
2.70202
2.70343
2.70426
2.70452
2.70421
2.70334
2.7019
2.6999
2.69734
2.69419
2.69047
2.68615
2.68122
2.67566
2.66945
2.66258
2.655
2.6467
2.63764
2.62779
2.61709
2.60553
2.59306
2.57965
2.5653
2.55003
2.53395
2.51725
2.50029
2.48368
2.4683
2.45522
2.44546
2.43986
2.43847
2.44057
2.44522
2.45132
2.45788
2.46422
2.46986
2.47453
2.47808
2.48042
2.48154
2.4814
2.48003
2.47745
2.47371
2.46888
2.4631
2.45662
2.4498
2.44319
2.43747
2.43326
2.43083
2.43005
2.43032
2.43095
2.4314
2.43135
2.4307
2.42953
2.42819
2.42721
2.42727
2.42898
2.43249
2.43754
2.44352
2.44975
2.45569
2.46097
2.46537
2.46875
2.47103
2.47217
2.55072
2.55013
2.54904
2.54765
2.54628
2.54534
2.54528
2.54646
2.54898
2.5527
2.55726
2.5622
2.56713
2.57174
2.57581
2.57922
2.58192
2.58393
2.58533
2.58629
2.58706
2.588
2.58957
2.59224
2.59639
2.60213
2.60927
2.61743
2.62615
2.63504
2.64379
2.65219
2.66011
2.66746
2.6742
2.68031
2.68579
2.69064
2.69487
2.6985
2.70153
2.70398
2.70585
2.70716
2.70792
2.70813
2.70779
2.7069
2.70548
2.70351
2.70099
2.69791
2.69428
2.69007
2.68528
2.67989
2.67389
2.66726
2.65998
2.65202
2.64337
2.63401
2.6239
2.61305
2.60143
2.58905
2.57595
2.5622
2.54794
2.53339
2.51889
2.50494
2.49217
2.4813
2.47296
2.46761
2.46527
2.46557
2.46791
2.47155
2.47583
2.48017
2.48417
2.48755
2.49012
2.49178
2.49247
2.49214
2.49082
2.48851
2.48527
2.4812
2.47644
2.47121
2.46581
2.46061
2.45606
2.4525
2.45011
2.4488
2.44827
2.44813
2.44805
2.4478
2.4473
2.44665
2.44604
2.44583
2.44639
2.44805
2.45088
2.45473
2.45924
2.46401
2.46863
2.47282
2.47637
2.47912
2.481
2.48195
2.56499
2.56464
2.56403
2.5633
2.56268
2.56244
2.56285
2.56412
2.56632
2.56935
2.573
2.577
2.58106
2.58496
2.58853
2.59167
2.59433
2.59653
2.59834
2.5999
2.60141
2.60314
2.60539
2.60846
2.61257
2.61778
2.624
2.63098
2.63845
2.64612
2.65375
2.66116
2.66823
2.67485
2.68098
2.68657
2.69162
2.69611
2.70004
2.70341
2.70623
2.70851
2.71025
2.71145
2.71213
2.71228
2.7119
2.71101
2.7096
2.70766
2.70519
2.70219
2.69866
2.69457
2.68994
2.68474
2.67896
2.67259
2.66562
2.65804
2.64982
2.64097
2.63147
2.62132
2.61055
2.59917
2.58725
2.57489
2.56222
2.54947
2.53694
2.52502
2.51416
2.50484
2.49747
2.49233
2.48943
2.48855
2.48928
2.49116
2.4937
2.49646
2.4991
2.50137
2.50308
2.50412
2.5044
2.50389
2.50258
2.50049
2.49767
2.49422
2.49026
2.48597
2.48159
2.47739
2.47365
2.47059
2.4683
2.46677
2.46583
2.46526
2.46485
2.46447
2.46408
2.4637
2.4635
2.46367
2.46442
2.46594
2.46824
2.47124
2.47472
2.4784
2.48201
2.48532
2.48816
2.49038
2.49191
2.49268
2.5796
2.57943
2.57914
2.57885
2.5787
2.57888
2.57956
2.58086
2.58282
2.58538
2.58841
2.59173
2.59515
2.59852
2.60169
2.6046
2.6072
2.60951
2.61159
2.61355
2.61554
2.61776
2.62039
2.62365
2.62765
2.63244
2.63795
2.64405
2.65055
2.65723
2.66393
2.67048
2.67678
2.68274
2.68828
2.69338
2.698
2.70213
2.70575
2.70887
2.71148
2.71358
2.71517
2.71627
2.71686
2.71695
2.71654
2.71564
2.71424
2.71233
2.70992
2.70701
2.70358
2.69963
2.69516
2.69016
2.68462
2.67853
2.67188
2.66468
2.65691
2.64857
2.63967
2.63023
2.62027
2.60984
2.599
2.58787
2.57658
2.56534
2.55438
2.54402
2.53459
2.52642
2.51977
2.51482
2.51157
2.50989
2.50952
2.51012
2.51134
2.51286
2.5144
2.51575
2.51672
2.5172
2.51712
2.51643
2.51511
2.51319
2.51071
2.50774
2.5044
2.50083
2.4972
2.49372
2.49056
2.48788
2.48575
2.48415
2.48302
2.48222
2.48163
2.48117
2.48082
2.48059
2.48059
2.48091
2.4817
2.48303
2.48491
2.48728
2.48999
2.49286
2.49568
2.4983
2.50055
2.50233
2.50356
2.50419
2.59438
2.59432
2.59425
2.59424
2.59439
2.59483
2.59565
2.59694
2.59871
2.60093
2.60352
2.60635
2.6093
2.61226
2.61512
2.61783
2.62036
2.62273
2.62497
2.62718
2.62946
2.63194
2.63478
2.63808
2.64193
2.64636
2.65133
2.65673
2.66245
2.66833
2.67424
2.68006
2.68568
2.69103
2.69604
2.70066
2.70488
2.70865
2.71198
2.71484
2.71723
2.71915
2.72061
2.72158
2.72209
2.72212
2.72168
2.72076
2.71937
2.71751
2.71516
2.71233
2.70902
2.70521
2.70092
2.69612
2.69082
2.68502
2.6787
2.67188
2.66456
2.65673
2.64842
2.63966
2.63047
2.62091
2.61105
2.60101
2.5909
2.58091
2.57123
2.56211
2.55377
2.54646
2.54037
2.53559
2.53215
2.52993
2.52878
2.52844
2.52868
2.52924
2.52991
2.53049
2.53084
2.53086
2.53045
2.52959
2.52826
2.52645
2.52423
2.52163
2.51876
2.51573
2.51267
2.50971
2.507
2.50462
2.50265
2.50108
2.49987
2.49896
2.49827
2.49777
2.49743
2.49727
2.49734
2.4977
2.49843
2.49956
2.5011
2.50298
2.50511
2.50735
2.50957
2.51163
2.51341
2.51483
2.51582
2.51632
2.60921
2.60923
2.6093
2.60947
2.6098
2.61038
2.61127
2.61253
2.61415
2.61612
2.61838
2.62085
2.62345
2.62608
2.6287
2.63124
2.63369
2.63606
2.63839
2.64073
2.64316
2.64579
2.64869
2.65196
2.65564
2.65975
2.66426
2.6691
2.67418
2.6794
2.68465
2.68983
2.69486
2.69966
2.70417
2.70836
2.71219
2.71563
2.71866
2.72127
2.72345
2.7252
2.72651
2.72737
2.72779
2.72776
2.72729
2.72636
2.72499
2.72316
2.72088
2.71814
2.71495
2.71129
2.70717
2.70258
2.69753
2.69201
2.68603
2.67959
2.6727
2.66537
2.65763
2.6495
2.64103
2.63227
2.62329
2.6142
2.60511
2.59616
2.58753
2.57939
2.57192
2.5653
2.55965
2.55504
2.55148
2.54891
2.54721
2.5462
2.5457
2.54552
2.5455
2.54546
2.54531
2.54492
2.54424
2.54323
2.54186
2.54015
2.53811
2.5358
2.53329
2.53066
2.52802
2.52547
2.52309
2.52097
2.51915
2.51764
2.51642
2.51547
2.51474
2.51421
2.51386
2.51371
2.51379
2.51412
2.51475
2.5157
2.51694
2.51843
2.52011
2.52187
2.52361
2.52523
2.52664
2.52777
2.52855
2.52895
2.62403
2.6241
2.62425
2.62452
2.62496
2.62562
2.62654
2.62774
2.62924
2.63102
2.63303
2.63523
2.63755
2.63994
2.64234
2.64474
2.6471
2.64944
2.65179
2.65418
2.65668
2.65934
2.66224
2.66542
2.66891
2.67273
2.67685
2.68122
2.68578
2.69044
2.69512
2.69975
2.70425
2.70857
2.71264
2.71642
2.71989
2.72301
2.72576
2.72813
2.73011
2.73168
2.73285
2.7336
2.73394
2.73385
2.73335
2.73241
2.73106
2.72927
2.72706
2.72441
2.72133
2.71783
2.71388
2.70951
2.7047
2.69947
2.69382
2.68775
2.68128
2.67443
2.66722
2.65969
2.65188
2.64384
2.63565
2.62739
2.61917
2.6111
2.60333
2.596
2.58923
2.58316
2.57788
2.57343
2.56983
2.56703
2.56494
2.56344
2.56239
2.56165
2.56108
2.56057
2.55999
2.55928
2.55837
2.55722
2.55582
2.55415
2.55226
2.55016
2.54793
2.54561
2.54329
2.54104
2.53893
2.53702
2.53533
2.5339
2.53271
2.53175
2.531
2.53045
2.53009
2.52993
2.52997
2.53025
2.53077
2.53153
2.53252
2.5337
2.53502
2.5364
2.53777
2.53905
2.54016
2.54105
2.54167
2.54198
2.63878
2.63887
2.63908
2.63941
2.63991
2.6406
2.64151
2.64267
2.64406
2.64567
2.64749
2.64948
2.65158
2.65377
2.656
2.65826
2.66053
2.66282
2.66514
2.66753
2.67003
2.67267
2.6755
2.67856
2.68187
2.68542
2.68919
2.69316
2.69727
2.70145
2.70565
2.7098
2.71384
2.71772
2.72138
2.7248
2.72793
2.73075
2.73324
2.73539
2.73717
2.73858
2.73961
2.74025
2.74051
2.74036
2.73983
2.73889
2.73755
2.73581
2.73366
2.73111
2.72815
2.72479
2.72103
2.71687
2.7123
2.70735
2.70202
2.69631
2.69025
2.68385
2.67714
2.67016
2.66295
2.65556
2.64807
2.64054
2.63306
2.62575
2.6187
2.61203
2.60585
2.60024
2.59527
2.59098
2.58739
2.58444
2.58208
2.58023
2.57877
2.57761
2.57662
2.57572
2.57481
2.57384
2.57273
2.57147
2.57002
2.5684
2.56661
2.56467
2.56264
2.56056
2.55849
2.55647
2.55457
2.55283
2.55127
2.54991
2.54877
2.54782
2.54707
2.54651
2.54613
2.54593
2.54593
2.54613
2.54653
2.54713
2.54791
2.54884
2.54987
2.55095
2.55202
2.55302
2.55389
2.55459
2.55508
2.55533
2.65342
2.65354
2.65377
2.65414
2.65466
2.65536
2.65625
2.65734
2.65864
2.66013
2.66179
2.66361
2.66553
2.66755
2.66964
2.67177
2.67394
2.67616
2.67843
2.68077
2.68322
2.6858
2.68854
2.69146
2.69457
2.69787
2.70134
2.70496
2.70868
2.71245
2.71623
2.71996
2.72359
2.72708
2.73038
2.73346
2.73628
2.73883
2.74107
2.743
2.7446
2.74585
2.74675
2.74729
2.74746
2.74727
2.74671
2.74576
2.74444
2.74275
2.74067
2.73821
2.73538
2.73216
2.72858
2.72462
2.72029
2.71561
2.71058
2.70522
2.69954
2.69357
2.68733
2.68086
2.6742
2.6674
2.66052
2.65363
2.6468
2.64013
2.63369
2.62759
2.62189
2.61667
2.61198
2.60785
2.60428
2.60125
2.59872
2.59662
2.59487
2.59338
2.59208
2.59087
2.58971
2.58852
2.58726
2.58589
2.58441
2.58281
2.58109
2.57928
2.57741
2.57551
2.57362
2.57179
2.57006
2.56845
2.567
2.56572
2.56462
2.5637
2.56295
2.56237
2.56197
2.56174
2.56169
2.56181
2.5621
2.56255
2.56315
2.56387
2.56467
2.56551
2.56634
2.56712
2.5678
2.56835
2.56873
2.56893
2.66796
2.66808
2.66833
2.66871
2.66924
2.66992
2.67078
2.67182
2.67303
2.67441
2.67595
2.67761
2.6794
2.68127
2.68322
2.68524
2.68731
2.68944
2.69164
2.69391
2.69629
2.69877
2.7014
2.70417
2.70709
2.71015
2.71335
2.71665
2.72003
2.72345
2.72686
2.73022
2.73349
2.73662
2.7396
2.74237
2.74491
2.7472
2.74922
2.75094
2.75237
2.75347
2.75425
2.75469
2.75479
2.75455
2.75396
2.75301
2.75172
2.75006
2.74806
2.74569
2.74297
2.73991
2.73649
2.73273
2.72864
2.72422
2.71948
2.71445
2.70913
2.70356
2.69775
2.69174
2.68558
2.67931
2.67298
2.66665
2.66039
2.65427
2.64836
2.64273
2.63745
2.63256
2.62812
2.62414
2.62063
2.61758
2.61493
2.61266
2.61069
2.60897
2.60742
2.606
2.60462
2.60326
2.60188
2.60043
2.59892
2.59733
2.59567
2.59395
2.5922
2.59043
2.58869
2.58701
2.58541
2.58392
2.58256
2.58135
2.58029
2.57939
2.57865
2.57807
2.57765
2.57738
2.57727
2.57731
2.5775
2.57783
2.57827
2.57882
2.57943
2.58007
2.58071
2.58132
2.58185
2.58227
2.58257
2.58272
2.68237
2.6825
2.68275
2.68313
2.68365
2.68432
2.68514
2.68612
2.68725
2.68854
2.68996
2.69151
2.69316
2.69491
2.69674
2.69865
2.70062
2.70265
2.70476
2.70695
2.70923
2.71161
2.71411
2.71672
2.71945
2.7223
2.72524
2.72827
2.73135
2.73444
2.73753
2.74056
2.74351
2.74634
2.74901
2.75151
2.75379
2.75585
2.75765
2.75919
2.76045
2.76142
2.76208
2.76243
2.76246
2.76218
2.76156
2.76062
2.75934
2.75774
2.7558
2.75352
2.75092
2.748
2.74475
2.74118
2.73731
2.73314
2.72868
2.72396
2.71898
2.71377
2.70837
2.70279
2.69708
2.69128
2.68543
2.6796
2.67384
2.66819
2.66274
2.65752
2.6526
2.64802
2.6438
2.63997
2.63654
2.63348
2.63077
2.62839
2.62627
2.62438
2.62266
2.62106
2.61953
2.61804
2.61655
2.61505
2.61351
2.61192
2.6103
2.60866
2.60699
2.60534
2.60371
2.60214
2.60065
2.59925
2.59797
2.59682
2.5958
2.59493
2.5942
2.59361
2.59316
2.59286
2.59269
2.59266
2.59276
2.59298
2.59329
2.59369
2.59415
2.59464
2.59513
2.59559
2.59599
2.59632
2.59655
2.59666
2.69666
2.69679
2.69703
2.69741
2.69791
2.69855
2.69934
2.70026
2.70133
2.70252
2.70385
2.70529
2.70683
2.70847
2.71019
2.71199
2.71386
2.7158
2.71781
2.7199
2.72207
2.72434
2.7267
2.72915
2.73171
2.73435
2.73706
2.73983
2.74264
2.74546
2.74825
2.75099
2.75365
2.7562
2.75861
2.76085
2.7629
2.76474
2.76636
2.76772
2.76883
2.76967
2.77022
2.77049
2.77046
2.77013
2.76949
2.76855
2.7673
2.76574
2.76387
2.76168
2.7592
2.75641
2.75332
2.74994
2.74628
2.74234
2.73815
2.73372
2.72905
2.72419
2.71915
2.71396
2.70866
2.70329
2.69788
2.69249
2.68716
2.68194
2.67688
2.67202
2.66742
2.6631
2.65909
2.65541
2.65206
2.64903
2.6463
2.64384
2.64163
2.63962
2.63777
2.63604
2.6344
2.63281
2.63125
2.62969
2.62813
2.62655
2.62497
2.62337
2.62178
2.62021
2.61868
2.6172
2.61579
2.61447
2.61326
2.61216
2.61118
2.61032
2.6096
2.609
2.60854
2.6082
2.60798
2.60789
2.60791
2.60803
2.60823
2.60851
2.60884
2.6092
2.60956
2.60991
2.61021
2.61046
2.61063
2.61072
2.71083
2.71095
2.71119
2.71155
2.71204
2.71265
2.71339
2.71426
2.71526
2.71638
2.71762
2.71896
2.72041
2.72194
2.72356
2.72526
2.72703
2.72887
2.73078
2.73276
2.73482
2.73697
2.73919
2.74149
2.74387
2.74632
2.74882
2.75136
2.75393
2.75649
2.75902
2.7615
2.76391
2.7662
2.76837
2.77038
2.77222
2.77387
2.7753
2.77651
2.77748
2.77819
2.77865
2.77884
2.77875
2.77838
2.77773
2.77679
2.77557
2.77405
2.77224
2.77015
2.76777
2.76511
2.76218
2.75898
2.75552
2.75181
2.74786
2.7437
2.73933
2.73478
2.73008
2.72525
2.72032
2.71533
2.71031
2.70531
2.70036
2.69551
2.6908
2.68627
2.68195
2.67787
2.67406
2.67052
2.66726
2.66427
2.66154
2.65905
2.65678
2.65469
2.65275
2.65094
2.64921
2.64755
2.64593
2.64434
2.64276
2.6412
2.63963
2.63808
2.63655
2.63505
2.63358
2.63218
2.63084
2.62959
2.62843
2.62737
2.62642
2.62558
2.62487
2.62426
2.62378
2.62341
2.62315
2.623
2.62295
2.62299
2.6231
2.62328
2.6235
2.62376
2.62402
2.62427
2.62449
2.62468
2.62481
2.62487
2.72488
2.72499
2.72522
2.72557
2.72603
2.72661
2.72732
2.72814
2.72908
2.73012
2.73128
2.73254
2.73389
2.73533
2.73685
2.73845
2.74012
2.74186
2.74367
2.74555
2.74749
2.74951
2.7516
2.75375
2.75596
2.75823
2.76054
2.76287
2.76521
2.76754
2.76985
2.77209
2.77426
2.77633
2.77828
2.78009
2.78173
2.7832
2.78447
2.78553
2.78637
2.78698
2.78735
2.78746
2.78732
2.78692
2.78626
2.78532
2.78412
2.78265
2.78091
2.7789
2.77663
2.7741
2.77131
2.76828
2.765
2.76151
2.75779
2.75388
2.74979
2.74553
2.74114
2.73663
2.73204
2.72739
2.72273
2.71807
2.71347
2.70895
2.70455
2.70031
2.69624
2.69238
2.68875
2.68534
2.68218
2.67925
2.67655
2.67405
2.67175
2.66961
2.66762
2.66574
2.66396
2.66225
2.66059
2.65898
2.65739
2.65583
2.65429
2.65277
2.65129
2.64984
2.64844
2.64709
2.64581
2.64461
2.64349
2.64247
2.64155
2.64073
2.64001
2.63941
2.63891
2.63851
2.63821
2.63801
2.6379
2.63787
2.6379
2.638
2.63814
2.6383
2.63848
2.63865
2.63881
2.63895
2.63904
2.63909
2.73881
2.73892
2.73914
2.73947
2.73991
2.74046
2.74112
2.74189
2.74277
2.74376
2.74484
2.74602
2.74729
2.74864
2.75007
2.75157
2.75314
2.75478
2.75649
2.75826
2.76009
2.76199
2.76394
2.76595
2.768
2.7701
2.77222
2.77437
2.77651
2.77863
2.78072
2.78276
2.78472
2.78658
2.78834
2.78996
2.79142
2.79273
2.79385
2.79478
2.7955
2.79601
2.79629
2.79634
2.79616
2.79573
2.79505
2.79412
2.79295
2.79152
2.78984
2.78791
2.78574
2.78333
2.78068
2.77781
2.77472
2.77142
2.76792
2.76424
2.7604
2.75642
2.75231
2.7481
2.74381
2.73948
2.73513
2.73079
2.72649
2.72227
2.71815
2.71416
2.71033
2.70667
2.7032
2.69993
2.69687
2.694
2.69134
2.68886
2.68655
2.68439
2.68236
2.68045
2.67863
2.67689
2.67521
2.67358
2.67199
2.67044
2.66892
2.66743
2.66599
2.66458
2.66323
2.66193
2.6607
2.65954
2.65846
2.65747
2.65657
2.65577
2.65506
2.65444
2.65393
2.65351
2.65318
2.65293
2.65277
2.65268
2.65265
2.65267
2.65274
2.65283
2.65294
2.65306
2.65316
2.65325
2.65331
2.65335
2.75263
2.75273
2.75294
2.75326
2.75367
2.75419
2.75482
2.75554
2.75637
2.75729
2.75831
2.75941
2.7606
2.76187
2.76321
2.76462
2.7661
2.76764
2.76925
2.77091
2.77263
2.7744
2.77623
2.7781
2.78
2.78194
2.7839
2.78586
2.78782
2.78975
2.79165
2.7935
2.79527
2.79695
2.79852
2.79997
2.80128
2.80244
2.80342
2.80423
2.80485
2.80526
2.80547
2.80546
2.80523
2.80477
2.80409
2.80317
2.80202
2.80063
2.79902
2.79717
2.79509
2.7928
2.79028
2.78756
2.78463
2.78152
2.77823
2.77477
2.77116
2.76743
2.76358
2.75964
2.75563
2.75158
2.74752
2.74346
2.73944
2.73548
2.73162
2.72786
2.72424
2.72076
2.71745
2.71431
2.71135
2.70856
2.70595
2.7035
2.7012
2.69903
2.697
2.69506
2.69323
2.69147
2.68978
2.68814
2.68656
2.68501
2.68351
2.68206
2.68064
2.67928
2.67796
2.67671
2.67551
2.67439
2.67335
2.67238
2.6715
2.67071
2.67
2.66938
2.66886
2.66841
2.66805
2.66777
2.66756
2.66742
2.66734
2.66731
2.66731
2.66735
2.6674
2.66746
2.66752
2.66758
2.66762
2.66764
2.76635
2.76645
2.76664
2.76694
2.76733
2.76782
2.76841
2.76909
2.76986
2.77073
2.77168
2.77271
2.77383
2.77502
2.77628
2.7776
2.77899
2.78044
2.78194
2.7835
2.78511
2.78677
2.78847
2.7902
2.79197
2.79376
2.79556
2.79736
2.79915
2.80091
2.80264
2.80431
2.80591
2.80742
2.80883
2.81013
2.81129
2.81231
2.81317
2.81387
2.81439
2.81472
2.81486
2.8148
2.81453
2.81405
2.81336
2.81245
2.81133
2.80998
2.80842
2.80665
2.80467
2.80248
2.80009
2.79751
2.79474
2.7918
2.7887
2.78544
2.78205
2.77854
2.77493
2.77124
2.76749
2.7637
2.75989
2.75609
2.75232
2.74861
2.74497
2.74142
2.73799
2.73469
2.73153
2.72852
2.72565
2.72295
2.72039
2.71798
2.7157
2.71355
2.71152
2.70958
2.70774
2.70598
2.70429
2.70265
2.70107
2.69955
2.69807
2.69663
2.69525
2.69391
2.69264
2.69141
2.69026
2.68917
2.68815
2.68721
2.68634
2.68556
2.68485
2.68423
2.68369
2.68323
2.68285
2.68254
2.68229
2.68211
2.68198
2.6819
2.68185
2.68184
2.68185
2.68187
2.6819
2.68192
2.68194
2.68195
2.77996
2.78006
2.78024
2.78052
2.78089
2.78135
2.7819
2.78254
2.78327
2.78408
2.78497
2.78594
2.78698
2.7881
2.78928
2.79052
2.79182
2.79318
2.79459
2.79604
2.79755
2.79909
2.80067
2.80228
2.80391
2.80556
2.80722
2.80887
2.8105
2.81211
2.81368
2.81519
2.81663
2.81799
2.81925
2.82041
2.82144
2.82234
2.82309
2.82369
2.82412
2.82437
2.82445
2.82434
2.82404
2.82354
2.82284
2.82195
2.82085
2.81955
2.81804
2.81634
2.81445
2.81236
2.81009
2.80764
2.80502
2.80225
2.79932
2.79625
2.79306
2.78976
2.78637
2.78291
2.77939
2.77583
2.77226
2.76869
2.76515
2.76165
2.75822
2.75487
2.75162
2.74848
2.74546
2.74257
2.73981
2.73718
2.73469
2.73232
2.73008
2.72796
2.72594
2.72401
2.72218
2.72042
2.71873
2.71711
2.71554
2.71403
2.71257
2.71116
2.7098
2.7085
2.70725
2.70606
2.70493
2.70387
2.70287
2.70195
2.7011
2.70032
2.69963
2.699
2.69845
2.69798
2.69757
2.69723
2.69696
2.69674
2.69657
2.69645
2.69636
2.69631
2.69628
2.69627
2.69626
2.69627
2.69627
2.69628
2.79349
2.79357
2.79375
2.79401
2.79436
2.79479
2.79531
2.79591
2.79659
2.79735
2.79818
2.79909
2.80006
2.80111
2.80221
2.80337
2.80459
2.80586
2.80718
2.80854
2.80994
2.81138
2.81284
2.81433
2.81584
2.81736
2.81888
2.82039
2.82188
2.82335
2.82477
2.82614
2.82744
2.82866
2.82979
2.83081
2.83173
2.83251
2.83316
2.83367
2.83402
2.8342
2.83423
2.83407
2.83374
2.83323
2.83253
2.83164
2.83057
2.82931
2.82786
2.82623
2.82442
2.82243
2.82027
2.81795
2.81547
2.81284
2.81007
2.80718
2.80418
2.80107
2.79788
2.79463
2.79132
2.78798
2.78462
2.78127
2.77793
2.77464
2.7714
2.76822
2.76514
2.76214
2.75926
2.75648
2.75382
2.75128
2.74885
2.74655
2.74435
2.74225
2.74026
2.73835
2.73653
2.73479
2.73311
2.7315
2.72995
2.72846
2.72702
2.72564
2.7243
2.72303
2.7218
2.72064
2.71954
2.7185
2.71753
2.71662
2.71578
2.71502
2.71432
2.71369
2.71314
2.71265
2.71223
2.71187
2.71157
2.71132
2.71112
2.71096
2.71084
2.71076
2.7107
2.71065
2.71063
2.71061
2.7106
2.7106
2.80692
2.807
2.80717
2.80741
2.80774
2.80814
2.80863
2.80919
2.80983
2.81054
2.81132
2.81217
2.81308
2.81405
2.81509
2.81617
2.81731
2.8185
2.81973
2.82099
2.8223
2.82363
2.82499
2.82637
2.82776
2.82916
2.83055
2.83193
2.8333
2.83463
2.83591
2.83715
2.83832
2.83941
2.84042
2.84133
2.84214
2.84282
2.84338
2.8438
2.84408
2.8442
2.84417
2.84398
2.84363
2.8431
2.8424
2.84153
2.84048
2.83926
2.83786
2.8363
2.83456
2.83267
2.83061
2.8284
2.82605
2.82357
2.82095
2.81822
2.81539
2.81247
2.80946
2.8064
2.80329
2.80014
2.79698
2.79382
2.79067
2.78756
2.7845
2.78149
2.77856
2.7757
2.77294
2.77028
2.76772
2.76526
2.76291
2.76066
2.7585
2.75645
2.75449
2.75261
2.75081
2.74908
2.74743
2.74584
2.74431
2.74283
2.74142
2.74006
2.73875
2.7375
2.7363
2.73516
2.73408
2.73306
2.73211
2.73122
2.73039
2.72963
2.72894
2.72831
2.72775
2.72726
2.72682
2.72644
2.72612
2.72585
2.72562
2.72544
2.72529
2.72518
2.72509
2.72502
2.72498
2.72495
2.72493
2.72492
2.82027
2.82035
2.8205
2.82073
2.82104
2.82142
2.82187
2.8224
2.82299
2.82366
2.82439
2.82518
2.82603
2.82694
2.82791
2.82892
2.82998
2.83109
2.83223
2.83341
2.83462
2.83586
2.83712
2.83839
2.83967
2.84095
2.84223
2.8435
2.84474
2.84594
2.84711
2.84822
2.84928
2.85026
2.85115
2.85196
2.85266
2.85325
2.85373
2.85407
2.85429
2.85436
2.85428
2.85406
2.85368
2.85314
2.85244
2.85158
2.85056
2.84938
2.84803
2.84653
2.84487
2.84306
2.8411
2.83901
2.83678
2.83442
2.83195
2.82937
2.82669
2.82393
2.8211
2.81821
2.81528
2.81232
2.80934
2.80635
2.80338
2.80044
2.79754
2.79468
2.79189
2.78917
2.78653
2.78398
2.78151
2.77913
2.77685
2.77466
2.77257
2.77055
2.76863
2.76678
2.76501
2.76331
2.76168
2.76011
2.7586
2.75715
2.75576
2.75442
2.75314
2.75191
2.75074
2.74962
2.74856
2.74756
2.74663
2.74575
2.74494
2.74419
2.7435
2.74287
2.7423
2.7418
2.74135
2.74096
2.74062
2.74033
2.74008
2.73987
2.7397
2.73957
2.73946
2.73938
2.73931
2.73927
2.73924
2.73923
2.83354
2.83361
2.83376
2.83397
2.83426
2.83462
2.83504
2.83553
2.83609
2.83671
2.83739
2.83813
2.83893
2.83978
2.84068
2.84162
2.84261
2.84364
2.8447
2.8458
2.84692
2.84806
2.84923
2.8504
2.85158
2.85276
2.85393
2.85508
2.85621
2.8573
2.85836
2.85936
2.86031
2.86118
2.86198
2.86268
2.8633
2.86381
2.8642
2.86448
2.86464
2.86466
2.86454
2.86429
2.86389
2.86334
2.86265
2.8618
2.8608
2.85966
2.85836
2.85692
2.85533
2.8536
2.85173
2.84974
2.84762
2.84539
2.84305
2.84061
2.83808
2.83547
2.8328
2.83008
2.82731
2.82451
2.82169
2.81888
2.81607
2.81328
2.81052
2.80781
2.80516
2.80256
2.80003
2.79758
2.79521
2.79292
2.79071
2.78858
2.78654
2.78457
2.78269
2.78088
2.77914
2.77747
2.77586
2.77432
2.77284
2.77141
2.77004
2.76873
2.76747
2.76626
2.76511
2.76402
2.76298
2.762
2.76108
2.76022
2.75942
2.75867
2.75799
2.75736
2.75679
2.75628
2.75583
2.75542
2.75507
2.75476
2.75449
2.75427
2.75408
2.75393
2.7538
2.7537
2.75363
2.75358
2.75354
2.75352
2.84674
2.84681
2.84694
2.84715
2.84741
2.84775
2.84814
2.8486
2.84912
2.8497
2.85034
2.85103
2.85177
2.85256
2.8534
2.85428
2.8552
2.85615
2.85714
2.85815
2.85919
2.86025
2.86132
2.8624
2.86349
2.86456
2.86563
2.86668
2.86771
2.8687
2.86966
2.87056
2.8714
2.87218
2.87288
2.87351
2.87404
2.87447
2.8748
2.87501
2.87511
2.87509
2.87494
2.87466
2.87424
2.87369
2.873
2.87217
2.8712
2.87008
2.86883
2.86744
2.86592
2.86427
2.86249
2.8606
2.85858
2.85647
2.85425
2.85194
2.84954
2.84708
2.84455
2.84198
2.83936
2.83671
2.83405
2.83139
2.82873
2.82608
2.82347
2.82089
2.81836
2.81588
2.81346
2.81111
2.80882
2.80661
2.80448
2.80241
2.80043
2.79851
2.79667
2.7949
2.7932
2.79156
2.78999
2.78847
2.78701
2.78561
2.78427
2.78298
2.78175
2.78056
2.77944
2.77836
2.77735
2.77638
2.77548
2.77463
2.77384
2.7731
2.77242
2.7718
2.77123
2.77071
2.77025
2.76983
2.76947
2.76915
2.76887
2.76863
2.76843
2.76826
2.76812
2.76801
2.76792
2.76786
2.76782
2.7678
2.85987
2.85994
2.86006
2.86025
2.8605
2.86081
2.86118
2.86161
2.86209
2.86263
2.86323
2.86387
2.86456
2.8653
2.86607
2.86689
2.86775
2.86863
2.86955
2.87049
2.87145
2.87242
2.87341
2.8744
2.8754
2.87638
2.87736
2.87832
2.87925
2.88014
2.881
2.88181
2.88256
2.88326
2.88387
2.88442
2.88487
2.88524
2.8855
2.88566
2.88572
2.88565
2.88547
2.88517
2.88474
2.88418
2.88349
2.88268
2.88173
2.88065
2.87944
2.87811
2.87665
2.87507
2.87337
2.87157
2.86965
2.86764
2.86553
2.86335
2.86108
2.85875
2.85636
2.85392
2.85144
2.84894
2.84642
2.84389
2.84137
2.83886
2.83637
2.83392
2.8315
2.82913
2.82682
2.82456
2.82236
2.82023
2.81817
2.81617
2.81424
2.81238
2.81059
2.80886
2.80719
2.80559
2.80405
2.80256
2.80113
2.79976
2.79844
2.79718
2.79597
2.79481
2.7937
2.79265
2.79165
2.79071
2.78982
2.78898
2.7882
2.78747
2.78679
2.78617
2.7856
2.78509
2.78462
2.7842
2.78382
2.78349
2.7832
2.78295
2.78274
2.78256
2.78241
2.78229
2.78219
2.78212
2.78208
2.78206
2.87294
2.873
2.87312
2.87329
2.87352
2.87381
2.87416
2.87456
2.87501
2.87551
2.87606
2.87666
2.8773
2.87799
2.87871
2.87947
2.88026
2.88108
2.88193
2.8828
2.88368
2.88458
2.88549
2.8864
2.88731
2.88821
2.8891
2.88997
2.89081
2.89162
2.89239
2.89312
2.89379
2.8944
2.89494
2.89541
2.8958
2.8961
2.89631
2.89642
2.89643
2.89633
2.89612
2.8958
2.89536
2.8948
2.89411
2.89331
2.89239
2.89134
2.89018
2.88889
2.88749
2.88598
2.88436
2.88264
2.88082
2.87891
2.87691
2.87483
2.87268
2.87047
2.8682
2.86589
2.86355
2.86117
2.85879
2.85639
2.85399
2.85161
2.84924
2.84691
2.8446
2.84234
2.84012
2.83795
2.83584
2.83379
2.83179
2.82986
2.82799
2.82618
2.82444
2.82275
2.82112
2.81956
2.81805
2.81659
2.8152
2.81385
2.81256
2.81132
2.81013
2.809
2.80791
2.80688
2.8059
2.80497
2.8041
2.80327
2.8025
2.80178
2.80111
2.8005
2.79993
2.79941
2.79894
2.79852
2.79814
2.7978
2.7975
2.79724
2.79701
2.79682
2.79666
2.79654
2.79643
2.79636
2.79631
2.79629
2.88595
2.886
2.88611
2.88627
2.88649
2.88676
2.88708
2.88745
2.88787
2.88834
2.88885
2.88941
2.89001
2.89064
2.89131
2.89201
2.89275
2.89351
2.89429
2.89509
2.89591
2.89673
2.89757
2.8984
2.89923
2.90005
2.90086
2.90165
2.90241
2.90314
2.90383
2.90448
2.90507
2.90561
2.90608
2.90649
2.90681
2.90706
2.90721
2.90728
2.90725
2.90712
2.90688
2.90654
2.90609
2.90553
2.90486
2.90407
2.90317
2.90215
2.90103
2.89979
2.89845
2.897
2.89546
2.89381
2.89208
2.89026
2.88836
2.88638
2.88434
2.88224
2.8801
2.8779
2.87568
2.87343
2.87116
2.86888
2.86661
2.86434
2.86209
2.85986
2.85766
2.85549
2.85337
2.85129
2.84926
2.84728
2.84535
2.84349
2.84167
2.83992
2.83822
2.83658
2.835
2.83347
2.83199
2.83057