/*--------------------------------*- C++ -*----------------------------------*\
| =========                 |                                                 |
| \\      /  F ield         | OpenFOAM: The Open Source CFD Toolbox           |
|  \\    /   O peration     | Version:  2406                                  |
|   \\  /    A nd           | Website:  www.openfoam.com                      |
|    \\/     M anipulation  |                                                 |
\*---------------------------------------------------------------------------*/
FoamFile
{
    version     2.0;
    format      ascii;
    arch        "LSB;label=32;scalar=64";
    class       volScalarField;
    location    "1.5";
    object      C_0_0;
}
// * * * * * * * * * * * * * * * * * * * * * * * * * * * * * * * * * * * * * //

dimensions      [1 -3 0 0 0 0 0];

internalField   nonuniform List<scalar> 
14400
(
2.50337
2.49985
2.49246
2.48035
2.46037
2.42535
2.39248
2.38186
2.39825
2.43665
2.47596
2.49968
2.51577
2.52757
2.53595
2.54137
2.54402
2.54389
2.54076
2.53409
2.52291
2.50387
2.4703
2.44047
2.434
2.45541
2.49956
2.5442
2.57275
2.59391
2.61145
2.6263
2.63904
2.65008
2.65967
2.66802
2.67528
2.68155
2.68693
2.69148
2.69526
2.6983
2.70065
2.70233
2.70336
2.70376
2.70354
2.7027
2.70125
2.69919
2.6965
2.69319
2.68924
2.68462
2.67933
2.67333
2.66658
2.65905
2.65069
2.64142
2.63119
2.61989
2.60742
2.59362
2.57831
2.56125
2.54212
2.52046
2.49565
2.46672
2.42885
2.37054
2.30507
2.25613
2.22828
2.22162
2.23606
2.27145
2.32347
2.37098
2.39965
2.41917
2.43383
2.44473
2.45254
2.45768
2.46042
2.46091
2.45919
2.45522
2.44885
2.4398
2.42756
2.41127
2.38792
2.34911
2.30988
2.29143
2.29899
2.32769
2.35819
2.37399
2.3818
2.38409
2.38127
2.37295
2.35667
2.32563
2.29618
2.28784
2.30551
2.34402
2.38229
2.40526
2.42123
2.43324
2.44214
2.44847
2.45254
2.45454
2.50689
2.50372
2.49718
2.48678
2.4718
2.44823
2.42029
2.40797
2.42611
2.45911
2.48679
2.50559
2.52005
2.53098
2.53891
2.54413
2.5468
2.5469
2.54428
2.53861
2.52932
2.51561
2.49348
2.46814
2.46008
2.48323
2.52173
2.55447
2.57794
2.59752
2.61413
2.6284
2.64075
2.65152
2.66091
2.66912
2.67626
2.68245
2.68776
2.69225
2.69598
2.699
2.70132
2.70298
2.704
2.70438
2.70416
2.70332
2.70187
2.69981
2.69713
2.69383
2.68989
2.6853
2.68004
2.67407
2.66736
2.65988
2.65158
2.64239
2.63225
2.62107
2.60874
2.59513
2.58006
2.56333
2.54464
2.52362
2.49975
2.47229
2.44011
2.39499
2.33684
2.28776
2.26063
2.254
2.26769
2.30323
2.34868
2.38346
2.40634
2.42402
2.4376
2.44783
2.45521
2.46008
2.46268
2.46311
2.46144
2.45762
2.45154
2.44299
2.4316
2.41685
2.39793
2.37066
2.33738
2.31709
2.32648
2.35031
2.36968
2.38099
2.38732
2.38919
2.38677
2.37989
2.36806
2.34815
2.32363
2.31343
2.33291
2.36551
2.39227
2.41079
2.42521
2.43633
2.44471
2.45073
2.45462
2.45653
2.51357
2.51098
2.50574
2.49779
2.48725
2.47488
2.46038
2.45194
2.46589
2.48487
2.50129
2.51582
2.52787
2.53741
2.54456
2.54945
2.55214
2.55263
2.55086
2.54673
2.54015
2.53121
2.52076
2.50861
2.50414
2.523
2.54683
2.56777
2.58701
2.60411
2.61917
2.63241
2.64406
2.65432
2.66334
2.67127
2.6782
2.68422
2.68939
2.69378
2.69743
2.70038
2.70265
2.70427
2.70525
2.70562
2.70538
2.70453
2.70309
2.70104
2.69838
2.69511
2.6912
2.68666
2.68145
2.67554
2.66892
2.66154
2.65336
2.64432
2.63436
2.6234
2.61134
2.59809
2.58348
2.56735
2.54949
2.52963
2.50745
2.48259
2.45468
2.42373
2.38516
2.34553
2.32258
2.3161
2.32562
2.35206
2.37935
2.40026
2.41822
2.43297
2.44472
2.45376
2.46037
2.46476
2.46709
2.46743
2.46583
2.46227
2.4567
2.449
2.43901
2.42658
2.41169
2.39484
2.37555
2.3599
2.36547
2.37648
2.38571
2.39295
2.39731
2.39858
2.39672
2.39177
2.38395
2.37413
2.36247
2.3561
2.37096
2.38962
2.40597
2.42043
2.43248
2.44216
2.44965
2.45511
2.45868
2.46044
2.52284
2.52088
2.517
2.51139
2.50452
2.49744
2.49229
2.4913
2.49701
2.50649
2.51767
2.52855
2.53819
2.54622
2.55248
2.55697
2.55968
2.56062
2.5598
2.55731
2.55332
2.54834
2.54349
2.5411
2.54355
2.55347
2.56722
2.58277
2.59822
2.61274
2.62601
2.638
2.64876
2.65835
2.66688
2.67442
2.68105
2.68683
2.69182
2.69606
2.69959
2.70243
2.70463
2.70619
2.70713
2.70747
2.70721
2.70635
2.70491
2.70288
2.70024
2.69701
2.69316
2.68867
2.68354
2.67774
2.67124
2.664
2.65599
2.64716
2.63746
2.62681
2.61515
2.60239
2.58841
2.57311
2.55634
2.53796
2.51784
2.49591
2.4723
2.44759
2.42331
2.39979
2.38403
2.37791
2.38115
2.39254
2.40576
2.41999
2.43332
2.44492
2.45453
2.46212
2.46776
2.47152
2.47347
2.47368
2.47217
2.46895
2.46399
2.4573
2.44886
2.43879
2.4274
2.41556
2.40507
2.39794
2.39663
2.39931
2.40373
2.40778
2.41039
2.41109
2.40976
2.40653
2.40184
2.39677
2.39341
2.39399
2.40041
2.41027
2.42157
2.43246
2.44211
2.45019
2.45661
2.46138
2.46453
2.4661
2.53408
2.53268
2.52999
2.52627
2.522
2.51806
2.5157
2.51623
2.51995
2.52642
2.53434
2.54251
2.55014
2.55677
2.56219
2.56627
2.56898
2.57035
2.57043
2.56938
2.56749
2.56532
2.56377
2.56421
2.56801
2.57542
2.58582
2.59786
2.61037
2.6226
2.63415
2.64484
2.65461
2.66345
2.67139
2.67847
2.68474
2.69023
2.69499
2.69904
2.70242
2.70514
2.70724
2.70873
2.70961
2.70991
2.70963
2.70876
2.70733
2.70531
2.70271
2.69953
2.69574
2.69134
2.68631
2.68063
2.67428
2.66723
2.65944
2.65088
2.64149
2.63124
2.62007
2.6079
2.59468
2.58033
2.56479
2.54802
2.53002
2.51092
2.49102
2.47101
2.45206
2.43586
2.42392
2.41808
2.41835
2.42315
2.43117
2.44063
2.45014
2.45886
2.46637
2.47244
2.47702
2.48007
2.48161
2.48165
2.48023
2.47734
2.47303
2.46733
2.46035
2.45229
2.44358
2.43492
2.42744
2.42233
2.42005
2.42039
2.42213
2.42406
2.42538
2.42564
2.42471
2.42273
2.42012
2.41769
2.41666
2.41823
2.42265
2.42949
2.43756
2.44574
2.45331
2.45988
2.46523
2.46927
2.47197
2.47333
2.54672
2.54578
2.54402
2.54167
2.53916
2.53709
2.53621
2.53716
2.54014
2.54489
2.55075
2.55701
2.56307
2.56856
2.57322
2.57693
2.57964
2.58136
2.58219
2.58228
2.58196
2.58166
2.58206
2.58395
2.58799
2.59438
2.60278
2.61249
2.62279
2.63313
2.64314
2.6526
2.66139
2.66945
2.67676
2.68335
2.68921
2.69437
2.69886
2.7027
2.70589
2.70848
2.71046
2.71186
2.71268
2.71293
2.71262
2.71175
2.71032
2.70833
2.70577
2.70264
2.69893
2.69463
2.68973
2.6842
2.67803
2.67119
2.66366
2.65541
2.6464
2.6366
2.62597
2.61447
2.60207
2.58874
2.57448
2.5593
2.54332
2.52672
2.50986
2.49336
2.47808
2.46508
2.45539
2.44983
2.44845
2.45053
2.45515
2.46121
2.46773
2.47403
2.47963
2.48427
2.48779
2.49013
2.49123
2.4911
2.48974
2.48717
2.48345
2.47864
2.4729
2.46646
2.45969
2.45312
2.44743
2.44324
2.44084
2.44006
2.44033
2.44096
2.44141
2.44136
2.44071
2.43955
2.43821
2.43723
2.43729
2.43898
2.44247
2.44749
2.45343
2.45962
2.46553
2.47078
2.47514
2.4785
2.48077
2.48191
2.5603
2.55971
2.55862
2.55724
2.55588
2.55495
2.55489
2.55605
2.55855
2.56225
2.56678
2.57169
2.57659
2.58116
2.58521
2.58859
2.59128
2.59327
2.59466
2.59562
2.59638
2.59732
2.59887
2.60152
2.60564
2.61133
2.61842
2.62651
2.63517
2.644
2.65269
2.66103
2.66889
2.67618
2.68287
2.68894
2.69438
2.69919
2.70339
2.70698
2.70999
2.71241
2.71427
2.71557
2.71632
2.71652
2.71617
2.71529
2.71387
2.7119
2.70939
2.70634
2.70272
2.69853
2.69377
2.68841
2.68244
2.67585
2.6686
2.6607
2.6521
2.64278
2.63274
2.62194
2.61039
2.59809
2.58507
2.5714
2.55723
2.54276
2.52835
2.51449
2.5018
2.491
2.48272
2.4774
2.47508
2.47538
2.4777
2.48132
2.48556
2.48988
2.49385
2.49721
2.49977
2.50141
2.50209
2.50177
2.50045
2.49815
2.49494
2.49089
2.48616
2.48096
2.47559
2.47043
2.4659
2.46237
2.45999
2.4587
2.45817
2.45803
2.45795
2.4577
2.45721
2.45655
2.45595
2.45574
2.45629
2.45793
2.46074
2.46457
2.46906
2.47379
2.47839
2.48255
2.48608
2.48881
2.49068
2.49163
2.57446
2.57412
2.57351
2.57279
2.57217
2.57193
2.57234
2.5736
2.57578
2.57879
2.58242
2.58639
2.59042
2.5943
2.59785
2.60096
2.6036
2.60579
2.60758
2.60913
2.61063
2.61235
2.61458
2.61763
2.62171
2.62688
2.63304
2.63998
2.64739
2.655
2.66258
2.66994
2.67695
2.68352
2.6896
2.69516
2.70016
2.70462
2.70852
2.71186
2.71466
2.71692
2.71864
2.71983
2.7205
2.72064
2.72026
2.71937
2.71796
2.71603
2.71357
2.71059
2.70707
2.70301
2.6984
2.69322
2.68748
2.68115
2.67422
2.66667
2.6585
2.6497
2.64026
2.63017
2.61946
2.60815
2.5963
2.58401
2.57142
2.55875
2.54629
2.53444
2.52365
2.51439
2.50708
2.50197
2.49909
2.49821
2.49894
2.50081
2.50332
2.50606
2.50869
2.51094
2.51264
2.51367
2.51395
2.51344
2.51214
2.51006
2.50726
2.50383
2.49989
2.49563
2.49128
2.48711
2.48338
2.48034
2.47807
2.47655
2.47562
2.47505
2.47465
2.47427
2.47387
2.4735
2.4733
2.47346
2.47421
2.47571
2.478
2.48098
2.48444
2.48809
2.49168
2.49497
2.49779
2.5
2.50152
2.50229
2.58897
2.5888
2.58852
2.58822
2.58808
2.58826
2.58893
2.59022
2.59216
2.59471
2.59772
2.60102
2.60442
2.60776
2.61091
2.6138
2.61639
2.61868
2.62075
2.62269
2.62467
2.62686
2.62948
2.63271
2.63668
2.64143
2.6469
2.65296
2.6594
2.66604
2.67269
2.67919
2.68545
2.69136
2.69686
2.70192
2.7065
2.7106
2.71419
2.71729
2.71987
2.72195
2.72353
2.72461
2.7252
2.72528
2.72487
2.72397
2.72257
2.72067
2.71827
2.71537
2.71196
2.70803
2.70359
2.69861
2.6931
2.68704
2.68044
2.67327
2.66554
2.65726
2.64841
2.63902
2.62912
2.61875
2.60798
2.59691
2.58569
2.57452
2.56363
2.55334
2.54396
2.53584
2.52923
2.52431
2.52109
2.51942
2.51904
2.51964
2.52085
2.52237
2.5239
2.52523
2.5262
2.52668
2.52659
2.5259
2.5246
2.52268
2.52021
2.51726
2.51394
2.51039
2.50679
2.50333
2.50019
2.49753
2.49541
2.49382
2.4927
2.4919
2.49132
2.49086
2.49051
2.49029
2.49028
2.4906
2.49138
2.4927
2.49457
2.49692
2.49962
2.50246
2.50527
2.50787
2.51011
2.51188
2.5131
2.51372
2.60365
2.6036
2.60353
2.60351
2.60367
2.6041
2.60491
2.60619
2.60795
2.61016
2.61273
2.61554
2.61847
2.6214
2.62425
2.62694
2.62946
2.63181
2.63403
2.63622
2.63849
2.64095
2.64376
2.64704
2.65086
2.65526
2.66019
2.66555
2.67122
2.67706
2.68293
2.68871
2.69429
2.69959
2.70456
2.70916
2.71333
2.71708
2.72038
2.72321
2.72559
2.72749
2.72893
2.7299
2.73039
2.73042
2.72998
2.72906
2.72768
2.72582
2.72348
2.72066
2.71737
2.71358
2.70931
2.70453
2.69927
2.69349
2.68721
2.68043
2.67315
2.66537
2.65711
2.64839
2.63925
2.62975
2.61996
2.60997
2.59993
2.58999
2.58038
2.5713
2.56302
2.55576
2.5497
2.54496
2.54153
2.53933
2.53818
2.53785
2.53809
2.53865
2.53931
2.53988
2.54023
2.54024
2.53984
2.53899
2.53766
2.53586
2.53365
2.53107
2.52822
2.5252
2.52216
2.51922
2.51652
2.51417
2.5122
2.51064
2.50944
2.50853
2.50786
2.50736
2.50702
2.50685
2.50692
2.50728
2.508
2.50913
2.51066
2.51252
2.51464
2.51687
2.51907
2.52112
2.52289
2.5243
2.52528
2.52578
2.61839
2.61841
2.61847
2.61864
2.61897
2.61955
2.62043
2.62167
2.62329
2.62524
2.62749
2.62994
2.63252
2.63514
2.63773
2.64026
2.6427
2.64505
2.64736
2.64968
2.6521
2.6547
2.65758
2.66082
2.66447
2.66855
2.67303
2.67783
2.68288
2.68806
2.69327
2.69841
2.7034
2.70816
2.71265
2.7168
2.7206
2.72401
2.72702
2.7296
2.73177
2.7335
2.73479
2.73565
2.73606
2.73603
2.73555
2.73463
2.73325
2.73143
2.72916
2.72644
2.72326
2.71962
2.71552
2.71096
2.70593
2.70044
2.6945
2.68809
2.68124
2.67396
2.66626
2.65818
2.64975
2.64104
2.63212
2.62308
2.61404
2.60515
2.59657
2.58848
2.58106
2.57448
2.56886
2.56428
2.56075
2.5582
2.5565
2.55549
2.555
2.55482
2.55479
2.55476
2.5546
2.55422
2.55355
2.55254
2.55118
2.54947
2.54744
2.54515
2.54265
2.54004
2.53742
2.53488
2.53252
2.53041
2.5286
2.5271
2.52589
2.52494
2.52421
2.52369
2.52334
2.52319
2.52327
2.5236
2.52423
2.52516
2.5264
2.52788
2.52954
2.53129
2.53302
2.53463
2.53604
2.53716
2.53793
2.53833
2.6331
2.63317
2.63332
2.63359
2.63403
2.63468
2.63559
2.63679
2.63828
2.64004
2.64204
2.64422
2.64653
2.6489
2.65129
2.65366
2.65601
2.65834
2.66067
2.66304
2.66552
2.66816
2.67104
2.67419
2.67766
2.68145
2.68554
2.68988
2.6944
2.69902
2.70367
2.70827
2.71273
2.71701
2.72105
2.72481
2.72824
2.73134
2.73407
2.73642
2.73838
2.73994
2.74109
2.74184
2.74217
2.74208
2.74157
2.74064
2.73928
2.7375
2.7353
2.73266
2.7296
2.72611
2.72219
2.71784
2.71306
2.70786
2.70223
2.6962
2.68977
2.68296
2.67579
2.6683
2.66053
2.65254
2.6444
2.63619
2.62802
2.62
2.61228
2.60499
2.59827
2.59223
2.58698
2.58256
2.57899
2.5762
2.57412
2.57263
2.57159
2.57085
2.57028
2.56977
2.5692
2.56849
2.56758
2.56644
2.56504
2.56339
2.56151
2.55942
2.5572
2.5549
2.55259
2.55035
2.54826
2.54635
2.54468
2.54326
2.54207
2.54112
2.54038
2.53983
2.53947
2.53931
2.53935
2.53962
2.54014
2.5409
2.54188
2.54306
2.54436
2.54574
2.5471
2.54836
2.54947
2.55035
2.55097
2.55128
2.64775
2.64784
2.64805
2.64838
2.64888
2.64956
2.65047
2.65161
2.65299
2.6546
2.65641
2.65838
2.66047
2.66264
2.66485
2.6671
2.66935
2.67162
2.67393
2.6763
2.67877
2.6814
2.68421
2.68725
2.69052
2.69405
2.6978
2.70173
2.70581
2.70996
2.71413
2.71825
2.72226
2.7261
2.72974
2.73313
2.73623
2.73903
2.7415
2.74363
2.74539
2.74679
2.74781
2.74844
2.74869
2.74854
2.748
2.74707
2.74573
2.744
2.74186
2.73932
2.73638
2.73303
2.72929
2.72515
2.72061
2.71569
2.71038
2.7047
2.69868
2.69231
2.68565
2.67871
2.67154
2.66419
2.65674
2.64926
2.64183
2.63456
2.62755
2.62093
2.61478
2.6092
2.60426
2.6
2.59643
2.5935
2.59116
2.58931
2.58787
2.5867
2.58572
2.58483
2.58393
2.58295
2.58186
2.5806
2.57916
2.57755
2.57576
2.57384
2.57182
2.56975
2.56769
2.56569
2.5638
2.56207
2.56052
2.55917
2.55803
2.55709
2.55634
2.55578
2.5554
2.55521
2.55521
2.55541
2.5558
2.5564
2.55717
2.5581
2.55912
2.56019
2.56126
2.56225
2.56312
2.56381
2.5643
2.56455
2.6623
2.66241
2.66264
2.66301
2.66353
2.66422
2.66511
2.66619
2.66748
2.66896
2.67061
2.67241
2.67432
2.67633
2.6784
2.68051
2.68267
2.68487
2.68712
2.68945
2.69188
2.69444
2.69716
2.70006
2.70314
2.70642
2.70986
2.71345
2.71714
2.72089
2.72464
2.72834
2.73194
2.7354
2.73868
2.74173
2.74453
2.74705
2.74928
2.75119
2.75277
2.75401
2.7549
2.75543
2.7556
2.75541
2.75484
2.7539
2.75258
2.75089
2.74882
2.74638
2.74355
2.74036
2.73679
2.73285
2.72855
2.72389
2.71889
2.71356
2.70791
2.70198
2.69577
2.68934
2.68272
2.67595
2.66912
2.66227
2.65548
2.64885
2.64245
2.63638
2.63072
2.62553
2.62086
2.61676
2.61322
2.61021
2.60769
2.6056
2.60386
2.60238
2.60108
2.59989
2.59873
2.59754
2.59629
2.59493
2.59346
2.59187
2.59016
2.58836
2.5865
2.58461
2.58273
2.58091
2.57919
2.57759
2.57615
2.57488
2.57378
2.57287
2.57212
2.57155
2.57115
2.57092
2.57087
2.57098
2.57127
2.57172
2.57232
2.57303
2.57383
2.57466
2.57549
2.57626
2.57694
2.57748
2.57786
2.57806
2.67674
2.67686
2.6771
2.67748
2.678
2.67869
2.67954
2.68057
2.68177
2.68314
2.68466
2.68632
2.68809
2.68995
2.69189
2.69389
2.69595
2.69806
2.70024
2.7025
2.70486
2.70733
2.70993
2.71268
2.71557
2.71862
2.72179
2.72507
2.72842
2.73181
2.73519
2.73853
2.74177
2.74488
2.74783
2.75058
2.7531
2.75537
2.75737
2.75908
2.76049
2.76158
2.76235
2.76279
2.76288
2.76264
2.76204
2.7611
2.75981
2.75816
2.75616
2.75381
2.7511
2.74805
2.74465
2.74092
2.73684
2.73245
2.72774
2.72273
2.71744
2.7119
2.70613
2.70016
2.69403
2.68779
2.6815
2.67521
2.66898
2.6629
2.65702
2.65143
2.64618
2.64132
2.63691
2.63296
2.62947
2.62643
2.6238
2.62154
2.61958
2.61787
2.61633
2.61491
2.61355
2.6122
2.61082
2.60938
2.60788
2.6063
2.60465
2.60294
2.60119
2.59944
2.59771
2.59603
2.59444
2.59296
2.59161
2.59041
2.58936
2.58846
2.58773
2.58715
2.58673
2.58646
2.58635
2.58639
2.58658
2.5869
2.58734
2.58788
2.58849
2.58913
2.58977
2.59037
2.59089
2.59132
2.59161
2.59176
2.69105
2.69117
2.69142
2.6918
2.69232
2.69298
2.6938
2.69477
2.6959
2.69717
2.69858
2.70012
2.70176
2.7035
2.70532
2.70721
2.70916
2.71119
2.71328
2.71545
2.71771
2.72008
2.72255
2.72515
2.72786
2.73068
2.7336
2.73661
2.73966
2.74273
2.74579
2.7488
2.75173
2.75453
2.75718
2.75966
2.76192
2.76396
2.76575
2.76728
2.76852
2.76948
2.77013
2.77048
2.77051
2.77021
2.7696
2.76866
2.76739
2.76578
2.76385
2.76159
2.759
2.75609
2.75286
2.74931
2.74546
2.74131
2.73688
2.73218
2.72723
2.72205
2.71668
2.71113
2.70545
2.69969
2.69388
2.68808
2.68235
2.67674
2.67132
2.66613
2.66124
2.65668
2.65249
2.64869
2.64527
2.64223
2.63954
2.63717
2.63506
2.63318
2.63147
2.62988
2.62836
2.62688
2.6254
2.6239
2.62237
2.6208
2.61919
2.61755
2.6159
2.61425
2.61264
2.61107
2.60959
2.6082
2.60693
2.60578
2.60477
2.6039
2.60317
2.60259
2.60215
2.60184
2.60168
2.60165
2.60174
2.60196
2.60227
2.60267
2.60312
2.60361
2.60409
2.60455
2.60495
2.60528
2.6055
2.60562
2.70525
2.70537
2.70561
2.70598
2.70648
2.70712
2.7079
2.70882
2.70987
2.71106
2.71238
2.71381
2.71534
2.71697
2.71868
2.72046
2.72231
2.72424
2.72624
2.72831
2.73047
2.73272
2.73506
2.73749
2.74003
2.74265
2.74534
2.74809
2.75088
2.75367
2.75644
2.75916
2.7618
2.76433
2.76672
2.76894
2.77097
2.7728
2.7744
2.77575
2.77685
2.77767
2.77822
2.77848
2.77845
2.77812
2.77748
2.77654
2.77529
2.77374
2.77187
2.7697
2.76722
2.76445
2.76137
2.75801
2.75437
2.75046
2.74629
2.74188
2.73724
2.73241
2.72739
2.72224
2.71697
2.71162
2.70625
2.70088
2.69558
2.69039
2.68536
2.68054
2.67596
2.67167
2.66769
2.66403
2.66069
2.65768
2.65497
2.65253
2.65032
2.64832
2.64649
2.64477
2.64314
2.64156
2.64
2.63846
2.6369
2.63534
2.63376
2.63217
2.63059
2.62903
2.6275
2.62603
2.62464
2.62333
2.62212
2.62102
2.62005
2.6192
2.61848
2.61788
2.61742
2.61708
2.61687
2.61678
2.61679
2.61691
2.61712
2.61739
2.61772
2.61808
2.61844
2.61878
2.61908
2.61933
2.6195
2.61959
2.71932
2.71944
2.71967
2.72003
2.72051
2.72112
2.72186
2.72273
2.72372
2.72483
2.72606
2.72739
2.72883
2.73035
2.73196
2.73364
2.73539
2.73722
2.73912
2.74109
2.74313
2.74526
2.74746
2.74975
2.75211
2.75454
2.75702
2.75954
2.76209
2.76463
2.76714
2.7696
2.77199
2.77426
2.77641
2.77841
2.78023
2.78186
2.78328
2.78448
2.78544
2.78614
2.78659
2.78678
2.78669
2.78632
2.78567
2.78473
2.78351
2.78199
2.7802
2.77811
2.77574
2.7731
2.77018
2.76699
2.76355
2.75986
2.75594
2.7518
2.74745
2.74293
2.73826
2.73345
2.72855
2.72359
2.7186
2.71363
2.70871
2.70389
2.69921
2.6947
2.69041
2.68635
2.68256
2.67904
2.6758
2.67283
2.67012
2.66764
2.66538
2.6633
2.66138
2.65957
2.65786
2.6562
2.6546
2.65301
2.65145
2.64989
2.64833
2.64679
2.64527
2.64377
2.64232
2.64092
2.63959
2.63835
2.63719
2.63614
2.6352
2.63436
2.63365
2.63305
2.63257
2.6322
2.63194
2.63179
2.63174
2.63178
2.63189
2.63207
2.63229
2.63254
2.6328
2.63305
2.63327
2.63346
2.63358
2.63365
2.73327
2.73338
2.73361
2.73396
2.73442
2.73499
2.73569
2.73651
2.73744
2.73848
2.73963
2.74088
2.74222
2.74365
2.74516
2.74674
2.7484
2.75013
2.75192
2.75379
2.75572
2.75772
2.75979
2.76193
2.76412
2.76637
2.76866
2.77097
2.7733
2.77561
2.77789
2.78012
2.78227
2.78433
2.78626
2.78805
2.78968
2.79113
2.79239
2.79344
2.79427
2.79487
2.79523
2.79535
2.7952
2.7948
2.79413
2.7932
2.792
2.79054
2.7888
2.7868
2.78454
2.78202
2.77925
2.77623
2.77298
2.7695
2.7658
2.76191
2.75784
2.75361
2.74924
2.74476
2.7402
2.73558
2.73094
2.72631
2.72173
2.71724
2.71287
2.70865
2.70461
2.70077
2.69715
2.69377
2.69063
2.68771
2.68503
2.68255
2.68026
2.67813
2.67615
2.67428
2.67251
2.67081
2.66916
2.66756
2.66598
2.66443
2.6629
2.66139
2.65991
2.65847
2.65708
2.65574
2.65447
2.65327
2.65216
2.65115
2.65023
2.64941
2.6487
2.6481
2.6476
2.64721
2.64691
2.64671
2.6466
2.64657
2.6466
2.6467
2.64683
2.647
2.64717
2.64735
2.6475
2.64764
2.64773
2.64778
2.74711
2.74722
2.74743
2.74776
2.7482
2.74875
2.7494
2.75017
2.75104
2.75202
2.7531
2.75427
2.75552
2.75686
2.75828
2.75977
2.76134
2.76296
2.76466
2.76641
2.76823
2.77011
2.77205
2.77404
2.77608
2.77816
2.78027
2.78239
2.78452
2.78662
2.7887
2.79072
2.79266
2.79451
2.79625
2.79785
2.79931
2.8006
2.80171
2.80263
2.80334
2.80384
2.80412
2.80417
2.80398
2.80355
2.80287
2.80194
2.80077
2.79935
2.79768
2.79576
2.7936
2.7912
2.78856
2.7857
2.78263
2.77935
2.77587
2.77221
2.76839
2.76443
2.76034
2.75616
2.75189
2.74759
2.74326
2.73895
2.73468
2.73048
2.72638
2.72242
2.7186
2.71497
2.71152
2.70827
2.70522
2.70238
2.69973
2.69726
2.69496
2.69282
2.6908
2.6889
2.68709
2.68536
2.68369
2.68207
2.68049
2.67895
2.67743
2.67596
2.67452
2.67312
2.67178
2.67049
2.66926
2.66811
2.66704
2.66605
2.66516
2.66436
2.66365
2.66304
2.66253
2.66211
2.66178
2.66154
2.66137
2.66128
2.66125
2.66128
2.66134
2.66144
2.66154
2.66166
2.66176
2.66185
2.66191
2.66195
2.76084
2.76094
2.76115
2.76146
2.76187
2.76239
2.76301
2.76373
2.76455
2.76546
2.76647
2.76756
2.76874
2.77
2.77133
2.77274
2.7742
2.77574
2.77733
2.77898
2.78069
2.78244
2.78425
2.78611
2.788
2.78992
2.79186
2.79381
2.79575
2.79767
2.79956
2.80138
2.80314
2.80481
2.80637
2.8078
2.8091
2.81024
2.81122
2.81202
2.81263
2.81303
2.81324
2.81322
2.81299
2.81254
2.81185
2.81093
2.80979
2.80841
2.8068
2.80496
2.80289
2.8006
2.7981
2.79539
2.79248
2.78939
2.78611
2.78267
2.77908
2.77537
2.77154
2.76762
2.76364
2.75961
2.75557
2.75154
2.74754
2.74361
2.73976
2.73603
2.73242
2.72897
2.72568
2.72256
2.71961
2.71684
2.71424
2.7118
2.70952
2.70737
2.70534
2.70342
2.70159
2.69985
2.69816
2.69654
2.69496
2.69343
2.69194
2.69049
2.68908
2.68772
2.68642
2.68517
2.68398
2.68287
2.68183
2.68087
2.67999
2.6792
2.6785
2.67789
2.67736
2.67692
2.67656
2.67628
2.67608
2.67594
2.67585
2.67582
2.67582
2.67586
2.67591
2.67597
2.67604
2.67609
2.67613
2.67615
2.77446
2.77456
2.77475
2.77505
2.77544
2.77592
2.7765
2.77718
2.77795
2.77881
2.77975
2.78078
2.78188
2.78306
2.78431
2.78563
2.78701
2.78845
2.78994
2.79149
2.79308
2.79473
2.79641
2.79813
2.79989
2.80166
2.80344
2.80523
2.80701
2.80876
2.81047
2.81212
2.81371
2.81521
2.81661
2.81789
2.81904
2.82005
2.82091
2.82159
2.82211
2.82243
2.82257
2.8225
2.82223
2.82175
2.82106
2.82015
2.81903
2.81769
2.81614
2.81438
2.8124
2.81023
2.80785
2.80528
2.80253
2.7996
2.79651
2.79328
2.78991
2.78642
2.78283
2.77916
2.77542
2.77165
2.76787
2.76409
2.76034
2.75665
2.75303
2.74951
2.7461
2.74281
2.73967
2.73667
2.73383
2.73114
2.72859
2.7262
2.72393
2.7218
2.71977
2.71785
2.71602
2.71427
2.71258
2.71096
2.70939
2.70787
2.7064
2.70497
2.7036
2.70227
2.701
2.69978
2.69863
2.69755
2.69654
2.6956
2.69474
2.69396
2.69326
2.69264
2.69211
2.69165
2.69127
2.69096
2.69071
2.69053
2.6904
2.69032
2.69027
2.69026
2.69027
2.69029
2.69032
2.69034
2.69036
2.69037
2.78798
2.78808
2.78826
2.78854
2.7889
2.78936
2.78991
2.79054
2.79126
2.79207
2.79295
2.79392
2.79495
2.79606
2.79723
2.79846
2.79975
2.8011
2.8025
2.80394
2.80543
2.80697
2.80853
2.81013
2.81175
2.81339
2.81503
2.81666
2.81829
2.81988
2.82143
2.82293
2.82436
2.82571
2.82696
2.8281
2.82913
2.83001
2.83076
2.83135
2.83177
2.83202
2.83209
2.83198
2.83168
2.83118
2.83048
2.82959
2.82849
2.8272
2.8257
2.82401
2.82212
2.82005
2.81779
2.81535
2.81274
2.80998
2.80707
2.80402
2.80084
2.79756
2.79419
2.79075
2.78725
2.78371
2.78016
2.77661
2.77309
2.76961
2.7662
2.76287
2.75964
2.75651
2.75351
2.75063
2.74789
2.74528
2.7428
2.74045
2.73822
2.73611
2.7341
2.73219
2.73036
2.72861
2.72694
2.72532
2.72376
2.72226
2.72081
2.71941
2.71806
2.71676
2.71552
2.71434
2.71321
2.71216
2.71117
2.71025
2.70941
2.70863
2.70794
2.70732
2.70677
2.7063
2.7059
2.70556
2.70529
2.70507
2.7049
2.70478
2.70469
2.70464
2.70461
2.7046
2.70459
2.7046
2.7046
2.70461
2.80142
2.8015
2.80168
2.80194
2.80228
2.80271
2.80322
2.80382
2.80449
2.80525
2.80608
2.80698
2.80794
2.80898
2.81007
2.81123
2.81244
2.8137
2.815
2.81635
2.81774
2.81917
2.82062
2.8221
2.8236
2.8251
2.82661
2.82811
2.82959
2.83104
2.83245
2.8338
2.83509
2.8363
2.83742
2.83844
2.83934
2.84012
2.84076
2.84126
2.8416
2.84179
2.84181
2.84165
2.84132
2.8408
2.84011
2.83922
2.83815
2.8369
2.83545
2.83383
2.83203
2.83005
2.8279
2.82559
2.82312
2.8205
2.81775
2.81488
2.81189
2.8088
2.80563
2.80239
2.7991
2.79578
2.79244
2.78911
2.78579
2.78251
2.77929
2.77614
2.77307
2.77009
2.76722
2.76446
2.76182
2.75929
2.75688
2.75458
2.7524
2.75032
2.74833
2.74644
2.74463
2.74289
2.74123
2.73963
2.73809
2.7366
2.73517
2.73379
2.73247
2.7312
2.72998
2.72883
2.72773
2.7267
2.72573
2.72483
2.72399
2.72323
2.72254
2.72192
2.72137
2.72088
2.72046
2.7201
2.7198
2.71955
2.71936
2.7192
2.71908
2.719
2.71893
2.71889
2.71887
2.71885
2.71884
2.71884
2.81476
2.81484
2.815
2.81525
2.81557
2.81597
2.81646
2.81701
2.81765
2.81835
2.81913
2.81997
2.82087
2.82184
2.82286
2.82394
2.82507
2.82625
2.82747
2.82872
2.83002
2.83134
2.83269
2.83406
2.83544
2.83682
2.8382
2.83958
2.84093
2.84224
2.84352
2.84474
2.8459
2.84699
2.84799
2.84889
2.84968
2.85036
2.85091
2.85133
2.8516
2.85172
2.85169
2.8515
2.85114
2.85061
2.84991
2.84904
2.848
2.84678
2.84539
2.84383
2.84211
2.84022
2.83817
2.83598
2.83364
2.83116
2.82856
2.82585
2.82303
2.82012
2.81714
2.81409
2.81099
2.80786
2.80472
2.80158
2.79845
2.79536
2.79231
2.78932
2.7864
2.78357
2.78082
2.77817
2.77563
2.77318
2.77084
2.7686
2.76647
2.76442
2.76247
2.7606
2.75881
2.7571
2.75545
2.75387
2.75235
2.75088
2.74948
2.74812
2.74682
2.74558
2.74439
2.74326
2.74218
2.74117
2.74022
2.73933
2.73851
2.73776
2.73707
2.73645
2.73589
2.73539
2.73496
2.73458
2.73426
2.73399
2.73377
2.73358
2.73344
2.73332
2.73324
2.73317
2.73313
2.7331
2.73308
2.73307
2.82802
2.8281
2.82825
2.82848
2.82878
2.82916
2.82961
2.83013
2.83072
2.83138
2.83211
2.83289
2.83374
2.83464
2.8356
2.83661
2.83766
2.83875
2.83989
2.84106
2.84226
2.84349
2.84473
2.846
2.84727
2.84854
2.84981
2.85106
2.85229
2.85349
2.85464
2.85575
2.85679
2.85776
2.85865
2.85945
2.86014
2.86073
2.86119
2.86153
2.86174
2.86181
2.86173
2.86151
2.86113
2.86059
2.85989
2.85903
2.85801
2.85683
2.85549
2.854
2.85235
2.85055
2.8486
2.84651
2.84429
2.84195
2.83949
2.83692
2.83426
2.83152
2.8287
2.82583
2.82291
2.81996
2.817
2.81403
2.81108
2.80816
2.80527
2.80243
2.79965
2.79695
2.79432
2.79178
2.78933
2.78697
2.7847
2.78252
2.78044
2.77844
2.77652
2.77469
2.77293
2.77124
2.76961
2.76805
2.76655
2.76511
2.76373
2.7624
2.76112
2.7599
2.75873
2.75762
2.75657
2.75558
2.75465
2.75378
2.75297
2.75222
2.75153
2.75091
2.75035
2.74984
2.7494
2.74901
2.74867
2.74838
2.74813
2.74793
2.74776
2.74762
2.74752
2.74743
2.74737
2.74733
2.7473
2.74729
2.8412
2.84128
2.84142
2.84163
2.84192
2.84227
2.84269
2.84318
2.84373
2.84435
2.84502
2.84576
2.84655
2.84739
2.84828
2.84922
2.8502
2.85122
2.85228
2.85336
2.85447
2.85561
2.85676
2.85793
2.8591
2.86026
2.86142
2.86257
2.86369
2.86477
2.86582
2.86681
2.86775
2.86861
2.8694
2.8701
2.87071
2.87121
2.8716
2.87187
2.87202
2.87204
2.87193
2.87167
2.87127
2.87072
2.87003
2.86918
2.86819
2.86705
2.86576
2.86432
2.86274
2.86102
2.85916
2.85718
2.85507
2.85285
2.85052
2.84809
2.84558
2.84299
2.84033
2.83762
2.83486
2.83208
2.82928
2.82648
2.82368
2.82091
2.81817
2.81548
2.81283
2.81025
2.80774
2.8053
2.80294
2.80066
2.79847
2.79635
2.79432
2.79237
2.7905
2.7887
2.78697
2.78531
2.78371
2.78217
2.7807
2.77928
2.77792
2.77661
2.77536
2.77416
2.77302
2.77193
2.7709
2.76993
2.76901
2.76815
2.76735
2.76661
2.76593
2.76531
2.76475
2.76424
2.76378
2.76338
2.76303
2.76272
2.76246
2.76224
2.76205
2.7619
2.76177
2.76167
2.7616
2.76154
2.76151
2.76149
2.85432
2.85438
2.85452
2.85472
2.85498
2.85531
2.8557
2.85616
2.85668
2.85725
2.85788
2.85857
2.8593
2.86009
2.86092
2.86179
2.8627
2.86365
2.86463
2.86564
2.86667
2.86772
2.86878
2.86985
2.87092
2.87199
2.87305
2.8741
2.87511
2.8761
2.87704
2.87793
2.87877
2.87954
2.88024
2.88085
2.88137
2.8818
2.88213
2.88234
2.88243
2.88241
2.88226
2.88197
2.88156
2.881
2.88031
2.87948
2.87852
2.87741
2.87616
2.87478
2.87326
2.87162
2.86985
2.86796
2.86596
2.86385
2.86165
2.85935
2.85697
2.85452
2.852
2.84944
2.84684
2.84421
2.84156
2.83891
2.83626
2.83363
2.83103
2.82847
2.82595
2.82349
2.82108
2.81874
2.81647
2.81427
2.81215
2.8101
2.80812
2.80622
2.80439
2.80263
2.80094
2.79931
2.79774
2.79624
2.79479
2.7934
2.79206
2.79078
2.78955
2.78837
2.78725
2.78618
2.78517
2.78422
2.78332
2.78247
2.78168
2.78095
2.78027
2.77965
2.77909
2.77858
2.77811
2.7777
2.77734
2.77702
2.77674
2.77651
2.7763
2.77614
2.776
2.77589
2.7758
2.77574
2.7757
2.77568
2.86736
2.86742
2.86755
2.86773
2.86798
2.86829
2.86866
2.86908
2.86956
2.8701
2.87068
2.87132
2.87201
2.87274
2.87351
2.87432
2.87517
2.87605
2.87695
2.87789
2.87884
2.87981
2.88079
2.88177
2.88275
2.88373
2.8847
2.88565
2.88657
2.88746
2.88831
2.88911
2.88986
2.89054
2.89115
2.89169
2.89214
2.8925
2.89276
2.89292
2.89297
2.8929
2.89272
2.89241
2.89198
2.89142
2.89074
2.88992
2.88898
2.8879
2.8867
2.88537
2.88392
2.88235
2.88066
2.87886
2.87696
2.87496
2.87286
2.87068
2.86843
2.86611
2.86373
2.8613
2.85884
2.85635
2.85385
2.85133
2.84882
2.84633
2.84386
2.84142
2.83901
2.83666
2.83436
2.83211
2.82993
2.82781
2.82576
2.82377
2.82185
2.82
2.81822
2.8165
2.81484
2.81325
2.81171
2.81024
2.80882
2.80745
2.80614
2.80488
2.80368
2.80253
2.80143
2.80038
2.79939
2.79845
2.79756
2.79673
2.79595
2.79523
2.79456
2.79394
2.79337
2.79286
2.79239
2.79198
2.7916
2.79128
2.79099
2.79074
2.79052
2.79034
2.79019
2.79007
2.78998
2.78991
2.78987
2.78984
2.88034
2.8804
2.88051
2.88069
2.88092
2.8812
2.88155
2.88194
2.88239
2.88289
2.88344
2.88403
2.88467
2.88535
2.88606
2.88682
2.8876
2.88842
2.88925
2.89012
2.89099
2.89189
2.89279
2.89369
2.89459
2.89548
2.89637
2.89723
2.89806
2.89886
2.89963
2.90034
2.90101
2.90161
2.90215
2.90261
2.90299
2.90329
2.9035
2.9036
2.90361
2.90351
2.9033
2.90297
2.90253
2.90197
2.90129
2.90049
2.89957
2.89853
2.89737
2.89609
2.8947
2.89319
2.89158
2.88987
2.88805
2.88615
2.88416
2.88209
2.87996
2.87776
2.8755
2.87321
2.87087
2.86851
2.86614
2.86375
2.86137
2.859
2.85665
2.85432
2.85203
2.84978
2.84757
2.84542
2.84332
2.84128
2.83929
2.83737
2.83551
2.83371
2.83198
2.8303
2.82869
2.82713
2.82563
2.82418
2.82279
2.82145
2.82017
2.81894
2.81776
2.81663
2.81555
2.81452
2.81355
2.81263
2.81175
2.81094
2.81017
2.80945
2.80879
2.80817
2.80761
2.80709
2.80663
2.8062
2.80582
2.80549
2.80519
2.80493
2.80471
2.80452
2.80436
2.80423
2.80413
2.80406
2.80401
2.80399
2.89326
2.89331
2.89342
2.89358
2.8938
2.89407
2.89438
2.89475
2.89517
2.89563
2.89614
2.89669
2.89728
2.89791
2.89858
2.89928
2.9
2.90076
2.90153
2.90233
2.90313
2.90395
2.90478
2.90561
2.90643
2.90725
2.90805
2.90883
2.90958
2.91031
2.91099
2.91163
2.91222
2.91275
2.91322
2.91361
2.91393
2.91417
2.91433
2.91439
2.91436
2.91423
2.91399
2.91365
2.9132
2.91264
2.91196
2.91118
2.91028
2.90927
2.90815
2.90692
2.90558
2.90414
2.9026
2.90097
2.89924
2.89743
2.89554
2.89357
2.89154
2.88946
2.88732
2.88514
2.88293
2.88069
2.87843
2.87617
2.87391
2.87165
2.86941
2.86719
2.865
2.86285
2.86074
2.85867
2.85665
2.85468
2.85277
2.85091
2.84911
2.84736
2.84568
2.84404
2.84247
2.84095
2.83948
2.83807
2.83671
2.8354
2.83414
2.83294