/*--------------------------------*- C++ -*----------------------------------*\
| =========                 |                                                 |
| \\      /  F ield         | OpenFOAM: The Open Source CFD Toolbox           |
|  \\    /   O peration     | Version:  2406                                  |
|   \\  /    A nd           | Website:  www.openfoam.com                      |
|    \\/     M anipulation  |                                                 |
\*---------------------------------------------------------------------------*/
FoamFile
{
    version     2.0;
    format      ascii;
    arch        "LSB;label=32;scalar=64";
    class       volScalarField;
    location    "7.65";
    object      C_0_0;
}
// * * * * * * * * * * * * * * * * * * * * * * * * * * * * * * * * * * * * * //

dimensions      [1 -3 0 0 0 0 0];

internalField   nonuniform List<scalar> 
14400
(
0.22966
0.228627
0.226822
0.224632
0.222459
0.220645
0.219447
0.219025
0.219441
0.220661
0.222547
0.224853
0.227214
0.229159
0.230144
0.22968
0.227562
0.224122
0.21995
0.215669
0.211835
0.208909
0.207276
0.207262
0.209157
0.213233
0.219757
0.229001
0.241251
0.256809
0.276
0.299169
0.326676
0.35887
0.396028
0.438169
0.484176
0.525689
0.554693
0.575695
0.593804
0.609298
0.62239
0.633245
0.641988
0.648716
0.653501
0.656394
0.657428
0.656619
0.653966
0.649455
0.643052
0.634709
0.624354
0.611894
0.59721
0.580145
0.5605
0.537969
0.505177
0.459812
0.414065
0.372537
0.335982
0.304325
0.277265
0.254438
0.235481
0.220044
0.207807
0.198469
0.19176
0.187435
0.185289
0.18516
0.186931
0.190533
0.195932
0.203118
0.212087
0.222816
0.235225
0.249134
0.264152
0.279403
0.292305
0.298873
0.297869
0.290492
0.280179
0.269497
0.259345
0.250165
0.242194
0.235538
0.230211
0.226152
0.223238
0.221303
0.220147
0.219565
0.219371
0.219444
0.219752
0.220372
0.22147
0.22327
0.226023
0.229972
0.235335
0.242292
0.250972
0.261438
0.273674
0.287543
0.302702
0.31837
0.33245
0.340335
0.236558
0.235254
0.233035
0.230413
0.22786
0.225758
0.224378
0.223886
0.224346
0.225725
0.227889
0.230589
0.233449
0.235947
0.23742
0.237149
0.23469
0.230645
0.225828
0.220972
0.216669
0.213387
0.211501
0.211327
0.213143
0.217214
0.223799
0.233167
0.245597
0.261393
0.280877
0.304394
0.332303
0.364944
0.402576
0.445181
0.491531
0.53104
0.557954
0.578587
0.596418
0.611699
0.624628
0.635356
0.644003
0.650659
0.655393
0.658253
0.659271
0.658462
0.655825
0.651346
0.644994
0.63672
0.626458
0.614119
0.59959
0.582726
0.56334
0.541194
0.510556
0.467001
0.420617
0.378465
0.341376
0.309248
0.281767
0.258567
0.23928
0.223557
0.211074
0.201533
0.194664
0.19023
0.188026
0.187894
0.189722
0.193441
0.199021
0.206454
0.215737
0.226852
0.239727
0.254189
0.269867
0.285881
0.299092
0.305239
0.30498
0.297799
0.287062
0.275897
0.26531
0.25577
0.247521
0.240672
0.235234
0.231145
0.228275
0.226442
0.225424
0.224981
0.224895
0.225008
0.225276
0.225792
0.226755
0.228428
0.231091
0.235008
0.240411
0.247488
0.256369
0.267122
0.279734
0.294073
0.30981
0.32614
0.340112
0.346667
0.250866
0.248906
0.245757
0.242204
0.238863
0.236171
0.234421
0.233785
0.234329
0.236024
0.238741
0.242237
0.246126
0.249821
0.252449
0.252756
0.249387
0.243949
0.237754
0.231716
0.226469
0.222473
0.22008
0.219582
0.221237
0.225293
0.231997
0.241606
0.254396
0.270663
0.290731
0.314942
0.343651
0.377178
0.415716
0.459014
0.505029
0.540424
0.564341
0.584282
0.601581
0.616454
0.629066
0.639549
0.648008
0.654524
0.659158
0.661954
0.662941
0.662132
0.659527
0.655111
0.648856
0.640719
0.630638
0.618535
0.604307
0.587826
0.568935
0.547434
0.520281
0.480407
0.433398
0.390281
0.352218
0.319177
0.290866
0.266925
0.246985
0.230694
0.217727
0.207788
0.20061
0.195963
0.193649
0.193518
0.195461
0.199416
0.205356
0.213276
0.22318
0.235055
0.248839
0.264361
0.281229
0.298419
0.31165
0.317153
0.317761
0.312149
0.300847
0.288785
0.277359
0.267117
0.258324
0.251098
0.245452
0.241319
0.238557
0.236955
0.236247
0.236124
0.236283
0.236489
0.23666
0.236932
0.237587
0.238968
0.24142
0.245251
0.250717
0.258019
0.267291
0.278603
0.291937
0.30715
0.323849
0.340951
0.353738
0.358481
0.273581
0.270278
0.265463
0.260376
0.25579
0.252192
0.24988
0.249023
0.249687
0.251844
0.255378
0.260063
0.265535
0.271193
0.275977
0.277791
0.272317
0.264378
0.255963
0.248116
0.241455
0.236395
0.233245
0.232259
0.233667
0.237694
0.244567
0.254532
0.267854
0.284824
0.305759
0.331002
0.360897
0.395744
0.435646
0.479902
0.522768
0.552162
0.573666
0.592619
0.609172
0.623468
0.635632
0.645766
0.653957
0.660271
0.664762
0.667465
0.668407
0.667598
0.665038
0.660714
0.654602
0.646662
0.636842
0.625075
0.611275
0.595339
0.577139
0.55652
0.532748
0.498512
0.452215
0.408073
0.368663
0.33429
0.304751
0.279709
0.2588
0.241671
0.227994
0.217474
0.209852
0.204901
0.202437
0.202316
0.20444
0.20875
0.215224
0.223865
0.234682
0.24767
0.262773
0.279813
0.298294
0.31666
0.328578
0.333527
0.334801
0.331995
0.321424
0.308272
0.295689
0.284446
0.274868
0.267098
0.261164
0.257
0.254448
0.253264
0.253108
0.253568
0.254185
0.254568
0.254542
0.254351
0.254437
0.25529
0.257356
0.261006
0.26653
0.27414
0.283972
0.296086
0.310451
0.326878
0.344763
0.361974
0.371304
0.37468
0.305922
0.300038
0.292576
0.285275
0.278981
0.274163
0.271102
0.269952
0.270766
0.273517
0.278098
0.284309
0.291838
0.30014
0.308005
0.310653
0.303352
0.291954
0.280578
0.270373
0.261882
0.255441
0.251299
0.249668
0.250743
0.254723
0.261815
0.272247
0.286272
0.304169
0.326249
0.352843
0.384272
0.420779
0.462263
0.50695
0.541872
0.565463
0.585531
0.603355
0.61902
0.632616
0.644227
0.653927
0.661782
0.667843
0.672152
0.674739
0.675623
0.674815
0.672314
0.668107
0.662174
0.654484
0.644993
0.633647
0.62038
0.605114
0.587763
0.568237
0.546468
0.518809
0.477595
0.432134
0.390961
0.354848
0.323696
0.297205
0.275021
0.256791
0.242189
0.23092
0.222729
0.2174
0.214757
0.214668
0.21704
0.221825
0.229006
0.23859
0.250593
0.265015
0.281803
0.300757
0.321185
0.33947
0.348763
0.353472
0.355318
0.354452
0.347874
0.334332
0.320518
0.308055
0.297481
0.289024
0.282743
0.278588
0.276398
0.27589
0.276641
0.278086
0.279516
0.280244
0.279822
0.2788
0.277917
0.277897
0.279326
0.282653
0.288199
0.296178
0.306713
0.319832
0.335461
0.353321
0.372284
0.385967
0.391589
0.394238
0.345492
0.337744
0.327046
0.31705
0.308692
0.302396
0.29843
0.296922
0.297915
0.301371
0.307175
0.315113
0.324867
0.335647
0.343913
0.344336
0.339423
0.325936
0.311495
0.298636
0.288014
0.279934
0.274598
0.272177
0.27284
0.276759
0.284121
0.295135
0.310034
0.329082
0.352571
0.380804
0.414045
0.452369
0.495017
0.534373
0.560588
0.581085
0.59964
0.616249
0.630937
0.643748
0.654731
0.663934
0.6714
0.677166
0.681263
0.683714
0.684533
0.683726
0.681294
0.677225
0.671505
0.664107
0.654999
0.64414
0.631483
0.616975
0.600562
0.582195
0.561835
0.539104
0.506811
0.462073
0.419286
0.381153
0.348043
0.319774
0.296022
0.27644
0.260703
0.248523
0.23965
0.233877
0.231035
0.231003
0.233699
0.23908
0.247135
0.257876
0.271318
0.287455
0.306198
0.327206
0.349115
0.364451
0.371701
0.37628
0.378536
0.378599
0.376226
0.366658
0.352008
0.338233
0.326502
0.317238
0.310564
0.306485
0.304856
0.305369
0.307507
0.31055
0.313378
0.314833
0.313577
0.311121
0.30867
0.307304
0.307771
0.310589
0.316093
0.324485
0.335841
0.350091
0.36701
0.385882
0.402466
0.41041
0.414391
0.416446
0.382626
0.378864
0.367792
0.35551
0.345053
0.337134
0.332159
0.330255
0.33146
0.33571
0.342848
0.352512
0.364161
0.375443
0.378552
0.377207
0.37478
0.365126
0.348515
0.333034
0.320136
0.310236
0.303539
0.300205
0.300387
0.30424
0.311934
0.323651
0.3396
0.360019
0.385161
0.41528
0.450482
0.49027
0.531356
0.559679
0.579964
0.598647
0.615697
0.631063
0.644731
0.656709
0.667017
0.675678
0.682717
0.688159
0.692022
0.694321
0.695067
0.694263
0.691909
0.687996
0.682513
0.675441
0.666756
0.656431
0.644437
0.630741
0.615317
0.598144
0.57922
0.558563
0.53427
0.498028
0.45394
0.413545
0.378183
0.347844
0.322249
0.30107
0.283994
0.270742
0.261075
0.254791
0.251735
0.251791
0.254887
0.260987
0.270084
0.282187
0.297304
0.315399
0.336284
0.359227
0.380081
0.390693
0.397005
0.401411
0.403946
0.404733
0.40398
0.400214
0.389429
0.375043
0.362166
0.352047
0.344947
0.34102
0.340173
0.342111
0.346203
0.351682
0.356666
0.359645
0.356693
0.351996
0.347187
0.343918
0.343048
0.345156
0.350544
0.359377
0.37165
0.387018
0.404751
0.422275
0.431669
0.43604
0.439118
0.440709
0.416395
0.416111
0.411464
0.39991
0.388017
0.378489
0.372503
0.370189
0.371648
0.376743
0.38525
0.396239
0.408347
0.413062
0.412389
0.411058
0.409011
0.404648
0.391039
0.373635
0.358538
0.346743
0.338564
0.334215
0.333859
0.337653
0.345753
0.358306
0.375485
0.397484
0.424479
0.456648
0.493798
0.533801
0.562737
0.582602
0.600861
0.617842
0.633437
0.647575
0.660215
0.671341
0.680948
0.689043
0.695633
0.70073
0.704344
0.706482
0.707151
0.706351
0.704082
0.700338
0.69511
0.688386
0.680152
0.670393
0.659091
0.646235
0.631819
0.615846
0.598338
0.579341
0.558936
0.532877
0.493993
0.452112
0.41448
0.381883
0.354212
0.331203
0.312582
0.298095
0.287514
0.280653
0.277362
0.277536
0.28111
0.288052
0.298355
0.312017
0.329019
0.349249
0.372254
0.396134
0.411021
0.418465
0.424214
0.428412
0.431106
0.432408
0.4325
0.431634
0.427548
0.417665
0.404368
0.393579
0.386033
0.382334
0.382446
0.386189
0.392549
0.401038
0.407691
0.40969
0.407757
0.401007
0.393374
0.387805
0.385296
0.386548
0.39174
0.400991
0.41422
0.430171
0.446063
0.455394
0.459587
0.462956
0.465333
0.466562
0.450422
0.450334
0.450182
0.445934
0.436719
0.42614
0.419425
0.416704
0.418471
0.424294
0.433793
0.443619
0.448139
0.447693
0.446835
0.445627
0.44398
0.441864
0.435643
0.419997
0.403422
0.389858
0.380133
0.374695
0.373751
0.377505
0.386105
0.399641
0.418213
0.441969
0.470837
0.504824
0.542411
0.570106
0.589206
0.60658
0.623035
0.638424
0.652635
0.665584
0.677214
0.687491
0.696393
0.703912
0.710042
0.714784
0.718141
0.720113
0.720702
0.719909
0.71773
0.714163
0.709203
0.702842
0.695075
0.685895
0.6753
0.663291
0.649878
0.635082
0.618944
0.601526
0.582922
0.563237
0.536267
0.496559
0.457232
0.422382
0.392475
0.367421
0.347048
0.331152
0.319534
0.312019
0.308469
0.308788
0.312914
0.320818
0.332485
0.347877
0.366905
0.389301
0.413833
0.432393
0.441321
0.44778
0.452975
0.456917
0.459657
0.461292
0.461979
0.461927
0.461406
0.458404
0.451418
0.441216
0.433447
0.43013
0.431113
0.436631
0.443933
0.448742
0.451183
0.45155
0.451696
0.449601
0.44504
0.438056
0.434103
0.434591
0.439467
0.448762
0.462405
0.474002
0.481576
0.485119
0.488279
0.490866
0.492696
0.493643
0.484537
0.484576
0.484714
0.48508
0.482741
0.477793
0.471763
0.468654
0.470772
0.476362
0.481405
0.484073
0.483257
0.482464
0.481631
0.480636
0.479416
0.477966
0.476321
0.469524
0.454484
0.439863
0.42863
0.422096
0.420512
0.424254
0.433484
0.448153
0.468193
0.493771
0.52384
0.557586
0.582429
0.599861
0.615944
0.631477
0.646273
0.660185
0.673095
0.68491
0.695566
0.705014
0.713222
0.720168
0.725839
0.730225
0.733322
0.735127
0.735637
0.734851
0.732767
0.729382
0.724695
0.718704
0.71141
0.702814
0.692923
0.68175
0.669318
0.655661
0.640831
0.624898
0.607959
0.590138
0.571468
0.544847
0.506333
0.469737
0.437604
0.41033
0.388007
0.370531
0.357747
0.349494
0.345652
0.346134
0.350879
0.359855
0.373024
0.390244
0.411198
0.434921
0.455611
0.466189
0.472746
0.47836
0.482987
0.486625
0.489312
0.491126
0.492195
0.492688
0.492825
0.492876
0.491952
0.4886
0.484784
0.482543
0.48329
0.485379
0.487221
0.487227
0.486643
0.486754
0.487528
0.489021
0.489535
0.488372
0.487139
0.487644
0.491903
0.498744
0.505375
0.509915
0.512504
0.515135
0.517545
0.519531
0.520941
0.521673
0.518613
0.518718
0.518971
0.51947
0.520364
0.520587
0.519233
0.518301
0.51889
0.520158
0.520161
0.518913
0.518011
0.517277
0.516589
0.515868
0.515084
0.514251
0.513431
0.51269
0.507206
0.496065
0.483981
0.476652
0.474358
0.478125
0.488169
0.5041
0.525237
0.552052
0.578744
0.599504
0.614464
0.628946
0.643233
0.657109
0.670397
0.682949
0.694647
0.705397
0.715126
0.723779
0.731313
0.737701
0.742919
0.746954
0.749795
0.751435
0.751868
0.751091
0.749103
0.745903
0.741492
0.735871
0.729046
0.721027
0.711827
0.701469
0.689984
0.677414
0.663819
0.649275
0.63388
0.617752
0.60103
0.583697
0.558805
0.523594
0.489972
0.460458
0.436051
0.416851
0.402786
0.393706
0.38953
0.390187
0.395597
0.405712
0.420481
0.439453
0.461488
0.482224
0.493476
0.499599
0.505112
0.509927
0.513989
0.517285
0.519838
0.521706
0.522985
0.523806
0.524329
0.524739
0.525229
0.525961
0.525798
0.525112
0.524691
0.523679
0.522235
0.521394
0.521067
0.52129
0.522075
0.523451
0.525442
0.528123
0.530094
0.532004
0.534822
0.537788
0.539488
0.541304
0.543332
0.545371
0.547235
0.548773
0.549866
0.550433
0.552586
0.55271
0.552983
0.55345
0.554156
0.555091
0.556193
0.556755
0.556323
0.555217
0.554168
0.553286
0.552595
0.552044
0.551578
0.551165
0.550801
0.550521
0.550403
0.550581
0.551242
0.54892
0.543889
0.537497
0.534584
0.538506
0.549448
0.56643
0.58631
0.604807
0.620334
0.63271
0.645408
0.658225
0.670932
0.683331
0.695256
0.706567
0.717148
0.726905
0.735763
0.74366
0.750552
0.756402
0.761184
0.764878
0.76747
0.768949
0.769308
0.768543
0.766653
0.763636
0.759497
0.75424
0.747877
0.74042
0.73189
0.722316
0.711734
0.700193
0.687756
0.674504
0.660533
0.645959
0.63092
0.615571
0.599981
0.57818
0.548731
0.517874
0.491555
0.470618
0.455235
0.445238
0.440671
0.441513
0.447578
0.458757
0.475073
0.494922
0.512988
0.52339
0.528648
0.533615
0.538178
0.542245
0.545757
0.548689
0.551048
0.552874
0.554235
0.555222
0.555946
0.556524
0.557053
0.557567
0.557924
0.557895
0.557208
0.556327
0.555529
0.555045
0.554942
0.555263
0.556032
0.557264
0.558957
0.561082
0.563486
0.565883
0.567757
0.569306
0.570857
0.572477
0.57415
0.57578
0.577253
0.57846
0.579316
0.57976
0.586434
0.586553
0.586801
0.587191
0.587721
0.58835
0.58896
0.589273
0.58911
0.588596
0.588005
0.587467
0.587039
0.586724
0.586516
0.586413
0.586434
0.586629
0.58708
0.587917
0.589331
0.591592
0.593425
0.594067
0.596134
0.601438
0.610395
0.621743
0.633531
0.643869
0.654118
0.664993
0.676234
0.687615
0.698938
0.710027
0.720729
0.730915
0.740474
0.749313
0.757358
0.764547
0.770831
0.776171
0.780536
0.783904
0.786257
0.787583
0.787873
0.787121
0.785327
0.782491
0.778619
0.773718
0.767801
0.760886
0.752999
0.74417
0.734442
0.723867
0.71251
0.700451
0.687788
0.674632
0.661118
0.647398
0.633649
0.620061
0.60268
0.580393
0.553896
0.531861
0.515411
0.504401
0.499361
0.500425
0.50701
0.518552
0.535406
0.548271
0.556102
0.560062
0.564095
0.568032
0.57174
0.575119
0.578106
0.580665
0.582792
0.584508
0.585857
0.586901
0.58771
0.588356
0.588891
0.589323
0.58959
0.589602
0.589312
0.58889
0.58851
0.588316
0.588392
0.588787
0.589526
0.590615
0.592039
0.593746
0.595623
0.597497
0.599181
0.600699
0.602156
0.603596
0.605011
0.606348
0.607535
0.608499
0.609179
0.60953
0.620163
0.620267
0.620477
0.62079
0.621189
0.621628
0.622025
0.622255
0.622248
0.622053
0.621787
0.621541
0.621369
0.621299
0.621348
0.621536
0.621895
0.62248
0.62337
0.624677
0.626551
0.629174
0.632733
0.6375
0.6429
0.648724
0.655192
0.662032
0.669566
0.678051
0.687225
0.696911
0.706919
0.717064
0.727179
0.737109
0.746719
0.75589
0.764518
0.772516
0.77981
0.78634
0.792055
0.796914
0.800886
0.803945
0.806072
0.807253
0.807478
0.806742
0.805043
0.802384
0.798769
0.79421
0.788722
0.782326
0.775048
0.766923
0.757997
0.748322
0.737965
0.727005
0.715535
0.703665
0.691522
0.679252
0.667024
0.655035
0.643523
0.631122
0.615605
0.598365
0.582187
0.57022
0.564625
0.565918
0.572473
0.580787
0.587638
0.591539
0.593852
0.596633
0.599636
0.602681
0.60563
0.608386
0.610881
0.613073
0.614947
0.61651
0.617786
0.618813
0.619637
0.6203
0.620833
0.621244
0.621511
0.62161
0.621549
0.621412
0.621302
0.621317
0.621525
0.621968
0.622669
0.623632
0.624838
0.62624
0.627762
0.629302
0.630771
0.632153
0.633472
0.634742
0.635951
0.637066
0.638039
0.638821
0.63937
0.639652
0.653787
0.653876
0.654051
0.654303
0.654615
0.65495
0.655255
0.655473
0.655574
0.65558
0.655549
0.655539
0.655597
0.655755
0.656042
0.656487
0.657131
0.658025
0.659241
0.660871
0.663024
0.665818
0.669361
0.673715
0.678731
0.684262
0.690232
0.696723
0.703812
0.711544
0.71982
0.728508
0.737465
0.746544
0.755603
0.764511
0.773148
0.781406
0.789192
0.796422
0.803027
0.808948
0.814134
0.818545
0.822149
0.824918
0.826833
0.827879
0.828045
0.827326
0.82572
0.823231
0.819864
0.815633
0.810552
0.804646
0.797943
0.790479
0.7823
0.77346
0.764023
0.754067
0.743682
0.732971
0.722053
0.711065
0.70016
0.689517
0.679335
0.669844
0.661283
0.651741
0.641965
0.633781
0.628657
0.627014
0.627888
0.629291
0.629149
0.629759
0.631121
0.632982
0.635137
0.637423
0.639714
0.641915
0.643958
0.645798
0.647413
0.648798
0.649963
0.650929
0.651724
0.652374
0.652899
0.653307
0.6536
0.653778
0.653863
0.653905
0.653971
0.654126
0.654421
0.65489
0.655551
0.656407
0.65744
0.658616
0.659882
0.661177
0.662447
0.663669
0.664837
0.665947
0.666985
0.667925
0.668734
0.669378
0.669827
0.670057
0.687322
0.687398
0.687547
0.687759
0.688018
0.6883
0.688573
0.688809
0.688995
0.689145
0.68929
0.689471
0.689724
0.690082
0.690576
0.691241
0.692115
0.693248
0.6947
0.696543
0.698855
0.701713
0.705177
0.709268
0.713929
0.719092
0.724718
0.730818
0.737413
0.744495
0.752001
0.759837
0.76789
0.776044
0.784179
0.792185
0.799956
0.807396
0.814421
0.820953
0.826928
0.832289
0.836988
0.840984
0.844246
0.846745
0.848463
0.849384
0.849497
0.848796
0.847281
0.844955
0.841825
0.837903
0.833209
0.827764
0.821599
0.814751
0.807265
0.799193
0.7906
0.781559
0.772154
0.762483
0.752655
0.742793
0.733036
0.723535
0.714457
0.705975
0.698262
0.69144
0.685684
0.680727
0.67646
0.672859
0.669951
0.668061
0.667226
0.667226
0.66789
0.669037
0.670506
0.67216
0.673888
0.675602
0.677238
0.67875
0.68011
0.681306
0.682338
0.683217
0.683956
0.684572
0.685079
0.685487
0.685804
0.68604
0.686218
0.686374
0.686551
0.686795
0.687142
0.687619
0.688239
0.689004
0.6899
0.690902
0.691974
0.693076
0.694173
0.695239
0.696261
0.697225
0.698117
0.698915
0.699594
0.700131
0.700502
0.700692
0.720781
0.720848
0.720979
0.721167
0.721398
0.721658
0.721929
0.722195
0.722453
0.722713
0.722996
0.72333
0.723745
0.724272
0.724941
0.725785
0.726841
0.728152
0.729768
0.731745
0.734139
0.737001
0.740368
0.74425
0.748626
0.75346
0.758728
0.76442
0.770525
0.777021
0.783853
0.790947
0.798215
0.805561
0.812885
0.820093
0.827094
0.833802
0.840141
0.846042
0.851444
0.856293
0.860544
0.864158
0.867104
0.869355
0.87089
0.871696
0.871762
0.871081
0.869653
0.867482
0.864576
0.860947
0.856615
0.851602
0.845938
0.839661
0.832814
0.825449
0.817626
0.809414
0.800893
0.792152
0.78329
0.774418
0.765655
0.757131
0.748981
0.74134
0.734332
0.728052
0.722563
0.717801
0.713713
0.710277
0.707542
0.705604
0.704466
0.704031
0.704176
0.704771
0.70569
0.706824
0.708075
0.709368
0.710642
0.711852
0.71297
0.713977
0.714868
0.715644
0.716311
0.71688
0.717359
0.717759
0.718088
0.718361
0.718596
0.71882
0.719065
0.719361
0.719735
0.720205
0.720783
0.721469
0.722253
0.723117
0.724036
0.724982
0.725928
0.726854
0.727741
0.728576
0.729342
0.730022
0.730597
0.731048
0.731359
0.731517
0.754173
0.754234
0.754356
0.75453
0.75475
0.755006
0.755288
0.755589
0.755909
0.756257
0.75665
0.757108
0.757656
0.758321
0.759131
0.760117
0.761311
0.76275
0.764476
0.76653
0.768955
0.771784
0.775043
0.778739
0.782863
0.787395
0.792316
0.797607
0.803249
0.80921
0.815442
0.821885
0.828463
0.835098
0.841708
0.848209
0.854524
0.860577
0.8663
0.87163
0.876511
0.880894
0.884736
0.888001
0.890656
0.892679
0.894048
0.894749
0.894772
0.894113
0.892769
0.890745
0.88805
0.884695
0.880701
0.876089
0.870891
0.865141
0.858881
0.852162
0.845039
0.837578
0.829852
0.821941
0.813936
0.805932
0.798036
0.790354
0.782997
0.776072
0.769673
0.763873
0.758713
0.754188
0.750282
0.746992
0.744338
0.742346
0.741005
0.740255
0.740011
0.740179
0.740661
0.741369
0.742222
0.743153
0.744109
0.745048
0.74594
0.746765
0.747512
0.748179
0.748765
0.749277
0.749719
0.7501
0.750429
0.750719
0.750985
0.751247
0.751527
0.751849
0.75223
0.752684
0.753219
0.753836
0.754526
0.755277
0.756071
0.756887
0.757705
0.758506
0.759274
0.759996
0.760654
0.761236
0.761724
0.762105
0.762367
0.7625
0.787502
0.787561
0.787678
0.787848
0.788067
0.788329
0.788628
0.788964
0.789338
0.789758
0.790238
0.790795
0.791449
0.792225
0.793146
0.79424
0.795535
0.797063
0.798856
0.800946
0.803365
0.806138
0.809281
0.812801
0.816692
0.820941
0.825532
0.830444
0.835653
0.841127
0.846823
0.852686
0.858654
0.864662
0.870638
0.876512
0.882215
0.887682
0.892852
0.897667
0.902078
0.906037
0.909507
0.912451
0.914842
0.916656
0.917873
0.91848
0.918466
0.917828
0.916565
0.91468
0.912182
0.909084
0.905404
0.901165
0.896396
0.89113
0.885409
0.879278
0.872791
0.866008
0.858995
0.851826
0.844579
0.837341
0.830201
0.823251
0.816581
0.810277
0.804415
0.799053
0.794228
0.789955
0.786234
0.783071
0.780471
0.778437
0.776952
0.775972
0.775436
0.775273
0.775407
0.775768
0.776289
0.776914
0.777594
0.778291
0.778976
0.77963
0.780238
0.780794
0.781295
0.781742
0.78214
0.782493
0.78281
0.7831
0.783377
0.783654
0.783949
0.784277
0.784651
0.785082
0.785574
0.786128
0.786738
0.787395
0.788084
0.78879
0.789498
0.790191
0.790855
0.791477
0.792044
0.792542
0.792958
0.793282
0.793504
0.793617
0.820773
0.820831
0.820947
0.821118
0.821341
0.821613
0.821933
0.822301
0.82272
0.823199
0.823749
0.824384
0.825122
0.825983
0.826988
0.828161
0.829527
0.83111
0.832937
0.835033
0.837422
0.840121
0.843143
0.846491
0.850162
0.854146
0.858426
0.862984
0.867793
0.872824
0.878035
0.88338
0.888807
0.894257
0.89967
0.904985
0.910143
0.915085
0.919758
0.924109
0.928094
0.931671
0.934802
0.937456
0.939606
0.941229
0.942309
0.94283
0.942785
0.942169
0.940982
0.939227
0.936914
0.934054
0.930665
0.92677
0.922396
0.917576
0.912346
0.906751
0.90084
0.894668
0.888294
0.881787
0.875214
0.868652
0.862177
0.855867
0.849798
0.84404
0.838657
0.833696
0.829193
0.825168
0.821631
0.818587
0.816038
0.81398
0.812393
0.811245
0.810488
0.810068
0.809927
0.810007
0.810253
0.810619
0.811061
0.811545
0.812045
0.81254
0.813016
0.813463
0.813878
0.814258
0.814605
0.814923
0.815218
0.815496
0.815768
0.816045
0.816338
0.816658
0.817016
0.817418
0.817868
0.818365
0.818904
0.819479
0.820079
0.820692
0.821305
0.821904
0.822478
0.823015
0.823502
0.823929
0.824285
0.824562
0.82475
0.824846
0.853985
0.854044
0.854161
0.854335
0.854565
0.854849
0.855189
0.855586
0.856044
0.85657
0.857174
0.85787
0.858672
0.859597
0.860663
0.861891
0.8633
0.864913
0.866749
0.868828
0.871168
0.873782
0.876678
0.879859
0.88332
0.887053
0.891043
0.895271
0.899713
0.904339
0.909113
0.913994
0.918936
0.923888
0.928799
0.933616
0.938286
0.942758
0.946984
0.950918
0.954519
0.957749
0.960574
0.962964
0.964896
0.966347
0.967302
0.967747
0.967675
0.967082
0.965967
0.964334
0.962192
0.959553
0.956434
0.952855
0.948844
0.94443
0.939648
0.93454
0.92915
0.923528
0.917729
0.911812
0.905839
0.899876
0.893988
0.888243
0.882704
0.87743
0.872475
0.867881
0.86368
0.859893
0.856533
0.853607
0.851115
0.849051
0.847397
0.846126
0.845204
0.844585
0.844226
0.844079
0.844099
0.844247
0.844485
0.844784
0.845119
0.84547
0.845822
0.846166
0.846495
0.846807
0.8471
0.847377
0.847641
0.847898
0.848154
0.848418
0.848699
0.849003
0.849337
0.849707
0.850114
0.850558
0.851035
0.851539
0.852062
0.852594
0.853125
0.853643
0.854139
0.854602
0.855021
0.855387
0.855692
0.855928
0.856089
0.856171
0.887138
0.887198
0.887317
0.887496
0.887734
0.888031
0.888389
0.88881
0.889298
0.889862
0.890508
0.89125
0.892098
0.893069
0.894177
0.895438
0.896871
0.898492
0.900317
0.902362
0.90464
0.907161
0.909929
0.912946
0.916207
0.919704
0.923423
0.927345
0.931449
0.935706
0.940084
0.944547
0.949054
0.953561
0.958023
0.962394
0.966627
0.970677
0.974502
0.978061
0.981315
0.984232
0.98678
0.988932
0.990666
0.991961
0.992804
0.993181
0.993086
0.992516
0.991469
0.98995
0.987967
0.985532
0.982661
0.979373
0.975694
0.971651
0.967277
0.96261
0.957691
0.952565
0.947282
0.941893
0.936455
0.931023
0.925657
0.920412
0.915344
0.910503
0.905933
0.901674
0.897752
0.894191
0.891002
0.888193
0.885765
0.883711
0.882017
0.880661
0.879614
0.878844
0.878312
0.877982
0.877818
0.877783
0.877849
0.877988
0.878177
0.878398
0.878637
0.878883
0.87913
0.879373
0.879611
0.879843
0.880071
0.8803
0.880533
0.880776
0.881036
0.881317
0.881623
0.881959
0.882324
0.882719
0.883139
0.88358
0.884036
0.884498
0.884957
0.885405
0.885833
0.886231
0.886592
0.886906
0.887168
0.88737
0.887508
0.887577
0.920231
0.920292
0.920415
0.920599
0.920844
0.921152
0.921525
0.921966
0.922479
0.92307
0.923748
0.924522
0.925403
0.926403
0.927536
0.928815
0.930254
0.931866
0.933666
0.935664
0.93787
0.940292
0.942931
0.945788
0.948858
0.952133
0.955598
0.959238
0.963031
0.966951
0.970971
0.975056
0.979172
0.98328
0.987339
0.991309
0.99515
0.998822
1.00229
1.00551
1.00845
1.01108
1.01338
1.01532
1.01687
1.01803
1.01877
1.01909
1.01897
1.01843
1.01744
1.01603
1.01419
1.01195
1.0093
1.00628
1.00291
0.999203
0.9952
0.990933
0.986439
0.98176
0.976939
0.972024
0.967063
0.962106
0.957203
0.952404
0.947756
0.943302
0.939082
0.935127
0.931465
0.928115
0.925091
0.922399
0.920041
0.918011
0.916298
0.914885
0.913749
0.912863
0.912197
0.911721
0.911405
0.91122
0.91114
0.911141
0.911202
0.911308
0.911444
0.9116
0.911769
0.911946
0.912127
0.912312
0.912501
0.912697
0.912901
0.913118
0.913352
0.913604
0.91388
0.91418
0.914505
0.914853
0.915222
0.915607
0.916003
0.916403
0.916801
0.917188
0.917556
0.917899
0.918209
0.918479
0.918703
0.918876
0.918994
0.919053
0.953263
0.953326
0.953451
0.953639
0.953891
0.954209
0.954594
0.95505
0.955581
0.956192
0.956892
0.957688
0.958589
0.959606
0.960749
0.962031
0.963462
0.965054
0.966816
0.968757
0.970885
0.973204
0.975715
0.978417
0.981305
0.98437
0.987599
0.990977
0.994485
0.998098
1.00179
1.00554
1.0093
1.01305
1.01674
1.02035
1.02384
1.02717
1.03031
1.03323
1.03589
1.03827
1.04034
1.04209
1.04348
1.04451
1.04516
1.04543
1.0453
1.04477
1.04385
1.04253
1.04083
1.03876
1.03633
1.03355
1.03045
1.02705
1.02339
1.01948
1.01537
1.0111
1.00669
1.0022
0.997668
0.993135
0.988647
0.984246
0.979974
0.975869
0.971964
0.968288
0.964866
0.961715
0.958848
0.956272
0.953988
0.951994
0.95028
0.948833
0.947634
0.946661
0.945892
0.945301
0.944862
0.944553
0.94435
0.944233
0.944183
0.944187
0.944231
0.944304
0.9444
0.944513
0.94464
0.944777
0.944925
0.945085
0.945257
0.945444
0.945647
0.94587
0.946113
0.946377
0.946662
0.946967
0.947288
0.947623
0.947966
0.948312
0.948655
0.948988
0.949305
0.9496
0.949866
0.950098
0.95029
0.950438
0.950538
0.950589
0.986233
0.986297
0.986424
0.986616
0.986873
0.987198
0.987592
0.988058
0.988601
0.989226
0.989939
0.990747
0.991659
0.992681
0.993825
0.995098
0.99651
0.99807
0.999786
1.00166
1.00371
1.00592
1.00831
1.01086
1.01358
1.01644
1.01945
1.02259
1.02583
1.02916
1.03256
1.036
1.03944
1.04286
1.04623
1.04952
1.05269
1.05572
1.05857
1.06121
1.06362
1.06577
1.06764
1.0692
1.07045
1.07137
1.07194
1.07216
1.07201
1.07151
1.07064
1.06942
1.06785
1.06593
1.06369
1.06113
1.05829
1.05517
1.05181
1.04824
1.04447
1.04056
1.03653
1.03242
1.02827
1.02412
1.02
1.01596
1.01203
1.00823
1.00462
1.0012
0.997995
0.99503
0.992313
0.989851
0.987647
0.985697
0.983996
0.982532
0.981291
0.980257
0.979409
0.978727
0.97819
0.977779
0.977474
0.977257
0.977112
0.977026
0.976987
0.976986
0.977015
0.977068
0.977141
0.977232
0.977338
0.97746
0.977598
0.977752
0.977924
0.978115
0.978324
0.978553
0.9788
0.979064
0.979342
0.979631
0.979926
0.980224
0.980519
0.980805
0.981077
0.98133
0.981557
0.981756
0.98192
0.982046
0.982132
0.982176
1.01914
1.0192
1.01933
1.01953
1.01979
1.02012
1.02052
1.02099
1.02154
1.02217
1.02289
1.0237
1.02462
1.02564
1.02677
1.02803
1.02941
1.03093
1.03259
1.0344
1.03636
1.03847
1.04073
1.04314
1.04569
1.04837
1.05118
1.05409
1.05709
1.06017
1.06329
1.06645
1.0696
1.07273
1.07581
1.0788
1.08169
1.08444
1.08703
1.08942
1.0916
1.09354
1.09523
1.09664
1.09776
1.09857
1.09907
1.09925
1.09909
1.09861
1.0978
1.09666
1.0952
1.09343
1.09136
1.08901
1.0864
1.08354
1.08045
1.07717
1.07373
1.07014
1.06645
1.06268
1.05888
1.05507
1.05128
1.04756
1.04393
1.04043
1.03707
1.03388
1.03089
1.0281
1.02552
1.02317
1.02105
1.01915
1.01747
1.01601
1.01474
1.01367
1.01276
1.01201
1.01139
1.0109
1.01051
1.01021
1.00998
1.00982
1.00971
1.00964
1.00961
1.0096
1.00962
1.00967
1.00974
1.00982
1.00992
1.01004
1.01018
1.01034
1.01052
1.01071
1.01092
1.01115
1.01138
1.01163
1.01188
1.01214
1.01239
1.01264
1.01287
1.01308
1.01328
1.01345
1.01359
1.0137
1.01377
1.01381
1.05198
1.05205
1.05218
1.05237
1.05263
1.05297
1.05337
1.05384
1.0544
1.05503
1.05575
1.05656
1.05747
1.05848
1.05959
1.06082
1.06218
1.06365
1.06526
1.06699
1.06887
1.07087
1.07301
1.07528
1.07768
1.08018
1.0828
1.0855
1.08828
1.09112
1.094
1.0969
1.09979
1.10265
1.10546
1.1082
1.11082
1.11333
1.11567
1.11785
1.11982
1.12158
1.1231
1.12437
1.12537
1.12609
1.12653
1.12666
1.1265
1.12604
1.12528
1.12422
1.12287
1.12123
1.11932
1.11716
1.11475
1.11212
1.10929
1.10628
1.10312
1.09983
1.09644
1.09298
1.08949
1.08599
1.0825
1.07907
1.07572
1.07247
1.06935
1.06638
1.06358
1.06095
1.05851
1.05627
1.05423
1.05239
1.05074
1.04928
1.04801
1.0469
1.04596
1.04515
1.04448
1.04392
1.04346
1.04308
1.04279
1.04256
1.04238
1.04225
1.04217
1.04211
1.04209
1.04209
1.04211
1.04216
1.04223
1.04232
1.04242
1.04255
1.04269
1.04285
1.04303
1.04322
1.04342
1.04363
1.04384
1.04406
1.04427
1.04448
1.04468
1.04486
1.04502
1.04517
1.04529
1.04538
1.04544
1.04547
1.08476
1.08482
1.08495
1.08515
1.08541
1.08574
1.08615
1.08662
1.08717
1.08781
1.08852
1.08932
1.09022
1.09121
1.0923
1.0935
1.09481
1.09624
1.09778
1.09945
1.10123
1.10314
1.10516
1.1073
1.10954
1.11189
1.11432
1.11683
1.11941
1.12203
1.12469
1.12735
1.13
1.13263
1.1352
1.13769
1.14009
1.14236
1.1445
1.14647
1.14826
1.14985
1.15122
1.15236
1.15326
1.1539
1.15428
1.15438
1.15422
1.15377
1.15306
1.15207
1.15081
1.1493
1.14754
1.14554
1.14333
1.14091
1.13831
1.13554
1.13263
1.12961
1.1265
1.12332
1.12011
1.11688
1.11367
1.11051
1.1074
1.10439
1.10149
1.09871
1.09608
1.09361
1.0913
1.08917
1.08721
1.08542
1.08382
1.08238
1.0811
1.07998