/*--------------------------------*- C++ -*----------------------------------*\
| =========                 |                                                 |
| \\      /  F ield         | OpenFOAM: The Open Source CFD Toolbox           |
|  \\    /   O peration     | Version:  2406                                  |
|   \\  /    A nd           | Website:  www.openfoam.com                      |
|    \\/     M anipulation  |                                                 |
\*---------------------------------------------------------------------------*/
FoamFile
{
    version     2.0;
    format      ascii;
    arch        "LSB;label=32;scalar=64";
    class       volScalarField;
    location    "7.65";
    object      Da;
}
// * * * * * * * * * * * * * * * * * * * * * * * * * * * * * * * * * * * * * //

dimensions      [0 2 -1 0 0 0 0];

internalField   nonuniform List<scalar> 
14400
(
4.7499e-05
4.74671e-05
4.74189e-05
4.73704e-05
4.73307e-05
4.73024e-05
4.72852e-05
4.72782e-05
4.72821e-05
4.72995e-05
4.73345e-05
4.73906e-05
4.74669e-05
4.75504e-05
4.76081e-05
4.75899e-05
4.74652e-05
4.72731e-05
4.70542e-05
4.68257e-05
4.65869e-05
4.63316e-05
4.60555e-05
4.57597e-05
4.54519e-05
4.51436e-05
4.48476e-05
4.45752e-05
4.43356e-05
4.41357e-05
4.39818e-05
4.38815e-05
4.38476e-05
4.39056e-05
4.41156e-05
4.46603e-05
4.64289e-05
5.7661e-05
7.7988e-05
7.8e-05
7.8e-05
7.8e-05
7.8e-05
7.8e-05
7.8e-05
7.8e-05
7.8e-05
7.8e-05
7.8e-05
7.8e-05
7.8e-05
7.8e-05
7.8e-05
7.8e-05
7.8e-05
7.8e-05
7.8e-05
7.8e-05
7.8e-05
7.77056e-05
5.13762e-05
4.59345e-05
4.47216e-05
4.43185e-05
4.4197e-05
4.42255e-05
4.43589e-05
4.458e-05
4.48826e-05
4.52631e-05
4.57145e-05
4.62196e-05
4.6746e-05
4.72477e-05
4.76744e-05
4.79858e-05
4.81609e-05
4.81999e-05
4.81222e-05
4.79627e-05
4.77676e-05
4.75907e-05
4.74961e-05
4.75762e-05
4.80319e-05
4.96275e-05
5.76179e-05
7.79096e-05
6.30901e-05
4.97882e-05
4.75488e-05
4.68116e-05
4.64988e-05
4.63771e-05
4.63623e-05
4.64133e-05
4.65046e-05
4.66183e-05
4.67395e-05
4.68555e-05
4.69541e-05
4.70233e-05
4.7052e-05
4.70319e-05
4.69604e-05
4.68424e-05
4.66876e-05
4.65086e-05
4.63183e-05
4.61295e-05
4.59552e-05
4.58087e-05
4.57052e-05
4.56645e-05
4.57179e-05
4.59259e-05
4.64384e-05
4.77844e-05
5.29439e-05
7.75158e-05
4.73826e-05
4.73241e-05
4.72406e-05
4.71599e-05
4.70951e-05
4.70495e-05
4.70224e-05
4.70125e-05
4.70203e-05
4.70484e-05
4.71018e-05
4.71858e-05
4.73025e-05
4.74416e-05
4.75633e-05
4.75833e-05
4.7418e-05
4.71684e-05
4.69057e-05
4.66514e-05
4.64021e-05
4.61482e-05
4.58825e-05
4.56038e-05
4.5317e-05
4.50312e-05
4.47571e-05
4.45048e-05
4.42829e-05
4.40985e-05
4.39585e-05
4.38715e-05
4.38518e-05
4.39277e-05
4.41659e-05
4.47757e-05
4.68727e-05
6.33105e-05
7.79993e-05
7.8e-05
7.8e-05
7.8e-05
7.8e-05
7.8e-05
7.8e-05
7.8e-05
7.8e-05
7.8e-05
7.8e-05
7.8e-05
7.8e-05
7.8e-05
7.8e-05
7.8e-05
7.8e-05
7.8e-05
7.8e-05
7.8e-05
7.8e-05
7.79691e-05
5.58423e-05
4.6391e-05
4.48217e-05
4.43514e-05
4.42028e-05
4.42128e-05
4.4329e-05
4.4531e-05
4.48104e-05
4.51619e-05
4.55776e-05
4.60411e-05
4.65234e-05
4.69838e-05
4.73776e-05
4.76683e-05
4.78358e-05
4.78799e-05
4.78188e-05
4.76853e-05
4.75231e-05
4.73835e-05
4.73288e-05
4.74546e-05
4.79845e-05
4.98901e-05
6.13692e-05
7.79876e-05
6.88098e-05
5.02343e-05
4.76163e-05
4.67825e-05
4.64209e-05
4.62662e-05
4.62253e-05
4.6254e-05
4.63264e-05
4.64249e-05
4.65357e-05
4.66465e-05
4.67453e-05
4.68188e-05
4.68532e-05
4.68372e-05
4.67668e-05
4.66489e-05
4.64963e-05
4.63237e-05
4.61446e-05
4.59714e-05
4.58158e-05
4.56901e-05
4.56087e-05
4.55919e-05
4.56735e-05
4.59226e-05
4.65294e-05
4.83319e-05
5.82824e-05
7.79699e-05
4.72561e-05
4.71278e-05
4.69646e-05
4.68193e-05
4.67081e-05
4.66321e-05
4.65879e-05
4.65728e-05
4.65866e-05
4.66322e-05
4.67164e-05
4.68494e-05
4.70429e-05
4.73014e-05
4.75916e-05
4.77527e-05
4.74319e-05
4.70258e-05
4.66645e-05
4.63585e-05
4.60888e-05
4.58359e-05
4.55868e-05
4.53357e-05
4.50832e-05
4.48346e-05
4.45974e-05
4.43795e-05
4.41888e-05
4.40324e-05
4.39183e-05
4.38571e-05
4.38665e-05
4.39819e-05
4.42882e-05
4.50601e-05
4.77616e-05
7.2404e-05
7.8e-05
7.8e-05
7.8e-05
7.8e-05
7.8e-05
7.8e-05
7.8e-05
7.8e-05
7.8e-05
7.8e-05
7.8e-05
7.8e-05
7.8e-05
7.8e-05
7.8e-05
7.8e-05
7.8e-05
7.8e-05
7.8e-05
7.8e-05
7.8e-05
7.79997e-05
6.50468e-05
4.71682e-05
4.50156e-05
4.44239e-05
4.42211e-05
4.41942e-05
4.4277e-05
4.44433e-05
4.46806e-05
4.4981e-05
4.53349e-05
4.57271e-05
4.61337e-05
4.65223e-05
4.68578e-05
4.71104e-05
4.72633e-05
4.73162e-05
4.72848e-05
4.7198e-05
4.70947e-05
4.70219e-05
4.70411e-05
4.72546e-05
4.79225e-05
5.03173e-05
6.80864e-05
7.79998e-05
7.60997e-05
5.14585e-05
4.78851e-05
4.6781e-05
4.63069e-05
4.60864e-05
4.59977e-05
4.59879e-05
4.60287e-05
4.61027e-05
4.61972e-05
4.63012e-05
4.64027e-05
4.64866e-05
4.65339e-05
4.6526e-05
4.64554e-05
4.63341e-05
4.61818e-05
4.60173e-05
4.58551e-05
4.57065e-05
4.55814e-05
4.54906e-05
4.54481e-05
4.54754e-05
4.56116e-05
4.59436e-05
4.67297e-05
4.92884e-05
6.87347e-05
7.79999e-05
4.73523e-05
4.70343e-05
4.6712e-05
4.64621e-05
4.62856e-05
4.617e-05
4.61045e-05
4.60827e-05
4.61026e-05
4.61683e-05
4.629e-05
4.64871e-05
4.67936e-05
4.7268e-05
4.79972e-05
4.89316e-05
4.7776e-05
4.69598e-05
4.64148e-05
4.60278e-05
4.57274e-05
4.54721e-05
4.52392e-05
4.50171e-05
4.4802e-05
4.4595e-05
4.44002e-05
4.42235e-05
4.40713e-05
4.39511e-05
4.38723e-05
4.38486e-05
4.39043e-05
4.40907e-05
4.45497e-05
4.58993e-05
5.33625e-05
7.79277e-05
7.8e-05
7.8e-05
7.8e-05
7.8e-05
7.8e-05
7.8e-05
7.8e-05
7.8e-05
7.8e-05
7.8e-05
7.8e-05
7.8e-05
7.8e-05
7.8e-05
7.8e-05
7.8e-05
7.8e-05
7.8e-05
7.8e-05
7.8e-05
7.8e-05
7.8e-05
7.51037e-05
4.84127e-05
4.53991e-05
4.45712e-05
4.427e-05
4.4183e-05
4.42167e-05
4.4334e-05
4.45169e-05
4.47539e-05
4.50337e-05
4.53425e-05
4.56612e-05
4.5966e-05
4.6232e-05
4.64381e-05
4.65724e-05
4.66352e-05
4.66394e-05
4.66092e-05
4.65779e-05
4.65896e-05
4.67091e-05
4.70607e-05
4.79937e-05
5.11819e-05
7.53727e-05
7.8e-05
7.79972e-05
6.30021e-05
4.90262e-05
4.69303e-05
4.62282e-05
4.59038e-05
4.57488e-05
4.56903e-05
4.56938e-05
4.57408e-05
4.58195e-05
4.59201e-05
4.60312e-05
4.6136e-05
4.62073e-05
4.62132e-05
4.6136e-05
4.60009e-05
4.58399e-05
4.56778e-05
4.553e-05
4.54065e-05
4.53154e-05
4.52662e-05
4.52733e-05
4.53625e-05
4.5586e-05
4.60734e-05
4.72748e-05
5.1873e-05
7.74008e-05
7.8e-05
4.84328e-05
4.73076e-05
4.66175e-05
4.6193e-05
4.59253e-05
4.576e-05
4.56693e-05
4.56392e-05
4.56653e-05
4.57528e-05
4.59181e-05
4.61968e-05
4.66721e-05
4.7573e-05
4.9846e-05
5.89738e-05
4.92741e-05
4.71331e-05
4.62424e-05
4.5735e-05
4.53896e-05
4.5124e-05
4.49011e-05
4.47027e-05
4.45204e-05
4.43517e-05
4.41978e-05
4.40624e-05
4.39512e-05
4.38719e-05
4.38357e-05
4.38613e-05
4.39848e-05
4.42906e-05
4.50484e-05
4.77134e-05
7.15073e-05
7.8e-05
7.8e-05
7.8e-05
7.8e-05
7.8e-05
7.8e-05
7.8e-05
7.8e-05
7.8e-05
7.8e-05
7.8e-05
7.8e-05
7.8e-05
7.8e-05
7.8e-05
7.8e-05
7.8e-05
7.8e-05
7.8e-05
7.8e-05
7.8e-05
7.8e-05
7.8e-05
7.7997e-05
6.01392e-05
4.66453e-05
4.48893e-05
4.43819e-05
4.41993e-05
4.4166e-05
4.42235e-05
4.43451e-05
4.4515e-05
4.47203e-05
4.49481e-05
4.51835e-05
4.54097e-05
4.56104e-05
4.57722e-05
4.58883e-05
4.59602e-05
4.5999e-05
4.60245e-05
4.60664e-05
4.61691e-05
4.64115e-05
4.69872e-05
4.87399e-05
5.9403e-05
7.79826e-05
7.8e-05
7.8e-05
7.64555e-05
5.10289e-05
4.73784e-05
4.62845e-05
4.57955e-05
4.55487e-05
4.54312e-05
4.53944e-05
4.54158e-05
4.54837e-05
4.55897e-05
4.5724e-05
4.58702e-05
4.59896e-05
4.60239e-05
4.59207e-05
4.57469e-05
4.55565e-05
4.53827e-05
4.52397e-05
4.51354e-05
4.50761e-05
4.50711e-05
4.51376e-05
4.5312e-05
4.56803e-05
4.65085e-05
4.91707e-05
7.00165e-05
7.8e-05
7.8e-05
5.65516e-05
4.87539e-05
4.68806e-05
4.61109e-05
4.56996e-05
4.54646e-05
4.53411e-05
4.53004e-05
4.53335e-05
4.54478e-05
4.56704e-05
4.60666e-05
4.68385e-05
4.89283e-05
6.14222e-05
7.79021e-05
5.56063e-05
4.78628e-05
4.62379e-05
4.55421e-05
4.51271e-05
4.4837e-05
4.46133e-05
4.44293e-05
4.42715e-05
4.41341e-05
4.40159e-05
4.39192e-05
4.38488e-05
4.38135e-05
4.38276e-05
4.39183e-05
4.41459e-05
4.46841e-05
4.63874e-05
5.83408e-05
7.79938e-05
7.8e-05
7.8e-05
7.8e-05
7.8e-05
7.8e-05
7.8e-05
7.8e-05
7.8e-05
7.8e-05
7.8e-05
7.8e-05
7.8e-05
7.8e-05
7.8e-05
7.8e-05
7.8e-05
7.8e-05
7.8e-05
7.8e-05
7.8e-05
7.8e-05
7.8e-05
7.8e-05
7.8e-05
7.59125e-05
4.86411e-05
4.54694e-05
4.46069e-05
4.42725e-05
4.41471e-05
4.4133e-05
4.41889e-05
4.42926e-05
4.44292e-05
4.4586e-05
4.47512e-05
4.49129e-05
4.50608e-05
4.51871e-05
4.5289e-05
4.53695e-05
4.54389e-05
4.55149e-05
4.56266e-05
4.58243e-05
4.6214e-05
4.71028e-05
4.99918e-05
7.28272e-05
7.8e-05
7.8e-05
7.8e-05
7.8e-05
6.99778e-05
4.94663e-05
4.67467e-05
4.58726e-05
4.54686e-05
4.52699e-05
4.51853e-05
4.51826e-05
4.52482e-05
4.53757e-05
4.55599e-05
4.57953e-05
4.6028e-05
4.6153e-05
4.59483e-05
4.56716e-05
4.54056e-05
4.51924e-05
4.50369e-05
4.49419e-05
4.4911e-05
4.49547e-05
4.50984e-05
4.54054e-05
4.606e-05
4.79338e-05
5.92069e-05
7.79895e-05
7.8e-05
7.8e-05
7.79032e-05
5.65147e-05
4.81421e-05
4.63888e-05
4.56894e-05
4.53345e-05
4.51609e-05
4.51047e-05
4.51481e-05
4.53029e-05
4.56198e-05
4.62249e-05
4.76596e-05
5.37478e-05
7.7798e-05
7.8e-05
7.39891e-05
4.9684e-05
4.65613e-05
4.55213e-05
4.49823e-05
4.46415e-05
4.4401e-05
4.42194e-05
4.40766e-05
4.39629e-05
4.38748e-05
4.38137e-05
4.37848e-05
4.37989e-05
4.3876e-05
4.40598e-05
4.44629e-05
4.54854e-05
4.96314e-05
7.74224e-05
7.8e-05
7.8e-05
7.8e-05
7.8e-05
7.8e-05
7.8e-05
7.8e-05
7.8e-05
7.8e-05
7.8e-05
7.8e-05
7.8e-05
7.8e-05
7.8e-05
7.8e-05
7.8e-05
7.8e-05
7.8e-05
7.8e-05
7.8e-05
7.8e-05
7.8e-05
7.8e-05
7.8e-05
7.8e-05
7.79999e-05
6.74564e-05
4.74665e-05
4.51367e-05
4.44629e-05
4.41909e-05
4.40854e-05
4.40692e-05
4.4108e-05
4.41826e-05
4.42797e-05
4.43887e-05
4.45009e-05
4.46095e-05
4.47104e-05
4.48035e-05
4.48936e-05
4.49913e-05
4.51153e-05
4.52988e-05
4.56087e-05
4.62242e-05
4.79629e-05
5.85239e-05
7.79828e-05
7.8e-05
7.8e-05
7.8e-05
7.8e-05
7.79984e-05
6.30781e-05
4.86759e-05
4.63823e-05
4.56137e-05
4.52755e-05
4.51196e-05
4.50899e-05
4.51671e-05
4.53502e-05
4.5645e-05
4.61184e-05
4.6708e-05
4.74087e-05
4.65658e-05
4.59647e-05
4.54875e-05
4.51739e-05
4.49722e-05
4.48717e-05
4.48681e-05
4.49765e-05
4.5245e-05
4.58191e-05
4.72407e-05
5.33208e-05
7.78237e-05
7.8e-05
7.8e-05
7.8e-05
7.8e-05
7.78242e-05
5.41035e-05
4.76971e-05
4.60977e-05
4.54595e-05
4.51913e-05
4.51076e-05
4.51704e-05
4.54037e-05
4.59393e-05
4.70978e-05
5.0948e-05
7.69642e-05
7.8e-05
7.8e-05
7.79993e-05
6.43105e-05
4.81858e-05
4.58502e-05
4.50162e-05
4.45689e-05
4.42852e-05
4.40908e-05
4.39524e-05
4.3855e-05
4.37929e-05
4.37667e-05
4.3784e-05
4.38615e-05
4.40318e-05
4.43809e-05
4.52085e-05
4.81436e-05
7.48291e-05
7.8e-05
7.8e-05
7.8e-05
7.8e-05
7.8e-05
7.8e-05
7.8e-05
7.8e-05
7.8e-05
7.8e-05
7.8e-05
7.8e-05
7.8e-05
7.8e-05
7.8e-05
7.8e-05
7.8e-05
7.8e-05
7.8e-05
7.8e-05
7.8e-05
7.8e-05
7.8e-05
7.8e-05
7.8e-05
7.8e-05
7.8e-05
7.79894e-05
5.74211e-05
4.65706e-05
4.48927e-05
4.43465e-05
4.41097e-05
4.40073e-05
4.39784e-05
4.39951e-05
4.40408e-05
4.41048e-05
4.41795e-05
4.42598e-05
4.43441e-05
4.44342e-05
4.45368e-05
4.46651e-05
4.48427e-05
4.5115e-05
4.5586e-05
4.65778e-05
4.98167e-05
7.54757e-05
7.8e-05
7.8e-05
7.8e-05
7.8e-05
7.8e-05
7.8e-05
7.79946e-05
6.11411e-05
4.85071e-05
4.62765e-05
4.56054e-05
4.52917e-05
4.52192e-05
4.53381e-05
4.56814e-05
4.62762e-05
4.78292e-05
5.00904e-05
5.76806e-05
4.95566e-05
4.74859e-05
4.60784e-05
4.54747e-05
4.51355e-05
4.50014e-05
4.50312e-05
4.5259e-05
4.58239e-05
4.7322e-05
5.25185e-05
7.76102e-05
7.8e-05
7.8e-05
7.8e-05
7.8e-05
7.8e-05
7.8e-05
7.78117e-05
5.53433e-05
4.79776e-05
4.61304e-05
4.56227e-05
4.54694e-05
4.55843e-05
4.60242e-05
4.74772e-05
5.14807e-05
7.67107e-05
7.8e-05
7.8e-05
7.8e-05
7.8e-05
7.79588e-05
5.5726e-05
4.70824e-05
4.53717e-05
4.46799e-05
4.42995e-05
4.40679e-05
4.39203e-05
4.38321e-05
4.37948e-05
4.38087e-05
4.3888e-05
4.40691e-05
4.44202e-05
4.51894e-05
4.79168e-05
7.21645e-05
7.8e-05
7.8e-05
7.8e-05
7.8e-05
7.8e-05
7.8e-05
7.8e-05
7.8e-05
7.8e-05
7.8e-05
7.8e-05
7.8e-05
7.8e-05
7.8e-05
7.8e-05
7.8e-05
7.8e-05
7.8e-05
7.8e-05
7.8e-05
7.8e-05
7.8e-05
7.8e-05
7.8e-05
7.8e-05
7.8e-05
7.8e-05
7.8e-05
7.8e-05
7.77974e-05
5.15003e-05
4.59403e-05
4.47249e-05
4.4259e-05
4.40341e-05
4.39236e-05
4.38795e-05
4.38773e-05
4.3903e-05
4.39481e-05
4.40083e-05
4.40829e-05
4.4176e-05
4.42972e-05
4.44655e-05
4.47171e-05
4.51334e-05
4.59593e-05
4.84616e-05
6.76153e-05
7.79999e-05
7.8e-05
7.8e-05
7.8e-05
7.8e-05
7.8e-05
7.8e-05
7.8e-05
7.79958e-05
6.51818e-05
4.90478e-05
4.69753e-05
4.59958e-05
4.58157e-05
4.60747e-05
4.71943e-05
4.90658e-05
6.21514e-05
7.67437e-05
7.79811e-05
7.59624e-05
5.91451e-05
4.86683e-05
4.67342e-05
4.58037e-05
4.55585e-05
4.56517e-05
4.62335e-05
4.81391e-05
5.68658e-05
7.77517e-05
7.8e-05
7.8e-05
7.8e-05
7.8e-05
7.8e-05
7.8e-05
7.8e-05
7.8e-05
7.79402e-05
6.30897e-05
4.89605e-05
4.74881e-05
4.69467e-05
4.73514e-05
4.86637e-05
5.87966e-05
7.75351e-05
7.8e-05
7.8e-05
7.8e-05
7.8e-05
7.8e-05
7.8e-05
7.77754e-05
5.23508e-05
4.66552e-05
4.51635e-05
4.45273e-05
4.42058e-05
4.40234e-05
4.39358e-05
4.39295e-05
4.40034e-05
4.41903e-05
4.46186e-05
4.55223e-05
4.81776e-05
7.25537e-05
7.8e-05
7.8e-05
7.8e-05
7.8e-05
7.8e-05
7.8e-05
7.8e-05
7.8e-05
7.8e-05
7.8e-05
7.8e-05
7.8e-05
7.8e-05
7.8e-05
7.8e-05
7.8e-05
7.8e-05
7.8e-05
7.8e-05
7.8e-05
7.8e-05
7.8e-05
7.8e-05
7.8e-05
7.8e-05
7.8e-05
7.8e-05
7.8e-05
7.8e-05
7.8e-05
7.8e-05
7.72106e-05
4.96022e-05
4.57261e-05
4.46731e-05
4.42142e-05
4.3978e-05
4.38566e-05
4.38014e-05
4.37897e-05
4.38093e-05
4.38546e-05
4.39258e-05
4.40293e-05
4.41806e-05
4.44113e-05
4.47901e-05
4.55089e-05
4.74692e-05
5.92443e-05
7.79927e-05
7.8e-05
7.8e-05
7.8e-05
7.8e-05
7.8e-05
7.8e-05
7.8e-05
7.8e-05
7.8e-05
7.79996e-05
7.34088e-05
5.59771e-05
4.88088e-05
4.82611e-05
4.9066e-05
5.82402e-05
7.39581e-05
7.79981e-05
7.8e-05
7.8e-05
7.8e-05
7.7992e-05
7.20257e-05
5.44107e-05
4.84728e-05
4.78098e-05
4.81181e-05
5.06262e-05
6.83585e-05
7.7977e-05
7.8e-05
7.8e-05
7.8e-05
7.8e-05
7.8e-05
7.8e-05
7.8e-05
7.8e-05
7.8e-05
7.8e-05
7.79989e-05
7.40409e-05
6.2092e-05
5.57149e-05
6.03749e-05
7.21638e-05
7.79906e-05
7.8e-05
7.8e-05
7.8e-05
7.8e-05
7.8e-05
7.8e-05
7.8e-05
7.8e-05
7.77385e-05
5.36926e-05
4.70203e-05
4.52512e-05
4.46766e-05
4.43783e-05
4.42716e-05
4.43319e-05
4.45449e-05
4.49935e-05
4.65449e-05
5.08326e-05
7.55773e-05
7.8e-05
7.8e-05
7.8e-05
7.8e-05
7.8e-05
7.8e-05
7.8e-05
7.8e-05
7.8e-05
7.8e-05
7.8e-05
7.8e-05
7.8e-05
7.8e-05
7.8e-05
7.8e-05
7.8e-05
7.8e-05
7.8e-05
7.8e-05
7.8e-05
7.8e-05
7.8e-05
7.8e-05
7.8e-05
7.8e-05
7.8e-05
7.8e-05
7.8e-05
7.8e-05
7.8e-05
7.8e-05
7.8e-05
7.69287e-05
4.98325e-05
4.59511e-05
4.47418e-05
4.42233e-05
4.3972e-05
4.38414e-05
4.37847e-05
4.37778e-05
4.38113e-05
4.38858e-05
4.40116e-05
4.42171e-05
4.45674e-05
4.52373e-05
4.6923e-05
5.48408e-05
7.79418e-05
7.8e-05
7.8e-05
7.8e-05
7.8e-05
7.8e-05
7.8e-05
7.8e-05
7.8e-05
7.8e-05
7.8e-05
7.8e-05
7.8e-05
7.79648e-05
7.46187e-05
7.13236e-05
7.55756e-05
7.79878e-05
7.8e-05
7.8e-05
7.8e-05
7.8e-05
7.8e-05
7.8e-05
7.8e-05
7.79301e-05
7.31802e-05
6.76862e-05
7.09627e-05
7.74609e-05
7.8e-05
7.8e-05
7.8e-05
7.8e-05
7.8e-05
7.8e-05
7.8e-05
7.8e-05
7.8e-05
7.8e-05
7.8e-05
7.8e-05
7.8e-05
7.8e-05
7.79979e-05
7.79549e-05
7.79951e-05
7.8e-05
7.8e-05
7.8e-05
7.8e-05
7.8e-05
7.8e-05
7.8e-05
7.8e-05
7.8e-05
7.8e-05
7.8e-05
7.79211e-05
6.15601e-05
4.8034e-05
4.63797e-05
4.54315e-05
4.52084e-05
4.55798e-05
4.64949e-05
4.79409e-05
6.26179e-05
7.77719e-05
7.8e-05
7.8e-05
7.8e-05
7.8e-05
7.8e-05
7.8e-05
7.8e-05
7.8e-05
7.8e-05
7.8e-05
7.8e-05
7.8e-05
7.8e-05
7.8e-05
7.8e-05
7.8e-05
7.8e-05
7.8e-05
7.8e-05
7.8e-05
7.8e-05
7.8e-05
7.8e-05
7.8e-05
7.8e-05
7.8e-05
7.8e-05
7.8e-05
7.8e-05
7.8e-05
7.8e-05
7.8e-05
7.8e-05
7.8e-05
7.8e-05
7.74448e-05
5.29606e-05
4.66133e-05
4.49269e-05
4.43577e-05
4.40727e-05
4.39433e-05
4.3899e-05
4.39209e-05
4.40105e-05
4.41841e-05
4.45059e-05
4.51707e-05
4.69752e-05
5.47168e-05
7.79025e-05
7.8e-05
7.8e-05
7.8e-05
7.8e-05
7.8e-05
7.8e-05
7.8e-05
7.8e-05
7.8e-05
7.8e-05
7.8e-05
7.8e-05
7.8e-05
7.8e-05
7.8e-05
7.8e-05
7.8e-05
7.8e-05
7.8e-05
7.8e-05
7.8e-05
7.8e-05
7.8e-05
7.8e-05
7.8e-05
7.8e-05
7.8e-05
7.79999e-05
7.8e-05
7.8e-05
7.8e-05
7.8e-05
7.8e-05
7.8e-05
7.8e-05
7.8e-05
7.8e-05
7.8e-05
7.8e-05
7.8e-05
7.8e-05
7.8e-05
7.8e-05
7.8e-05
7.8e-05
7.8e-05
7.8e-05
7.8e-05
7.8e-05
7.8e-05
7.8e-05
7.8e-05
7.8e-05
7.8e-05
7.8e-05
7.8e-05
7.8e-05
7.8e-05
7.8e-05
7.79985e-05
7.31656e-05
5.89745e-05
4.99513e-05
4.87644e-05
5.20464e-05
6.26673e-05
7.4885e-05
7.79994e-05
7.8e-05
7.8e-05
7.8e-05
7.8e-05
7.8e-05
7.8e-05
7.8e-05
7.8e-05
7.8e-05
7.8e-05
7.8e-05
7.8e-05
7.8e-05
7.8e-05
7.8e-05
7.8e-05
7.8e-05
7.8e-05
7.8e-05
7.8e-05
7.8e-05
7.8e-05
7.8e-05
7.8e-05
7.8e-05
7.8e-05
7.8e-05
7.8e-05
7.8e-05
7.8e-05
7.8e-05
7.8e-05
7.8e-05
7.8e-05
7.8e-05
7.8e-05
7.8e-05
7.79223e-05
6.13085e-05
4.75843e-05
4.56089e-05
4.4751e-05
4.44497e-05
4.43194e-05
4.43208e-05
4.44634e-05
4.4766e-05
4.54355e-05
4.75746e-05
5.95271e-05
7.79494e-05
7.8e-05
7.8e-05
7.8e-05
7.8e-05
7.8e-05
7.8e-05
7.8e-05
7.8e-05
7.8e-05
7.8e-05
7.8e-05
7.8e-05
7.8e-05
7.8e-05
7.8e-05
7.8e-05
7.8e-05
7.8e-05
7.8e-05
7.8e-05
7.8e-05
7.8e-05
7.8e-05
7.8e-05
7.8e-05
7.8e-05
7.8e-05
7.8e-05
7.8e-05
7.8e-05
7.8e-05
7.8e-05
7.8e-05
7.8e-05
7.8e-05
7.8e-05
7.8e-05
7.8e-05
7.8e-05
7.8e-05
7.8e-05
7.8e-05
7.8e-05
7.8e-05
7.8e-05
7.8e-05
7.8e-05
7.8e-05
7.8e-05
7.8e-05
7.8e-05
7.8e-05
7.8e-05
7.8e-05
7.8e-05
7.8e-05
7.8e-05
7.8e-05
7.8e-05
7.8e-05
7.8e-05
7.8e-05
7.79946e-05
7.75138e-05
7.69208e-05
7.78638e-05
7.79992e-05
7.8e-05
7.8e-05
7.8e-05
7.8e-05
7.8e-05
7.8e-05
7.8e-05
7.8e-05
7.8e-05
7.8e-05
7.8e-05
7.8e-05
7.8e-05
7.8e-05
7.8e-05
7.8e-05
7.8e-05
7.8e-05
7.8e-05
7.8e-05
7.8e-05
7.8e-05
7.8e-05
7.8e-05
7.8e-05
7.8e-05
7.8e-05
7.8e-05
7.8e-05
7.8e-05
7.8e-05
7.8e-05
7.8e-05
7.8e-05
7.8e-05
7.8e-05
7.8e-05
7.8e-05
7.8e-05
7.8e-05
7.79987e-05
7.244e-05
5.28551e-05
4.72885e-05
4.62991e-05
4.57186e-05
4.56178e-05
4.60803e-05
4.70159e-05
4.94376e-05
6.97204e-05
7.7996e-05
7.8e-05
7.8e-05
7.8e-05
7.8e-05
7.8e-05
7.8e-05
7.8e-05
7.8e-05
7.8e-05
7.8e-05
7.8e-05
7.8e-05
7.8e-05
7.8e-05
7.8e-05
7.8e-05
7.8e-05
7.8e-05
7.8e-05
7.8e-05
7.8e-05
7.8e-05
7.8e-05
7.8e-05
7.8e-05
7.8e-05
7.8e-05
7.8e-05
7.8e-05
7.8e-05
7.8e-05
7.8e-05
7.8e-05
7.8e-05
7.8e-05
7.8e-05
7.8e-05
7.8e-05
7.8e-05
7.8e-05
7.8e-05
7.8e-05
7.8e-05
7.8e-05
7.8e-05
7.8e-05
7.8e-05
7.8e-05
7.8e-05
7.8e-05
7.8e-05
7.8e-05
7.8e-05
7.8e-05
7.8e-05
7.8e-05
7.8e-05
7.8e-05
7.8e-05
7.8e-05
7.8e-05
7.8e-05
7.8e-05
7.8e-05
7.8e-05
7.8e-05
7.8e-05
7.8e-05
7.8e-05
7.8e-05
7.8e-05
7.8e-05
7.8e-05
7.8e-05
7.8e-05
7.8e-05
7.8e-05
7.8e-05
7.8e-05
7.8e-05
7.8e-05
7.8e-05
7.8e-05
7.8e-05
7.8e-05
7.8e-05
7.8e-05
7.8e-05
7.8e-05
7.8e-05
7.8e-05
7.8e-05
7.8e-05
7.8e-05
7.8e-05
7.8e-05
7.8e-05
7.8e-05
7.8e-05
7.8e-05
7.8e-05
7.8e-05
7.8e-05
7.8e-05
7.8e-05
7.8e-05
7.8e-05
7.8e-05
7.8e-05
7.8e-05
7.79274e-05
7.13904e-05
6.06315e-05
5.3622e-05
5.22661e-05
5.69076e-05
6.75669e-05
7.7341e-05
7.8e-05
7.8e-05
7.8e-05
7.8e-05
7.8e-05
7.8e-05
7.8e-05
7.8e-05
7.8e-05
7.8e-05
7.8e-05
7.8e-05
7.8e-05
7.8e-05
7.8e-05
7.8e-05
7.8e-05
7.8e-05
7.8e-05
7.8e-05
7.8e-05
7.8e-05
7.8e-05
7.8e-05
7.8e-05
7.8e-05
7.8e-05
7.8e-05
7.8e-05
7.8e-05
7.8e-05
7.8e-05
7.8e-05
7.8e-05
7.8e-05
7.8e-05
7.8e-05
7.8e-05
7.8e-05
7.8e-05
7.8e-05
7.8e-05
7.8e-05
7.8e-05
7.8e-05
7.8e-05
7.8e-05
7.8e-05
7.8e-05
7.8e-05
7.8e-05
7.8e-05
7.8e-05
7.8e-05
7.8e-05
7.8e-05
7.8e-05
7.8e-05
7.8e-05
7.8e-05
7.8e-05
7.8e-05
7.8e-05
7.8e-05
7.8e-05
7.8e-05
7.8e-05
7.8e-05
7.8e-05
7.8e-05
7.8e-05
7.8e-05
7.8e-05
7.8e-05
7.8e-05
7.8e-05
7.8e-05
7.8e-05
7.8e-05
7.8e-05
7.8e-05
7.8e-05
7.8e-05
7.8e-05
7.8e-05
7.8e-05
7.8e-05
7.8e-05
7.8e-05
7.8e-05
7.8e-05
7.8e-05
7.8e-05
7.8e-05
7.8e-05
7.8e-05
7.8e-05
7.8e-05
7.8e-05
7.8e-05
7.8e-05
7.8e-05
7.8e-05
7.8e-05
7.8e-05
7.8e-05
7.8e-05
7.8e-05
7.8e-05
7.8e-05
7.8e-05
7.8e-05
7.8e-05
7.8e-05
7.79979e-05
7.79384e-05
7.78757e-05
7.79865e-05
7.8e-05
7.8e-05
7.8e-05
7.8e-05
7.8e-05
7.8e-05
7.8e-05
7.8e-05
7.8e-05
7.8e-05
7.8e-05
7.8e-05
7.8e-05
7.8e-05
7.8e-05
7.8e-05
7.8e-05
7.8e-05
7.8e-05
7.8e-05
7.8e-05
7.8e-05
7.8e-05
7.8e-05
7.8e-05
7.8e-05
7.8e-05
7.8e-05
7.8e-05
7.8e-05
7.8e-05
7.8e-05
7.8e-05
7.8e-05
7.8e-05
7.8e-05
7.8e-05
7.8e-05
7.8e-05
7.8e-05
7.8e-05
7.8e-05
7.8e-05
7.8e-05
7.8e-05
7.8e-05
7.8e-05
7.8e-05
7.8e-05
7.8e-05
7.8e-05
7.8e-05
7.8e-05
7.8e-05
7.8e-05
7.8e-05
7.8e-05
7.8e-05
7.8e-05
7.8e-05
7.8e-05
7.8e-05
7.8e-05
7.8e-05
7.8e-05
7.8e-05
7.8e-05
7.8e-05
7.8e-05
7.8e-05
7.8e-05
7.8e-05
7.8e-05
7.8e-05
7.8e-05
7.8e-05
7.8e-05
7.8e-05
7.8e-05
7.8e-05
7.8e-05
7.8e-05
7.8e-05
7.8e-05
7.8e-05
7.8e-05
7.8e-05
7.8e-05
7.8e-05
7.8e-05
7.8e-05
7.8e-05
7.8e-05
7.8e-05
7.8e-05
7.8e-05
7.8e-05
7.8e-05
7.8e-05
7.8e-05
7.8e-05
7.8e-05
7.8e-05
7.8e-05
7.8e-05
7.8e-05
7.8e-05
7.8e-05
7.8e-05
7.8e-05
7.8e-05
7.8e-05
7.8e-05
7.8e-05
7.8e-05
7.8e-05
7.8e-05
7.8e-05
7.8e-05
7.8e-05
7.8e-05
7.8e-05
7.8e-05
7.8e-05
7.8e-05
7.8e-05
7.8e-05
7.8e-05
7.8e-05
7.8e-05
7.8e-05
7.8e-05
7.8e-05
7.8e-05
7.8e-05
7.8e-05
7.8e-05
7.8e-05
7.8e-05
7.8e-05
7.8e-05
7.8e-05
7.8e-05
7.8e-05
7.8e-05
7.8e-05
7.8e-05
7.8e-05
7.8e-05
7.8e-05
7.8e-05
7.8e-05
7.8e-05
7.8e-05
7.8e-05
7.8e-05
7.8e-05
7.8e-05
7.8e-05
7.8e-05
7.8e-05
7.8e-05
7.8e-05
7.8e-05
7.8e-05
7.8e-05
7.8e-05
7.8e-05
7.8e-05
7.8e-05
7.8e-05
7.8e-05
7.8e-05
7.8e-05
7.8e-05
7.8e-05
7.8e-05
7.8e-05
7.8e-05
7.8e-05
7.8e-05
7.8e-05
7.8e-05
7.8e-05
7.8e-05
7.8e-05
7.8e-05
7.8e-05
7.8e-05
7.8e-05
7.8e-05
7.8e-05
7.8e-05
7.8e-05
7.8e-05
7.8e-05
7.8e-05
7.8e-05
7.8e-05
7.8e-05
7.8e-05
7.8e-05
7.8e-05
7.8e-05
7.8e-05
7.8e-05
7.8e-05
7.8e-05
7.8e-05
7.8e-05
7.8e-05
7.8e-05
7.8e-05
7.8e-05
7.8e-05
7.8e-05
7.8e-05
7.8e-05
7.8e-05
7.8e-05
7.8e-05
7.8e-05
7.8e-05
7.8e-05
7.8e-05
7.8e-05
7.8e-05
7.8e-05
7.8e-05
7.8e-05
7.8e-05
7.8e-05
7.8e-05
7.8e-05
7.8e-05
7.8e-05
7.8e-05
7.8e-05
7.8e-05
7.8e-05
7.8e-05
7.8e-05
7.8e-05
7.8e-05
7.8e-05
7.8e-05
7.8e-05
7.8e-05
7.8e-05
7.8e-05
7.8e-05
7.8e-05
7.8e-05
7.8e-05
7.8e-05
7.8e-05
7.8e-05
7.8e-05
7.8e-05
7.8e-05
7.8e-05
7.8e-05
7.8e-05
7.8e-05
7.8e-05
7.8e-05
7.8e-05
7.8e-05
7.8e-05
7.8e-05
7.8e-05
7.8e-05
7.8e-05
7.8e-05
7.8e-05
7.8e-05
7.8e-05
7.8e-05
7.8e-05
7.8e-05
7.8e-05
7.8e-05
7.8e-05
7.8e-05
7.8e-05
7.8e-05
7.8e-05
7.8e-05
7.8e-05
7.8e-05
7.8e-05
7.8e-05
7.8e-05
7.8e-05
7.8e-05
7.8e-05
7.8e-05
7.8e-05
7.8e-05
7.8e-05
7.8e-05
7.8e-05
7.8e-05
7.8e-05
7.8e-05
7.8e-05
7.8e-05
7.8e-05
7.8e-05
7.8e-05
7.8e-05
7.8e-05
7.8e-05
7.8e-05
7.8e-05
7.8e-05
7.8e-05
7.8e-05
7.8e-05
7.8e-05
7.8e-05
7.8e-05
7.8e-05
7.8e-05
7.8e-05
7.8e-05
7.8e-05
7.8e-05
7.8e-05
7.8e-05
7.8e-05
7.8e-05
7.8e-05
7.8e-05
7.8e-05
7.8e-05
7.8e-05
7.8e-05
7.8e-05
7.8e-05
7.8e-05
7.8e-05
7.8e-05
7.8e-05
7.8e-05
7.8e-05
7.8e-05
7.8e-05
7.8e-05
7.8e-05
7.8e-05
7.8e-05
7.8e-05
7.8e-05
7.8e-05
7.8e-05
7.8e-05
7.8e-05
7.8e-05
7.8e-05
7.8e-05
7.8e-05
7.8e-05
7.8e-05
7.8e-05
7.8e-05
7.8e-05
7.8e-05
7.8e-05
7.8e-05
7.8e-05
7.8e-05
7.8e-05
7.8e-05
7.8e-05
7.8e-05
7.8e-05
7.8e-05
7.8e-05
7.8e-05
7.8e-05
7.8e-05
7.8e-05
7.8e-05
7.8e-05
7.8e-05
7.8e-05
7.8e-05
7.8e-05
7.8e-05
7.8e-05
7.8e-05
7.8e-05
7.8e-05
7.8e-05
7.8e-05
7.8e-05
7.8e-05
7.8e-05
7.8e-05
7.8e-05
7.8e-05
7.8e-05
7.8e-05
7.8e-05
7.8e-05
7.8e-05
7.8e-05
7.8e-05
7.8e-05
7.8e-05
7.8e-05
7.8e-05
7.8e-05
7.8e-05
7.8e-05
7.8e-05
7.8e-05
7.8e-05
7.8e-05
7.8e-05
7.8e-05
7.8e-05
7.8e-05
7.8e-05
7.8e-05
7.8e-05
7.8e-05
7.8e-05
7.8e-05
7.8e-05
7.8e-05
7.8e-05
7.8e-05
7.8e-05
7.8e-05
7.8e-05
7.8e-05
7.8e-05
7.8e-05
7.8e-05
7.8e-05
7.8e-05
7.8e-05
7.8e-05
7.8e-05
7.8e-05
7.8e-05
7.8e-05
7.8e-05
7.8e-05
7.8e-05
7.8e-05
7.8e-05
7.8e-05
7.8e-05
7.8e-05
7.8e-05
7.8e-05
7.8e-05
7.8e-05
7.8e-05
7.8e-05
7.8e-05
7.8e-05
7.8e-05
7.8e-05
7.8e-05
7.8e-05
7.8e-05
7.8e-05
7.8e-05
7.8e-05
7.8e-05
7.8e-05
7.8e-05
7.8e-05
7.8e-05
7.8e-05
7.8e-05
7.8e-05
7.8e-05
7.8e-05
7.8e-05
7.8e-05
7.8e-05
7.8e-05
7.8e-05
7.8e-05
7.8e-05
7.8e-05
7.8e-05
7.8e-05
7.8e-05
7.8e-05
7.8e-05
7.8e-05
7.8e-05
7.8e-05
7.8e-05
7.8e-05
7.8e-05
7.8e-05
7.8e-05
7.8e-05
7.8e-05
7.8e-05
7.8e-05
7.8e-05
7.8e-05
7.8e-05
7.8e-05
7.8e-05
7.8e-05
7.8e-05
7.8e-05
7.8e-05
7.8e-05
7.8e-05
7.8e-05
7.8e-05
7.8e-05
7.8e-05
7.8e-05
7.8e-05
7.8e-05
7.8e-05
7.8e-05
7.8e-05
7.8e-05
7.8e-05
7.8e-05
7.8e-05
7.8e-05
7.8e-05
7.8e-05
7.8e-05
7.8e-05
7.8e-05
7.8e-05
7.8e-05
7.8e-05
7.8e-05
7.8e-05
7.8e-05
7.8e-05
7.8e-05
7.8e-05
7.8e-05
7.8e-05
7.8e-05
7.8e-05
7.8e-05
7.8e-05
7.8e-05
7.8e-05
7.8e-05
7.8e-05
7.8e-05
7.8e-05
7.8e-05
7.8e-05
7.8e-05
7.8e-05
7.8e-05
7.8e-05
7.8e-05
7.8e-05
7.8e-05
7.8e-05
7.8e-05
7.8e-05
7.8e-05
7.8e-05
7.8e-05
7.8e-05
7.8e-05
7.8e-05
7.8e-05
7.8e-05
7.8e-05
7.8e-05
7.8e-05
7.8e-05
7.8e-05
7.8e-05
7.8e-05
7.8e-05
7.8e-05
7.8e-05
7.8e-05
7.8e-05
7.8e-05
7.8e-05
7.8e-05
7.8e-05
7.8e-05
7.8e-05
7.8e-05
7.8e-05
7.8e-05
7.8e-05
7.8e-05
7.8e-05
7.8e-05
7.8e-05
7.8e-05
7.8e-05
7.8e-05
7.8e-05
7.8e-05
7.8e-05
7.8e-05
7.8e-05
7.8e-05
7.8e-05
7.8e-05
7.8e-05
7.8e-05
7.8e-05
7.8e-05
7.8e-05
7.8e-05
7.8e-05
7.8e-05
7.8e-05
7.8e-05
7.8e-05
7.8e-05
7.8e-05
7.8e-05
7.8e-05
7.8e-05
7.8e-05
7.8e-05
7.8e-05
7.8e-05
7.8e-05
7.8e-05
7.8e-05
7.8e-05
7.8e-05
7.8e-05
7.8e-05
7.8e-05
7.8e-05
7.8e-05
7.8e-05
7.8e-05
7.8e-05
7.8e-05
7.8e-05
7.8e-05
7.8e-05
7.8e-05
7.8e-05
7.8e-05
7.8e-05
7.8e-05
7.8e-05
7.8e-05
7.8e-05
7.8e-05
7.8e-05
7.8e-05
7.8e-05
7.8e-05
7.8e-05
7.8e-05
7.8e-05
7.8e-05
7.8e-05
7.8e-05
7.8e-05
7.8e-05
7.8e-05
7.8e-05
7.8e-05
7.8e-05
7.8e-05
7.8e-05
7.8e-05
7.8e-05
7.8e-05
7.8e-05
7.8e-05
7.8e-05
7.8e-05
7.8e-05
7.8e-05
7.8e-05
7.8e-05
7.8e-05
7.8e-05
7.8e-05
7.8e-05
7.8e-05
7.8e-05
7.8e-05
7.8e-05
7.8e-05
7.8e-05
7.8e-05
7.8e-05
7.8e-05
7.8e-05
7.8e-05
7.8e-05
7.8e-05
7.8e-05
7.8e-05
7.8e-05
7.8e-05
7.8e-05
7.8e-05
7.8e-05
7.8e-05
7.8e-05
7.8e-05
7.8e-05
7.8e-05
7.8e-05
7.8e-05
7.8e-05
7.8e-05
7.8e-05
7.8e-05
7.8e-05
7.8e-05
7.8e-05
7.8e-05
7.8e-05
7.8e-05
7.8e-05
7.8e-05
7.8e-05
7.8e-05
7.8e-05
7.8e-05
7.8e-05
7.8e-05
7.8e-05
7.8e-05
7.8e-05
7.8e-05
7.8e-05
7.8e-05
7.8e-05
7.8e-05
7.8e-05
7.8e-05
7.8e-05
7.8e-05
7.8e-05
7.8e-05
7.8e-05
7.8e-05
7.8e-05
7.8e-05
7.8e-05
7.8e-05
7.8e-05
7.8e-05
7.8e-05
7.8e-05
7.8e-05
7.8e-05
7.8e-05
7.8e-05
7.8e-05
7.8e-05
7.8e-05
7.8e-05
7.8e-05
7.8e-05
7.8e-05
7.8e-05
7.8e-05
7.8e-05
7.8e-05
7.8e-05
7.8e-05
7.8e-05
7.8e-05
7.8e-05
7.8e-05
7.8e-05
7.8e-05
7.8e-05
7.8e-05
7.8e-05
7.8e-05
7.8e-05
7.8e-05
7.8e-05
7.8e-05
7.8e-05
7.8e-05
7.8e-05
7.8e-05
7.8e-05
7.8e-05
7.8e-05
7.8e-05
7.8e-05
7.8e-05
7.8e-05
7.8e-05
7.8e-05
7.8e-05
7.8e-05
7.8e-05
7.8e-05
7.8e-05
7.8e-05
7.8e-05
7.8e-05
7.8e-05
7.8e-05
7.8e-05
7.8e-05
7.8e-05
7.8e-05
7.8e-05
7.8e-05
7.8e-05
7.8e-05
7.8e-05
7.8e-05
7.8e-05
7.8e-05
7.8e-05
7.8e-05
7.8e-05
7.8e-05
7.8e-05
7.8e-05
7.8e-05
7.8e-05
7.8e-05
7.8e-05
7.8e-05
7.8e-05
7.8e-05
7.8e-05
7.8e-05
7.8e-05
7.8e-05
7.8e-05
7.8e-05
7.8e-05
7.8e-05
7.8e-05
7.8e-05
7.8e-05
7.8e-05
7.8e-05
7.8e-05
7.8e-05
7.8e-05
7.8e-05
7.8e-05
7.8e-05
7.8e-05
7.8e-05
7.8e-05
7.8e-05
7.8e-05
7.8e-05
7.8e-05
7.8e-05
7.8e-05
7.8e-05
7.8e-05
7.8e-05
7.8e-05
7.8e-05
7.8e-05
7.8e-05
7.8e-05
7.8e-05
7.8e-05
7.8e-05
7.8e-05
7.8e-05
7.8e-05
7.8e-05
7.8e-05
7.8e-05
7.8e-05
7.8e-05
7.8e-05
7.8e-05
7.8e-05
7.8e-05
7.8e-05
7.8e-05
7.8e-05
7.8e-05
7.8e-05
7.8e-05
7.8e-05
7.8e-05
7.8e-05
7.8e-05
7.8e-05
7.8e-05
7.8e-05
7.8e-05
7.8e-05
7.8e-05
7.8e-05
7.8e-05
7.8e-05
7.8e-05
7.8e-05
7.8e-05
7.8e-05
7.8e-05
7.8e-05
7.8e-05
7.8e-05
7.8e-05
7.8e-05
7.8e-05
7.8e-05
7.8e-05
7.8e-05
7.8e-05
7.8e-05
7.8e-05
7.8e-05
7.8e-05
7.8e-05
7.8e-05
7.8e-05
7.8e-05
7.8e-05
7.8e-05
7.8e-05
7.8e-05
7.8e-05
7.8e-05
7.8e-05
7.8e-05
7.8e-05
7.8e-05
7.8e-05
7.8e-05
7.8e-05
7.8e-05
7.8e-05
7.8e-05
7.8e-05
7.8e-05
7.8e-05
7.8e-05
7.8e-05
7.8e-05
7.8e-05
7.8e-05
7.8e-05
7.8e-05
7.8e-05
7.8e-05
7.8e-05
7.8e-05
7.8e-05
7.8e-05
7.8e-05
7.8e-05
7.8e-05
7.8e-05
7.8e-05
7.8e-05
7.8e-05
7.8e-05
7.8e-05
7.8e-05
7.8e-05
7.8e-05
7.8e-05
7.8e-05
7.8e-05
7.8e-05
7.8e-05
7.8e-05
7.8e-05
7.8e-05
7.8e-05
7.8e-05
7.8e-05
7.8e-05
7.8e-05
7.8e-05
7.8e-05
7.8e-05
7.8e-05
7.8e-05
7.8e-05
7.8e-05
7.8e-05
7.8e-05
7.8e-05
7.8e-05
7.8e-05
7.8e-05
7.8e-05
7.8e-05
7.8e-05
7.8e-05
7.8e-05
7.8e-05
7.8e-05
7.8e-05
7.8e-05
7.8e-05
7.8e-05
7.8e-05
7.8e-05
7.8e-05
7.8e-05
7.8e-05
7.8e-05
7.8e-05
7.8e-05
7.8e-05
7.8e-05
7.8e-05
7.8e-05
7.8e-05
7.8e-05
7.8e-05
7.8e-05
7.8e-05
7.8e-05
7.8e-05
7.8e-05
7.8e-05
7.8e-05
7.8e-05
7.8e-05
7.8e-05
7.8e-05
7.8e-05
7.8e-05
7.8e-05
7.8e-05
7.8e-05
7.8e-05
7.8e-05
7.8e-05
7.8e-05
7.8e-05
7.8e-05
7.8e-05
7.8e-05
7.8e-05
7.8e-05
7.8e-05
7.8e-05
7.8e-05
7.8e-05
7.8e-05
7.8e-05
7.8e-05
7.8e-05
7.8e-05
7.8e-05
7.8e-05
7.8e-05
7.8e-05
7.8e-05
7.8e-05
7.8e-05
7.8e-05
7.8e-05
7.8e-05
7.8e-05
7.8e-05
7.8e-05
7.8e-05
7.8e-05
7.8e-05
7.8e-05
7.8e-05
7.8e-05
7.8e-05
7.8e-05
7.8e-05
7.8e-05
7.8e-05
7.8e-05
7.8e-05
7.8e-05
7.8e-05
7.8e-05
7.8e-05
7.8e-05
7.8e-05
7.8e-05
7.8e-05
7.8e-05
7.8e-05
7.8e-05
7.8e-05
7.8e-05
7.8e-05
7.8e-05
7.8e-05
7.8e-05
7.8e-05
7.8e-05
7.8e-05
7.8e-05
7.8e-05
7.8e-05
7.8e-05
7.8e-05
7.8e-05
7.8e-05
7.8e-05
7.8e-05
7.8e-05
7.8e-05
7.8e-05
7.8e-05
7.8e-05
7.8e-05
7.8e-05
7.8e-05
7.8e-05
7.8e-05
7.8e-05
7.8e-05
7.8e-05
7.8e-05
7.8e-05
7.8e-05
7.8e-05
7.8e-05
7.8e-05
7.8e-05
7.8e-05
7.8e-05
7.8e-05
7.8e-05
7.8e-05
7.8e-05
7.8e-05
7.8e-05
7.8e-05
7.8e-05
7.8e-05
7.8e-05
7.8e-05
7.8e-05
7.8e-05
7.8e-05
7.8e-05
7.8e-05
7.8e-05
7.8e-05
7.8e-05
7.8e-05
7.8e-05
7.8e-05
7.8e-05
7.8e-05
7.8e-05
7.8e-05
7.8e-05
7.8e-05
7.8e-05
7.8e-05
7.8e-05
7.8e-05
7.8e-05
7.8e-05
7.8e-05
7.8e-05
7.8e-05
7.8e-05
7.8e-05
7.8e-05
7.8e-05
7.8e-05
7.8e-05
7.8e-05
7.8e-05
7.8e-05
7.8e-05
7.8e-05
7.8e-05
7.8e-05
7.8e-05
7.8e-05
7.8e-05
7.8e-05
7.8e-05
7.8e-05
7.8e-05
7.8e-05
7.8e-05
7.8e-05
7.8e-05
7.8e-05
7.8e-05
7.8e-05
7.8e-05
7.8e-05
7.8e-05
7.8e-05
7.8e-05
7.8e-05
7.8e-05
7.8e-05
7.8e-05
7.8e-05
7.8e-05
7.8e-05
7.8e-05
7.8e-05
7.8e-05
7.8e-05
7.8e-05
7.8e-05
7.8e-05
7.8e-05
7.8e-05
7.8e-05
7.8e-05
7.8e-05
7.8e-05
7.8e-05
7.8e-05
7.8e-05
7.8e-05
7.8e-05
7.8e-05
7.8e-05
7.8e-05
7.8e-05
7.8e-05
7.8e-05
7.8e-05
7.8e-05
7.8e-05
7.8e-05
7.8e-05
7.8e-05
7.8e-05
7.8e-05
7.8e-05
7.8e-05
7.8e-05
7.8e-05
7.8e-05
7.8e-05
7.8e-05
7.8e-05
7.8e-05
7.8e-05
7.8e-05
7.8e-05
7.8e-05
7.8e-05
7.8e-05