/*--------------------------------*- C++ -*----------------------------------*\
| =========                 |                                                 |
| \\      /  F ield         | OpenFOAM: The Open Source CFD Toolbox           |
|  \\    /   O peration     | Version:  2406                                  |
|   \\  /    A nd           | Website:  www.openfoam.com                      |
|    \\/     M anipulation  |                                                 |
\*---------------------------------------------------------------------------*/
FoamFile
{
    version     2.0;
    format      ascii;
    arch        "LSB;label=32;scalar=64";
    class       volScalarField;
    location    "8.55";
    object      C_0_0;
}
// * * * * * * * * * * * * * * * * * * * * * * * * * * * * * * * * * * * * * //

dimensions      [1 -3 0 0 0 0 0];

internalField   nonuniform List<scalar> 
14400
(
0.219754
0.21888
0.217341
0.215455
0.213557
0.211938
0.210816
0.210326
0.210519
0.211363
0.212733
0.214415
0.216096
0.217381
0.217831
0.217066
0.214942
0.211713
0.207838
0.203822
0.200119
0.197115
0.195131
0.194447
0.19532
0.198005
0.202761
0.209859
0.219579
0.232215
0.24807
0.267465
0.290731
0.318201
0.35018
0.386871
0.428168
0.472565
0.507585
0.530916
0.549698
0.565758
0.579326
0.590579
0.599654
0.606654
0.611657
0.614715
0.615867
0.615129
0.612502
0.607971
0.601504
0.593048
0.582532
0.569857
0.554898
0.53749
0.517418
0.49171
0.454338
0.409605
0.368366
0.331912
0.300247
0.273108
0.250158
0.231045
0.215424
0.202959
0.193323
0.186202
0.1813
0.178365
0.177194
0.177644
0.179624
0.183085
0.188014
0.194421
0.202324
0.21172
0.222559
0.234687
0.24776
0.261021
0.272532
0.278724
0.277727
0.271384
0.262692
0.253631
0.244981
0.237147
0.230347
0.224678
0.220148
0.2167
0.214226
0.212576
0.21158
0.211061
0.210866
0.210895
0.211123
0.211616
0.212516
0.214018
0.216338
0.219693
0.224283
0.230274
0.237788
0.246888
0.257558
0.269668
0.28291
0.29664
0.309424
0.3172
0.225588
0.224493
0.222609
0.220354
0.218127
0.216254
0.21497
0.214415
0.214646
0.215629
0.217241
0.21926
0.221356
0.223085
0.223903
0.223256
0.220854
0.217127
0.212707
0.208193
0.204078
0.200758
0.198551
0.197731
0.198546
0.201245
0.206078
0.21331
0.223216
0.236085
0.252223
0.271948
0.295596
0.323497
0.35595
0.393115
0.434708
0.478656
0.511821
0.533937
0.55242
0.568249
0.58164
0.592758
0.60173
0.608652
0.613599
0.616623
0.617756
0.617017
0.614406
0.609908
0.603492
0.595109
0.584689
0.572142
0.557348
0.540153
0.52036
0.496056
0.460248
0.415499
0.373918
0.337014
0.304888
0.277315
0.253966
0.234493
0.218547
0.205794
0.195909
0.188581
0.183522
0.180481
0.17926
0.179715
0.181754
0.185331
0.190437
0.197083
0.205293
0.215071
0.226373
0.239056
0.252796
0.26684
0.278806
0.284724
0.284425
0.278025
0.268852
0.259307
0.250232
0.242047
0.234972
0.229106
0.224455
0.22096
0.218503
0.216923
0.216029
0.215618
0.215506
0.215566
0.215765
0.216181
0.216983
0.218396
0.220662
0.224018
0.228673
0.234802
0.24253
0.251925
0.262975
0.275562
0.289387
0.303772
0.316779
0.323588
0.237768
0.236149
0.233493
0.230443
0.227527
0.225132
0.223516
0.222831
0.223134
0.224395
0.22649
0.229195
0.232154
0.234849
0.236537
0.236241
0.23313
0.228266
0.222677
0.217133
0.212181
0.208223
0.205567
0.204469
0.205162
0.207879
0.212856
0.220344
0.230611
0.243939
0.260632
0.281012
0.305413
0.334169
0.367567
0.405726
0.448075
0.489958
0.519272
0.539906
0.557796
0.573178
0.586228
0.597083
0.605853
0.612626
0.617466
0.62042
0.621519
0.620777
0.618197
0.613763
0.607448
0.599206
0.588975
0.576674
0.562197
0.545413
0.526152
0.503822
0.471358
0.427372
0.385149
0.347317
0.314262
0.285823
0.261685
0.241498
0.224913
0.211594
0.201219
0.193486
0.188117
0.184869
0.183548
0.184011
0.18617
0.189982
0.195442
0.202569
0.211392
0.221924
0.23413
0.247876
0.262837
0.278182
0.290577
0.29602
0.296588
0.291053
0.281214
0.270783
0.26089
0.252022
0.244416
0.238172
0.233296
0.229723
0.227322
0.225907
0.225248
0.225083
0.225161
0.225292
0.225421
0.225654
0.226227
0.22743
0.229561
0.232893
0.237658
0.244044
0.252181
0.262143
0.273923
0.287402
0.302276
0.317737
0.330361
0.335367
0.257292
0.254619
0.250578
0.246205
0.242193
0.238987
0.236862
0.235974
0.236381
0.238055
0.240875
0.244621
0.248933
0.25324
0.256588
0.257247
0.252537
0.245616
0.238114
0.230967
0.224744
0.219826
0.21649
0.214965
0.215461
0.218185
0.223355
0.231206
0.241994
0.255993
0.273503
0.294846
0.320356
0.350355
0.385094
0.424587
0.467799
0.504572
0.52905
0.548595
0.565678
0.580441
0.59301
0.603491
0.611975
0.618533
0.623218
0.626072
0.627121
0.626377
0.623841
0.6195
0.61333
0.605291
0.595331
0.583381
0.569355
0.553151
0.53465
0.513733
0.4861
0.445695
0.402262
0.362974
0.328533
0.298812
0.273507
0.252269
0.234746
0.2206
0.209515
0.201196
0.195377
0.191827
0.190361
0.190841
0.193184
0.197351
0.203343
0.211186
0.220916
0.232555
0.246074
0.261332
0.277935
0.294701
0.30667
0.31166
0.31294
0.309791
0.299862
0.288262
0.277216
0.267376
0.259013
0.252239
0.247062
0.243412
0.241144
0.240041
0.239811
0.240101
0.240535
0.240798
0.240784
0.240664
0.240801
0.241608
0.243468
0.246709
0.251595
0.258325
0.267038
0.277805
0.290611
0.305307
0.32147
0.337748
0.348014
0.351517
0.285559
0.280793
0.274487
0.268154
0.262599
0.258283
0.255469
0.254305
0.254846
0.25706
0.260834
0.265959
0.272095
0.278689
0.284709
0.287114
0.2796
0.269526
0.259339
0.250037
0.242134
0.235948
0.231708
0.229605
0.229815
0.232522
0.237921
0.246228
0.257684
0.272553
0.291129
0.31373
0.34068
0.372272
0.408637
0.449298
0.49109
0.520583
0.541392
0.559744
0.575882
0.589898
0.601878
0.611898
0.620024
0.626311
0.630802
0.63353
0.634515
0.633768
0.631289
0.627067
0.62108
0.613298
0.603677
0.592164
0.578691
0.563185
0.545562
0.525729
0.502524
0.468542
0.424875
0.384061
0.347909
0.316539
0.289713
0.267101
0.248357
0.233143
0.221148
0.212083
0.205695
0.201767
0.200123
0.200638
0.203232
0.207874
0.21457
0.223353
0.234265
0.247332
0.262528
0.279696
0.298297
0.316035
0.326055
0.330809
0.33268
0.331724
0.324383
0.311854
0.299489
0.288464
0.279167
0.271741
0.266216
0.262529
0.260523
0.259949
0.260441
0.261513
0.262589
0.263089
0.2628
0.262027
0.2614
0.261525
0.262906
0.265936
0.270912
0.278044
0.287469
0.299245
0.313321
0.329458
0.346911
0.361918
0.36842
0.371064
0.323252
0.315039
0.305536
0.296639
0.289135
0.283437
0.279767
0.278258
0.278961
0.281835
0.286761
0.293535
0.301792
0.310868
0.318859
0.319521
0.31314
0.299765
0.286456
0.274615
0.264707
0.256988
0.251636
0.248806
0.248643
0.251304
0.256961
0.265809
0.278073
0.294004
0.313883
0.338015
0.366706
0.400203
0.438491
0.480264
0.514372
0.537005
0.556044
0.573105
0.588208
0.601392
0.612706
0.622198
0.629911
0.635885
0.64015
0.642731
0.643642
0.642892
0.64048
0.636397
0.630627
0.623144
0.613916
0.602904
0.590061
0.575338
0.558683
0.540054
0.519433
0.492711
0.45303
0.410814
0.372691
0.339338
0.310657
0.286364
0.26613
0.249622
0.236531
0.22658
0.219524
0.215158
0.213321
0.213895
0.216813
0.222049
0.229613
0.239543
0.251883
0.266659
0.283828
0.303151
0.323705
0.340268
0.348091
0.352834
0.355204
0.355331
0.352192
0.34137
0.327914
0.315631
0.305288
0.297121
0.291228
0.287572
0.286005
0.286255
0.287891
0.290258
0.292493
0.293431
0.292611
0.29065
0.288748
0.287781
0.288397
0.291049
0.296055
0.303621
0.313865
0.326815
0.342324
0.359844
0.377474
0.387188
0.391196
0.393254
0.360456
0.355324
0.343305
0.331713
0.322038
0.314779
0.310117
0.308208
0.309103
0.312747
0.318975
0.327563
0.337952
0.348686
0.352891
0.351234
0.347674
0.335265
0.319347
0.304907
0.292806
0.283345
0.276702
0.27301
0.272393
0.274982
0.280928
0.290406
0.30362
0.320802
0.342207
0.36811
0.398761
0.434233
0.473829
0.511252
0.536128
0.555222
0.572675
0.588426
0.602452
0.614757
0.625357
0.634276
0.641538
0.647167
0.651183
0.6536
0.65443
0.653678
0.651342
0.647415
0.641885
0.634735
0.62594
0.615476
0.603312
0.589421
0.573778
0.55637
0.537202
0.515895
0.485292
0.44321
0.403187
0.367596
0.336754
0.31049
0.288507
0.270485
0.256124
0.245154
0.23734
0.232489
0.230451
0.231121
0.234439
0.240384
0.248973
0.260243
0.274236
0.290962
0.310319
0.331819
0.353263
0.365861
0.372554
0.37723
0.379972
0.380908
0.380261
0.37513
0.362349
0.349108
0.337742
0.328776
0.322511
0.318974
0.318051
0.319475
0.322801
0.327176
0.331528
0.333275
0.331452
0.327342
0.323458
0.320884
0.320395
0.322466
0.327426
0.33544
0.346575
0.36081
0.377788
0.396031
0.407853
0.412755
0.41589
0.417502
0.393842
0.393012
0.386238
0.373078
0.361362
0.352545
0.346797
0.344444
0.345568
0.350081
0.357661
0.368043
0.379745
0.386097
0.385883
0.384157
0.381517
0.374339
0.357856
0.341147
0.326797
0.315443
0.307353
0.302682
0.301542
0.304045
0.310321
0.320525
0.334837
0.35346
0.376598
0.404464
0.437179
0.474297
0.512763
0.539116
0.557763
0.575078
0.591008
0.60547
0.618417
0.629826
0.639689
0.648011
0.654798
0.660063
0.663813
0.666057
0.666802
0.666047
0.663794
0.660036
0.654765
0.647969
0.639634
0.629746
0.61829
0.605256
0.590638
0.574444
0.556699
0.537445
0.514884
0.481067
0.439683
0.401699
0.368451
0.33996
0.315985
0.296234
0.280425
0.268301
0.259641
0.25426
0.252018
0.252821
0.256616
0.263389
0.273157
0.285953
0.301799
0.320665
0.342334
0.365774
0.384048
0.392767
0.398995
0.403562
0.406545
0.408067
0.408319
0.407496
0.401523
0.388746
0.37675
0.366969
0.360362
0.357026
0.356937
0.359841
0.365414
0.372336
0.380075
0.382934
0.379682
0.372225
0.365762
0.361096
0.359192
0.360481
0.36533
0.373787
0.385769
0.401163
0.418686
0.430684
0.436207
0.439676
0.442108
0.443361
0.427385
0.427192
0.425981
0.419284
0.406712
0.396817
0.389911
0.387101
0.388484
0.393958
0.402589
0.413874
0.420267
0.420926
0.419713
0.417989
0.415626
0.41236
0.401669
0.383585
0.367066
0.353719
0.344056
0.338311
0.336598
0.339016
0.345676
0.35671
0.372275
0.392528
0.417565
0.447464
0.482118
0.51946
0.545914
0.563923
0.58065
0.596318
0.610809
0.62403
0.63592
0.646439
0.655563
0.663279
0.669583
0.674472
0.677949
0.680015
0.680671
0.679917
0.677751
0.67417
0.669169
0.662741
0.654882
0.645585
0.634848
0.622674
0.609074
0.59407
0.577703
0.560031
0.541139
0.517196
0.48129
0.44178
0.406154
0.375281
0.349106
0.327417
0.30998
0.296562
0.286958
0.280996
0.278545
0.279516
0.283867
0.291586
0.302689
0.317189
0.335057
0.356126
0.379732
0.402316
0.414298
0.421373
0.427099
0.43148
0.434576
0.436498
0.437407
0.437517
0.436941
0.431737
0.421752
0.411512
0.404769
0.401691
0.402558
0.406888
0.414724
0.422227
0.426071
0.427285
0.426261
0.422484
0.414764
0.408117
0.404744
0.405076
0.409811
0.418664
0.430993
0.44638
0.456659
0.46175
0.464986
0.467635
0.469505
0.470472
0.461124
0.461095
0.461111
0.460416
0.455472
0.446902
0.438981
0.435892
0.437437
0.443759
0.451758
0.456243
0.456564
0.455369
0.454057
0.452459
0.450473
0.448051
0.443813
0.431448
0.413777
0.398536
0.387245
0.380386
0.378082
0.380433
0.387544
0.399512
0.416466
0.438519
0.46546
0.49695
0.531842
0.556793
0.573802
0.589566
0.604593
0.618737
0.631878
0.643921
0.654795
0.664448
0.672845
0.679961
0.68578
0.690294
0.693496
0.695382
0.69595
0.695197
0.693123
0.689724
0.684999
0.678946
0.671567
0.662863
0.652842
0.641518
0.628912
0.615061
0.600013
0.583837
0.566627
0.548491
0.523912
0.487406
0.450153
0.416962
0.38845
0.364629
0.345381
0.33052
0.319867
0.313265
0.31059
0.311763
0.316744
0.325526
0.338113
0.354488
0.374505
0.397691
0.422158
0.43742
0.445007
0.451326
0.456547
0.460682
0.463782
0.465942
0.467294
0.468022
0.468352
0.468502
0.465526
0.460313
0.45452
0.451729
0.453534
0.457889
0.461658
0.463813
0.463586
0.463563
0.464417
0.46513
0.463305
0.459827
0.455909
0.45521
0.459909
0.468836
0.47844
0.485685
0.48926
0.49191
0.494354
0.496372
0.497806
0.49855
0.494891
0.494954
0.495136
0.495553
0.496088
0.493941
0.490917
0.488923
0.489741
0.491931
0.49356
0.492556
0.491162
0.489928
0.488686
0.487316
0.485755
0.483992
0.482076
0.477582
0.46598
0.449936
0.437178
0.429318
0.426461
0.42878
0.436426
0.449392
0.467755
0.491677
0.519819
0.550057
0.572148
0.587416
0.601887
0.615946
0.629419
0.642159
0.654046
0.664982
0.674891
0.683714
0.691407
0.697938
0.703284
0.707428
0.710358
0.712067
0.712549
0.7118
0.709819
0.706604
0.702156
0.696478
0.689576
0.681458
0.67214
0.661642
0.649997
0.637247
0.62345
0.608679
0.593028
0.576611
0.559521
0.5354
0.500151
0.46538
0.434581
0.408471
0.387246
0.370793
0.358985
0.351678
0.348758
0.350154
0.355829
0.365775
0.379963
0.398327
0.420432
0.444739
0.461995
0.470371
0.476803
0.482378
0.48708
0.490918
0.49393
0.496191
0.497808
0.498923
0.499716
0.5004
0.501231
0.501065
0.49958
0.498598
0.498951
0.499734
0.499268
0.498317
0.497982
0.498178
0.498988
0.500369
0.502454
0.503548
0.503806
0.505062
0.508299
0.51269
0.51648
0.518284
0.520256
0.522277
0.524146
0.525695
0.526798
0.527371
0.528594
0.528694
0.528927
0.529359
0.530075
0.531195
0.531922
0.531644
0.531308
0.530165
0.528318
0.526836
0.525598
0.524497
0.523441
0.522365
0.521241
0.520085
0.518968
0.518019
0.51478
0.50643
0.493396
0.485211
0.481942
0.484266
0.492565
0.506457
0.525677
0.550718
0.573607
0.591604
0.604623
0.617552
0.630382
0.642913
0.654977
0.666434
0.677163
0.687069
0.696072
0.704109
0.711132
0.717101
0.721989
0.725775
0.728442
0.729979
0.730379
0.729636
0.727749
0.724717
0.720544
0.715235
0.7088
0.701254
0.692616
0.682915
0.672187
0.660482
0.64786
0.6344
0.620194
0.605356
0.590011
0.574247
0.551844
0.520011
0.487819
0.459427
0.436167
0.417996
0.404941
0.396865
0.393671
0.395296
0.401701
0.412868
0.42865
0.448875
0.471849
0.489111
0.497934
0.50398
0.509458
0.514302
0.518477
0.521979
0.52483
0.527085
0.528822
0.530147
0.531188
0.532082
0.532954
0.533843
0.534716
0.534966
0.534327
0.533279
0.53246
0.531948
0.531846
0.53218
0.532986
0.534274
0.536075
0.538375
0.541132
0.54365
0.545522
0.546818
0.548108
0.549599
0.551202
0.552798
0.554257
0.555462
0.55632
0.556765
0.562199
0.5623
0.562519
0.562879
0.563397
0.56404
0.564598
0.564794
0.564199
0.563161
0.561974
0.560873
0.559896
0.559022
0.558218
0.557462
0.556757
0.55614
0.555692
0.555546
0.555907
0.555358
0.551694
0.54667
0.543437
0.545809
0.55488
0.569159
0.585934
0.601486
0.614316
0.625129
0.63637
0.64779
0.659176
0.670346
0.681144
0.691435
0.701105
0.71006
0.718219
0.72552
0.731909
0.737346
0.741798
0.74524
0.747655
0.749028
0.749351
0.748616
0.746823
0.743972
0.740067
0.735118
0.729137
0.722141
0.714156
0.705213
0.695355
0.684632
0.67311
0.660866
0.647994
0.634605
0.620826
0.606802
0.592668
0.573325
0.547067
0.517424
0.492527
0.472601
0.458297
0.449412
0.445903
0.447739
0.454826
0.467167
0.484105
0.504966
0.51997
0.528009
0.533201
0.538155
0.542747
0.546894
0.550548
0.55369
0.556328
0.558495
0.560247
0.561656
0.562808
0.563787
0.564657
0.56543
0.566043
0.566295
0.566116
0.565707
0.565345
0.56517
0.565275
0.565709
0.566501
0.567664
0.569192
0.571039
0.573091
0.575063
0.576735
0.578139
0.57946
0.580804
0.582156
0.583455
0.584622
0.585577
0.586254
0.586604
0.595702
0.59579
0.595969
0.596242
0.596594
0.59697
0.59725
0.597282
0.596932
0.596303
0.595544
0.594787
0.594091
0.593477
0.592946
0.592508
0.592185
0.592026
0.592112
0.592568
0.593561
0.595321
0.597923
0.598992
0.600616
0.604827
0.612149
0.621532
0.631246
0.639571
0.648472
0.658005
0.667938
0.67806
0.688185
0.698152
0.707818
0.717057
0.725763
0.733845
0.741226
0.747841
0.753638
0.758574
0.762615
0.765734
0.76791
0.769129
0.769379
0.768655
0.766955
0.76428
0.760636
0.756033
0.750487
0.744018
0.736653
0.728428
0.719387
0.709582
0.699081
0.68796
0.676313
0.664246
0.651886
0.639376
0.626886
0.614613
0.599545
0.579789
0.555682
0.534477
0.519291
0.509607
0.505726
0.507719
0.515158
0.528139
0.544023
0.554894
0.560703
0.56465
0.568706
0.572693
0.576481
0.57998
0.583131
0.585905
0.588296
0.590321
0.592014
0.593423
0.594601
0.595601
0.596458
0.597178
0.59773
0.598051
0.598136
0.598086
0.598042
0.598113
0.598375
0.598878
0.599647
0.60069
0.60199
0.603499
0.605127
0.606732
0.608207
0.609541
0.610791
0.611999
0.613162
0.614245
0.615199
0.615971
0.616514
0.616795
0.629117
0.629188
0.629327
0.629526
0.629765
0.629997
0.630151
0.63015
0.629945
0.629574
0.629112
0.628639
0.628206
0.627847
0.627583
0.627438
0.627448
0.627665
0.628165
0.62905
0.63045
0.632516
0.635395
0.63924
0.643919
0.648969
0.654335
0.660134
0.666662
0.674
0.681988
0.690482
0.699317
0.708326
0.717354
0.72626
0.734917
0.743212
0.751045
0.758332
0.764998
0.770981
0.776229
0.780698
0.784355
0.78717
0.789123
0.790197
0.790382
0.789671
0.788061
0.785556
0.782163
0.777891
0.772759
0.76679
0.760011
0.75246
0.744181
0.73523
0.72567
0.71558
0.705049
0.694181
0.683096
0.671932
0.66085
0.650039
0.639726
0.629137
0.615634
0.600698
0.586478
0.576202
0.571882
0.573883
0.580236
0.587386
0.593234
0.595872
0.598306
0.601183
0.604281
0.60743
0.610505
0.613413
0.616091
0.618502
0.620631
0.62248
0.624067
0.62542
0.626572
0.627557
0.628395
0.629095
0.629648
0.630042
0.630292
0.630459
0.630624
0.630864
0.631236
0.631781
0.63252
0.633458
0.634578
0.635841
0.637185
0.638532
0.63982
0.641027
0.642164
0.643239
0.644247
0.645165
0.645959
0.646594
0.647037
0.647265
0.662461
0.662517
0.662624
0.662772
0.662942
0.663101
0.663208
0.663223
0.663125
0.662935
0.662693
0.66245
0.662248
0.662121
0.662099
0.662214
0.662505
0.663022
0.663833
0.665018
0.666673
0.668898
0.671779
0.675364
0.679583
0.684275
0.68938
0.694947
0.701073
0.707781
0.714998
0.722619
0.730521
0.738572
0.746644
0.754617
0.762379
0.769828
0.776875
0.783439
0.789453
0.794856
0.799597
0.803635
0.806935
0.809469
0.811214
0.812155
0.812281
0.811584
0.810064
0.807722
0.804567
0.80061
0.79587
0.79037
0.784141
0.777219
0.769649
0.761485
0.752791
0.743642
0.734123
0.724333
0.714384
0.704405
0.694543
0.684963
0.675855
0.667431
0.659966
0.652167
0.643873
0.636952
0.632811
0.631742
0.632569
0.633151
0.633034
0.633906
0.635468
0.637496
0.639803
0.642242
0.644695
0.647075
0.649318
0.651382
0.653245
0.6549
0.656352
0.657617
0.658712
0.659658
0.660471
0.661159
0.661725
0.662176
0.662532
0.662833
0.663132
0.663481
0.663924
0.664489
0.665195
0.666044
0.667022
0.668102
0.669241
0.670391
0.671514
0.672585
0.673597
0.674547
0.675423
0.676208
0.676878
0.677407
0.677775
0.677963
0.695749
0.695794
0.695879
0.695996
0.69613
0.696258
0.696357
0.696407
0.696399
0.696346
0.696275
0.69622
0.696214
0.69629
0.696479
0.696814
0.697334
0.698086
0.699125
0.700516
0.702326
0.704624
0.707459
0.710852
0.714771
0.719152
0.72396
0.729202
0.734902
0.741052
0.747603
0.754476
0.761576
0.768797
0.776035
0.783186
0.790153
0.796847
0.803186
0.809098
0.814519
0.819392
0.823669
0.82731
0.830282
0.832555
0.83411
0.834929
0.835002
0.834322
0.832887
0.830701
0.827772
0.824113
0.819741
0.814681
0.808963
0.802625
0.79571
0.78827
0.780368
0.772074
0.763468
0.754643
0.745703
0.736763
0.727953
0.719414
0.711302
0.703776
0.69699
0.691012
0.686031
0.681816
0.678204
0.675142
0.672773
0.671428
0.670949
0.67125
0.672164
0.673528
0.675194
0.677039
0.678959
0.680874
0.682723
0.684463
0.686068
0.687523
0.688826
0.689982
0.691001
0.691894
0.692672
0.693344
0.693918
0.694406
0.694826
0.695209
0.69559
0.696006
0.696488
0.697057
0.697727
0.6985
0.699365
0.700303
0.701285
0.702279
0.703258
0.704201
0.705094
0.705928
0.70669
0.707365
0.707936
0.708384
0.708692
0.70885
0.728993
0.729031
0.729104
0.729204
0.729322
0.729444
0.729556
0.729647
0.729718
0.729776
0.729842
0.729941
0.730099
0.730347
0.730713
0.73123
0.731933
0.732863
0.734067
0.735593
0.737493
0.739811
0.742581
0.745814
0.749498
0.753603
0.758107
0.763001
0.768279
0.773922
0.779885
0.786107
0.792508
0.799006
0.805512
0.811938
0.8182
0.82422
0.829925
0.835248
0.840132
0.844523
0.848377
0.851656
0.854326
0.856361
0.857741
0.858449
0.858476
0.857813
0.856462
0.854424
0.851708
0.848327
0.8443
0.83965
0.834407
0.828608
0.822295
0.815518
0.808336
0.800816
0.793032
0.785069
0.777021
0.768991
0.76109
0.753439
0.746163
0.739382
0.733205
0.727706
0.722945
0.718861
0.715389
0.712513
0.710296
0.708834
0.708085
0.70798
0.70841
0.709257
0.710408
0.711761
0.713228
0.714739
0.716237
0.71768
0.71904
0.720298
0.721447
0.722485
0.723415
0.724244
0.724979
0.725627
0.726197
0.726702
0.727158
0.727587
0.728014
0.728466
0.728964
0.729524
0.730157
0.730863
0.731636
0.73246
0.733316
0.734183
0.735039
0.735866
0.736651
0.737381
0.738044
0.738628
0.739117
0.739499
0.739761
0.739894
0.762198
0.762233
0.7623
0.762395
0.762511
0.76264
0.762774
0.76291
0.763048
0.763199
0.763377
0.763601
0.763895
0.764285
0.764796
0.765458
0.766304
0.767367
0.768685
0.770297
0.77224
0.774547
0.777239
0.780327
0.783803
0.787654
0.791863
0.796415
0.801293
0.806471
0.81191
0.817556
0.823346
0.829208
0.835068
0.840853
0.84649
0.851908
0.857044
0.861838
0.866237
0.870191
0.873661
0.876609
0.879004
0.880823
0.882043
0.882652
0.882638
0.881995
0.880722
0.878824
0.876308
0.873188
0.869481
0.865211
0.860407
0.855104
0.849343
0.843171
0.836644
0.829822
0.822776
0.815581
0.808321
0.801088
0.793978
0.787091
0.780528
0.774384
0.768742
0.763663
0.759182
0.755292
0.751973
0.749224
0.747066
0.745525
0.744578
0.744175
0.744238
0.744682
0.745419
0.746368
0.747454
0.748617
0.749806
0.75098
0.752113
0.753183
0.754179
0.755095
0.755931
0.756689
0.757372
0.757987
0.758542
0.759047
0.759516
0.759966
0.760414
0.760879
0.761377
0.76192
0.762514
0.76316
0.763854
0.764585
0.765338
0.766098
0.766848
0.767573
0.768262
0.7689
0.769479
0.769984
0.770407
0.770734
0.770958
0.771072
0.795368
0.795403
0.795469
0.795565
0.795687
0.79583
0.795991
0.796169
0.796368
0.796595
0.796864
0.797191
0.797596
0.7981
0.798728
0.799504
0.800457
0.801615
0.80301
0.80467
0.806625
0.808897
0.811503
0.81445
0.817735
0.821348
0.825276
0.829502
0.834006
0.838761
0.843728
0.848863
0.85411
0.85941
0.864701
0.869917
0.874997
0.879879
0.884506
0.888824
0.892785
0.896345
0.899466
0.902114
0.904261
0.905882
0.906959
0.907477
0.907428
0.906805
0.905609
0.903842
0.901513
0.898635
0.895225
0.891307
0.886907
0.882059
0.876802
0.87118
0.865245
0.859053
0.852667
0.846157
0.839595
0.833063
0.826643
0.820419
0.814473
0.808883
0.803716
0.79902
0.794829
0.791152
0.787989
0.785342
0.783219
0.781621
0.780529
0.779902
0.779686
0.779814
0.78022
0.780836
0.781604
0.782469
0.783388
0.784323
0.785248
0.786142
0.786991
0.787787
0.788526
0.789207
0.789833
0.790408
0.790937
0.791429
0.791895
0.792346
0.792796
0.793259
0.793745
0.794263
0.794818
0.79541
0.796036
0.796687
0.797353
0.798022
0.798681
0.799318
0.799922
0.800481
0.800985
0.801425
0.80179
0.802073
0.802266
0.802363
0.828505
0.82854
0.828609
0.82871
0.828842
0.829002
0.82919
0.829407
0.829658
0.829949
0.830293
0.830704
0.831197
0.831793
0.832511
0.833374
0.834405
0.835628
0.837068
0.838749
0.840691
0.842913
0.845426
0.848234
0.851337
0.854727
0.858391
0.862312
0.866469
0.870836
0.875379
0.880056
0.884821
0.889623
0.894407
0.899119
0.903702
0.908105
0.912276
0.916167
0.919734
0.922939
0.925745
0.928121
0.930042
0.931484
0.932432
0.932871
0.932792
0.93219
0.931065
0.929422
0.927267
0.924614
0.921478
0.917883
0.913854
0.909422
0.904625
0.899503
0.894103
0.888478
0.882684
0.876783
0.870841
0.864926
0.859112
0.853467
0.848062
0.84296
0.838217
0.833874
0.829962
0.826498
0.823488
0.820938
0.818848
0.817212
0.816014
0.81522
0.814789
0.814669
0.814809
0.815154
0.815656
0.816268
0.816952
0.817676
0.818414
0.819145
0.819855
0.820535
0.821178
0.821781
0.822346
0.822874
0.823369
0.823837
0.824287
0.824727
0.825167
0.825615
0.826081
0.82657
0.827086
0.827627
0.828192
0.828774
0.829365
0.829956
0.830537
0.831097
0.831626
0.832116
0.832556
0.832939
0.833257
0.833502
0.833668
0.833753
0.861606
0.861643
0.861716
0.861825
0.861968
0.862147
0.862361
0.862612
0.862907
0.863252
0.863656
0.864133
0.864696
0.865363
0.866149
0.867075
0.86816
0.869424
0.870886
0.872566
0.874479
0.876638
0.879052
0.881725
0.884654
0.887832
0.891248
0.894885
0.898723
0.902737
0.906895
0.911162
0.915496
0.919853
0.924186
0.928447
0.932589
0.936563
0.940325
0.943833
0.947047
0.94993
0.952452
0.954584
0.956301
0.957583
0.958414
0.958782
0.958678
0.958098
0.957041
0.955513
0.95352
0.951074
0.948192
0.944893
0.941204
0.937152
0.932773
0.928103
0.923187
0.918071
0.912807
0.90745
0.902058
0.89669
0.89141
0.886277
0.881349
0.87668
0.872317
0.868297
0.864648
0.861388
0.858528
0.856073
0.854021
0.852367
0.851093
0.850175
0.849579
0.849266
0.849192
0.849316
0.849597
0.849995
0.850478
0.851016
0.851586
0.852169
0.85275
0.853319
0.853869
0.854394
0.854896
0.855372
0.855827
0.856264
0.856689
0.857108
0.857528
0.857955
0.858395
0.858851
0.859326
0.85982
0.86033
0.860851
0.861377
0.861901
0.862413
0.862906
0.863371
0.8638
0.864185
0.864519
0.864796
0.865008
0.865153
0.865226
0.89467
0.894709
0.894787
0.894904
0.89506
0.895256
0.895493
0.895775
0.896106
0.896494
0.896947
0.897476
0.898093
0.898812
0.899648
0.900618
0.901736
0.903021
0.904487
0.906149
0.908019
0.910108
0.912421
0.914959
0.917721
0.9207
0.923883
0.927257
0.930801
0.934493
0.938303
0.9422
0.946147
0.950107
0.954037
0.957896
0.961642
0.965233
0.968629
0.971793
0.974689
0.977284
0.97955
0.981461
0.982995
0.984133
0.984859
0.985164
0.985039
0.984481
0.98349
0.982068
0.980225
0.977971
0.975321
0.972295
0.968915
0.96521
0.96121
0.956951
0.952471
0.947813
0.943024
0.938153
0.93325
0.928368
0.923561
0.91888
0.914376
0.910094
0.906074
0.902349
0.898945
0.895879
0.893164
0.890803
0.888797
0.88714
0.885817
0.884808
0.884087
0.883622
0.883378
0.883322
0.883419
0.883637
0.883947
0.884324
0.884746
0.885195
0.885658
0.886123
0.886583
0.887033
0.887469
0.887893
0.888303
0.888704
0.889097
0.889488
0.889882
0.890281
0.890691
0.891113
0.891549
0.891998
0.892457
0.892924
0.893392
0.893856
0.894309
0.894743
0.895152
0.895528
0.895865
0.896157
0.896398
0.896583
0.896709
0.896773
0.927695
0.927736
0.927819
0.927944
0.928112
0.928323
0.92858
0.928888
0.929249
0.929671
0.930162
0.93073
0.931387
0.932144
0.933014
0.934011
0.935147
0.936437
0.937892
0.939523
0.941342
0.943354
0.945563
0.94797
0.950572
0.953362
0.956329
0.959458
0.962732
0.966129
0.969624
0.973187
0.976787
0.98039
0.983959
0.987458
0.99085
0.994098
0.997166
1.00002
1.00263
1.00497
1.007
1.00872
1.01008
1.01109
1.01173
1.01198
1.01183
1.0113
1.01037
1.00905
1.00734
1.00526
1.00283
1.00005
0.996953
0.993562
0.989907
0.986018
0.981932
0.977687
0.973323
0.968886
0.96442
0.959971
0.955585
0.951307
0.947181
0.943246
0.939536
0.936081
0.932903
0.930021
0.927444
0.925179
0.923225
0.921579
0.920227
0.919154
0.918339
0.917755
0.917377
0.917175
0.91712
0.917187
0.91735
0.917587
0.917879
0.918208
0.918563
0.918932
0.919307
0.919683
0.920057
0.920426
0.92079
0.92115
0.921508
0.921867
0.922229
0.922598
0.922975
0.923361
0.923758
0.924164
0.924578
0.924995
0.925412
0.925823
0.926223
0.926606
0.926965
0.927295
0.927591
0.927846
0.928056
0.928218
0.928327
0.928383
0.960678
0.960722
0.96081
0.960942
0.961119
0.961344
0.961618
0.961946
0.962331
0.96278
0.963299
0.963896
0.964581
0.965363
0.966254
0.967264
0.968405
0.969687
0.971119
0.972712
0.974471
0.976402
0.978508
0.980787
0.983235
0.985847
0.988611
0.991515
0.99454
0.997669
1.00088
1.00414
1.00742
1.01071
1.01395
1.01713
1.0202
1.02314
1.02592
1.02849
1.03085
1.03295
1.03478
1.03631
1.03754
1.03843
1.03898
1.03918
1.03902
1.03851
1.03764
1.03641
1.03483
1.03291
1.03067
1.02812
1.02528
1.02218
1.01884
1.01528
1.01155
1.00768
1.0037
0.999649
0.995573
0.99151
0.987501
0.983583
0.979796
0.976172
0.972743
0.969534
0.966566
0.963856
0.961413
0.959243
0.957347
0.955722
0.954358
0.953243
0.952358
0.951684
0.951199
0.950879
0.950701
0.950641
0.950679
0.950796
0.950973
0.951196
0.951454
0.951734
0.952031
0.952337
0.952649
0.952963
0.95328
0.953598
0.953918
0.954242
0.954571
0.954906
0.955249
0.955599
0.955958
0.956324
0.956694
0.957066
0.957437
0.957801
0.958154
0.958491
0.958807
0.959097
0.959356
0.959579
0.959763
0.959904
0.96
0.960048
0.993618
0.993664
0.993756
0.993894
0.99408
0.994316
0.994604
0.994947
0.99535
0.995818
0.996357
0.996974
0.997677
0.998474
0.999375
1.00039
1.00152
1.00279
1.00419
1.00573
1.00743
1.00928
1.01128
1.01343
1.01574
1.01818
1.02075
1.02345
1.02625
1.02913
1.03208
1.03506
1.03807
1.04106
1.04401
1.0469
1.04969
1.05235
1.05486
1.05719
1.05931
1.06121
1.06285
1.06423
1.06531
1.0661
1.06658
1.06674
1.06657
1.06608
1.06526
1.06412
1.06266
1.06089
1.05883
1.05648
1.05388
1.05104
1.04798
1.04473
1.04132
1.03778
1.03414
1.03044
1.02671
1.023
1.01932
1.01573
1.01225
1.0089
1.00573
1.00275
0.999973
0.997423
0.995108
0.993033
0.991199
0.989604
0.988241
0.9871
0.986167
0.985425
0.984856
0.984442
0.984162
0.983997
0.98393
0.983943
0.984021
0.984151
0.984321
0.984521
0.984744
0.984985
0.985237
0.985499
0.985768
0.986044
0.986325
0.986612
0.986906
0.987206
0.987514
0.98783
0.988151
0.988478
0.988809
0.98914
0.989468
0.98979
0.990102
0.990398
0.990676
0.99093
0.991157
0.991352
0.991513
0.991636
0.99172
0.991762
1.02651
1.02656
1.02665
1.0268
1.02699
1.02724
1.02753
1.02789
1.0283
1.02879
1.02934
1.02997
1.03068
1.03148
1.03238
1.03339
1.03451
1.03575
1.03711
1.0386
1.04023
1.042
1.0439
1.04593
1.04809
1.05038
1.05278
1.05528
1.05787
1.06052
1.06323
1.06597
1.06872
1.07145
1.07414
1.07677
1.0793
1.08171
1.08399
1.08609
1.08801
1.08972
1.09119
1.09242
1.09339
1.09409
1.0945
1.09462
1.09445
1.09398
1.09321
1.09214
1.09079
1.08916
1.08726
1.08511
1.08272
1.08011
1.07731
1.07433
1.07121
1.06797
1.06464
1.06126
1.05784
1.05444
1.05107
1.04776
1.04456
1.04147
1.03853
1.03575
1.03316
1.03076
1.02856
1.02658
1.02481
1.02325
1.0219
1.02075
1.01978
1.01899
1.01836
1.01787
1.01751
1.01726
1.0171
1.01703
1.01702
1.01706
1.01716
1.01728
1.01744
1.01762
1.01782
1.01803
1.01825
1.01848
1.01873
1.01898
1.01923
1.0195
1.01977
1.02005
1.02034
1.02063
1.02092
1.02122
1.02151
1.02179
1.02206
1.02232
1.02257
1.02279
1.02299
1.02316
1.0233
1.02341
1.02348
1.02352
1.05936
1.05941
1.05951
1.05965
1.05985
1.0601
1.06041
1.06077
1.06119
1.06168
1.06224
1.06288
1.06359
1.06439
1.06529
1.06628
1.06738
1.06858
1.0699
1.07134
1.0729
1.07458
1.07638
1.0783
1.08033
1.08247
1.0847
1.08702
1.08942
1.09187
1.09436
1.09687
1.09939
1.10189
1.10434
1.10673
1.10903
1.11122
1.11328
1.11518
1.11691
1.11845
1.11978
1.12088
1.12175
1.12236
1.12271
1.1228
1.12262
1.12217
1.12145
1.12046
1.11921
1.1177
1.11595
1.11397
1.11177
1.10938
1.10681
1.10408
1.10122
1.09825
1.0952
1.0921
1.08897