/*--------------------------------*- C++ -*----------------------------------*\
| =========                 |                                                 |
| \\      /  F ield         | OpenFOAM: The Open Source CFD Toolbox           |
|  \\    /   O peration     | Version:  2406                                  |
|   \\  /    A nd           | Website:  www.openfoam.com                      |
|    \\/     M anipulation  |                                                 |
\*---------------------------------------------------------------------------*/
FoamFile
{
    version     2.0;
    format      ascii;
    arch        "LSB;label=32;scalar=64";
    class       volScalarField;
    location    "5.7";
    object      D;
}
// * * * * * * * * * * * * * * * * * * * * * * * * * * * * * * * * * * * * * //

dimensions      [0 2 -1 0 0 0 0];

internalField   nonuniform List<scalar> 
14400
(
6.27481e-05
6.25804e-05
6.2333e-05
6.20833e-05
6.18725e-05
6.17172e-05
6.16228e-05
6.15919e-05
6.16283e-05
6.17398e-05
6.19387e-05
6.22426e-05
6.26687e-05
6.32093e-05
6.3747e-05
6.39006e-05
6.32809e-05
6.24314e-05
6.16658e-05
6.10421e-05
6.05418e-05
6.01363e-05
5.98028e-05
5.95258e-05
5.92961e-05
5.91097e-05
5.89665e-05
5.88705e-05
5.88306e-05
5.88622e-05
5.89929e-05
5.92761e-05
5.98292e-05
6.09814e-05
6.41271e-05
7.96963e-05
0.000138002
0.00013824
0.00013824
0.00013824
0.00013824
0.00013824
0.00013824
0.00013824
0.00013824
0.00013824
0.00013824
0.00013824
0.00013824
0.00013824
0.00013824
0.00013824
0.00013824
0.00013824
0.00013824
0.00013824
0.00013824
0.00013824
0.00013824
0.00013824
0.00013824
0.000125742
6.81116e-05
6.22698e-05
6.05825e-05
5.98416e-05
5.94781e-05
5.93144e-05
5.92746e-05
5.93187e-05
5.94224e-05
5.95685e-05
5.97433e-05
5.99351e-05
6.0134e-05
6.0332e-05
6.05249e-05
6.07134e-05
6.09048e-05
6.11156e-05
6.13745e-05
6.17308e-05
6.22749e-05
6.32049e-05
6.5115e-05
7.11356e-05
0.000120023
0.00013824
0.000133035
7.35602e-05
6.59991e-05
6.35777e-05
6.24467e-05
6.18286e-05
6.14738e-05
6.12758e-05
6.11804e-05
6.11553e-05
6.11786e-05
6.12325e-05
6.12994e-05
6.13602e-05
6.13948e-05
6.13867e-05
6.13301e-05
6.12334e-05
6.11146e-05
6.09936e-05
6.08886e-05
6.08156e-05
6.07903e-05
6.08315e-05
6.09664e-05
6.12399e-05
6.17385e-05
6.26613e-05
6.4621e-05
7.08506e-05
0.000124129
0.00013824
6.30715e-05
6.28014e-05
6.24507e-05
6.21276e-05
6.18705e-05
6.16878e-05
6.15786e-05
6.15421e-05
6.15807e-05
6.17026e-05
6.19239e-05
6.2271e-05
6.27828e-05
6.35027e-05
6.44019e-05
6.50023e-05
6.3902e-05
6.27145e-05
6.17864e-05
6.10871e-05
6.05512e-05
6.01293e-05
5.97892e-05
5.95111e-05
5.92837e-05
5.91018e-05
5.89651e-05
5.88776e-05
5.88484e-05
5.88943e-05
5.90454e-05
5.93611e-05
5.99772e-05
6.13059e-05
6.54431e-05
9.49785e-05
0.000138231
0.00013824
0.00013824
0.00013824
0.00013824
0.00013824
0.00013824
0.00013824
0.00013824
0.00013824
0.00013824
0.00013824
0.00013824
0.00013824
0.00013824
0.00013824
0.00013824
0.00013824
0.00013824
0.00013824
0.00013824
0.00013824
0.00013824
0.00013824
0.00013824
0.000134607
7.01123e-05
6.2857e-05
6.08112e-05
5.99508e-05
5.95341e-05
5.93407e-05
5.92808e-05
5.93093e-05
5.93997e-05
5.95339e-05
5.96978e-05
5.988e-05
6.00707e-05
6.02629e-05
6.04527e-05
6.06417e-05
6.08378e-05
6.10583e-05
6.13337e-05
6.17171e-05
6.23094e-05
6.33398e-05
6.55081e-05
7.23388e-05
0.000129507
0.00013824
0.000137922
8.28476e-05
6.73094e-05
6.39253e-05
6.25811e-05
6.18858e-05
6.14939e-05
6.1276e-05
6.11701e-05
6.11416e-05
6.1168e-05
6.12312e-05
6.13129e-05
6.13918e-05
6.14425e-05
6.14411e-05
6.1378e-05
6.12663e-05
6.11311e-05
6.09974e-05
6.08853e-05
6.08111e-05
6.07907e-05
6.08436e-05
6.09988e-05
6.13074e-05
6.18725e-05
6.29494e-05
6.53964e-05
7.37626e-05
0.000135305
0.00013824
6.40705e-05
6.34007e-05
6.2752e-05
6.22512e-05
6.18923e-05
6.16522e-05
6.15132e-05
6.14655e-05
6.15085e-05
6.16519e-05
6.19187e-05
6.23544e-05
6.30495e-05
6.42003e-05
6.62968e-05
7.04005e-05
6.57539e-05
6.34056e-05
6.20642e-05
6.11951e-05
6.05831e-05
6.01266e-05
5.97722e-05
5.94909e-05
5.92671e-05
5.90938e-05
5.89696e-05
5.88989e-05
5.88919e-05
5.89681e-05
5.91636e-05
5.95521e-05
6.03116e-05
6.20207e-05
6.78014e-05
0.000121382
0.00013824
0.00013824
0.00013824
0.00013824
0.00013824
0.00013824
0.00013824
0.00013824
0.00013824
0.00013824
0.00013824
0.00013824
0.00013824
0.00013824
0.00013824
0.00013824
0.00013824
0.00013824
0.00013824
0.00013824
0.00013824
0.00013824
0.00013824
0.00013824
0.00013824
0.000138209
8.87629e-05
6.4934e-05
6.13627e-05
6.01906e-05
5.96568e-05
5.94014e-05
5.93006e-05
5.9298e-05
5.93624e-05
5.94737e-05
5.96171e-05
5.97813e-05
5.99573e-05
6.01389e-05
6.03237e-05
6.05143e-05
6.07202e-05
6.09603e-05
6.1269e-05
6.17082e-05
6.24053e-05
6.36909e-05
6.68644e-05
8.10031e-05
0.000137811
0.00013824
0.00013824
0.000113465
7.02326e-05
6.46811e-05
6.28891e-05
6.20294e-05
6.1558e-05
6.12974e-05
6.11695e-05
6.11345e-05
6.11682e-05
6.12526e-05
6.13693e-05
6.14932e-05
6.15868e-05
6.16041e-05
6.15217e-05
6.13689e-05
6.1192e-05
6.10273e-05
6.08977e-05
6.08196e-05
6.08088e-05
6.08857e-05
6.10846e-05
6.14705e-05
6.21882e-05
6.36704e-05
6.8151e-05
0.00010066
0.000138235
0.00013824
6.78113e-05
6.49038e-05
6.3402e-05
6.25302e-05
6.1989e-05
6.16542e-05
6.14678e-05
6.14031e-05
6.14539e-05
6.16321e-05
6.19732e-05
6.25574e-05
6.35812e-05
6.56649e-05
7.20341e-05
0.000120387
7.18193e-05
6.49071e-05
6.25951e-05
6.14064e-05
6.06645e-05
6.01501e-05
5.97707e-05
5.94818e-05
5.92613e-05
5.90992e-05
5.89933e-05
5.89482e-05
5.89767e-05
5.9104e-05
5.9379e-05
5.9909e-05
6.09925e-05
6.39357e-05
7.98201e-05
0.000138064
0.00013824
0.00013824
0.00013824
0.00013824
0.00013824
0.00013824
0.00013824
0.00013824
0.00013824
0.00013824
0.00013824
0.00013824
0.00013824
0.00013824
0.00013824
0.00013824
0.00013824
0.00013824
0.00013824
0.00013824
0.00013824
0.00013824
0.00013824
0.00013824
0.00013824
0.00013824
0.00012207
6.81448e-05
6.22937e-05
6.06007e-05
5.98708e-05
5.95137e-05
5.93481e-05
5.92979e-05
5.93239e-05
5.94025e-05
5.95176e-05
5.96577e-05
5.98145e-05
5.99831e-05
6.01627e-05
6.03575e-05
6.05792e-05
6.08501e-05
6.12112e-05
6.17401e-05
6.26091e-05
6.43338e-05
6.96347e-05
0.000111409
0.00013824
0.00013824
0.00013824
0.000137299
7.74876e-05
6.63404e-05
6.35309e-05
6.23405e-05
6.17201e-05
6.13837e-05
6.12182e-05
6.11725e-05
6.12204e-05
6.1345e-05
6.15309e-05
6.17535e-05
6.1954e-05
6.20241e-05
6.18841e-05
6.16268e-05
6.13564e-05
6.11282e-05
6.09636e-05
6.08757e-05
6.08789e-05
6.09962e-05
6.12717e-05
6.18013e-05
6.28148e-05
6.50651e-05
7.26357e-05
0.00013346
0.00013824
0.00013824
9.5496e-05
6.95299e-05
6.48347e-05
6.31237e-05
6.22516e-05
6.17621e-05
6.1503e-05
6.14138e-05
6.14775e-05
6.17115e-05
6.21763e-05
6.30222e-05
6.47218e-05
6.96736e-05
0.000104196
0.000138237
0.000110336
6.89689e-05
6.36324e-05
6.18035e-05
6.08428e-05
6.02354e-05
5.98139e-05
5.9509e-05
5.92889e-05
5.91394e-05
5.90573e-05
5.90485e-05
5.91307e-05
5.93411e-05
5.97574e-05
6.05676e-05
6.2392e-05
6.86915e-05
0.000127391
0.00013824
0.00013824
0.00013824
0.00013824
0.00013824
0.00013824
0.00013824
0.00013824
0.00013824
0.00013824
0.00013824
0.00013824
0.00013824
0.00013824
0.00013824
0.00013824
0.00013824
0.00013824
0.00013824
0.00013824
0.00013824
0.00013824
0.00013824
0.00013824
0.00013824
0.00013824
0.00013824
0.000138176
8.4661e-05
6.45936e-05
6.13563e-05
6.02411e-05
5.9714e-05
5.94487e-05
5.933e-05
5.93039e-05
5.93405e-05
5.94208e-05
5.95327e-05
5.96682e-05
5.98236e-05
5.99997e-05
6.02033e-05
6.04493e-05
6.07659e-05
6.12062e-05
6.18793e-05
6.30476e-05
6.55791e-05
7.43248e-05
0.000135873
0.00013824
0.00013824
0.00013824
0.00013824
0.000126768
7.16779e-05
6.50553e-05
6.30183e-05
6.20878e-05
6.16128e-05
6.13813e-05
6.13181e-05
6.13928e-05
6.15922e-05
6.19152e-05
6.23696e-05
6.28895e-05
6.31681e-05
6.27973e-05
6.22295e-05
6.17365e-05
6.13793e-05
6.11459e-05
6.10359e-05
6.10599e-05
6.12451e-05
6.16587e-05
6.24896e-05
6.43041e-05
7.00943e-05
0.000116883
0.00013824
0.00013824
0.00013824
0.000138211
9.46839e-05
6.8944e-05
6.44805e-05
6.28698e-05
6.20921e-05
6.17118e-05
6.15844e-05
6.16711e-05
6.20028e-05
6.27042e-05
6.41103e-05
6.76681e-05
8.50073e-05
0.000138088
0.00013824
0.000138
8.14616e-05
6.58311e-05
6.25616e-05
6.12068e-05
6.04424e-05
5.99475e-05
5.96101e-05
5.93829e-05
5.92461e-05
5.91949e-05
5.92376e-05
5.9403e-05
5.97571e-05
6.04567e-05
6.19863e-05
6.69133e-05
0.000106972
0.00013824
0.00013824
0.00013824
0.00013824
0.00013824
0.00013824
0.00013824
0.00013824
0.00013824
0.00013824
0.00013824
0.00013824
0.00013824
0.00013824
0.00013824
0.00013824
0.00013824
0.00013824
0.00013824
0.00013824
0.00013824
0.00013824
0.00013824
0.00013824
0.00013824
0.00013824
0.00013824
0.00013824
0.00013824
0.000131737
6.95622e-05
6.28284e-05
6.09127e-05
6.00741e-05
5.96458e-05
5.94257e-05
5.93292e-05
5.93128e-05
5.93522e-05
5.94328e-05
5.95465e-05
5.96903e-05
5.98672e-05
6.00871e-05
6.03702e-05
6.07549e-05
6.13199e-05
6.22505e-05
6.41147e-05
6.98482e-05
0.000116592
0.00013824
0.00013824
0.00013824
0.00013824
0.00013824
0.00013824
0.000112893
7.03868e-05
6.46782e-05
6.29041e-05
6.21407e-05
6.17766e-05
6.16784e-05
6.18081e-05
6.21596e-05
6.27803e-05
6.39061e-05
6.58446e-05
6.7682e-05
6.56139e-05
6.37195e-05
6.25788e-05
6.19381e-05
6.15592e-05
6.13993e-05
6.14586e-05
6.17745e-05
6.24659e-05
6.40792e-05
6.90543e-05
0.000101921
0.000138237
0.00013824
0.00013824
0.00013824
0.00013824
0.000138177
9.00769e-05
6.87119e-05
6.44057e-05
6.2901e-05
6.22767e-05
6.20806e-05
6.22122e-05
6.27448e-05
6.40581e-05
6.73331e-05
7.93067e-05
0.000137594
0.00013824
0.00013824
0.00013824
0.000133765
7.1723e-05
6.42369e-05
6.19695e-05
6.08918e-05
6.02523e-05
5.98469e-05
5.9596e-05
5.94705e-05
5.94629e-05
5.95853e-05
5.9892e-05
6.05304e-05
6.19403e-05
6.61861e-05
9.34816e-05
0.00013823
0.00013824
0.00013824
0.00013824
0.00013824
0.00013824
0.00013824
0.00013824
0.00013824
0.00013824
0.00013824
0.00013824
0.00013824
0.00013824
0.00013824
0.00013824
0.00013824
0.00013824
0.00013824
0.00013824
0.00013824
0.00013824
0.00013824
0.00013824
0.00013824
0.00013824
0.00013824
0.00013824
0.00013824
0.00013824
0.00013824
0.000116085
6.78891e-05
6.24111e-05
6.07665e-05
6.00211e-05
5.96357e-05
5.94378e-05
5.93521e-05
5.93421e-05
5.93881e-05
5.94802e-05
5.96158e-05
5.98005e-05
6.00491e-05
6.03911e-05
6.08833e-05
6.16558e-05
6.30909e-05
6.693e-05
8.94959e-05
0.000138197
0.00013824
0.00013824
0.00013824
0.00013824
0.00013824
0.00013824
0.000138239
0.000109874
7.04842e-05
6.49303e-05
6.34043e-05
6.26751e-05
6.24833e-05
6.27576e-05
6.3517e-05
6.49477e-05
6.92162e-05
8.1992e-05
0.000107232
8.02589e-05
6.88419e-05
6.46546e-05
6.32508e-05
6.24712e-05
6.21783e-05
6.23188e-05
6.29811e-05
6.43861e-05
6.93805e-05
0.000100111
0.000138233
0.00013824
0.00013824
0.00013824
0.00013824
0.00013824
0.00013824
0.000138183
9.63283e-05
6.98431e-05
6.50313e-05
6.37306e-05
6.33685e-05
6.36123e-05
6.46806e-05
6.88307e-05
8.53377e-05
0.00013763
0.00013824
0.00013824
0.00013824
0.00013824
0.00013824
0.000127053
7.04086e-05
6.3868e-05
6.1905e-05
6.09069e-05
6.03427e-05
6.00262e-05
5.99096e-05
5.99785e-05
6.02476e-05
6.08426e-05
6.2231e-05
6.65773e-05
9.17274e-05
0.000138217
0.00013824
0.00013824
0.00013824
0.00013824
0.00013824
0.00013824
0.00013824
0.00013824
0.00013824
0.00013824
0.00013824
0.00013824
0.00013824
0.00013824
0.00013824
0.00013824
0.00013824
0.00013824
0.00013824
0.00013824
0.00013824
0.00013824
0.00013824
0.00013824
0.00013824
0.00013824
0.00013824
0.00013824
0.00013824
0.00013824
0.00013824
0.000138239
0.000103074
6.71523e-05
6.22926e-05
6.07555e-05
6.00535e-05
5.9693e-05
5.95068e-05
5.94323e-05
5.94376e-05
5.9508e-05
5.96406e-05
5.98445e-05
6.01443e-05
6.05886e-05
6.12719e-05
6.24397e-05
6.50406e-05
7.49334e-05
0.000137055
0.00013824
0.00013824
0.00013824
0.00013824
0.00013824
0.00013824
0.00013824
0.00013824
0.00013824
0.000120334
7.23387e-05
6.76709e-05
6.50046e-05
6.44251e-05
6.5309e-05
6.81689e-05
7.30855e-05
0.000116895
0.00013804
0.000138239
0.000137948
0.00011425
7.22281e-05
6.76779e-05
6.48133e-05
6.40114e-05
6.44317e-05
6.68509e-05
7.11886e-05
0.000112405
0.000138235
0.00013824
0.00013824
0.00013824
0.00013824
0.00013824
0.00013824
0.00013824
0.00013824
0.000138229
0.000117084
7.32745e-05
6.8949e-05
6.78189e-05
6.86223e-05
7.17863e-05
0.000108546
0.000138127
0.00013824
0.00013824
0.00013824
0.00013824
0.00013824
0.00013824
0.00013824
0.000126873
7.08849e-05
6.48466e-05
6.24638e-05
6.14293e-05
6.09029e-05
6.07931e-05
6.10644e-05
6.17133e-05
6.31419e-05
6.80221e-05
0.000101716
0.000138225
0.00013824
0.00013824
0.00013824
0.00013824
0.00013824
0.00013824
0.00013824
0.00013824
0.00013824
0.00013824
0.00013824
0.00013824
0.00013824
0.00013824
0.00013824
0.00013824
0.00013824
0.00013824
0.00013824
0.00013824
0.00013824
0.00013824
0.00013824
0.00013824
0.00013824
0.00013824
0.00013824
0.00013824
0.00013824
0.00013824
0.00013824
0.00013824
0.00013824
0.000138236
9.96686e-05
6.72425e-05
6.24174e-05
6.09013e-05
6.02275e-05
5.98658e-05
5.96932e-05
5.96444e-05
5.96909e-05
5.98285e-05
6.00727e-05
6.04704e-05
6.11254e-05
6.22447e-05
6.44788e-05
7.18901e-05
0.000134075
0.00013824
0.00013824
0.00013824
0.00013824
0.00013824
0.00013824
0.00013824
0.00013824
0.00013824
0.00013824
0.00013824
0.000134092
0.000101224
7.40875e-05
7.1008e-05
7.62941e-05
0.000106783
0.00013562
0.00013824
0.00013824
0.00013824
0.00013824
0.00013824
0.00013452
0.000103515
7.40304e-05
7.02376e-05
7.20085e-05
9.47957e-05
0.000130714
0.00013824
0.00013824
0.00013824
0.00013824
0.00013824
0.00013824
0.00013824
0.00013824
0.00013824
0.00013824
0.00013824
0.00013824
0.000135885
0.000114919
0.0001008
0.000111629
0.000133322
0.000138239
0.00013824
0.00013824
0.00013824
0.00013824
0.00013824
0.00013824
0.00013824
0.00013824
0.00013824
0.000133647
8.13476e-05
6.78937e-05
6.45744e-05
6.29748e-05
6.28778e-05
6.41586e-05
6.67003e-05
7.23518e-05
0.000122226
0.000138238
0.00013824
0.00013824
0.00013824
0.00013824
0.00013824
0.00013824
0.00013824
0.00013824
0.00013824
0.00013824
0.00013824
0.00013824
0.00013824
0.00013824
0.00013824
0.00013824
0.00013824
0.00013824
0.00013824
0.00013824
0.00013824
0.00013824
0.00013824
0.00013824
0.00013824
0.00013824
0.00013824
0.00013824
0.00013824
0.00013824
0.00013824
0.00013824
0.00013824
0.00013824
0.00013824
0.000138237
0.00010628
6.81602e-05
6.29355e-05
6.14361e-05
6.06385e-05
6.02792e-05
6.01409e-05
6.01543e-05
6.03132e-05
6.06438e-05
6.1255e-05
6.24948e-05
6.5214e-05
7.25351e-05
0.000133287
0.00013824
0.00013824
0.00013824
0.00013824
0.00013824
0.00013824
0.00013824
0.00013824
0.00013824
0.00013824
0.00013824
0.00013824
0.00013824
0.000138236
0.000136509
0.000131633
0.00013734
0.000138239
0.00013824
0.00013824
0.00013824
0.00013824
0.00013824
0.00013824
0.00013824
0.000138238
0.000136622
0.000129174
0.000134852
0.000138227
0.00013824
0.00013824
0.00013824
0.00013824
0.00013824
0.00013824
0.00013824
0.00013824
0.00013824
0.00013824
0.00013824
0.00013824
0.00013824
0.00013824
0.00013824
0.000138236
0.00013824
0.00013824
0.00013824
0.00013824
0.00013824
0.00013824
0.00013824
0.00013824
0.00013824
0.00013824
0.00013824
0.00013824
0.00013824
0.000138082
0.000116732
8.2499e-05
7.02159e-05
7.02172e-05
8.14914e-05
0.000111961
0.00013695
0.00013824
0.00013824
0.00013824
0.00013824
0.00013824
0.00013824
0.00013824
0.00013824
0.00013824
0.00013824
0.00013824
0.00013824
0.00013824
0.00013824
0.00013824
0.00013824
0.00013824
0.00013824
0.00013824
0.00013824
0.00013824
0.00013824
0.00013824
0.00013824
0.00013824
0.00013824
0.00013824
0.00013824
0.00013824
0.00013824
0.00013824
0.00013824
0.00013824
0.00013824
0.00013824
0.00013824
0.00013824
0.00013824
0.000138239
0.000122042
7.05473e-05
6.5444e-05
6.2513e-05
6.16662e-05
6.13139e-05
6.12503e-05
6.14851e-05
6.20479e-05
6.32525e-05
6.7342e-05
8.23901e-05
0.000136149
0.00013824
0.00013824
0.00013824
0.00013824
0.00013824
0.00013824
0.00013824
0.00013824
0.00013824
0.00013824
0.00013824
0.00013824
0.00013824
0.00013824
0.00013824
0.00013824
0.00013824
0.00013824
0.00013824
0.00013824
0.00013824
0.00013824
0.00013824
0.00013824
0.00013824
0.00013824
0.00013824
0.00013824
0.00013824
0.00013824
0.00013824
0.00013824
0.00013824
0.00013824
0.00013824
0.00013824
0.00013824
0.00013824
0.00013824
0.00013824
0.00013824
0.00013824
0.00013824
0.00013824
0.00013824
0.00013824
0.00013824
0.00013824
0.00013824
0.00013824
0.00013824
0.00013824
0.00013824
0.00013824
0.00013824
0.00013824
0.00013824
0.00013824
0.00013824
0.00013824
0.00013824
0.00013824
0.000138114
0.000134647
0.000134949
0.000138099
0.00013824
0.00013824
0.00013824
0.00013824
0.00013824
0.00013824
0.00013824
0.00013824
0.00013824
0.00013824
0.00013824
0.00013824
0.00013824
0.00013824
0.00013824
0.00013824
0.00013824
0.00013824
0.00013824
0.00013824
0.00013824
0.00013824
0.00013824
0.00013824
0.00013824
0.00013824
0.00013824
0.00013824
0.00013824
0.00013824
0.00013824
0.00013824
0.00013824
0.00013824
0.00013824
0.00013824
0.00013824
0.00013824
0.00013824
0.00013824
0.00013824
0.00013824
0.000135511
9.86004e-05
6.91756e-05
6.64766e-05
6.50504e-05
6.45454e-05
6.52558e-05
6.70085e-05
7.06354e-05
0.000110491
0.000138112
0.00013824
0.00013824
0.00013824
0.00013824
0.00013824
0.00013824
0.00013824
0.00013824
0.00013824
0.00013824
0.00013824
0.00013824
0.00013824
0.00013824
0.00013824
0.00013824
0.00013824
0.00013824
0.00013824
0.00013824
0.00013824
0.00013824
0.00013824
0.00013824
0.00013824
0.00013824
0.00013824
0.00013824
0.00013824
0.00013824
0.00013824
0.00013824
0.00013824
0.00013824
0.00013824
0.00013824
0.00013824
0.00013824
0.00013824
0.00013824
0.00013824
0.00013824
0.00013824
0.00013824
0.00013824
0.00013824
0.00013824
0.00013824
0.00013824
0.00013824
0.00013824
0.00013824
0.00013824
0.00013824
0.00013824
0.00013824
0.00013824
0.00013824
0.00013824
0.00013824
0.00013824
0.00013824
0.00013824
0.00013824
0.00013824
0.00013824
0.00013824
0.00013824
0.00013824
0.00013824
0.00013824
0.00013824
0.00013824
0.00013824
0.00013824
0.00013824
0.00013824
0.00013824
0.00013824
0.00013824
0.00013824
0.00013824
0.00013824
0.00013824
0.00013824
0.00013824
0.00013824
0.00013824
0.00013824
0.00013824
0.00013824
0.00013824
0.00013824
0.00013824
0.00013824
0.00013824
0.00013824
0.00013824
0.00013824
0.00013824
0.00013824
0.00013824
0.00013824
0.00013824
0.00013824
0.00013824
0.00013824
0.00013824
0.00013824
0.00013824
0.000138237
0.000131899
0.00010877
8.94706e-05
8.26883e-05
9.00845e-05
0.000111419
0.000134714
0.00013824
0.00013824
0.00013824
0.00013824
0.00013824
0.00013824
0.00013824
0.00013824
0.00013824
0.00013824
0.00013824
0.00013824
0.00013824
0.00013824
0.00013824
0.00013824
0.00013824
0.00013824
0.00013824
0.00013824
0.00013824
0.00013824
0.00013824
0.00013824
0.00013824
0.00013824
0.00013824
0.00013824
0.00013824
0.00013824
0.00013824
0.00013824
0.00013824
0.00013824
0.00013824
0.00013824
0.00013824
0.00013824
0.00013824
0.00013824
0.00013824
0.00013824
0.00013824
0.00013824
0.00013824
0.00013824
0.00013824
0.00013824
0.00013824
0.00013824
0.00013824
0.00013824
0.00013824
0.00013824
0.00013824
0.00013824
0.00013824
0.00013824
0.00013824
0.00013824
0.00013824
0.00013824
0.00013824
0.00013824
0.00013824
0.00013824
0.00013824
0.00013824
0.00013824
0.00013824
0.00013824
0.00013824
0.00013824
0.00013824
0.00013824
0.00013824
0.00013824
0.00013824
0.00013824
0.00013824
0.00013824
0.00013824
0.00013824
0.00013824
0.00013824
0.00013824
0.00013824
0.00013824
0.00013824
0.00013824
0.00013824
0.00013824
0.00013824
0.00013824
0.00013824
0.00013824
0.00013824
0.00013824
0.00013824
0.00013824
0.00013824
0.00013824
0.00013824
0.00013824
0.00013824
0.00013824
0.00013824
0.00013824
0.00013824
0.00013824
0.00013824
0.00013824
0.00013824
0.00013824
0.00013824
0.000138211
0.000138116
0.000138213
0.00013824
0.00013824
0.00013824
0.00013824
0.00013824
0.00013824
0.00013824
0.00013824
0.00013824
0.00013824
0.00013824
0.00013824
0.00013824
0.00013824
0.00013824
0.00013824
0.00013824
0.00013824
0.00013824
0.00013824
0.00013824
0.00013824
0.00013824
0.00013824
0.00013824
0.00013824
0.00013824
0.00013824
0.00013824
0.00013824
0.00013824
0.00013824
0.00013824
0.00013824
0.00013824
0.00013824
0.00013824
0.00013824
0.00013824
0.00013824
0.00013824
0.00013824
0.00013824
0.00013824
0.00013824
0.00013824
0.00013824
0.00013824
0.00013824
0.00013824
0.00013824
0.00013824
0.00013824
0.00013824
0.00013824
0.00013824
0.00013824
0.00013824
0.00013824
0.00013824
0.00013824
0.00013824
0.00013824
0.00013824
0.00013824
0.00013824
0.00013824
0.00013824
0.00013824
0.00013824
0.00013824
0.00013824
0.00013824
0.00013824
0.00013824
0.00013824
0.00013824
0.00013824
0.00013824
0.00013824
0.00013824
0.00013824
0.00013824
0.00013824
0.00013824
0.00013824
0.00013824
0.00013824
0.00013824
0.00013824
0.00013824
0.00013824
0.00013824
0.00013824
0.00013824
0.00013824
0.00013824
0.00013824
0.00013824
0.00013824
0.00013824
0.00013824
0.00013824
0.00013824
0.00013824
0.00013824
0.00013824
0.00013824
0.00013824
0.00013824
0.00013824
0.00013824
0.00013824
0.00013824
0.00013824
0.00013824
0.00013824
0.00013824
0.00013824
0.00013824
0.00013824
0.00013824
0.00013824
0.00013824
0.00013824
0.00013824
0.00013824
0.00013824
0.00013824
0.00013824
0.00013824
0.00013824
0.00013824
0.00013824
0.00013824
0.00013824
0.00013824
0.00013824
0.00013824
0.00013824
0.00013824
0.00013824
0.00013824
0.00013824
0.00013824
0.00013824
0.00013824
0.00013824
0.00013824
0.00013824
0.00013824
0.00013824
0.00013824
0.00013824
0.00013824
0.00013824
0.00013824
0.00013824
0.00013824
0.00013824
0.00013824
0.00013824
0.00013824
0.00013824
0.00013824
0.00013824
0.00013824
0.00013824
0.00013824
0.00013824
0.00013824
0.00013824
0.00013824
0.00013824
0.00013824
0.00013824
0.00013824
0.00013824
0.00013824
0.00013824
0.00013824
0.00013824
0.00013824
0.00013824
0.00013824
0.00013824
0.00013824
0.00013824
0.00013824
0.00013824
0.00013824
0.00013824
0.00013824
0.00013824
0.00013824
0.00013824
0.00013824
0.00013824
0.00013824
0.00013824
0.00013824
0.00013824
0.00013824
0.00013824
0.00013824
0.00013824
0.00013824
0.00013824
0.00013824
0.00013824
0.00013824
0.00013824
0.00013824
0.00013824
0.00013824
0.00013824
0.00013824
0.00013824
0.00013824
0.00013824
0.00013824
0.00013824
0.00013824
0.00013824
0.00013824
0.00013824
0.00013824
0.00013824
0.00013824
0.00013824
0.00013824
0.00013824
0.00013824
0.00013824
0.00013824
0.00013824
0.00013824
0.00013824
0.00013824
0.00013824
0.00013824
0.00013824
0.00013824
0.00013824
0.00013824
0.00013824
0.00013824
0.00013824
0.00013824
0.00013824
0.00013824
0.00013824
0.00013824
0.00013824
0.00013824
0.00013824
0.00013824
0.00013824
0.00013824
0.00013824
0.00013824
0.00013824
0.00013824
0.00013824
0.00013824
0.00013824
0.00013824
0.00013824
0.00013824
0.00013824
0.00013824
0.00013824
0.00013824
0.00013824
0.00013824
0.00013824
0.00013824
0.00013824
0.00013824
0.00013824
0.00013824
0.00013824
0.00013824
0.00013824
0.00013824
0.00013824
0.00013824
0.00013824
0.00013824
0.00013824
0.00013824
0.00013824
0.00013824
0.00013824
0.00013824
0.00013824
0.00013824
0.00013824
0.00013824
0.00013824
0.00013824
0.00013824
0.00013824
0.00013824
0.00013824
0.00013824
0.00013824
0.00013824
0.00013824
0.00013824
0.00013824
0.00013824
0.00013824
0.00013824
0.00013824
0.00013824
0.00013824
0.00013824
0.00013824
0.00013824
0.00013824
0.00013824
0.00013824
0.00013824
0.00013824
0.00013824
0.00013824
0.00013824
0.00013824
0.00013824
0.00013824
0.00013824
0.00013824
0.00013824
0.00013824
0.00013824
0.00013824
0.00013824
0.00013824
0.00013824
0.00013824
0.00013824
0.00013824
0.00013824
0.00013824
0.00013824
0.00013824
0.00013824
0.00013824
0.00013824
0.00013824
0.00013824
0.00013824
0.00013824
0.00013824
0.00013824
0.00013824
0.00013824
0.00013824
0.00013824
0.00013824
0.00013824
0.00013824
0.00013824
0.00013824
0.00013824
0.00013824
0.00013824
0.00013824
0.00013824
0.00013824
0.00013824
0.00013824
0.00013824
0.00013824
0.00013824
0.00013824
0.00013824
0.00013824
0.00013824
0.00013824
0.00013824
0.00013824
0.00013824
0.00013824
0.00013824
0.00013824
0.00013824
0.00013824
0.00013824
0.00013824
0.00013824
0.00013824
0.00013824
0.00013824
0.00013824
0.00013824
0.00013824
0.00013824
0.00013824
0.00013824
0.00013824
0.00013824
0.00013824
0.00013824
0.00013824
0.00013824
0.00013824
0.00013824
0.00013824
0.00013824
0.00013824
0.00013824
0.00013824
0.00013824
0.00013824
0.00013824
0.00013824
0.00013824
0.00013824
0.00013824
0.00013824
0.00013824
0.00013824
0.00013824
0.00013824
0.00013824
0.00013824
0.00013824
0.00013824
0.00013824
0.00013824
0.00013824
0.00013824
0.00013824
0.00013824
0.00013824
0.00013824
0.00013824
0.00013824
0.00013824
0.00013824
0.00013824
0.00013824
0.00013824
0.00013824
0.00013824
0.00013824
0.00013824
0.00013824
0.00013824
0.00013824
0.00013824
0.00013824
0.00013824
0.00013824
0.00013824
0.00013824
0.00013824
0.00013824
0.00013824
0.00013824
0.00013824
0.00013824
0.00013824
0.00013824
0.00013824
0.00013824
0.00013824
0.00013824
0.00013824
0.00013824
0.00013824
0.00013824
0.00013824
0.00013824
0.00013824
0.00013824
0.00013824
0.00013824
0.00013824
0.00013824
0.00013824
0.00013824
0.00013824
0.00013824
0.00013824
0.00013824
0.00013824
0.00013824
0.00013824
0.00013824
0.00013824
0.00013824
0.00013824
0.00013824
0.00013824
0.00013824
0.00013824
0.00013824
0.00013824
0.00013824
0.00013824
0.00013824
0.00013824
0.00013824
0.00013824
0.00013824
0.00013824
0.00013824
0.00013824
0.00013824
0.00013824
0.00013824
0.00013824
0.00013824
0.00013824
0.00013824
0.00013824
0.00013824
0.00013824
0.00013824
0.00013824
0.00013824
0.00013824
0.00013824
0.00013824
0.00013824
0.00013824
0.00013824
0.00013824
0.00013824
0.00013824
0.00013824
0.00013824
0.00013824
0.00013824
0.00013824
0.00013824
0.00013824
0.00013824
0.00013824
0.00013824
0.00013824
0.00013824
0.00013824
0.00013824
0.00013824
0.00013824
0.00013824
0.00013824
0.00013824
0.00013824
0.00013824
0.00013824
0.00013824
0.00013824
0.00013824
0.00013824
0.00013824
0.00013824
0.00013824
0.00013824
0.00013824
0.00013824
0.00013824
0.00013824
0.00013824
0.00013824
0.00013824
0.00013824
0.00013824
0.00013824
0.00013824
0.00013824
0.00013824
0.00013824
0.00013824
0.00013824
0.00013824
0.00013824
0.00013824
0.00013824
0.00013824
0.00013824
0.00013824
0.00013824
0.00013824
0.00013824
0.00013824
0.00013824
0.00013824
0.00013824
0.00013824
0.00013824
0.00013824
0.00013824
0.00013824
0.00013824
0.00013824
0.00013824
0.00013824
0.00013824
0.00013824
0.00013824
0.00013824
0.00013824
0.00013824
0.00013824
0.00013824
0.00013824
0.00013824
0.00013824
0.00013824
0.00013824
0.00013824
0.00013824
0.00013824
0.00013824
0.00013824
0.00013824
0.00013824
0.00013824
0.00013824
0.00013824
0.00013824
0.00013824
0.00013824
0.00013824
0.00013824
0.00013824
0.00013824
0.00013824
0.00013824
0.00013824
0.00013824
0.00013824
0.00013824
0.00013824
0.00013824
0.00013824
0.00013824
0.00013824
0.00013824
0.00013824
0.00013824
0.00013824
0.00013824
0.00013824
0.00013824
0.00013824
0.00013824
0.00013824
0.00013824
0.00013824
0.00013824
0.00013824
0.00013824
0.00013824
0.00013824
0.00013824
0.00013824
0.00013824
0.00013824
0.00013824
0.00013824
0.00013824
0.00013824
0.00013824
0.00013824
0.00013824
0.00013824
0.00013824
0.00013824
0.00013824
0.00013824
0.00013824
0.00013824
0.00013824
0.00013824
0.00013824
0.00013824
0.00013824
0.00013824
0.00013824
0.00013824
0.00013824
0.00013824
0.00013824
0.00013824
0.00013824
0.00013824
0.00013824
0.00013824
0.00013824
0.00013824
0.00013824
0.00013824
0.00013824
0.00013824
0.00013824
0.00013824
0.00013824
0.00013824
0.00013824
0.00013824
0.00013824
0.00013824
0.00013824
0.00013824
0.00013824
0.00013824
0.00013824
0.00013824
0.00013824
0.00013824
0.00013824
0.00013824
0.00013824
0.00013824
0.00013824
0.00013824
0.00013824
0.00013824
0.00013824
0.00013824
0.00013824
0.00013824
0.00013824
0.00013824
0.00013824
0.00013824
0.00013824
0.00013824
0.00013824
0.00013824
0.00013824
0.00013824
0.00013824
0.00013824
0.00013824
0.00013824
0.00013824
0.00013824
0.00013824
0.00013824
0.00013824
0.00013824
0.00013824
0.00013824
0.00013824
0.00013824
0.00013824
0.00013824
0.00013824
0.00013824
0.00013824
0.00013824
0.00013824
0.00013824
0.00013824
0.00013824
0.00013824
0.00013824
0.00013824
0.00013824
0.00013824
0.00013824
0.00013824
0.00013824
0.00013824
0.00013824
0.00013824
0.00013824
0.00013824
0.00013824
0.00013824
0.00013824
0.00013824
0.00013824
0.00013824
0.00013824
0.00013824
0.00013824
0.00013824
0.00013824
0.00013824
0.00013824
0.00013824
0.00013824
0.00013824
0.00013824
0.00013824
0.00013824
0.00013824
0.00013824
0.00013824
0.00013824
0.00013824
0.00013824
0.00013824
0.00013824
0.00013824
0.00013824
0.00013824
0.00013824
0.00013824
0.00013824
0.00013824
0.00013824
0.00013824
0.00013824
0.00013824
0.00013824
0.00013824
0.00013824
0.00013824
0.00013824
0.00013824
0.00013824
0.00013824
0.00013824
0.00013824
0.00013824
0.00013824
0.00013824
0.00013824
0.00013824
0.00013824
0.00013824
0.00013824
0.00013824
0.00013824
0.00013824
0.00013824
0.00013824
0.00013824
0.00013824
0.00013824
0.00013824
0.00013824
0.00013824
0.00013824
0.00013824
0.00013824
0.00013824
0.00013824
0.00013824
0.00013824
0.00013824
0.00013824
0.00013824
0.00013824
0.00013824
0.00013824
0.00013824
0.00013824
0.00013824
0.00013824
0.00013824
0.00013824
0.00013824
0.00013824
0.00013824
0.00013824
0.00013824
0.00013824
0.00013824
0.00013824
0.00013824
0.00013824
0.00013824
0.00013824
0.00013824
0.00013824
0.00013824
0.00013824
0.00013824
0.00013824
0.00013824
0.00013824
0.00013824
0.00013824
0.00013824
0.00013824
0.00013824
0.00013824
0.00013824
0.00013824
0.00013824
0.00013824
0.00013824
0.00013824
0.00013824
0.00013824
0.00013824
0.00013824
0.00013824
0.00013824
0.00013824
0.00013824
0.00013824
0.00013824
0.00013824
0.00013824
0.00013824
0.00013824
0.00013824
0.00013824
0.00013824
0.00013824
0.00013824
0.00013824
0.00013824
0.00013824
0.00013824
0.00013824
0.00013824
0.00013824
0.00013824
0.00013824
0.00013824
0.00013824
0.00013824
0.00013824
0.00013824
0.00013824
0.00013824
0.00013824
0.00013824
0.00013824
0.00013824
0.00013824
0.00013824
0.00013824
0.00013824
0.00013824
0.00013824
0.00013824
0.00013824
0.00013824