/*--------------------------------*- C++ -*----------------------------------*\
| =========                 |                                                 |
| \\      /  F ield         | OpenFOAM: The Open Source CFD Toolbox           |
|  \\    /   O peration     | Version:  2406                                  |
|   \\  /    A nd           | Website:  www.openfoam.com                      |
|    \\/     M anipulation  |                                                 |
\*---------------------------------------------------------------------------*/
FoamFile
{
    version     2.0;
    format      ascii;
    arch        "LSB;label=32;scalar=64";
    class       volScalarField;
    location    "6.1";
    object      C;
}
// * * * * * * * * * * * * * * * * * * * * * * * * * * * * * * * * * * * * * //

dimensions      [1 -3 0 0 0 0 0];

internalField   nonuniform List<scalar> 
14400
(
0.264558
0.262988
0.260313
0.257171
0.25417
0.251808
0.250444
0.250301
0.251478
0.253946
0.257546
0.261967
0.266721
0.271112
0.274234
0.275092
0.273045
0.268847
0.263613
0.258371
0.253949
0.250987
0.249984
0.251344
0.255414
0.262508
0.272936
0.28701
0.305063
0.327447
0.354533
0.386698
0.424281
0.467495
0.516171
0.568509
0.609169
0.636046
0.657995
0.677081
0.693588
0.707736
0.719695
0.7296
0.737555
0.743639
0.747911
0.750415
0.751176
0.750206
0.747503
0.743052
0.73682
0.728763
0.718817
0.706897
0.692896
0.676677
0.658067
0.636843
0.612724
0.580438
0.533998
0.481306
0.433004
0.39039
0.353415
0.321746
0.294981
0.272714
0.254569
0.240208
0.229339
0.221714
0.217129
0.215419
0.21646
0.220161
0.226455
0.235298
0.246643
0.26043
0.276543
0.294755
0.314593
0.334837
0.350277
0.356843
0.356131
0.346865
0.332531
0.317682
0.303652
0.291038
0.280139
0.27108
0.263869
0.258419
0.254567
0.252079
0.250675
0.250053
0.249933
0.250118
0.25055
0.251333
0.25271
0.255001
0.258551
0.263687
0.270695
0.279803
0.291175
0.304897
0.320957
0.339193
0.359171
0.379684
0.395283
0.401913
0.273944
0.271902
0.268566
0.264779
0.261246
0.258495
0.256891
0.256655
0.257886
0.260559
0.264525
0.269492
0.27499
0.280311
0.284431
0.285925
0.283185
0.277915
0.271668
0.265597
0.260536
0.2571
0.255762
0.256907
0.260865
0.267941
0.278436
0.29266
0.31094
0.333629
0.361099
0.393725
0.431838
0.4756
0.524586
0.576033
0.613931
0.639267
0.660857
0.67966
0.695948
0.709924
0.72175
0.731551
0.739425
0.74545
0.74968
0.752158
0.752907
0.751939
0.749252
0.744831
0.738646
0.730653
0.72079
0.708978
0.695114
0.679069
0.660679
0.639739
0.615983
0.585912
0.541796
0.48884
0.440078
0.396958
0.359495
0.327383
0.30023
0.277634
0.259216
0.244639
0.233609
0.225878
0.221242
0.219539
0.220647
0.224474
0.23096
0.240061
0.251736
0.265929
0.282528
0.301296
0.321715
0.342412
0.35745
0.363428
0.363317
0.355515
0.341066
0.325675
0.311127
0.298093
0.28688
0.277615
0.270307
0.264867
0.261123
0.258825
0.257661
0.257281
0.257346
0.257599
0.257955
0.258549
0.259682
0.261735
0.265098
0.270128
0.277126
0.286327
0.297897
0.311919
0.328378
0.347089
0.367524
0.388138
0.402406
0.407909
0.293293
0.290068
0.285244
0.280096
0.275476
0.271945
0.269863
0.269443
0.270777
0.273848
0.278526
0.284556
0.291519
0.298742
0.305105
0.308485
0.303777
0.296095
0.287768
0.280056
0.273746
0.269386
0.267395
0.268118
0.271858
0.278902
0.289536
0.30406
0.322795
0.346091
0.374317
0.407847
0.447009
0.49193
0.541834
0.58939
0.621951
0.645654
0.666506
0.684756
0.700618
0.714262
0.725829
0.735427
0.743146
0.749054
0.753203
0.755628
0.756354
0.755391
0.752736
0.748375
0.74228
0.734411
0.724712
0.71311
0.699513
0.683805
0.665844
0.645449
0.622392
0.595438
0.556046
0.503759
0.454299
0.410192
0.371753
0.338756
0.310831
0.287577
0.268615
0.253605
0.242252
0.234309
0.229574
0.227887
0.229127
0.23321
0.240078
0.249693
0.262023
0.277019
0.294577
0.314449
0.335992
0.357198
0.37047
0.375721
0.376258
0.371416
0.35795
0.341616
0.326105
0.312269
0.300446
0.29078
0.283285
0.277877
0.274369
0.272484
0.271848
0.272013
0.272502
0.272918
0.273093
0.273251
0.273836
0.275365
0.278322
0.283119
0.290085
0.299465
0.311421
0.32603
0.343264
0.362904
0.384206
0.40406
0.414901
0.419173
0.323658
0.31796
0.310544
0.303237
0.296974
0.292287
0.289501
0.288808
0.290289
0.29393
0.29962
0.307151
0.316176
0.326113
0.335767
0.340789
0.334415
0.323104
0.31177
0.301731
0.293647
0.287964
0.285032
0.285146
0.288575
0.29558
0.306429
0.321407
0.340826
0.365024
0.394358
0.429182
0.469763
0.516026
0.566126
0.605678
0.632455
0.654888
0.674755
0.692241
0.707505
0.720679
0.731875
0.741183
0.748678
0.754418
0.758448
0.760798
0.761491
0.760534
0.757925
0.753651
0.747689
0.740001
0.730538
0.719238
0.706022
0.690795
0.67344
0.653822
0.631785
0.607175
0.57441
0.526458
0.475898
0.430271
0.39037
0.356057
0.32698
0.302745
0.282968
0.267309
0.255473
0.247214
0.242331
0.24067
0.242113
0.24658
0.25402
0.264402
0.2777
0.293874
0.312824
0.334294
0.357442
0.377694
0.387841
0.392655
0.393785
0.391333
0.381911
0.365239
0.348609
0.333686
0.320994
0.310744
0.302987
0.297651
0.294545
0.293357
0.293634
0.294776
0.29606
0.296803
0.296615
0.295954
0.295561
0.296186
0.298458
0.302862
0.309756
0.319386
0.3319
0.347342
0.365642
0.386473
0.408477
0.424158
0.431286
0.434706
0.364595
0.355336
0.344312
0.33418
0.325825
0.319667
0.315985
0.314943
0.316612
0.320967
0.327902
0.337226
0.348613
0.36129
0.372476
0.374707
0.370907
0.357739
0.343292
0.330569
0.320341
0.313017
0.308898
0.308241
0.311282
0.318254
0.329403
0.344997
0.365328
0.390713
0.421484
0.457928
0.500138
0.547393
0.592272
0.622564
0.645773
0.66669
0.685383
0.701948
0.716482
0.729075
0.739809
0.748753
0.755965
0.761493
0.765371
0.767627
0.768277
0.767329
0.764779
0.760617
0.754822
0.747364
0.738201
0.727282
0.714543
0.699912
0.6833
0.664613
0.643745
0.620592
0.593932
0.555216
0.504589
0.457298
0.41557
0.379556
0.348971
0.323438
0.302579
0.286055
0.273573
0.264892
0.259815
0.258191
0.259908
0.264892
0.273094
0.28449
0.299053
0.316733
0.337396
0.360626
0.384796
0.401097
0.408791
0.413275
0.414837
0.413627
0.409049
0.396132
0.378645
0.362485
0.34872
0.337727
0.329644
0.324442
0.321941
0.321813
0.323521
0.326278
0.328967
0.330382
0.329456
0.32735
0.325347
0.324557
0.325793
0.329608
0.336369
0.346308
0.35953
0.375977
0.395436
0.417128
0.436118
0.445756
0.450976
0.453658
0.40358
0.398594
0.385477
0.37261
0.362034
0.354218
0.349504
0.348058
0.349957
0.355146
0.363481
0.374713
0.388383
0.402544
0.408221
0.407892
0.406557
0.3983
0.381901
0.366553
0.353991
0.344793
0.339291
0.337731
0.340325
0.347283
0.358829
0.375206
0.396678
0.423523
0.456022
0.49432
0.537957
0.584057
0.616855
0.640145
0.661379
0.680715
0.698141
0.713686
0.727398
0.73933
0.749533
0.758054
0.764937
0.770215
0.773917
0.776062
0.776662
0.775724
0.773245
0.769216
0.76362
0.756432
0.747619
0.737144
0.724958
0.711009
0.695237
0.677583
0.657992
0.636419
0.612851
0.58356
0.539953
0.491375
0.44762
0.409596
0.377183
0.350053
0.327847
0.310239
0.296946
0.287733
0.282413
0.280839
0.282905
0.288538
0.297694
0.310345
0.326454
0.345927
0.368518
0.393374
0.415344
0.426217
0.432668
0.436815
0.438663
0.438347
0.43614
0.429808
0.415431
0.398641
0.383778
0.371925
0.363473
0.358479
0.356806
0.358152
0.361925
0.367173
0.372168
0.37492
0.372556
0.368063
0.363602
0.360773
0.360579
0.363595
0.370152
0.380444
0.394505
0.411974
0.432135
0.452175
0.463402
0.469155
0.473204
0.475292
0.437933
0.437516
0.431471
0.417766
0.405485
0.396005
0.390203
0.388312
0.390501
0.39661
0.406378
0.419289
0.434201
0.44157
0.442321
0.442039
0.441017
0.438205
0.426719
0.409633
0.394794
0.38359
0.376563
0.373999
0.376114
0.383094
0.39514
0.412472
0.435308
0.463835
0.498265
0.538497
0.582467
0.615642
0.638711
0.659538
0.678885
0.69665
0.712779
0.727258
0.740096
0.751313
0.760937
0.768995
0.775513
0.780515
0.784019
0.78604
0.786586
0.78566
0.783262
0.779382
0.774009
0.767123
0.758702
0.748717
0.737136
0.723927
0.709055
0.692492
0.674219
0.65424
0.632592
0.609346
0.57788
0.531977
0.486718
0.446566
0.412073
0.383072
0.35926
0.340346
0.326069
0.31621
0.310595
0.309084
0.311574
0.317991
0.328288
0.34243
0.360341
0.381811
0.406229
0.431241
0.445811
0.453226
0.458849
0.462653
0.464652
0.464959
0.463792
0.46145
0.454722
0.441412
0.426081
0.413373
0.404563
0.399861
0.399183
0.402354
0.408701
0.417069
0.424773
0.427275
0.425085
0.41769
0.410218
0.404813
0.402881
0.404946
0.411222
0.421851
0.43684
0.454815
0.473096
0.484243
0.489788
0.49425
0.497392
0.499014
0.472499
0.472379
0.471983
0.466472
0.455389
0.444747
0.437999
0.435613
0.438191
0.445207
0.45596
0.468803
0.475655
0.476863
0.477077
0.476923
0.476322
0.475245
0.471209
0.458851
0.442777
0.429662
0.421065
0.417447
0.419085
0.426139
0.438786
0.457231
0.481625
0.511864
0.547962
0.588585
0.619751
0.641861
0.661646
0.680409
0.697975
0.71422
0.729066
0.742471
0.754413
0.76489
0.773907
0.781475
0.787606
0.792312
0.795606
0.797493
0.797981
0.79707
0.794759
0.791042
0.78591
0.77935
0.771347
0.761884
0.750944
0.738508
0.724565
0.709111
0.692154
0.673728
0.653896
0.632767
0.610189
0.57811
0.533015
0.490849
0.454136
0.423046
0.39738
0.376938
0.361495
0.350867
0.344899
0.343461
0.34645
0.353781
0.365392
0.381234
0.401153
0.424677
0.450139
0.467421
0.475673
0.48196
0.486848
0.490298
0.492332
0.493046
0.492615
0.491283
0.48935
0.483924
0.47419
0.461388
0.452593
0.44832
0.44857
0.453385
0.461566
0.467252
0.470306
0.471057
0.470859
0.468335
0.463156
0.455689
0.452271
0.453441
0.459328
0.469913
0.48538
0.498973
0.508184
0.512972
0.517212
0.520664
0.5231
0.524359
0.507185
0.507214
0.507334
0.507588
0.504268
0.498384
0.491743
0.488823
0.491912
0.499244
0.506473
0.511125
0.511737
0.511988
0.5122
0.512256
0.512103
0.511745
0.511258
0.507434
0.496967
0.482924
0.472984
0.468375
0.469618
0.476817
0.490119
0.509744
0.535805
0.567048
0.602624
0.629876
0.649723
0.66794
0.685604
0.702478
0.718384
0.733188
0.746796
0.759145
0.770197
0.779927
0.788327
0.795392
0.801123
0.805523
0.808597
0.810346
0.810774
0.80988
0.807662
0.804117
0.799239
0.79302
0.785453
0.77653
0.766245
0.754596
0.741587
0.727231
0.711559
0.694622
0.676497
0.657299
0.637172
0.615606
0.584826
0.542344
0.503729
0.470519
0.442792
0.42062
0.403825
0.392295
0.385911
0.384553
0.388114
0.396473
0.409513
0.42717
0.449034
0.473461
0.491481
0.500534
0.506815
0.512092
0.516285
0.519359
0.521331
0.522279
0.522338
0.521706
0.520634
0.519436
0.516606
0.511304
0.505552
0.502095
0.502543
0.504878
0.507094
0.507574
0.506894
0.506922
0.50771
0.509214
0.509363
0.50794
0.506563
0.507401
0.512665
0.520965
0.52904
0.534885
0.538539
0.542154
0.545422
0.548095
0.549985
0.550962
0.541841
0.541958
0.542243
0.542803
0.543823
0.543608
0.542144
0.541567
0.543022
0.545544
0.547109
0.546823
0.546893
0.547153
0.54748
0.547798
0.548087
0.548376
0.548756
0.549388
0.547576
0.541467
0.531668
0.526624
0.527777
0.535211
0.549049
0.569413
0.596609
0.623372
0.645427
0.662119
0.678405
0.694573
0.71035
0.725516
0.739895
0.753352
0.765785
0.777118
0.7873
0.796296
0.804081
0.810642
0.81597
0.820061
0.822912
0.824521
0.824889
0.824014
0.821893
0.818525
0.813908
0.808038
0.800915
0.792538
0.782912
0.772045
0.759954
0.746668
0.73223
0.716702
0.700173
0.682759
0.664607
0.645899
0.626145
0.59833
0.560405
0.525822
0.495963
0.471972
0.453646
0.441082
0.434218
0.432937
0.437136
0.446603
0.461003
0.480291
0.502878
0.519459
0.528213
0.533884
0.53896
0.543307
0.546841
0.549521
0.551355
0.552398
0.552754
0.552571
0.552037
0.551373
0.550819
0.550452
0.548758
0.547037
0.546187
0.545258
0.543485
0.542372
0.541879
0.542003
0.542764
0.544174
0.546286
0.549105
0.551022
0.553263
0.556818
0.56075
0.563349
0.566005
0.568868
0.571684
0.574228
0.576309
0.577782
0.578544
0.576381
0.576535
0.576875
0.577459
0.578357
0.579595
0.581129
0.582184
0.582389
0.581975
0.581681
0.581648
0.58186
0.582252
0.582766
0.583371
0.584071
0.584915
0.586002
0.587497
0.589647
0.591225
0.59047
0.58991
0.591937
0.599708
0.613467
0.63119
0.649054
0.664921
0.678586
0.692775
0.707205
0.721595
0.735708
0.74934
0.762329
0.774541
0.785872
0.796242
0.805591
0.813874
0.82106
0.827125
0.832055
0.835838
0.838468
0.839939
0.840247
0.839392
0.837371
0.834183
0.829829
0.82431
0.81763
0.809795
0.800819
0.790717
0.779517
0.767257
0.753989
0.739784
0.724734
0.708957
0.692599
0.675835
0.658877
0.641637
0.618152
0.58796
0.556723
0.531352
0.511349
0.497679
0.490301
0.489049
0.493907
0.504489
0.519489
0.538891
0.551907
0.558898
0.563458
0.567829
0.571833
0.575336
0.578251
0.58053
0.58217
0.583205
0.583709
0.583786
0.583569
0.583199
0.582804
0.58244
0.582038
0.581306
0.579956
0.578519
0.577324
0.576547
0.576245
0.576446
0.57717
0.578427
0.580224
0.582537
0.585259
0.588053
0.590378
0.592458
0.594632
0.596913
0.599242
0.601486
0.603495
0.605133
0.606289
0.606887
0.610766
0.610927
0.611264
0.611801
0.612551
0.613488
0.614503
0.615306
0.615716
0.615849
0.615975
0.616227
0.616646
0.617229
0.617963
0.618849
0.619912
0.62121
0.62284
0.62495
0.627741
0.631482
0.636483
0.640983
0.646367
0.654446
0.664987
0.676416
0.687042
0.69843
0.710569
0.723191
0.736044
0.748897
0.761544
0.773809
0.78554
0.796611
0.806921
0.816387
0.824947
0.83255
0.839158
0.844744
0.849286
0.852769
0.855182
0.856518
0.85677
0.855936
0.854015
0.851007
0.846915
0.841742
0.835499
0.828195
0.81985
0.810487
0.80014
0.788854
0.776685
0.76371
0.750022
0.735737
0.720995
0.705964
0.69084
0.67585
0.66123
0.643397
0.621867
0.597864
0.576432
0.562008
0.55422
0.552753
0.55788
0.569139
0.580474
0.588628
0.592586
0.595629
0.598891
0.602142
0.605207
0.607954
0.610295
0.612179
0.613589
0.614544
0.615089
0.615297
0.615253
0.615049
0.614758
0.614407
0.61396
0.61332
0.612442
0.611519
0.610743
0.610248
0.61011
0.610367
0.611042
0.612139
0.613645
0.615513
0.617638
0.619833
0.621898
0.623857
0.625809
0.627771
0.629703
0.631523
0.633133
0.634437
0.635354
0.635828
0.644989
0.645143
0.645455
0.645929
0.646557
0.647303
0.648086
0.648782
0.649315
0.649731
0.650143
0.65064
0.651269
0.652053
0.653007
0.654149
0.655518
0.657172
0.6592
0.661721
0.664885
0.668865
0.673822
0.679809
0.6868
0.694356
0.702417
0.711212
0.72083
0.731161
0.742071
0.753376
0.764882
0.776403
0.787764
0.798812
0.80941
0.819442
0.828812
0.83744
0.845259
0.85222
0.858279
0.863406
0.867576
0.87077
0.872974
0.87418
0.874379
0.873568
0.871746
0.868916
0.86508
0.860247
0.854427
0.847637
0.839899
0.831242
0.821703
0.811332
0.800188
0.788349
0.775906
0.762973
0.749682
0.736187
0.722668
0.709332
0.696411
0.684178
0.671941
0.657869
0.643709
0.631623
0.623977
0.621436
0.622684
0.625732
0.628422
0.62897
0.630265
0.632141
0.634336
0.636642
0.638897
0.640978
0.642797
0.644301
0.645465
0.646291
0.646807
0.647058
0.647099
0.646988
0.64677
0.646468
0.646076
0.645573
0.644973
0.644371
0.64388
0.643594
0.643578
0.64387
0.644491
0.645442
0.646704
0.648231
0.649948
0.651744
0.653524
0.655263
0.656977
0.658658
0.660275
0.661771
0.663078
0.664128
0.664864
0.665242
0.679058
0.6792
0.679483
0.679903
0.680445
0.68108
0.681758
0.682419
0.683032
0.683617
0.684228
0.68492
0.685738
0.686709
0.687861
0.689224
0.690838
0.692761
0.695066
0.697847
0.701213
0.705272
0.710113
0.715764
0.722184
0.729224
0.736833
0.745056
0.753905
0.763315
0.773178
0.783359
0.793706
0.804067
0.814298
0.824264
0.833845
0.842936
0.851446
0.8593
0.866432
0.87279
0.878333
0.883026
0.886842
0.88976
0.891766
0.892847
0.892997
0.89221
0.890487
0.887829
0.884243
0.879737
0.874326
0.868028
0.860868
0.852878
0.844099
0.834582
0.824387
0.813591
0.802282
0.790568
0.778571
0.766433
0.754315
0.742397
0.730881
0.719983
0.709935
0.70107
0.693023
0.68513
0.678726
0.674516
0.67168
0.668975
0.667403
0.666972
0.667364
0.668334
0.669669
0.671193
0.672761
0.674263
0.675615
0.676763
0.677677
0.678349
0.678791
0.679028
0.679097
0.679032
0.678867
0.678621
0.678303
0.677922
0.677506
0.677112
0.676811
0.67667
0.676737
0.677046
0.677611
0.678434
0.679496
0.680762
0.682176
0.683672
0.685189
0.686696
0.688176
0.68961
0.690969
0.692208
0.69328
0.694134
0.69473
0.695036
0.712986
0.713116
0.713374
0.713754
0.714241
0.714815
0.715446
0.716104
0.716777
0.717475
0.71823
0.719077
0.720051
0.721184
0.722505
0.724047
0.72585
0.727966
0.730456
0.733391
0.736847
0.740897
0.745593
0.750951
0.756948
0.763521
0.770634
0.778275
0.78642
0.795013
0.803968
0.813175
0.822515
0.831863
0.841097
0.850101
0.858771
0.867011
0.874738
0.88188
0.888377
0.894177
0.899236
0.903522
0.907005
0.909664
0.911482
0.912447
0.912551
0.911789
0.910162
0.907671
0.904325
0.900132
0.89511
0.889279
0.882666
0.875304
0.867234
0.858508
0.849188
0.839344
0.829064
0.818445
0.807601
0.796659
0.785761
0.775063
0.764731
0.75494
0.745862
0.737655
0.730336
0.72398
0.718472
0.713709
0.709863
0.707016
0.705139
0.704152
0.703885
0.704161
0.704813
0.705698
0.706692
0.707697
0.708637
0.70946
0.710131
0.710637
0.710978
0.711168
0.711227
0.711178
0.711045
0.710844
0.710593
0.710308
0.710016
0.709759
0.709584
0.709537
0.709656
0.709964
0.710474
0.711186
0.712085
0.713144
0.714323
0.715578
0.716866
0.718154
0.71942
0.720639
0.721781
0.722813
0.723698
0.724399
0.724886
0.725135
0.746784
0.746905
0.747144
0.747497
0.747951
0.748493
0.749106
0.749776
0.750497
0.751277
0.752138
0.753105
0.754207
0.755471
0.756928
0.758608
0.76055
0.762798
0.7654
0.768412
0.771888
0.775876
0.78041
0.7855
0.791134
0.79728
0.803907
0.810988
0.818488
0.826351
0.834504
0.842859
0.851316
0.859773
0.868124
0.876273
0.884126
0.891598
0.898614
0.905107
0.91102
0.916303
0.920914
0.92482
0.927992
0.930408
0.932051
0.932908
0.93297
0.932235
0.9307
0.92837
0.925252
0.921358
0.916705
0.911314
0.905213
0.898436
0.891025
0.88303
0.874511
0.865535
0.856184
0.846548
0.836729
0.826841
0.817008
0.807361
0.79804
0.789182
0.780917
0.77335
0.766535
0.760506
0.75524
0.750719
0.746992
0.744088
0.741984
0.740612
0.739864
0.73961
0.739726
0.740094
0.740613
0.741196
0.741778
0.742307
0.74275
0.743089
0.743317
0.743439
0.743464
0.743409
0.743289
0.743119
0.742917
0.742699
0.742491
0.742323
0.742228
0.74224
0.742384
0.742679
0.743135
0.743751
0.744515
0.745406
0.746395
0.747451
0.748541
0.749636
0.750712
0.751743
0.752704
0.753565
0.7543
0.754878
0.755279
0.755483
0.78046
0.780575
0.780802
0.781137
0.781573
0.7821
0.78271
0.783396
0.784157
0.785
0.785941
0.787
0.7882
0.789566
0.791126
0.792908
0.794945
0.797274
0.799935
0.80297
0.806416
0.810309
0.81467
0.819506
0.824808
0.830557
0.836726
0.843284
0.850191
0.857398
0.86484
0.872441
0.880119
0.887786
0.895356
0.902741
0.909861
0.916641
0.923013
0.928914
0.934292
0.9391
0.943298
0.946852
0.949735
0.951926
0.953406
0.954162
0.954188
0.953478
0.952033
0.949856
0.946955
0.943343
0.939036
0.934058
0.928435
0.922202
0.9154
0.908077
0.900289
0.892102
0.883589
0.874833
0.865926
0.856969
0.848067
0.839335
0.830886
0.822832
0.815274
0.808295
0.801949
0.796269
0.791263
0.786934
0.783299
0.78036
0.778095
0.77645
0.775347
0.774691
0.774387
0.77434
0.774468
0.774698
0.77497
0.77524
0.775474
0.775652
0.775763
0.775805
0.775782
0.775704
0.775582
0.775427
0.775255
0.775082
0.774927
0.774814
0.774767
0.774809
0.774961
0.775235
0.775637
0.776168
0.776817
0.777568
0.778401
0.779291
0.780211
0.781138
0.782047
0.782918
0.783725
0.784446
0.785057
0.785536
0.785867
0.786036
0.814022
0.814132
0.814352
0.814677
0.815103
0.815625
0.816238
0.81694
0.817733
0.818625
0.819625
0.820753
0.822027
0.823469
0.825102
0.826952
0.829048
0.831419
0.834097
0.837115
0.840499
0.844274
0.848455
0.853044
0.858037
0.863415
0.869156
0.875229
0.881596
0.88821
0.895015
0.901945
0.908931
0.915898
0.92277
0.929474
0.935937
0.942093
0.947881
0.953245
0.958135
0.962507
0.966324
0.969555
0.972172
0.974153
0.975483
0.976148
0.976142
0.975458
0.974098
0.972066
0.96937
0.966022
0.96204
0.957446
0.952268
0.946538
0.940296
0.933588
0.926468
0.918995
0.911237
0.903269
0.895174
0.88704
0.878958
0.871026
0.863338
0.855985
0.849052
0.842605
0.836696
0.831358
0.826608
0.822457
0.818909
0.815959
0.813586
0.811747
0.810382
0.809421
0.808789
0.808412
0.808221
0.808156
0.808166
0.808209
0.808255
0.808282
0.808277
0.808235
0.808156
0.808044
0.807907
0.807753
0.807595
0.807446
0.807321
0.807238
0.807216
0.80727
0.807415
0.807661
0.808012
0.808466
0.809016
0.80965
0.810351
0.811099
0.811874
0.812656
0.813423
0.814155
0.814833
0.815435
0.815945
0.816344
0.816618
0.816758
0.847473
0.847581
0.847796
0.848115
0.848537
0.849058
0.849677
0.850394
0.851212
0.852139
0.853183
0.85436
0.855686
0.857179
0.85886
0.860751
0.862875
0.865257
0.867921
0.870893
0.874191
0.877834
0.88183
0.88618
0.890879
0.895911
0.901254
0.90688
0.912753
0.918831
0.925064
0.931395
0.937763
0.944105
0.950354
0.956447
0.96232
0.967914
0.973174
0.97805
0.982495
0.986469
0.989938
0.992871
0.995243
0.997033
0.998225
0.998807
0.998771
0.998114
0.996835
0.99494
0.992435
0.989335
0.985656
0.981419
0.976651
0.971385
0.965657
0.959512
0.952998
0.946172
0.939094
0.931833
0.924462
0.917057
0.9097
0.902472
0.895453
0.88872
0.882343
0.876379
0.870873
0.865859
0.861356
0.857375
0.853919
0.850982
0.848543
0.846569
0.845013
0.843822
0.842936
0.842297
0.841848
0.84154
0.841327
0.841175
0.841054
0.840943
0.840829
0.840703
0.840563
0.84041
0.840248
0.840084
0.839926
0.839785
0.839673
0.839602
0.839587
0.83964
0.839769
0.839983
0.840283
0.840668
0.841131
0.841664
0.842252
0.842881
0.843532
0.844188
0.844833
0.845447
0.846015
0.846519
0.846943
0.847275
0.847503
0.847619
0.880817
0.880923
0.881135
0.881451
0.881871
0.882393
0.883018
0.883747
0.884584
0.885535
0.886609
0.887819
0.889178
0.890702
0.892409
0.894316
0.896444
0.898811
0.901438
0.904343
0.90754
0.91104
0.91485
0.918968
0.923388
0.928095
0.933069
0.938283
0.943706
0.949298
0.955014
0.960807
0.966622
0.972403
0.978095
0.983639
0.988982
0.994069
0.998852
1.00328
1.00733
1.01094
1.01409
1.01675
1.0189
1.02051
1.02158
1.02208
1.02202
1.02139
1.02019
1.01842
1.0161
1.01323
1.00983
1.00592
1.00153
0.996694
0.991437
0.985804
0.979842
0.9736
0.967135
0.960508
0.953783
0.947027
0.940312
0.933708
0.927282
0.9211
0.91522
0.909693
0.904559
0.899849
0.895581
0.891768
0.888412
0.885507
0.883036
0.880972
0.87928
0.877917
0.876836
0.875991
0.875336
0.874827
0.874429
0.87411
0.873842
0.873608
0.873392
0.873185
0.872983
0.872784
0.872591
0.872408
0.87224
0.872095
0.871982
0.871911
0.871892
0.871932
0.87204
0.872218
0.872469
0.872791
0.873178
0.873623
0.874114
0.874639
0.875184
0.875733
0.876272
0.876787
0.877261
0.877681
0.878035
0.878311
0.878501
0.878597
0.914054
0.914159
0.914369
0.914684
0.915103
0.915626
0.916255
0.916992
0.91784
0.918807
0.919899
0.921128
0.922505
0.924043
0.925756
0.927661
0.929773
0.932107
0.934678
0.937501
0.940584
0.943937
0.947561
0.951455
0.955609
0.960012
0.964643
0.969479
0.974489
0.979639
0.984889
0.990196
0.995514
1.00079
1.00598
1.01103
1.0159
1.02053
1.02488
1.02891
1.03258
1.03587
1.03873
1.04114
1.04308
1.04454
1.04549
1.04593
1.04584
1.04524
1.04411
1.04246
1.0403
1.03765
1.03451
1.03091
1.02687
1.02242
1.01759
1.01243
1.00696
1.00125
0.995339
0.98928
0.983133
0.976958
0.970815
0.964765
0.958867
0.953177
0.947745
0.942615
0.937822
0.933395
0.929351
0.925703
0.922453
0.919597
0.917121
0.915004
0.913218
0.911729
0.910501
0.909496
0.908675
0.908005
0.907453
0.906992
0.906598
0.906254
0.905945
0.905662
0.905399
0.905154
0.904925
0.904716
0.90453
0.904373
0.90425
0.904169
0.904137
0.904158
0.904238
0.90438
0.904584
0.904848
0.905167
0.905535
0.905942
0.906378
0.906831
0.907288
0.907737
0.908166
0.90856
0.90891
0.909204
0.909434
0.909591
0.909671
0.947186
0.947291
0.947499
0.947813
0.94823
0.948754
0.949384
0.950125
0.950979
0.951953
0.953053
0.954289
0.95567
0.957207
0.958913
0.960799
0.962879
0.965165
0.967667
0.970397
0.97336
0.976562
0.980003
0.98368
0.987583
0.9917
0.996013
1.0005
1.00513
1.00988
1.01471
1.01958
1.02444
1.02927
1.03401
1.03862
1.04305
1.04727
1.05123
1.05489
1.05824
1.06122
1.06381
1.066
1.06776
1.06906
1.06991
1.07029
1.07019
1.06961
1.06855
1.06701
1.06501
1.06255
1.05965
1.05633
1.05261
1.04852
1.04409
1.03935
1.03434
1.0291
1.02369
1.01814
1.01251
1.00686
1.00122
0.99567
0.990244
0.984996
0.979968
0.975199
0.97072
0.966557
0.962726
0.95924
0.956101
0.953307
0.950847
0.948705
0.946858
0.945281
0.943943
0.942815
0.941865
0.941064
0.940386
0.939806
0.939305
0.938864
0.938472
0.938119
0.937798
0.937505
0.937239
0.937001
0.936792
0.936616
0.936476
0.936379
0.936327
0.936325
0.936376
0.936481
0.93664
0.93685
0.937108
0.937408
0.937741
0.9381
0.938473
0.938851
0.939223
0.939578
0.939905
0.940195
0.940438
0.940628
0.940758
0.940824
0.980214
0.980318
0.980525
0.980836
0.981252
0.981774
0.982404
0.983144
0.983998
0.984972
0.986072
0.987305
0.988679
0.990204
0.991889
0.993744
0.99578
0.998006
1.00043
1.00306
1.0059
1.00895
1.01221
1.01568
1.01934
1.02319
1.02721
1.03137
1.03566
1.04004
1.04448
1.04896
1.05342
1.05783
1.06217
1.06637
1.07042
1.07426
1.07787
1.08121
1.08424
1.08695
1.08931
1.09129
1.09288
1.09405
1.09481
1.09513
1.09501
1.09446
1.09346
1.09203
1.09017
1.0879
1.08522
1.08215
1.07873
1.07496
1.07089
1.06653
1.06194
1.05713
1.05217
1.04708
1.04192
1.03673
1.03156
1.02645
1.02144
1.01659
1.01193
1.00749
1.0033
0.999386
0.995758
0.992429
0.989405
0.986683
0.984255
0.98211
0.98023
0.978593
0.977177
0.975956
0.974906
0.974001
0.97322
0.972542
0.97195
0.971426
0.970961
0.970544
0.970169
0.96983
0.969526
0.969256
0.969021
0.968822
0.968661
0.968542
0.968467
0.968439
0.968459
0.968527
0.968643
0.968805
0.969008
0.969247
0.969516
0.969807
0.970111
0.970421
0.970726
0.971018
0.971287
0.971526
0.971726
0.971883
0.97199
0.972044
1.01314
1.01324
1.01345
1.01376
1.01417
1.01469
1.01531
1.01605
1.0169
1.01787
1.01896
1.02018
1.02154
1.02304
1.02469
1.02651
1.02849
1.03065
1.03299
1.03551
1.03822
1.04112
1.04421
1.04748
1.05092
1.05452
1.05826
1.06213
1.06609
1.07014
1.07423
1.07834
1.08244
1.08648
1.09045
1.09429
1.09798
1.10149
1.10478
1.10782
1.11058
1.11305
1.11518
1.11698
1.11841
1.11947
1.12013
1.12041
1.12028
1.11975
1.11881
1.11748
1.11575
1.11364
1.11117
1.10834
1.10518
1.10172
1.09797
1.09396
1.08974
1.08533
1.08077
1.0761
1.07136
1.06658
1.06182
1.05711
1.05249
1.048
1.04367
1.03954
1.03561
1.03193
1.02849
1.02531
1.02241
1.01976
1.01738
1.01525
1.01336
1.01168
1.01021
1.00893
1.0078
1.00681
1.00595
1.00519
1.00452
1.00393
1.0034
1.00293
1.0025
1.00212
1.00178
1.00148
1.00121
1.00099
1.0008
1.00066
1.00056
1.00051
1.00049
1.00053
1.0006
1.00072
1.00087
1.00106
1.00127
1.0015
1.00174
1.00199
1.00224
1.00248
1.0027
1.00289
1.00306
1.00319
1.00327
1.00332
1.04596
1.04606
1.04626
1.04657
1.04698
1.04749
1.04811
1.04884
1.04968
1.05064
1.05171
1.05292
1.05425
1.05572
1.05734
1.05911
1.06103
1.06311
1.06536
1.06777
1.07036
1.07311
1.07603
1.07911
1.08233
1.0857
1.08918
1.09278
1.09645
1.10019
1.10396
1.10775
1.11151
1.11522
1.11885
1.12236
1.12574
1.12894
1.13194
1.13471
1.13722
1.13946
1.1414
1.14303
1.14432
1.14527
1.14586
1.14609
1.14595
1.14544
1.14456
1.14331
1.14171
1.13976
1.13747
1.13486
1.13195
1.12875
1.1253
1.12162
1.11773
1.11368
1.10948
1.10519
1.10082
1.09643
1.09204
1.08769
1.08342
1.07925
1.07523
1.07136
1.06769
1.06421
1.06096
1.05793
1.05514
1.05258
1.05026
1.04815
1.04626
1.04457
1.04307
1.04174
1.04055
1.03951
1.03858
1.03776
1.03702
1.03637
1.03579
1.03526
1.03479
1.03437
1.03399
1.03366
1.03337
1.03312
1.03291
1.03274
1.03261
1.03253
1.03248
1.03248
1.03252
1.03259
1.0327
1.03284
1.033
1.03318
1.03337
1.03357
1.03377
1.03396
1.03414
1.03429
1.03443
1.03453
1.0346
1.03464
1.07868
1.07878
1.07898
1.07928
1.07968
1.08019
1.0808
1.08152
1.08235
1.08329
1.08434
1.08552
1.08683
1.08826
1.08983
1.09155
1.0934
1.09541
1.09756
1.09987
1.10233
1.10494
1.10769
1.11059
1.11361
1.11676
1.12
1.12334
1.12675
1.1302
1.13369
1.13717
1.14063
1.14403
1.14736
1.15058
1.15366
1.15659
1.15932
1.16185
1.16414
1.16617
1.16793
1.16941
1.17057
1.17142
1.17194
1.17213
1.17198
1.1715
1.17067
1.16951
1.16802
1.16621
1.16409
1.16168
1.15899
1.15605
1.15286
1.14947
1.14589
1.14216
1.1383
1.13434
1.13032
1.12626
1.12221
1.11819
1.11423
1.11036
1.10661
1.103
1.09955
1.09628
1.0932
1.09032
1.08764
1.08517
1.08291
1.08084
1.07897
1.07728
1.07576
1.07439
1.07317
1.07208
1.0711
1.07023
1.06944
1.06874
1.06811
1.06754
1.06703
1.06657
1.06616
1.0658
1.06548
1.0652
1.06497
1.06477
1.06462
1.06451
1.06443
1.0644
1.0644
1.06444
1.0645
1.0646
1.06471
1.06485
1.06499
1.06515
1.0653
1.06545
1.06559
1.06572
1.06582
1.06591
1.06596
1.06599
1.1113
1.1114
1.1116
1.11189
1.11229
1.11278
1.11338
1.11409
1.1149
1.11582
1.11685
1.118
1.11927
1.12067
1.12219
1.12384
1.12563
1.12755
1.12961
1.13181
1.13415
1.13662
1.13921
1.14194
1.14477
1.14771
1.15074
1.15384
1.157
1.16019
1.16341
1.16662
1.1698
1.17293
1.17598
1.17893
1.18175
1.18442
1.18692
1.18922
1.19131
1.19316
1.19476
1.19609
1.19714
1.1979
1.19836
1.19852
1.19836
1.19789
1.19712
1.19603
1.19465
1.19297
1.19101
1.18878
1.18629
1.18357
1.18064
1.17751
1.17421
1.17077
1.16721
1.16356
1.15985
1.1561
1.15235
1.14863
1.14496
1.14136
1.13786
1.13448
1.13125
1.12816
1.12524
1.1225
1.11994
1.11756
1.11536
1.11334
1.11149
1.10981
1.10829
1.10691
1.10566
1.10453
1.10352
1.10261
1.10178
1.10104
1.10037
1.09977
1.09922
1.09873
1.09829
1.0979
1.09755
1.09725
1.09699
1.09677
1.09659
1.09645
1.09634
1.09628
1.09625
1.09625
1.09628
1.09633
1.09641
1.0965
1.09661
1.09672
1.09684
1.09696
1.09706
1.09716
1.09724
1.09731
1.09735
1.09738
1.14382
1.14392
1.14411
1.1444
1.14479
1.14527
1.14586
1.14655
1.14734
1.14824
1.14924
1.15036
1.15159
1.15294
1.15441
1.156
1.15772
1.15956
1.16153
1.16362
1.16583
1.16817
1.17061
1.17317
1.17583
1.17857
1.18139
1.18428
1.18721
1.19017
1.19313
1.19609
1.19902
1.2019
1.2047
1.2074
1.20999
1.21243
1.21471
1.21681
1.21871
1.2204
1.22185
1.22306
1.224
1.22468
1.22509
1.22521
1.22505
1.2246
1.22387
1.22286
1.22157
1.22001
1.21819
1.21613
1.21383
1.21132
1.20861
1.20572
1.20268
1.1995
1.19621
1.19284
1.18941
1.18594
1.18247
1.17902
1.1756
1.17225
1.16899
1.16583
1.16278
1.15988
1.15711
1.1545
1.15205
1.14976
1.14763
1.14566
1.14385
1.14219
1.14067
1.13929
1.13802
1.13688
1.13584
1.1349
1.13404
1.13327
1.13257
1.13193
1.13135
1.13083
1.13037
1.12995
1.12958
1.12925
1.12896
1.12872
1.12851
1.12835
1.12822
1.12812
1.12806
1.12803
1.12803
1.12805
1.12809
1.12815
1.12822
1.1283
1.12838
1.12847
1.12855
1.12862
1.12868
1.12873