/*--------------------------------*- C++ -*----------------------------------*\
| =========                 |                                                 |
| \\      /  F ield         | OpenFOAM: The Open Source CFD Toolbox           |
|  \\    /   O peration     | Version:  2406                                  |
|   \\  /    A nd           | Website:  www.openfoam.com                      |
|    \\/     M anipulation  |                                                 |
\*---------------------------------------------------------------------------*/
FoamFile
{
    version     2.0;
    format      ascii;
    arch        "LSB;label=32;scalar=64";
    class       volScalarField;
    location    "8.5";
    object      D;
}
// * * * * * * * * * * * * * * * * * * * * * * * * * * * * * * * * * * * * * //

dimensions      [0 2 -1 0 0 0 0];

internalField   nonuniform List<scalar> 
14400
(
7.33981e-05
7.3361e-05
7.33142e-05
7.32821e-05
7.32726e-05
7.32797e-05
7.32923e-05
7.33018e-05
7.33065e-05
7.33139e-05
7.33396e-05
7.34017e-05
7.35115e-05
7.36569e-05
7.37851e-05
7.38042e-05
7.36494e-05
7.33824e-05
7.30653e-05
7.27073e-05
7.22771e-05
7.17283e-05
7.10204e-05
7.01361e-05
6.90916e-05
6.79399e-05
6.67576e-05
6.56231e-05
6.45971e-05
6.37157e-05
6.29965e-05
6.24476e-05
6.20797e-05
6.1918e-05
6.20254e-05
6.25678e-05
6.40976e-05
6.97621e-05
0.000121805
0.00013824
0.00013824
0.00013824
0.00013824
0.00013824
0.00013824
0.00013824
0.00013824
0.00013824
0.00013824
0.00013824
0.00013824
0.00013824
0.00013824
0.00013824
0.00013824
0.00013824
0.00013824
0.00013824
0.00013824
0.00011086
6.93413e-05
6.43203e-05
6.30337e-05
6.26944e-05
6.28107e-05
6.32469e-05
6.39666e-05
6.49716e-05
6.62746e-05
6.7872e-05
6.97113e-05
7.16671e-05
7.35557e-05
7.51905e-05
7.64341e-05
7.72171e-05
7.7527e-05
7.73925e-05
7.68759e-05
7.60725e-05
7.51111e-05
7.41511e-05
7.33801e-05
7.30387e-05
7.35647e-05
7.63778e-05
8.99618e-05
0.00013763
0.000100036
7.62171e-05
7.17197e-05
7.02791e-05
6.97849e-05
6.97388e-05
6.99474e-05
7.03075e-05
7.07499e-05
7.12216e-05
7.16796e-05
7.20886e-05
7.24185e-05
7.26424e-05
7.27363e-05
7.26815e-05
7.24711e-05
7.21128e-05
7.16265e-05
7.10389e-05
7.03821e-05
6.96926e-05
6.90114e-05
6.8383e-05
6.78553e-05
6.7483e-05
6.73389e-05
6.75449e-05
6.83675e-05
7.06118e-05
7.8224e-05
0.000133106
7.2795e-05
7.2691e-05
7.25505e-05
7.24281e-05
7.23447e-05
7.22986e-05
7.22799e-05
7.22798e-05
7.22967e-05
7.23382e-05
7.24207e-05
7.25652e-05
7.27873e-05
7.3076e-05
7.33566e-05
7.34596e-05
7.32164e-05
7.28099e-05
7.23751e-05
7.1938e-05
7.14656e-05
7.09078e-05
7.02226e-05
6.93912e-05
6.84268e-05
6.73741e-05
6.62981e-05
6.52652e-05
6.4328e-05
6.35204e-05
6.2861e-05
6.2362e-05
6.20389e-05
6.19242e-05
6.20945e-05
6.27503e-05
6.45605e-05
7.11005e-05
0.000131024
0.00013824
0.00013824
0.00013824
0.00013824
0.00013824
0.00013824
0.00013824
0.00013824
0.00013824
0.00013824
0.00013824
0.00013824
0.00013824
0.00013824
0.00013824
0.00013824
0.00013824
0.00013824
0.00013824
0.00013824
0.000120876
7.01714e-05
6.45851e-05
6.31399e-05
6.27194e-05
6.27774e-05
6.31588e-05
6.38162e-05
6.4743e-05
6.59449e-05
6.74156e-05
6.91092e-05
7.0918e-05
7.268e-05
7.42222e-05
7.54093e-05
7.61656e-05
7.64719e-05
7.63541e-05
7.58753e-05
7.5133e-05
7.42563e-05
7.34013e-05
7.27499e-05
7.25447e-05
7.32719e-05
7.6795e-05
9.69939e-05
0.000138133
0.000112039
7.70395e-05
7.1677e-05
7.00157e-05
6.93932e-05
6.92438e-05
6.93588e-05
6.96327e-05
6.99988e-05
7.04088e-05
7.08241e-05
7.12114e-05
7.15392e-05
7.17746e-05
7.18843e-05
7.18401e-05
7.16311e-05
7.12723e-05
7.07942e-05
7.02322e-05
6.96216e-05
6.89972e-05
6.83946e-05
6.7852e-05
6.74123e-05
6.71286e-05
6.70778e-05
6.74007e-05
6.84409e-05
7.14554e-05
8.41853e-05
0.000137466
7.19045e-05
7.16413e-05
7.13041e-05
7.10109e-05
7.0798e-05
7.06628e-05
7.05919e-05
7.05749e-05
7.06091e-05
7.07026e-05
7.08755e-05
7.11581e-05
7.15845e-05
7.21667e-05
7.28184e-05
7.31824e-05
7.2643e-05
7.1887e-05
7.12044e-05
7.06173e-05
7.00698e-05
6.94986e-05
6.88556e-05
6.8118e-05
6.72908e-05
6.64045e-05
6.55051e-05
6.46411e-05
6.38538e-05
6.31729e-05
6.26193e-05
6.2211e-05
6.19722e-05
6.195e-05
6.22532e-05
6.31972e-05
6.61658e-05
8.21455e-05
0.000138008
0.00013824
0.00013824
0.00013824
0.00013824
0.00013824
0.00013824
0.00013824
0.00013824
0.00013824
0.00013824
0.00013824
0.00013824
0.00013824
0.00013824
0.00013824
0.00013824
0.00013824
0.00013824
0.00013824
0.00013824
0.000134623
7.28839e-05
6.53693e-05
6.34158e-05
6.2793e-05
6.27273e-05
6.30023e-05
6.35449e-05
6.43317e-05
6.5356e-05
6.66055e-05
6.80416e-05
6.95818e-05
7.10996e-05
7.24507e-05
7.35112e-05
7.42024e-05
7.44978e-05
7.44183e-05
7.40256e-05
7.34161e-05
7.27144e-05
7.20665e-05
7.16443e-05
7.16951e-05
7.27787e-05
7.7463e-05
0.000110746
0.000138237
0.000129328
7.88354e-05
7.18476e-05
6.96602e-05
6.87703e-05
6.84305e-05
6.83843e-05
6.85142e-05
6.87547e-05
6.9063e-05
6.94066e-05
6.97562e-05
7.00797e-05
7.03361e-05
7.04758e-05
7.04519e-05
7.02457e-05
6.98853e-05
6.94216e-05
6.89034e-05
6.83695e-05
6.78503e-05
6.73736e-05
6.69687e-05
6.66727e-05
6.65381e-05
6.66516e-05
6.71893e-05
6.86423e-05
7.34048e-05
0.000105618
0.000138234
7.1277e-05
7.06621e-05
6.99867e-05
6.94524e-05
6.90801e-05
6.88436e-05
6.87152e-05
6.86778e-05
6.8727e-05
6.88721e-05
6.91401e-05
6.95814e-05
7.02771e-05
7.13381e-05
7.28275e-05
7.41969e-05
7.24953e-05
7.09636e-05
6.98769e-05
6.90826e-05
6.8441e-05
6.78552e-05
6.72639e-05
6.66354e-05
6.59634e-05
6.52623e-05
6.45591e-05
6.38852e-05
6.32706e-05
6.27412e-05
6.23195e-05
6.20301e-05
6.19088e-05
6.20235e-05
6.25335e-05
6.39457e-05
6.90647e-05
0.000113524
0.00013824
0.00013824
0.00013824
0.00013824
0.00013824
0.00013824
0.00013824
0.00013824
0.00013824
0.00013824
0.00013824
0.00013824
0.00013824
0.00013824
0.00013824
0.00013824
0.00013824
0.00013824
0.00013824
0.00013824
0.00013824
0.000138225
9.55617e-05
6.78171e-05
6.39972e-05
6.2956e-05
6.26902e-05
6.28129e-05
6.32025e-05
6.38121e-05
6.46192e-05
6.56032e-05
6.67295e-05
6.79369e-05
6.91355e-05
7.02188e-05
7.10877e-05
7.16732e-05
7.1948e-05
7.19281e-05
7.16684e-05
7.12555e-05
7.08001e-05
7.04335e-05
7.03229e-05
7.07443e-05
7.23972e-05
7.85791e-05
0.000127283
0.00013824
0.000138147
9.40351e-05
7.33915e-05
6.95362e-05
6.81619e-05
6.75533e-05
6.73069e-05
6.7271e-05
6.7373e-05
6.75714e-05
6.78384e-05
6.81495e-05
6.84737e-05
6.87629e-05
6.8948e-05
6.89535e-05
6.87456e-05
6.83738e-05
6.79184e-05
6.74431e-05
6.69884e-05
6.6579e-05
6.62347e-05
6.5978e-05
6.5843e-05
6.58871e-05
6.62193e-05
6.70854e-05
6.92261e-05
7.63225e-05
0.000130232
0.00013824
7.19397e-05
7.02846e-05
6.89789e-05
6.8111e-05
6.75566e-05
6.72161e-05
6.70312e-05
6.69729e-05
6.70336e-05
6.72245e-05
6.75827e-05
6.81909e-05
6.92239e-05
7.10978e-05
7.50215e-05
8.41408e-05
7.38695e-05
7.0421e-05
6.87034e-05
6.76466e-05
6.68965e-05
6.62911e-05
6.57449e-05
6.52138e-05
6.46799e-05
6.41437e-05
6.36175e-05
6.31198e-05
6.26719e-05
6.22959e-05
6.20163e-05
6.18652e-05
6.18946e-05
6.2208e-05
6.30649e-05
6.53964e-05
7.49612e-05
0.000136844
0.00013824
0.00013824
0.00013824
0.00013824
0.00013824
0.00013824
0.00013824
0.00013824
0.00013824
0.00013824
0.00013824
0.00013824
0.00013824
0.00013824
0.00013824
0.00013824
0.00013824
0.00013824
0.00013824
0.00013824
0.00013824
0.00013824
0.000127079
7.12445e-05
6.49479e-05
6.3266e-05
6.27124e-05
6.26383e-05
6.28486e-05
6.3265e-05
6.3848e-05
6.45681e-05
6.53916e-05
6.62719e-05
6.71473e-05
6.79465e-05
6.86017e-05
6.90636e-05
6.93118e-05
6.93592e-05
6.925e-05
6.90546e-05
6.88663e-05
6.88052e-05
6.90522e-05
6.99896e-05
7.29768e-05
8.73063e-05
0.000137809
0.00013824
0.00013824
0.000127964
7.68684e-05
7.00097e-05
6.7833e-05
6.68495e-05
6.63678e-05
6.61605e-05
6.61324e-05
6.62353e-05
6.64417e-05
6.67317e-05
6.70784e-05
6.74287e-05
6.76904e-05
6.77387e-05
6.75094e-05
6.70903e-05
6.66123e-05
6.61541e-05
6.57559e-05
6.5435e-05
6.52041e-05
6.50824e-05
6.5106e-05
6.53472e-05
6.59689e-05
6.74299e-05
7.1927e-05
0.000101975
0.000138231
0.00013824
7.90518e-05
7.1443e-05
6.86239e-05
6.72221e-05
6.64319e-05
6.59714e-05
6.57237e-05
6.56421e-05
6.57146e-05
6.59547e-05
6.64134e-05
6.72251e-05
6.87422e-05
7.23465e-05
8.83365e-05
0.000134805
7.95041e-05
7.07406e-05
6.79331e-05
6.65146e-05
6.56269e-05
6.49848e-05
6.44636e-05
6.40024e-05
6.35727e-05
6.31646e-05
6.27804e-05
6.24303e-05
6.21294e-05
6.1898e-05
6.17634e-05
6.1769e-05
6.19954e-05
6.26272e-05
6.42368e-05
6.9899e-05
0.000119718
0.00013824
0.00013824
0.00013824
0.00013824
0.00013824
0.00013824
0.00013824
0.00013824
0.00013824
0.00013824
0.00013824
0.00013824
0.00013824
0.00013824
0.00013824
0.00013824
0.00013824
0.00013824
0.00013824
0.00013824
0.00013824
0.00013824
0.00013824
0.000138222
9.40509e-05
6.76387e-05
6.39431e-05
6.28803e-05
6.25404e-05
6.2544e-05
6.27614e-05
6.31314e-05
6.36149e-05
6.41774e-05
6.47816e-05
6.53847e-05
6.59412e-05
6.64095e-05
6.67602e-05
6.69826e-05
6.70885e-05
6.71125e-05
6.71119e-05
6.71679e-05
6.74009e-05
6.80288e-05
6.96259e-05
7.50343e-05
0.000116854
0.00013824
0.00013824
0.00013824
0.000138234
0.00010426
7.30981e-05
6.82297e-05
6.65443e-05
6.57407e-05
6.53408e-05
6.51892e-05
6.52154e-05
6.53867e-05
6.56893e-05
6.61077e-05
6.65892e-05
6.70163e-05
6.71469e-05
6.68377e-05
6.62711e-05
6.56976e-05
6.52037e-05
6.48224e-05
6.45584e-05
6.44168e-05
6.4416e-05
6.46023e-05
6.508e-05
6.61248e-05
6.86466e-05
7.79166e-05
0.000136303
0.00013824
0.00013824
0.000133381
7.78255e-05
6.95509e-05
6.70126e-05
6.58313e-05
6.51935e-05
6.48562e-05
6.47422e-05
6.48328e-05
6.51453e-05
6.57546e-05
6.69041e-05
6.93308e-05
7.6947e-05
0.000132836
0.00013824
0.000115512
7.36395e-05
6.78605e-05
6.58122e-05
6.47165e-05
6.40025e-05
6.34762e-05
6.30527e-05
6.26916e-05
6.23751e-05
6.20988e-05
6.18676e-05
6.16941e-05
6.15987e-05
6.16155e-05
6.18072e-05
6.23133e-05
6.35357e-05
6.73811e-05
9.31154e-05
0.000138221
0.00013824
0.00013824
0.00013824
0.00013824
0.00013824
0.00013824
0.00013824
0.00013824
0.00013824
0.00013824
0.00013824
0.00013824
0.00013824
0.00013824
0.00013824
0.00013824
0.00013824
0.00013824
0.00013824
0.00013824
0.00013824
0.00013824
0.00013824
0.00013824
0.000133876
7.25286e-05
6.52776e-05
6.33344e-05
6.26025e-05
6.23519e-05
6.23592e-05
6.25287e-05
6.28076e-05
6.31581e-05
6.35475e-05
6.39444e-05
6.43194e-05
6.46484e-05
6.49158e-05
6.51188e-05
6.52697e-05
6.53987e-05
6.55568e-05
6.58258e-05
6.6349e-05
6.74402e-05
7.01152e-05
8.04526e-05
0.000136901
0.00013824
0.00013824
0.00013824
0.00013824
0.000137906
8.5207e-05
7.03143e-05
6.69653e-05
6.56024e-05
6.49281e-05
6.46364e-05
6.45973e-05
6.47634e-05
6.51342e-05
6.57348e-05
6.65364e-05
6.74644e-05
6.78491e-05
6.72377e-05
6.61737e-05
6.53305e-05
6.46969e-05
6.42744e-05
6.40319e-05
6.39622e-05
6.40868e-05
6.44807e-05
6.53356e-05
6.73359e-05
7.39983e-05
0.000127348
0.00013824
0.00013824
0.00013824
0.00013824
0.000129003
7.50841e-05
6.81111e-05
6.59785e-05
6.4993e-05
6.44867e-05
6.43146e-05
6.44414e-05
6.48952e-05
6.58049e-05
6.78398e-05
7.42446e-05
0.000121577
0.00013824
0.00013824
0.000137862
8.3741e-05
6.90312e-05
6.56784e-05
6.42193e-05
6.33664e-05
6.27928e-05
6.23724e-05
6.20481e-05
6.17931e-05
6.15978e-05
6.14648e-05
6.14073e-05
6.14509e-05
6.16438e-05
6.20868e-05
6.30529e-05
6.55806e-05
7.65908e-05
0.000137479
0.00013824
0.00013824
0.00013824
0.00013824
0.00013824
0.00013824
0.00013824
0.00013824
0.00013824
0.00013824
0.00013824
0.00013824
0.00013824
0.00013824
0.00013824
0.00013824
0.00013824
0.00013824
0.00013824
0.00013824
0.00013824
0.00013824
0.00013824
0.00013824
0.00013824
0.00013824
0.000117672
7.00997e-05
6.45696e-05
6.29868e-05
6.23532e-05
6.21116e-05
6.20801e-05
6.21768e-05
6.23543e-05
6.25793e-05
6.28256e-05
6.30725e-05
6.33054e-05
6.35171e-05
6.37103e-05
6.38991e-05
6.41135e-05
6.44074e-05
6.48792e-05
6.57377e-05
6.75833e-05
7.33677e-05
0.000118581
0.00013824
0.00013824
0.00013824
0.00013824
0.00013824
0.00013824
0.000136713
7.90429e-05
6.92801e-05
6.63839e-05
6.51209e-05
6.46114e-05
6.45013e-05
6.47035e-05
6.52561e-05
6.63721e-05
6.81852e-05
7.20084e-05
7.3937e-05
7.14322e-05
6.75412e-05
6.58662e-05
6.48106e-05
6.42375e-05
6.39681e-05
6.39687e-05
6.42698e-05
6.50438e-05
6.68001e-05
7.28584e-05
0.000118227
0.00013824
0.00013824
0.00013824
0.00013824
0.00013824
0.00013824
0.000125132
7.41794e-05
6.7736e-05
6.57665e-05
6.48102e-05
6.45017e-05
6.47183e-05
6.5551e-05
6.72484e-05
7.3216e-05
0.000114962
0.00013824
0.00013824
0.00013824
0.00013824
0.000129774
7.36107e-05
6.65544e-05
6.42706e-05
6.31219e-05
6.2429e-05
6.19686e-05
6.16504e-05
6.1433e-05
6.13009e-05
6.12569e-05
6.1321e-05
6.15347e-05
6.19833e-05
6.28655e-05
6.49053e-05
7.22714e-05
0.000134441
0.00013824
0.00013824
0.00013824
0.00013824
0.00013824
0.00013824
0.00013824
0.00013824
0.00013824
0.00013824
0.00013824
0.00013824
0.00013824
0.00013824
0.00013824
0.00013824
0.00013824
0.00013824
0.00013824
0.00013824
0.00013824
0.00013824
0.00013824
0.00013824
0.00013824
0.00013824
0.00013824
0.000138233
9.83985e-05
6.8409e-05
6.40607e-05
6.26836e-05
6.2087e-05
6.18238e-05
6.17414e-05
6.17679e-05
6.18613e-05
6.19948e-05
6.21507e-05
6.2319e-05
6.24971e-05
6.26914e-05
6.29199e-05
6.32172e-05
6.36507e-05
6.43581e-05
6.57014e-05
6.92222e-05
8.79354e-05
0.00013811
0.00013824
0.00013824
0.00013824
0.00013824
0.00013824
0.00013824
0.00013824
0.000136573
8.19315e-05
7.02922e-05
6.65713e-05
6.5553e-05
6.53154e-05
6.56543e-05
6.67251e-05
7.02681e-05
7.707e-05
0.000117852
0.000132908
0.000112451
7.45074e-05
6.91e-05
6.61508e-05
6.51111e-05
6.46919e-05
6.48084e-05
6.55012e-05
6.74623e-05
7.31454e-05
0.000119185
0.00013824
0.00013824
0.00013824
0.00013824
0.00013824
0.00013824
0.00013824
0.00013824
0.000129602
7.65426e-05
6.98245e-05
6.66235e-05
6.58604e-05
6.63773e-05
6.90852e-05
7.41049e-05
0.000120847
0.00013824
0.00013824
0.00013824
0.00013824
0.00013824
0.00013824
0.000115113
7.13347e-05
6.54026e-05
6.34312e-05
6.24568e-05
6.18839e-05
6.15339e-05
6.13329e-05
6.12558e-05
6.13088e-05
6.15343e-05
6.20252e-05
6.30079e-05
6.50833e-05
7.18928e-05
0.000131867
0.00013824
0.00013824
0.00013824
0.00013824
0.00013824
0.00013824
0.00013824
0.00013824
0.00013824
0.00013824
0.00013824
0.00013824
0.00013824
0.00013824
0.00013824
0.00013824
0.00013824
0.00013824
0.00013824
0.00013824
0.00013824
0.00013824
0.00013824
0.00013824
0.00013824
0.00013824
0.00013824
0.00013824
0.00013824
0.000138147
8.60766e-05
6.72151e-05
6.36877e-05
6.24219e-05
6.18243e-05
6.15302e-05
6.14048e-05
6.13804e-05
6.14219e-05
6.15096e-05
6.1634e-05
6.17954e-05
6.20044e-05
6.22852e-05
6.26854e-05
6.33064e-05
6.43793e-05
6.66278e-05
7.40044e-05
0.000133012
0.00013824
0.00013824
0.00013824
0.00013824
0.00013824
0.00013824
0.00013824
0.00013824
0.00013824
0.000137768
0.00010121
7.28876e-05
6.99049e-05
6.90693e-05
7.02035e-05
7.33477e-05
0.000103601
0.000136544
0.00013824
0.00013824
0.00013824
0.000133877
9.33418e-05
7.21229e-05
6.90386e-05
6.76484e-05
6.83e-05
7.07346e-05
8.04026e-05
0.000129755
0.00013824
0.00013824
0.00013824
0.00013824
0.00013824
0.00013824
0.00013824
0.00013824
0.00013824
0.00013824
0.00013651
0.000104133
7.46234e-05
7.16407e-05
7.34588e-05
9.67597e-05
0.000133032
0.00013824
0.00013824
0.00013824
0.00013824
0.00013824
0.00013824
0.00013824
0.000138239
0.000106909
7.03955e-05
6.48872e-05
6.31262e-05
6.22644e-05
6.18147e-05
6.16046e-05
6.15884e-05
6.17817e-05
6.23055e-05
6.34737e-05
6.64827e-05
7.46758e-05
0.00013376
0.00013824
0.00013824
0.00013824
0.00013824
0.00013824
0.00013824
0.00013824
0.00013824
0.00013824
0.00013824
0.00013824
0.00013824
0.00013824
0.00013824
0.00013824
0.00013824
0.00013824
0.00013824
0.00013824
0.00013824
0.00013824
0.00013824
0.00013824
0.00013824
0.00013824
0.00013824
0.00013824
0.00013824
0.00013824
0.00013824
0.00013824
0.000137922
8.13038e-05
6.68154e-05
6.35171e-05
6.22369e-05
6.16139e-05
6.12985e-05
6.11457e-05
6.1099e-05
6.11292e-05
6.12232e-05
6.13829e-05
6.16255e-05
6.19893e-05
6.25505e-05
6.35137e-05
6.54804e-05
7.16284e-05
0.000120555
0.00013824
0.00013824
0.00013824
0.00013824
0.00013824
0.00013824
0.00013824
0.00013824
0.00013824
0.00013824
0.00013824
0.000138234
0.000128913
0.000104684
9.44775e-05
0.000108329
0.000131685
0.000138237
0.00013824
0.00013824
0.00013824
0.00013824
0.00013824
0.00013821
0.000125692
9.81479e-05
8.33041e-05
9.07662e-05
0.000116745
0.00013776
0.00013824
0.00013824
0.00013824
0.00013824
0.00013824
0.00013824
0.00013824
0.00013824
0.00013824
0.00013824
0.00013824
0.00013824
0.000138237
0.000135595
0.000127256
0.000133964
0.000138225
0.00013824
0.00013824
0.00013824
0.00013824
0.00013824
0.00013824
0.00013824
0.00013824
0.00013824
0.000138238
0.000111135
7.09289e-05
6.55189e-05
6.36381e-05
6.28895e-05
6.26118e-05
6.27116e-05
6.32092e-05
6.46213e-05
6.89031e-05
9.00051e-05
0.000137113
0.00013824
0.00013824
0.00013824
0.00013824
0.00013824
0.00013824
0.00013824
0.00013824
0.00013824
0.00013824
0.00013824
0.00013824
0.00013824
0.00013824
0.00013824
0.00013824
0.00013824
0.00013824
0.00013824
0.00013824
0.00013824
0.00013824
0.00013824
0.00013824
0.00013824
0.00013824
0.00013824
0.00013824
0.00013824
0.00013824
0.00013824
0.00013824
0.00013824
0.000137867
8.3241e-05
6.73344e-05
6.35692e-05
6.21867e-05
6.15555e-05
6.12154e-05
6.10606e-05
6.10316e-05
6.11033e-05
6.12787e-05
6.15895e-05
6.21098e-05
6.29823e-05
6.48081e-05
7.04304e-05
0.000110303
0.00013824
0.00013824
0.00013824
0.00013824
0.00013824
0.00013824
0.00013824
0.00013824
0.00013824
0.00013824
0.00013824
0.00013824
0.00013824
0.00013824
0.000138237
0.000138211
0.000138239
0.00013824
0.00013824
0.00013824
0.00013824
0.00013824
0.00013824
0.00013824
0.00013824
0.00013824
0.000138228
0.000137958
0.000138183
0.00013824
0.00013824
0.00013824
0.00013824
0.00013824
0.00013824
0.00013824
0.00013824
0.00013824
0.00013824
0.00013824
0.00013824
0.00013824
0.00013824
0.00013824
0.00013824
0.00013824
0.00013824
0.00013824
0.00013824
0.00013824
0.00013824
0.00013824
0.00013824
0.00013824
0.00013824
0.00013824
0.00013824
0.00013824
0.00013824
0.000126497
7.75288e-05
6.8989e-05
6.68204e-05
6.61094e-05
6.68075e-05
6.85889e-05
7.50765e-05
0.000118762
0.00013821
0.00013824
0.00013824
0.00013824
0.00013824
0.00013824
0.00013824
0.00013824
0.00013824
0.00013824
0.00013824
0.00013824
0.00013824
0.00013824
0.00013824
0.00013824
0.00013824
0.00013824
0.00013824
0.00013824
0.00013824
0.00013824
0.00013824
0.00013824
0.00013824
0.00013824
0.00013824
0.00013824
0.00013824
0.00013824
0.00013824
0.00013824
0.00013824
0.00013824
0.00013824
0.00013824
0.000138084
9.34426e-05
6.86184e-05
6.39284e-05
6.25392e-05
6.17764e-05
6.14384e-05
6.13281e-05
6.1381e-05
6.16018e-05
6.20618e-05
6.29768e-05
6.4657e-05
7.02891e-05
0.000109596
0.000138239
0.00013824
0.00013824
0.00013824
0.00013824
0.00013824
0.00013824
0.00013824
0.00013824
0.00013824
0.00013824
0.00013824
0.00013824
0.00013824
0.00013824
0.00013824
0.00013824
0.00013824
0.00013824
0.00013824
0.00013824
0.00013824
0.00013824
0.00013824
0.00013824
0.00013824
0.00013824
0.00013824
0.00013824
0.00013824
0.00013824
0.00013824
0.00013824
0.00013824
0.00013824
0.00013824
0.00013824
0.00013824
0.00013824
0.00013824
0.00013824
0.00013824
0.00013824
0.00013824
0.00013824
0.00013824
0.00013824
0.00013824
0.00013824
0.00013824
0.00013824
0.00013824
0.00013824
0.00013824
0.00013824
0.00013824
0.00013824
0.00013824
0.00013824
0.00013824
0.00013824
0.00013767
0.0001177
9.42568e-05
8.72234e-05
9.68987e-05
0.000118643
0.000137337
0.00013824
0.00013824
0.00013824
0.00013824
0.00013824
0.00013824
0.00013824
0.00013824
0.00013824
0.00013824
0.00013824
0.00013824
0.00013824
0.00013824
0.00013824
0.00013824
0.00013824
0.00013824
0.00013824
0.00013824
0.00013824
0.00013824
0.00013824
0.00013824
0.00013824
0.00013824
0.00013824
0.00013824
0.00013824
0.00013824
0.00013824
0.00013824
0.00013824
0.00013824
0.00013824
0.00013824
0.00013824
0.00013824
0.000138225
0.00011345
7.07206e-05
6.6242e-05
6.35019e-05
6.27079e-05
6.24259e-05
6.24523e-05
6.28031e-05
6.36729e-05
6.64084e-05
7.15542e-05
0.000119802
0.000138239
0.00013824
0.00013824
0.00013824
0.00013824
0.00013824
0.00013824
0.00013824
0.00013824
0.00013824
0.00013824
0.00013824
0.00013824
0.00013824
0.00013824
0.00013824
0.00013824
0.00013824
0.00013824
0.00013824
0.00013824
0.00013824
0.00013824
0.00013824
0.00013824
0.00013824
0.00013824
0.00013824
0.00013824
0.00013824
0.00013824
0.00013824
0.00013824
0.00013824
0.00013824
0.00013824
0.00013824
0.00013824
0.00013824
0.00013824
0.00013824
0.00013824
0.00013824
0.00013824
0.00013824
0.00013824
0.00013824
0.00013824
0.00013824
0.00013824
0.00013824
0.00013824
0.00013824
0.00013824
0.00013824
0.00013824
0.00013824
0.00013824
0.00013824
0.00013824
0.00013824
0.00013824
0.00013824
0.00013824
0.000138224
0.000138172
0.000138231
0.00013824
0.00013824
0.00013824
0.00013824
0.00013824
0.00013824
0.00013824
0.00013824
0.00013824
0.00013824
0.00013824
0.00013824
0.00013824
0.00013824
0.00013824
0.00013824
0.00013824
0.00013824
0.00013824
0.00013824
0.00013824
0.00013824
0.00013824
0.00013824
0.00013824
0.00013824
0.00013824
0.00013824
0.00013824
0.00013824
0.00013824
0.00013824
0.00013824
0.00013824
0.00013824
0.00013824
0.00013824
0.00013824
0.00013824
0.00013824
0.00013824
0.00013824
0.000132648
9.55718e-05
7.00753e-05
6.76084e-05
6.65221e-05
6.64193e-05
6.74517e-05
6.99175e-05
9.19993e-05
0.000133268
0.00013824
0.00013824
0.00013824
0.00013824
0.00013824
0.00013824
0.00013824
0.00013824
0.00013824
0.00013824
0.00013824
0.00013824
0.00013824
0.00013824
0.00013824
0.00013824
0.00013824
0.00013824
0.00013824
0.00013824
0.00013824
0.00013824
0.00013824
0.00013824
0.00013824
0.00013824
0.00013824
0.00013824
0.00013824
0.00013824
0.00013824
0.00013824
0.00013824
0.00013824
0.00013824
0.00013824
0.00013824
0.00013824
0.00013824
0.00013824
0.00013824
0.00013824
0.00013824
0.00013824
0.00013824
0.00013824
0.00013824
0.00013824
0.00013824
0.00013824
0.00013824
0.00013824
0.00013824
0.00013824
0.00013824
0.00013824
0.00013824
0.00013824
0.00013824
0.00013824
0.00013824
0.00013824
0.00013824
0.00013824
0.00013824
0.00013824
0.00013824
0.00013824
0.00013824
0.00013824
0.00013824
0.00013824
0.00013824
0.00013824
0.00013824
0.00013824
0.00013824
0.00013824
0.00013824
0.00013824
0.00013824
0.00013824
0.00013824
0.00013824
0.00013824
0.00013824
0.00013824
0.00013824
0.00013824
0.00013824
0.00013824
0.00013824
0.00013824
0.00013824
0.00013824
0.00013824
0.00013824
0.00013824
0.00013824
0.00013824
0.00013824
0.00013824
0.00013824
0.00013824
0.00013824
0.00013824
0.00013824
0.00013824
0.00013824
0.00013824
0.00013824
0.000138232
0.000131847
0.000111618
9.6577e-05
9.43467e-05
0.000106891
0.000128677
0.00013822
0.00013824
0.00013824
0.00013824
0.00013824
0.00013824
0.00013824
0.00013824
0.00013824
0.00013824
0.00013824
0.00013824
0.00013824
0.00013824
0.00013824
0.00013824
0.00013824
0.00013824
0.00013824
0.00013824
0.00013824
0.00013824
0.00013824
0.00013824
0.00013824
0.00013824
0.00013824
0.00013824
0.00013824
0.00013824
0.00013824
0.00013824
0.00013824
0.00013824
0.00013824
0.00013824
0.00013824
0.00013824
0.00013824
0.00013824
0.00013824
0.00013824
0.00013824
0.00013824
0.00013824
0.00013824
0.00013824
0.00013824
0.00013824
0.00013824
0.00013824
0.00013824
0.00013824
0.00013824
0.00013824
0.00013824
0.00013824
0.00013824
0.00013824
0.00013824
0.00013824
0.00013824
0.00013824
0.00013824
0.00013824
0.00013824
0.00013824
0.00013824
0.00013824
0.00013824
0.00013824
0.00013824
0.00013824
0.00013824
0.00013824
0.00013824
0.00013824
0.00013824
0.00013824
0.00013824
0.00013824
0.00013824
0.00013824
0.00013824
0.00013824
0.00013824
0.00013824
0.00013824
0.00013824
0.00013824
0.00013824
0.00013824
0.00013824
0.00013824
0.00013824
0.00013824
0.00013824
0.00013824
0.00013824
0.00013824
0.00013824
0.00013824
0.00013824
0.00013824
0.00013824
0.00013824
0.00013824
0.00013824
0.00013824
0.00013824
0.00013824
0.00013824
0.00013824
0.00013824
0.00013824
0.00013824
0.000138232
0.000138226
0.000138239
0.00013824
0.00013824
0.00013824
0.00013824
0.00013824
0.00013824
0.00013824
0.00013824
0.00013824
0.00013824
0.00013824
0.00013824
0.00013824
0.00013824
0.00013824
0.00013824
0.00013824
0.00013824
0.00013824
0.00013824
0.00013824
0.00013824
0.00013824
0.00013824
0.00013824
0.00013824
0.00013824
0.00013824
0.00013824
0.00013824
0.00013824
0.00013824
0.00013824
0.00013824
0.00013824
0.00013824
0.00013824
0.00013824
0.00013824
0.00013824
0.00013824
0.00013824
0.00013824
0.00013824
0.00013824
0.00013824
0.00013824
0.00013824
0.00013824
0.00013824
0.00013824
0.00013824
0.00013824
0.00013824
0.00013824
0.00013824
0.00013824
0.00013824
0.00013824
0.00013824
0.00013824
0.00013824
0.00013824
0.00013824
0.00013824
0.00013824
0.00013824
0.00013824
0.00013824
0.00013824
0.00013824
0.00013824
0.00013824
0.00013824
0.00013824
0.00013824
0.00013824
0.00013824
0.00013824
0.00013824
0.00013824
0.00013824
0.00013824
0.00013824
0.00013824
0.00013824
0.00013824
0.00013824
0.00013824
0.00013824
0.00013824
0.00013824
0.00013824
0.00013824
0.00013824
0.00013824
0.00013824
0.00013824
0.00013824
0.00013824
0.00013824
0.00013824
0.00013824
0.00013824
0.00013824
0.00013824
0.00013824
0.00013824
0.00013824
0.00013824
0.00013824
0.00013824
0.00013824
0.00013824
0.00013824
0.00013824
0.00013824
0.00013824
0.00013824
0.00013824
0.00013824
0.00013824
0.00013824
0.00013824
0.00013824
0.00013824
0.00013824
0.00013824
0.00013824
0.00013824
0.00013824
0.00013824
0.00013824
0.00013824
0.00013824
0.00013824
0.00013824
0.00013824
0.00013824
0.00013824
0.00013824
0.00013824
0.00013824
0.00013824
0.00013824
0.00013824
0.00013824
0.00013824
0.00013824
0.00013824
0.00013824
0.00013824
0.00013824
0.00013824
0.00013824
0.00013824
0.00013824
0.00013824
0.00013824
0.00013824
0.00013824
0.00013824
0.00013824
0.00013824
0.00013824
0.00013824
0.00013824
0.00013824
0.00013824
0.00013824
0.00013824
0.00013824
0.00013824
0.00013824
0.00013824
0.00013824
0.00013824
0.00013824
0.00013824
0.00013824
0.00013824
0.00013824
0.00013824
0.00013824
0.00013824
0.00013824
0.00013824
0.00013824
0.00013824
0.00013824
0.00013824
0.00013824
0.00013824
0.00013824
0.00013824
0.00013824
0.00013824
0.00013824
0.00013824
0.00013824
0.00013824
0.00013824
0.00013824
0.00013824
0.00013824
0.00013824
0.00013824
0.00013824
0.00013824
0.00013824
0.00013824
0.00013824
0.00013824
0.00013824
0.00013824
0.00013824
0.00013824
0.00013824
0.00013824
0.00013824
0.00013824
0.00013824
0.00013824
0.00013824
0.00013824
0.00013824
0.00013824
0.00013824
0.00013824
0.00013824
0.00013824
0.00013824
0.00013824
0.00013824
0.00013824
0.00013824
0.00013824
0.00013824
0.00013824
0.00013824
0.00013824
0.00013824
0.00013824
0.00013824
0.00013824
0.00013824
0.00013824
0.00013824
0.00013824
0.00013824
0.00013824
0.00013824
0.00013824
0.00013824
0.00013824
0.00013824
0.00013824
0.00013824
0.00013824
0.00013824
0.00013824
0.00013824
0.00013824
0.00013824
0.00013824
0.00013824
0.00013824
0.00013824
0.00013824
0.00013824
0.00013824
0.00013824
0.00013824
0.00013824
0.00013824
0.00013824
0.00013824
0.00013824
0.00013824
0.00013824
0.00013824
0.00013824
0.00013824
0.00013824
0.00013824
0.00013824
0.00013824
0.00013824
0.00013824
0.00013824
0.00013824
0.00013824
0.00013824
0.00013824
0.00013824
0.00013824
0.00013824
0.00013824
0.00013824
0.00013824
0.00013824
0.00013824
0.00013824
0.00013824
0.00013824
0.00013824
0.00013824
0.00013824
0.00013824
0.00013824
0.00013824
0.00013824
0.00013824
0.00013824
0.00013824
0.00013824
0.00013824
0.00013824
0.00013824
0.00013824
0.00013824
0.00013824
0.00013824
0.00013824
0.00013824
0.00013824
0.00013824
0.00013824
0.00013824
0.00013824
0.00013824
0.00013824
0.00013824
0.00013824
0.00013824
0.00013824
0.00013824
0.00013824
0.00013824
0.00013824
0.00013824
0.00013824
0.00013824
0.00013824
0.00013824
0.00013824
0.00013824
0.00013824
0.00013824
0.00013824
0.00013824
0.00013824
0.00013824
0.00013824
0.00013824
0.00013824
0.00013824
0.00013824
0.00013824
0.00013824
0.00013824
0.00013824
0.00013824
0.00013824
0.00013824
0.00013824
0.00013824
0.00013824
0.00013824
0.00013824
0.00013824
0.00013824
0.00013824
0.00013824
0.00013824
0.00013824
0.00013824
0.00013824
0.00013824
0.00013824
0.00013824
0.00013824
0.00013824
0.00013824
0.00013824
0.00013824
0.00013824
0.00013824
0.00013824
0.00013824
0.00013824
0.00013824
0.00013824
0.00013824
0.00013824
0.00013824
0.00013824
0.00013824
0.00013824
0.00013824
0.00013824
0.00013824
0.00013824
0.00013824
0.00013824
0.00013824
0.00013824
0.00013824
0.00013824
0.00013824
0.00013824
0.00013824
0.00013824
0.00013824
0.00013824
0.00013824
0.00013824
0.00013824
0.00013824
0.00013824
0.00013824
0.00013824
0.00013824
0.00013824
0.00013824
0.00013824
0.00013824
0.00013824
0.00013824
0.00013824
0.00013824
0.00013824
0.00013824
0.00013824
0.00013824
0.00013824
0.00013824
0.00013824
0.00013824
0.00013824
0.00013824
0.00013824
0.00013824
0.00013824
0.00013824
0.00013824
0.00013824
0.00013824
0.00013824
0.00013824
0.00013824
0.00013824
0.00013824
0.00013824
0.00013824
0.00013824
0.00013824
0.00013824
0.00013824
0.00013824
0.00013824
0.00013824
0.00013824
0.00013824
0.00013824
0.00013824
0.00013824
0.00013824
0.00013824
0.00013824
0.00013824
0.00013824
0.00013824
0.00013824
0.00013824
0.00013824
0.00013824
0.00013824
0.00013824
0.00013824
0.00013824
0.00013824
0.00013824
0.00013824
0.00013824
0.00013824
0.00013824
0.00013824
0.00013824
0.00013824
0.00013824
0.00013824
0.00013824
0.00013824
0.00013824
0.00013824
0.00013824
0.00013824
0.00013824
0.00013824
0.00013824
0.00013824
0.00013824
0.00013824
0.00013824
0.00013824
0.00013824
0.00013824
0.00013824
0.00013824
0.00013824
0.00013824
0.00013824
0.00013824
0.00013824
0.00013824
0.00013824
0.00013824
0.00013824
0.00013824
0.00013824
0.00013824
0.00013824
0.00013824
0.00013824
0.00013824
0.00013824
0.00013824
0.00013824
0.00013824
0.00013824
0.00013824
0.00013824
0.00013824
0.00013824
0.00013824
0.00013824
0.00013824
0.00013824
0.00013824
0.00013824
0.00013824
0.00013824
0.00013824
0.00013824
0.00013824
0.00013824
0.00013824
0.00013824
0.00013824
0.00013824
0.00013824
0.00013824
0.00013824
0.00013824
0.00013824
0.00013824
0.00013824
0.00013824
0.00013824
0.00013824
0.00013824
0.00013824