/*--------------------------------*- C++ -*----------------------------------*\
| =========                 |                                                 |
| \\      /  F ield         | OpenFOAM: The Open Source CFD Toolbox           |
|  \\    /   O peration     | Version:  2406                                  |
|   \\  /    A nd           | Website:  www.openfoam.com                      |
|    \\/     M anipulation  |                                                 |
\*---------------------------------------------------------------------------*/
FoamFile
{
    version     2.0;
    format      ascii;
    arch        "LSB;label=32;scalar=64";
    class       volScalarField;
    location    "4.85";
    object      C_0_0;
}
// * * * * * * * * * * * * * * * * * * * * * * * * * * * * * * * * * * * * * //

dimensions      [1 -3 0 0 0 0 0];

internalField   nonuniform List<scalar> 
14400
(
0.33655
0.333262
0.328058
0.322332
0.317172
0.313347
0.311372
0.311562
0.314071
0.318907
0.325928
0.334814
0.344998
0.35553
0.364816
0.37018
0.366691
0.358843
0.349538
0.340701
0.333575
0.328995
0.327558
0.329726
0.335892
0.346418
0.36166
0.381983
0.407768
0.439405
0.477267
0.521634
0.572472
0.628439
0.680204
0.716218
0.741831
0.764285
0.783948
0.801105
0.815977
0.828737
0.839523
0.848442
0.855579
0.860998
0.864749
0.866866
0.86737
0.866268
0.863559
0.859227
0.853244
0.845569
0.836148
0.824908
0.811756
0.796578
0.779229
0.759527
0.737245
0.712096
0.682674
0.63813
0.578459
0.522476
0.472569
0.429074
0.391808
0.360416
0.334498
0.313664
0.297566
0.285901
0.278423
0.274934
0.275285
0.27937
0.287116
0.298472
0.313388
0.33179
0.353519
0.378194
0.404763
0.429234
0.444256
0.449856
0.449298
0.44098
0.42346
0.402169
0.381943
0.363921
0.348521
0.335899
0.326047
0.318831
0.314001
0.311198
0.309964
0.309771
0.310087
0.310491
0.310822
0.311286
0.312349
0.314581
0.318552
0.324765
0.333632
0.345467
0.360479
0.378764
0.400272
0.424688
0.450934
0.47401
0.487458
0.492783
0.350056
0.345446
0.338861
0.332027
0.32606
0.321689
0.319388
0.319447
0.322007
0.327074
0.334519
0.344053
0.355173
0.367047
0.378219
0.385438
0.380677
0.370801
0.359916
0.349949
0.34202
0.336874
0.335051
0.336981
0.34304
0.353577
0.368941
0.38949
0.4156
0.447657
0.486027
0.530978
0.582448
0.638954
0.687206
0.719847
0.744987
0.767075
0.786454
0.80339
0.818088
0.830712
0.84139
0.850224
0.857296
0.862667
0.866384
0.86848
0.868974
0.867876
0.865182
0.860877
0.854935
0.847316
0.837967
0.826818
0.813783
0.798749
0.781581
0.762107
0.740113
0.715322
0.687187
0.645913
0.587962
0.531537
0.480931
0.436796
0.398986
0.367141
0.340852
0.319726
0.303409
0.2916
0.284049
0.28056
0.280984
0.285216
0.293186
0.304844
0.320145
0.33902
0.361311
0.38665
0.413944
0.437575
0.450647
0.456008
0.455819
0.449443
0.43338
0.411828
0.391132
0.372655
0.356893
0.344035
0.33409
0.326935
0.32232
0.319874
0.319104
0.319408
0.320133
0.320708
0.320855
0.320902
0.321463
0.32323
0.326842
0.332837
0.341637
0.353555
0.368789
0.38742
0.409365
0.434256
0.460853
0.482181
0.493249
0.498107
0.377673
0.369755
0.36029
0.351293
0.343784
0.33837
0.335445
0.335256
0.33792
0.343437
0.351691
0.362432
0.37523
0.389325
0.403047
0.409877
0.406397
0.393842
0.38028
0.368292
0.358881
0.352664
0.350101
0.351573
0.357426
0.367992
0.383604
0.404606
0.431363
0.464248
0.503602
0.549614
0.60189
0.657411
0.698659
0.726977
0.751195
0.772573
0.791404
0.807912
0.822274
0.834632
0.8451
0.853769
0.860713
0.865989
0.869639
0.871694
0.872172
0.87108
0.868415
0.864165
0.858303
0.850793
0.841585
0.830617
0.817806
0.803055
0.786238
0.767208
0.745777
0.72172
0.69477
0.659431
0.607316
0.549656
0.497655
0.45229
0.413424
0.380688
0.353666
0.331958
0.315207
0.303108
0.295412
0.291922
0.292492
0.297018
0.305432
0.31769
0.333753
0.353548
0.376893
0.403302
0.431221
0.452319
0.462737
0.467711
0.468033
0.463776
0.452011
0.430993
0.409519
0.390167
0.37369
0.36036
0.350233
0.343205
0.339035
0.337338
0.337565
0.338975
0.340657
0.341676
0.341349
0.340423
0.33987
0.340637
0.343497
0.349042
0.357704
0.369786
0.385464
0.404769
0.427534
0.453123
0.479157
0.495769
0.504154
0.508289
0.414352
0.404684
0.391636
0.3798
0.370229
0.363387
0.359598
0.359066
0.361891
0.368058
0.377443
0.389814
0.404744
0.421211
0.435138
0.438486
0.437229
0.426098
0.409927
0.395491
0.384132
0.376447
0.372845
0.373665
0.379229
0.389852
0.405846
0.427532
0.455249
0.489344
0.530118
0.577636
0.630959
0.679294
0.711823
0.737369
0.760242
0.780617
0.798677
0.814581
0.828464
0.840442
0.850608
0.859039
0.865799
0.870937
0.87449
0.876485
0.876938
0.875856
0.873235
0.869064
0.863318
0.855967
0.846965
0.836257
0.823772
0.809424
0.793111
0.774708
0.754067
0.731009
0.705315
0.675651
0.632894
0.575961
0.522616
0.475645
0.435289
0.40126
0.373158
0.350583
0.33318
0.320646
0.31273
0.309239
0.310026
0.314991
0.324067
0.337214
0.354396
0.375534
0.400386
0.428135
0.455388
0.471291
0.479564
0.484066
0.484805
0.481896
0.475098
0.459196
0.437017
0.416484
0.398984
0.38496
0.374564
0.367735
0.364258
0.363756
0.365628
0.368968
0.372444
0.374523
0.373081
0.370336
0.367848
0.366967
0.368632
0.373477
0.381924
0.394248
0.410579
0.430846
0.45473
0.481008
0.501614
0.512483
0.519208
0.522606
0.450255
0.445523
0.431425
0.417
0.405234
0.396742
0.391915
0.390974
0.394029
0.401022
0.411786
0.426028
0.443156
0.460772
0.468577
0.46975
0.469263
0.464004
0.447988
0.431337
0.417805
0.408375
0.403493
0.403496
0.408703
0.419426
0.43595
0.458551
0.48752
0.523143
0.565577
0.614208
0.665107
0.700917
0.72685
0.750432
0.771785
0.790978
0.808107
0.82327
0.836561
0.848063
0.857849
0.865981
0.872507
0.87747
0.880899
0.882818
0.88324
0.882171
0.879606
0.875536
0.86994
0.862791
0.854052
0.843673
0.831599
0.81776
0.802073
0.784447
0.764773
0.742936
0.718815
0.692314
0.659356
0.610503
0.555937
0.507058
0.464846
0.429163
0.39965
0.375929
0.357657
0.344539
0.336329
0.332834
0.33391
0.339456
0.349406
0.363711
0.382329
0.405165
0.431862
0.460887
0.482399
0.49309
0.500142
0.504184
0.505225
0.503393
0.49897
0.490201
0.472497
0.451401
0.432788
0.417892
0.407156
0.4006
0.398058
0.399209
0.403459
0.409765
0.416096
0.420577
0.416642
0.411012
0.405562
0.402303
0.402316
0.40622
0.414375
0.427003
0.444155
0.46544
0.489787
0.511815
0.52448
0.532229
0.537589
0.54032
0.484366
0.483766
0.477193
0.462079
0.448588
0.438398
0.432437
0.431032
0.434406
0.442378
0.454633
0.470644
0.489062
0.499004
0.501511
0.502662
0.502678
0.501548
0.493344
0.475656
0.459965
0.448647
0.442314
0.441357
0.446146
0.45703
0.474253
0.497994
0.528466
0.565817
0.610038
0.658702
0.695059
0.720736
0.74412
0.765726
0.785489
0.803403
0.819501
0.83383
0.846446
0.857401
0.866746
0.874526
0.880779
0.885535
0.888819
0.890648
0.891034
0.88998
0.887482
0.883533
0.878116
0.871207
0.862776
0.852786
0.841192
0.827941
0.812976
0.796232
0.777643
0.757146
0.734695
0.710281
0.683932
0.64833
0.596868
0.546631
0.502408
0.464787
0.433565
0.408424
0.389065
0.375214
0.366631
0.363127
0.364561
0.370831
0.381856
0.397553
0.417832
0.442489
0.47058
0.496158
0.509599
0.517789
0.52373
0.527305
0.528516
0.527482
0.524448
0.519794
0.510538
0.493897
0.474863
0.459043
0.447969
0.441753
0.440306
0.443441
0.450599
0.460481
0.468736
0.47132
0.469264
0.46158
0.45257
0.446387
0.444431
0.447233
0.455025
0.467949
0.485997
0.507621
0.527974
0.540709
0.548287
0.554364
0.558597
0.560766
0.51905
0.518768
0.518111
0.511825
0.499427
0.488013
0.480985
0.479035
0.482873
0.491882
0.505199
0.521215
0.530587
0.533639
0.535489
0.536709
0.537216
0.537021
0.535732
0.527075
0.510339
0.497365
0.489556
0.487522
0.491822
0.502948
0.521076
0.546139
0.578197
0.616887
0.661308
0.695244
0.719728
0.742062
0.763168
0.782864
0.80104
0.817645
0.832663
0.846105
0.85799
0.868348
0.877209
0.8846
0.890547
0.895072
0.898193
0.899922
0.900268
0.899231
0.896811
0.892999
0.887782
0.881143
0.87306
0.863502
0.85244
0.839838
0.825658
0.809862
0.79242
0.773311
0.752537
0.73014
0.70622
0.68056
0.644463
0.594462
0.548285
0.508572
0.475394
0.448568
0.427908
0.413175
0.404141
0.400622
0.402477
0.409604
0.421897
0.439163
0.461164
0.487336
0.514475
0.529814
0.53805
0.544735
0.549683
0.552789
0.554052
0.553571
0.551547
0.548283
0.544166
0.536348
0.523629
0.507592
0.496582
0.490803
0.49037
0.495185
0.504324
0.510421
0.513389
0.513589
0.514001
0.511633
0.506236
0.497972
0.494369
0.496143
0.503478
0.516292
0.534636
0.550277
0.561029
0.567696
0.57359
0.578344
0.581671
0.58338
0.554016
0.553953
0.553904
0.553937
0.550042
0.543455
0.536309
0.53373
0.538208
0.547731
0.557377
0.564184
0.566521
0.568402
0.570098
0.571467
0.572457
0.573097
0.573503
0.573013
0.566535
0.553892
0.545192
0.542052
0.545744
0.557229
0.576531
0.602857
0.635893
0.673002
0.702313
0.724115
0.744686
0.764616
0.783627
0.80152
0.818163
0.833473
0.847403
0.859934
0.871062
0.880794
0.88914
0.896117
0.901737
0.906014
0.908959
0.91058
0.910882
0.909866
0.90753
0.903868
0.898871
0.892526
0.884816
0.875724
0.86523
0.853312
0.839954
0.825139
0.808865
0.79114
0.772002
0.751521
0.729815
0.707054
0.682683
0.648548
0.602196
0.560807
0.525612
0.496865
0.474716
0.458973
0.449411
0.445862
0.448184
0.456275
0.470018
0.488893
0.512239
0.538308
0.553776
0.561463
0.568027
0.573418
0.577477
0.580117
0.581333
0.581202
0.579884
0.57762
0.574726
0.571593
0.56674
0.559078
0.550955
0.545881
0.545808
0.548198
0.550515
0.550686
0.54991
0.549903
0.550607
0.552108
0.552621
0.551132
0.549778
0.551112
0.557765
0.567934
0.577803
0.584987
0.5903
0.595447
0.600035
0.603751
0.606361
0.607705
0.589044
0.589123
0.589346
0.589853
0.590878
0.590545
0.589117
0.589064
0.591701
0.595761
0.598918
0.6001
0.601651
0.603349
0.605032
0.606606
0.608048
0.609405
0.610809
0.612479
0.614158
0.611846
0.607601
0.603956
0.60705
0.619003
0.639568
0.665785
0.692271
0.715344
0.733705
0.752045
0.770284
0.78809
0.805203
0.821428
0.83662
0.85068
0.863542
0.875167
0.885531
0.894624
0.902443
0.90899
0.91427
0.918288
0.921049
0.922557
0.922815
0.921822
0.919576
0.916074
0.911308
0.905272
0.897955
0.889348
0.879442
0.868228
0.855705
0.841877
0.826758
0.810384
0.79281
0.774127
0.754464
0.733997
0.712957
0.690949
0.660746
0.620843
0.584395
0.553612
0.529922
0.513112
0.502953
0.499352
0.50213
0.51116
0.526468
0.546302
0.568221
0.58174
0.588278
0.594063
0.599178
0.603433
0.606689
0.608869
0.609961
0.61002
0.609168
0.607588
0.60552
0.603249
0.601094
0.599171
0.595807
0.592745
0.591135
0.589821
0.587567
0.586159
0.585484
0.585505
0.586211
0.587641
0.589865
0.59301
0.595286
0.598132
0.602719
0.607831
0.611578
0.61556
0.61973
0.623758
0.627351
0.630266
0.632316
0.633372
0.623994
0.62415
0.624505
0.625144
0.626179
0.627698
0.629718
0.631424
0.632473
0.633049
0.633907
0.635128
0.636632
0.638311
0.640076
0.641878
0.643722
0.645669
0.647847
0.650463
0.653813
0.658298
0.661411
0.664812
0.671582
0.683334
0.699166
0.716386
0.732641
0.747886
0.763823
0.780075
0.796314
0.812256
0.827669
0.842367
0.856207
0.869084
0.880919
0.89166
0.901271
0.909727
0.917016
0.92313
0.928064
0.931818
0.934392
0.935785
0.935998
0.93503
0.932878
0.929542
0.925016
0.919298
0.912384
0.904271
0.89496
0.884454
0.872762
0.859903
0.845909
0.830827
0.814728
0.797713
0.779916
0.761512
0.742721
0.723814
0.704865
0.680209
0.650131
0.618134
0.593515
0.575796
0.564969
0.561298
0.56439
0.573725
0.59001
0.604375
0.614063
0.618606
0.623063
0.627335
0.631189
0.634446
0.636978
0.63871
0.639622
0.63975
0.639179
0.638045
0.636516
0.634788
0.633044
0.631405
0.62987
0.628141
0.625892
0.623739
0.622027
0.620896
0.620361
0.620424
0.621091
0.622381
0.624319
0.626922
0.63009
0.6335
0.636535
0.639479
0.642625
0.645943
0.649301
0.652503
0.655345
0.657646
0.659263
0.660097
0.658787
0.658976
0.659379
0.660037
0.660995
0.66226
0.663751
0.665179
0.666349
0.667376
0.668517
0.669871
0.67144
0.673189
0.675082
0.677109
0.679292
0.6817
0.684448
0.687713
0.691728
0.696791
0.703241
0.711333
0.720349
0.730486
0.741407
0.753016
0.765793
0.779422
0.793625
0.80812
0.822641
0.836952
0.850849
0.864164
0.876759
0.888529
0.899391
0.909284
0.918164
0.925999
0.932765
0.938449
0.943039
0.946529
0.948915
0.950193
0.950362
0.94942
0.947366
0.944198
0.939916
0.93452
0.928011
0.920393
0.911674
0.901865
0.890986
0.879066
0.866146
0.852285
0.837562
0.822081
0.805976
0.789414
0.7726
0.755778
0.739234
0.723294
0.705435
0.684817
0.663428
0.645606
0.634067
0.630315
0.633275
0.63965
0.645949
0.650251
0.652333
0.655044
0.658033
0.661024
0.663796
0.666184
0.668066
0.66937
0.670068
0.670177
0.669755
0.668895
0.667714
0.66634
0.664891
0.663437
0.661982
0.660439
0.658768
0.657189
0.655906
0.655038
0.654641
0.654739
0.655347
0.656472
0.65811
0.660231
0.662735
0.665433
0.668102
0.670767
0.673501
0.676284
0.67903
0.681608
0.683879
0.68571
0.686994
0.687656
0.693392
0.69359
0.693997
0.694632
0.695503
0.696595
0.697843
0.699124
0.700361
0.70159
0.702914
0.704399
0.706067
0.70792
0.709955
0.712183
0.714639
0.717389
0.720534
0.724213
0.728597
0.733879
0.740237
0.747752
0.75627
0.765573
0.775633
0.78646
0.798092
0.810382
0.823135
0.836138
0.849179
0.862062
0.874612
0.886679
0.898136
0.908881
0.918831
0.927922
0.936103
0.943338
0.949597
0.954861
0.959113
0.962344
0.964545
0.965711
0.965838
0.964923
0.962967
0.959969
0.95593
0.950855
0.944747
0.937617
0.929477
0.920346
0.910251
0.899227
0.887325
0.874606
0.861154
0.847074
0.832493
0.817569
0.802487
0.787465
0.772751
0.758626
0.745399
0.733218
0.720028
0.707674
0.698135
0.692666
0.690791
0.6905
0.689288
0.689016
0.689774
0.691203
0.693003
0.69493
0.696789
0.698427
0.699733
0.700636
0.701102
0.701135
0.700769
0.700065
0.699103
0.69797
0.696741
0.695471
0.694181
0.692865
0.691551
0.690345
0.689368
0.688709
0.688425
0.688545
0.689086
0.690048
0.691419
0.693157
0.695187
0.697395
0.699674
0.701987
0.704328
0.706663
0.708925
0.711021
0.712852
0.714321
0.715348
0.715876
0.727798
0.727994
0.728389
0.728989
0.72979
0.730775
0.731902
0.733115
0.734379
0.73571
0.737151
0.738742
0.74051
0.74247
0.744635
0.747029
0.749692
0.752682
0.756085
0.760007
0.764567
0.769891
0.776076
0.783158
0.791076
0.799736
0.809088
0.819101
0.829733
0.84088
0.852396
0.864117
0.875874
0.887504
0.898858
0.909804
0.920226
0.930028
0.939131
0.947468
0.954989
0.961652
0.967425
0.972284
0.97621
0.979189
0.98121
0.982267
0.982354
0.981468
0.97961
0.97678
0.972982
0.968221
0.962506
0.95585
0.94827
0.939791
0.930444
0.920269
0.909319
0.89766
0.885375
0.872566
0.859353
0.84588
0.832315
0.818845
0.805681
0.793051
0.781191
0.770319
0.760647
0.752256
0.74497
0.738757
0.733701
0.730052
0.727832
0.72674
0.726545
0.726991
0.727846
0.728906
0.730003
0.731002
0.731803
0.732338
0.73257
0.732491
0.73212
0.731493
0.730665
0.729693
0.728633
0.727527
0.726405
0.725291
0.724224
0.723272
0.722511
0.722006
0.721803
0.721931
0.722403
0.723218
0.724359
0.725792
0.727459
0.729288
0.73121
0.733178
0.735161
0.737116
0.738985
0.740701
0.742187
0.743373
0.7442
0.744625
0.762009
0.762198
0.762577
0.763144
0.763894
0.764813
0.765875
0.767053
0.768333
0.769719
0.771236
0.772909
0.774762
0.776814
0.779087
0.781607
0.784415
0.787564
0.791119
0.795161
0.799775
0.805041
0.811018
0.817726
0.82514
0.833208
0.841884
0.851121
0.860859
0.871008
0.881452
0.892061
0.902696
0.913222
0.923513
0.933452
0.942936
0.951875
0.960195
0.967832
0.974733
0.980856
0.986167
0.99064
0.994253
0.996991
0.99884
0.999792
0.999842
0.998986
0.997225
0.99456
0.990996
0.986541
0.981206
0.975006
0.967964
0.960104
0.951464
0.942085
0.932021
0.92134
0.910122
0.898462
0.886473
0.874285
0.862045
0.849917
0.838077
0.826708
0.815995
0.806104
0.797172
0.789265
0.78236
0.776459
0.771607
0.767876
0.765246
0.763569
0.762673
0.762371
0.762483
0.762844
0.763313
0.763775
0.76414
0.764344
0.764349
0.764141
0.763725
0.763123
0.76237
0.761506
0.760569
0.759597
0.758621
0.75767
0.756783
0.756008
0.755399
0.755001
0.754852
0.754973
0.755377
0.75606
0.757008
0.758192
0.759569
0.761088
0.762699
0.764356
0.766022
0.767653
0.7692
0.770609
0.771822
0.772785
0.773455
0.773798
0.796031
0.796212
0.796575
0.797116
0.79783
0.798707
0.799731
0.800891
0.802178
0.803598
0.805165
0.806897
0.808815
0.810938
0.813289
0.815898
0.818799
0.822037
0.825666
0.829743
0.83433
0.83948
0.845229
0.85159
0.858548
0.866072
0.874118
0.882639
0.891573
0.90084
0.910344
0.919977
0.929626
0.939177
0.94852
0.957555
0.966189
0.974342
0.981942
0.98893
0.995254
1.00087
1.00575
1.00986
1.01317
1.01568
1.01737
1.01822
1.01824
1.01741
1.01574
1.01324
1.0099
1.00574
1.00077
0.995006
0.988473
0.9812
0.973222
0.964585
0.955341
0.945557
0.935309
0.924686
0.913792
0.902742
0.891665
0.880702
0.87
0.85971
0.849976
0.840929
0.832673
0.82527
0.818743
0.813109
0.80839
0.804601
0.801707
0.799617
0.798207
0.797338
0.79687
0.796674
0.796632
0.796645
0.796637
0.796548
0.796341
0.795998
0.795516
0.794905
0.794187
0.79339
0.792542
0.791673
0.790811
0.789985
0.789229
0.788579
0.788074
0.787748
0.787629
0.787734
0.788071
0.788637
0.789421
0.790398
0.791537
0.792798
0.79414
0.795526
0.796917
0.798274
0.799554
0.800713
0.801705
0.802491
0.803036
0.803315
0.829871
0.830046
0.830395
0.830916
0.831604
0.832452
0.833453
0.8346
0.835891
0.837331
0.838928
0.8407
0.842661
0.844832
0.847235
0.849896
0.852845
0.856121
0.859763
0.863817
0.868323
0.873319
0.878827
0.884855
0.891392
0.898412
0.905878
0.913745
0.921954
0.930435
0.939107
0.947879
0.956654
0.965338
0.973835
0.982058
0.989925
0.997361
1.0043
1.01069
1.01648
1.02163
1.0261
1.02986
1.0329
1.03519
1.03672
1.03749
1.03747
1.03668
1.0351
1.03275
1.02963
1.02575
1.02113
1.01578
1.00972
1.003
0.99564
0.98769
0.979202
0.970239
0.960871
0.951183
0.941266
0.931224
0.921171
0.911225
0.901512
0.892154
0.88327
0.874964
0.867321
0.860399
0.854233
0.848844
0.844244
0.840429
0.837365
0.834985
0.833199
0.831903
0.830988
0.83035
0.829894
0.829537
0.829213
0.82887
0.82847
0.827995
0.827434
0.826794
0.826084
0.825324
0.824535
0.823741
0.822964
0.822231
0.821568
0.821005
0.82057
0.820289
0.820182
0.820262
0.820535
0.820998
0.821641
0.822444
0.823382
0.824425
0.825539
0.826691
0.827847
0.828971
0.830029
0.830982
0.831796
0.832439
0.832883
0.83311
0.863535
0.863705
0.864043
0.864548
0.865217
0.866045
0.867029
0.868166
0.869456
0.870904
0.872519
0.874312
0.876298
0.878496
0.880924
0.883605
0.886566
0.889837
0.89345
0.897437
0.901827
0.906646
0.911907
0.917612
0.923753
0.930306
0.937238
0.944508
0.952063
0.95984
0.967771
0.975776
0.983775
0.991685
0.999425
1.00692
1.01409
1.02088
1.02721
1.03305
1.03835
1.04306
1.04715
1.0506
1.05338
1.05546
1.05685
1.05753
1.05748
1.05672
1.05523
1.05303
1.05012
1.0465
1.04221
1.03725
1.03164
1.02543
1.01865
1.01133
1.00354
0.995324
0.986755
0.977907
0.968864
0.959719
0.950569
0.941517
0.932668
0.924125
0.915986
0.908336
0.901247
0.894772
0.888947
0.883791
0.879314
0.875505
0.872338
0.869759
0.867702
0.866086
0.864827
0.863843
0.863056
0.862397
0.861809
0.861247
0.860676
0.860075
0.859434
0.858751
0.858032
0.857288
0.856535
0.85579
0.855074
0.854406
0.853808
0.853303
0.852913
0.852656
0.852547
0.852597
0.852808
0.853179
0.853699
0.854354
0.855123
0.85598
0.8569
0.857852
0.858807
0.859736
0.860607
0.861391
0.862058
0.862584
0.862947
0.863132
0.897031
0.897196
0.897525
0.898017
0.89867
0.899482
0.900452
0.901578
0.902863
0.904311
0.90593
0.90773
0.909725
0.911928
0.914358
0.917034
0.919977
0.923212
0.926763
0.930653
0.934903
0.93953
0.94454
0.949934
0.955701
0.96182
0.968261
0.974986
0.981948
0.989093
0.996359
1.00368
1.01098
1.0182
1.02526
1.0321
1.03864
1.04484
1.05063
1.05596
1.0608
1.06511
1.06885
1.072
1.07454
1.07644
1.07769
1.07829
1.07822
1.07749
1.07608
1.07402
1.0713
1.06794
1.06395
1.05936
1.05418
1.04844
1.04219
1.03546
1.0283
1.02076
1.01292
1.00483
0.996566
0.988218
0.979869
0.971605
0.963518
0.955693
0.948211
0.941147
0.934559
0.928496
0.92299
0.91806
0.913713
0.909942
0.906721
0.904012
0.901763
0.899912
0.898393
0.89714
0.89609
0.895186
0.89438
0.893632
0.892911
0.892196
0.891475
0.890744
0.890003
0.88926
0.888526
0.887812
0.887135
0.88651
0.885955
0.885487
0.885122
0.884874
0.884754
0.88477
0.884923
0.88521
0.885624
0.886151
0.886775
0.887474
0.888227
0.889009
0.889795
0.890558
0.891273
0.891916
0.892463
0.892892
0.893189
0.89334
0.930361
0.930522
0.930843
0.931324
0.931964
0.932762
0.933717
0.934832
0.936107
0.937547
0.93916
0.940955
0.942942
0.945134
0.947546
0.950194
0.953097
0.956271
0.959736
0.963509
0.967603
0.972029
0.97679
0.981884
0.987297
0.993012
0.999
1.00523
1.01165
1.01822
1.02489
1.0316
1.03828
1.04488
1.05133
1.05757
1.06354
1.0692
1.07449
1.07937
1.08379
1.08773
1.09115
1.09402
1.09633
1.09806
1.09919
1.09971
1.09962
1.09892
1.0976
1.09567
1.09313
1.09001
1.08631
1.08205
1.07726
1.07197
1.0662
1.06001
1.05343
1.04651
1.03932
1.03191
1.02436
1.01672
1.00908
1.00152
0.994105
0.986916
0.980021
0.97348
0.967347
0.961662
0.956456
0.951746
0.947538
0.943826
0.940593
0.937806
0.935426
0.933406
0.931692
0.930233
0.928977
0.927878
0.926893
0.92599
0.92514
0.924323
0.923528
0.922746
0.921977
0.921225
0.920495
0.919798
0.919143
0.918545
0.918015
0.917567
0.917213
0.916963
0.916826
0.916806
0.916903
0.917115
0.917435
0.917851
0.918351
0.918915
0.919526
0.920163
0.920804
0.921428
0.922012
0.922537
0.922983
0.923334
0.923575
0.923699
0.963531
0.963688
0.964002
0.964473
0.9651
0.965884
0.966825
0.967924
0.969185
0.970611
0.972209
0.973987
0.975953
0.97812
0.980498
0.983102
0.985944
0.989039
0.992402
0.996042
0.999971
1.00419
1.00871
1.01351
1.01859
1.02393
1.0295
1.03527
1.0412
1.04726
1.05339
1.05954
1.06566
1.0717
1.0776
1.0833
1.08876
1.09393
1.09877
1.10322
1.10727
1.11086
1.11398
1.11661
1.11871
1.12027
1.12129
1.12175
1.12164
1.12096
1.11972
1.11792
1.11556
1.11265
1.10922
1.10528
1.10085
1.09596
1.09065
1.08495
1.0789
1.07254
1.06594
1.05915
1.05222
1.04522
1.03822
1.03128
1.02447
1.01785
1.01147
1.00541
0.999686
0.994351
0.989426
0.984929
0.980866
0.977233
0.974017
0.971193
0.968731
0.966592
0.964737
0.963123
0.961708
0.960454
0.959326
0.958294
0.957335
0.95643
0.955566
0.954735
0.953935
0.953166
0.952432
0.95174
0.951096
0.950511
0.949993
0.949554
0.9492
0.948941
0.948781
0.948723
0.948768
0.948912
0.949149
0.949469
0.949861
0.95031
0.950799
0.951312
0.951831
0.952337
0.952811
0.953237
0.9536
0.953884
0.95408
0.95418
0.996543
0.996697
0.997004
0.997465
0.99808
0.998849
0.999773
1.00086
1.0021
1.0035
1.00508
1.00683
1.00877
1.01089
1.01323
1.01577
1.01854
1.02154
1.02479
1.02829
1.03205
1.03606
1.04034
1.04486
1.04963
1.05462
1.0598
1.06515
1.07064
1.07622
1.08186
1.08751
1.09313
1.09866
1.10406
1.10928
1.11427
1.119
1.12342
1.12749
1.13119
1.13447
1.13732
1.13971
1.14162
1.14304
1.14395
1.14435
1.14422
1.14358
1.14241
1.14072
1.13852
1.13582
1.13264
1.12899
1.1249
1.12039
1.11549
1.11023
1.10466
1.09882
1.09276
1.08652
1.08016
1.07373
1.0673
1.06092
1.05464
1.04853
1.04263
1.03698
1.03164
1.02663
1.02197
1.01768
1.01376
1.01022
1.00705
1.00422
1.00171
0.999496
0.997541
0.995813
0.994278
0.992904
0.991662
0.990526
0.989476
0.988495
0.98757
0.986694
0.985861
0.985073
0.984328
0.983632
0.98299
0.982409
0.981894
0.981454
0.981093
0.980819
0.980633
0.980539
0.980534
0.980616
0.980779
0.981016
0.981314
0.981663
0.982049
0.982457
0.982871
0.983276
0.983658
0.984001
0.984293
0.984523
0.984681
0.984762
1.0294
1.02955
1.02985
1.0303
1.03091
1.03166
1.03256
1.03363
1.03485
1.03623
1.03777
1.03949
1.04138
1.04346
1.04574
1.04821
1.0509
1.0538
1.05692
1.06028
1.06386
1.06768
1.07172
1.07598
1.08045
1.0851
1.08993
1.0949
1.09997
1.10513
1.11033
1.11552
1.12068
1.12575
1.1307
1.13548
1.14005
1.14438
1.14842
1.15214
1.15552
1.15852
1.16112
1.16329
1.16503
1.16631
1.16713
1.16747
1.16733
1.16671
1.16561
1.16403
1.16199
1.15948
1.15653
1.15315
1.14936
1.1452
1.14067
1.13583
1.1307
1.12533
1.11975
1.11401
1.10816
1.10225
1.09633
1.09044
1.08465
1.07899
1.07352
1.06826
1.06327
1.05855
1.05414
1.05005
1.04629
1.04285
1.03973
1.03692
1.0344
1.03214
1.03012
1.02831
1.02669
1.02522
1.02389
1.02267
1.02155
1.0205
1.01953
1.01861
1.01774
1.01693
1.01618
1.01547
1.01482
1.01424
1.01372
1.01327
1.0129
1.01261
1.0124
1.01226
1.01221
1.01224
1.01234
1.0125
1.01272
1.01298
1.01328
1.01359
1.01392
1.01424
1.01454
1.01482
1.01505
1.01523
1.01536
1.01542
1.06211
1.06226
1.06255
1.06299
1.06358
1.06432
1.0652
1.06624
1.06743
1.06878
1.07029
1.07197
1.07382
1.07584
1.07805
1.08045
1.08304
1.08583
1.08883
1.09203
1.09544
1.09906
1.10288
1.10689
1.11107
1.11542
1.11992
1.12453
1.12923
1.134
1.13879
1.14357
1.14831
1.15297
1.15751
1.16189
1.16608
1.17004
1.17373
1.17714
1.18022
1.18296
1.18533
1.18732
1.18889
1.19005
1.19078
1.19107
1.19092
1.19033
1.18929
1.18782
1.18591
1.18358
1.18084
1.17771
1.17421
1.17036
1.16619
1.16172
1.15699
1.15204
1.1469
1.14161
1.13622
1.13077
1.12531
1.11988
1.11452
1.10928
1.10419
1.09929
1.09461
1.09017
1.086
1.0821
1.07849
1.07516
1.07211
1.06934
1.06682
1.06454
1.06248
1.06062
1.05894
1.05741
1.05601
1.05472
1.05354
1.05244
1.05142
1.05047
1.04958
1.04874
1.04797
1.04725
1.0466
1.046
1.04548
1.04502
1.04463
1.04432
1.04408
1.04391
1.04382
1.04379
1.04383
1.04393
1.04407
1.04426
1.04448
1.04472
1.04497
1.04522
1.04546
1.04567
1.04586
1.046
1.0461
1.04615
1.09467
1.09481
1.0951
1.09553
1.0961
1.09682
1.09769
1.0987
1.09986
1.10118
1.10265
1.10428
1.10607
1.10804
1.11017
1.11249
1.11498
1.11766
1.12053
1.12358
1.12682
1.13025
1.13385
1.13761
1.14154
1.1456
1.14979
1.15407
1.15843
1.16283
1.16726
1.17167
1.17603
1.18031
1.18448
1.18849
1.19233
1.19596
1.19934
1.20246
1.20528
1.20778
1.20994
1.21174
1.21318
1.21422
1.21487
1.21512
1.21496
1.21439
1.21341
1.21203
1.21025
1.20809
1.20555
1.20265
1.19941
1.19585
1.19199
1.18786
1.1835
1.17893
1.17419
1.16932
1.16435
1.15932
1.15427
1.14924
1.14428
1.13941
1.13467
1.13009
1.1257
1.12152
1.11757
1.11386
1.1104
1.10718
1.10422
1.1015
1.099
1.09673
1.09465
1.09276
1.09103
1.08946
1.08801
1.08668
1.08545
1.08431
1.08325
1.08226
1.08135
1.08049
1.0797
1.07897
1.07831
1.0777
1.07716
1.07669
1.07629
1.07595
1.07568
1.07548
1.07535
1.07528
1.07527
1.07531
1.07539
1.07552
1.07567
1.07584
1.07603
1.07621
1.07639
1.07656
1.0767
1.07681
1.07689
1.07693
1.12709
1.12723
1.12751
1.12793
1.12848
1.12918
1.13002
1.13101
1.13214
1.13342
1.13484
1.13642
1.13816
1.14006
1.14212
1.14435
1.14674
1.1493
1.15204
1.15494
1.15802
1.16125
1.16465
1.16819
1.17186
1.17566
1.17956
1.18354
1.18758
1.19166
1.19574
1.19981
1.20382
1.20776
1.21159
1.21528
1.2188
1.22212
1.22522
1.22807
1.23065
1.23293
1.2349
1.23654
1.23784
1.23878
1.23936
1.23957
1.2394
1.23886
1.23794
1.23664
1.23498
1.23297
1.23061
1.22792
1.22492
1.22163
1.21806
1.21425
1.21022
1.206
1.20162
1.19712
1.19252
1.18788
1.1832
1.17855
1.17394
1.16941
1.16499
1.16071
1.15659
1.15265
1.14891
1.14538
1.14206
1.13896
1.13609
1.13342
1.13097
1.12871
1.12664
1.12473
1.12298
1.12137
1.11989
1.11853
1.11726
1.11609
1.11501
1.11399
1.11305
1.11218
1.11138
1.11063
1.10995
1.10934
1.10878
1.1083
1.10787
1.10751
1.10722
1.10699
1.10682
1.10671
1.10665
1.10664
1.10667
1.10674
1.10683
1.10695
1.10708
1.10721
1.10735
1.10747
1.10757
1.10766
1.10772
1.10775
1.15937
1.15951
1.15978
1.16018
1.16072
1.1614
1.16222
1.16317
1.16427
1.1655
1.16689
1.16841
1.17009
1.17192
1.1739
1.17604
1.17833
1.18078
1.18338
1.18614
1.18905
1.19211
1.1953
1.19862
1.20206
1.20561
1.20924
1.21294
1.21669
1.22047
1.22424
1.228
1.2317
1.23532
1.23884
1.24223
1.24546
1.24851
1.25135
1.25396
1.25631
1.2584
1.2602
1.26169
1.26286
1.26371
1.26423
1.2644
1.26422
1.2637
1.26283
1.26162
1.26007
1.2582
1.25601
1.25351
1.25073
1.24768
1.24438
1.24085
1.23713
1.23322
1.22918
1.22501
1.22076
1.21645
1.21213
1.2078
1.20352
1.1993
1.19517
1.19116
1.18729
1.18358
1.18003
1.17667
1.1735
1.17052
1.16774
1.16515
1.16274
1.16051
1.15845
1.15655
1.15479
1.15316
1.15166
1.15028
1.14899
1.14779
1.14668
1.14565
1.14469
1.14381
1.14298
1.14223
1.14154
1.14091
1.14034
1.13984
1.13939
1.13901
1.13869
1.13843
1.13823
1.13808
1.13798
1.13793
1.13791
1.13793
1.13798
1.13805
1.13813
1.13822
1.13831
1.13839
1.13847
1.13853
1.13857
1.13859
1.19151
1.19165
1.19191
1.1923
1.19282
1.19348
1.19427
1.19519
1.19625
1.19745
1.19878
1.20025
1.20187
1.20362
1.20552
1.20757
1.20976
1.21209
1.21457
1.21718
1.21994
1.22282
1.22582
1.22894
1.23216
1.23548
1.23886
1.2423
1.24578
1.24928
1.25277
1.25624
1.25965
1.26299
1.26623
1.26934
1.27231
1.2751
1.27771
1.28009
1.28225
1.28415
1.28579
1.28715
1.28821
1.28898
1.28943
1.28957
1.28939
1.28889
1.28807
1.28693
1.28549
1.28374
1.28171
1.27939
1.27681
1.27398
1.27092
1.26766
1.26421
1.2606
1.25685
1.25299
1.24905
1.24506
1.24104
1.23702
1.23303
1.2291
1.22524
1.22148
1.21784
1.21434
1.21098
1.20778
1.20475
1.20189
1.1992
1.19668
1.19433
1.19214
1.1901
1.18821
1.18646
1.18483
1.18332
1.18192
1.18062
1.17941
1.17828
1.17724
1.17626
1.17536
1.17453
1.17376
1.17306
1.17241
1.17183
1.17131
1.17085
1.17045
1.17011
1.16982
1.16959
1.16941
1.16927
1.16918
1.16912
1.1691
1.1691
1.16913
1.16917
1.16922
1.16928
1.16933
1.16938
1.16942
1.16945
1.16946
1.22353
1.22366
1.22391
1.22429
1.22479
1.22543
1.22619
1.22708
1.2281
1.22926
1.23054
1.23195
1.2335
1.23519
1.23701
1.23896
1.24104
1.24326
1.24561
1.24809
1.25069
1.25341
1.25623
1.25916
1.26217
1.26527
1.26842
1.27162
1.27485
1.27809
1.28133
1.28453
1.28768
1.29076
1.29374
1.2966
1.29933
1.30189
1.30428
1.30646
1.30843
1.31017
1.31167
1.3129
1.31387
1.31455
1.31495
1.31506
1.31487
1.31439
1.31362
1.31256
1.31121
1.30958
1.30768
1.30553
1.30313
1.30051
1.29768
1.29465
1.29145
1.2881
1.28463
1.28105
1.2774
1.27369
1.26995
1.26621
1.26249
1.25882
1.25521
1.25168
1.24825
1.24494
1.24176
1.23872
1.23583
1.23308
1.23049
1.22805
1.22576
1.22362
1.22162
1.21975
1.21801
1.21639
1.21487
1.21347
1.21216
1.21094
1.2098
1.20875
1.20776
1.20685
1.20601
1.20523
1.20451
1.20386
1.20326
1.20273
1.20225
1.20183
1.20147
1.20116
1.2009
1.20069
1.20052
1.20039
1.2003
1.20024
1.2002
1.20019
1.2002
1.20022
1.20024
1.20027
1.2003
1.20032
1.20034
1.20035
1.25542
1.25554
1.25578
1.25615
1.25664
1.25725
1.25798
1.25884
1.25982
1.26093
1.26216
1.26352
1.265
1.26661
1.26835
1.27021
1.2722
1.27431
1.27653
1.27888
1.28133
1.28389
1.28654
1.28929
1.29211
1.295
1.29794
1.30091
1.30391
1.30692
1.30991
1.31287
1.31578
1.31862
1.32136
1.324
1.3265
1.32886
1.33105
1.33305
1.33485
1.33644
1.3378
1.33892