/*--------------------------------*- C++ -*----------------------------------*\
| =========                 |                                                 |
| \\      /  F ield         | OpenFOAM: The Open Source CFD Toolbox           |
|  \\    /   O peration     | Version:  2406                                  |
|   \\  /    A nd           | Website:  www.openfoam.com                      |
|    \\/     M anipulation  |                                                 |
\*---------------------------------------------------------------------------*/
FoamFile
{
    version     2.0;
    format      ascii;
    arch        "LSB;label=32;scalar=64";
    class       volScalarField;
    location    "6.6";
    object      D;
}
// * * * * * * * * * * * * * * * * * * * * * * * * * * * * * * * * * * * * * //

dimensions      [0 2 -1 0 0 0 0];

internalField   nonuniform List<scalar> 
14400
(
6.51311e-05
6.50186e-05
6.48429e-05
6.46565e-05
6.44929e-05
6.43679e-05
6.42873e-05
6.42539e-05
6.42709e-05
6.4344e-05
6.44809e-05
6.46877e-05
6.49596e-05
6.52581e-05
6.54753e-05
6.543e-05
6.50205e-05
6.4427e-05
6.38127e-05
6.32431e-05
6.27286e-05
6.22613e-05
6.18316e-05
6.14336e-05
6.10657e-05
6.073e-05
6.04314e-05
6.01768e-05
5.99753e-05
5.98389e-05
5.97858e-05
5.9846e-05
6.00762e-05
6.06028e-05
6.17889e-05
6.52569e-05
8.41739e-05
0.000138126
0.00013824
0.00013824
0.00013824
0.00013824
0.00013824
0.00013824
0.00013824
0.00013824
0.00013824
0.00013824
0.00013824
0.00013824
0.00013824
0.00013824
0.00013824
0.00013824
0.00013824
0.00013824
0.00013824
0.00013824
0.00013824
0.00013824
0.000132837
7.02776e-05
6.35286e-05
6.16115e-05
6.08348e-05
6.05146e-05
6.04425e-05
6.05327e-05
6.0743e-05
6.10481e-05
6.14291e-05
6.18669e-05
6.23383e-05
6.28151e-05
6.32644e-05
6.36542e-05
6.39604e-05
6.4174e-05
6.43052e-05
6.43843e-05
6.44599e-05
6.46009e-05
6.49108e-05
6.55828e-05
6.71328e-05
7.1948e-05
0.000101581
0.000138228
0.000116545
7.2913e-05
6.69855e-05
6.50652e-05
6.41628e-05
6.36915e-05
6.34535e-05
6.33591e-05
6.33589e-05
6.34212e-05
6.35221e-05
6.36404e-05
6.37545e-05
6.3842e-05
6.38809e-05
6.38553e-05
6.37609e-05
6.36069e-05
6.34125e-05
6.32003e-05
6.29918e-05
6.28066e-05
6.26634e-05
6.25829e-05
6.25921e-05
6.2733e-05
6.30812e-05
6.38013e-05
6.53711e-05
7.00543e-05
9.85863e-05
0.000138224
6.51852e-05
6.50159e-05
6.47709e-05
6.45272e-05
6.43236e-05
6.41733e-05
6.40789e-05
6.40408e-05
6.40618e-05
6.41483e-05
6.43115e-05
6.4565e-05
6.49179e-05
6.53503e-05
6.57507e-05
6.58262e-05
6.52706e-05
6.45127e-05
6.37936e-05
6.31686e-05
6.26287e-05
6.21535e-05
6.17262e-05
6.13366e-05
6.09807e-05
6.0659e-05
6.03753e-05
6.01362e-05
5.99505e-05
5.98312e-05
5.97972e-05
5.98813e-05
6.01459e-05
6.07337e-05
6.20802e-05
6.64257e-05
9.8147e-05
0.000138234
0.00013824
0.00013824
0.00013824
0.00013824
0.00013824
0.00013824
0.00013824
0.00013824
0.00013824
0.00013824
0.00013824
0.00013824
0.00013824
0.00013824
0.00013824
0.00013824
0.00013824
0.00013824
0.00013824
0.00013824
0.00013824
0.00013824
0.000137391
7.54691e-05
6.44009e-05
6.18632e-05
6.09347e-05
6.05537e-05
6.04462e-05
6.05094e-05
6.06946e-05
6.09742e-05
6.13274e-05
6.17349e-05
6.21742e-05
6.26186e-05
6.30384e-05
6.34051e-05
6.36979e-05
6.39095e-05
6.40507e-05
6.41505e-05
6.4256e-05
6.44359e-05
6.47966e-05
6.55429e-05
6.72385e-05
7.26767e-05
0.000111655
0.000138239
0.000129049
7.44765e-05
6.74705e-05
6.5224e-05
6.41911e-05
6.36528e-05
6.33738e-05
6.32514e-05
6.32318e-05
6.32821e-05
6.3378e-05
6.34982e-05
6.36207e-05
6.37202e-05
6.37706e-05
6.37509e-05
6.36548e-05
6.34942e-05
6.32933e-05
6.30784e-05
6.28727e-05
6.26962e-05
6.25669e-05
6.25054e-05
6.25397e-05
6.27149e-05
6.31145e-05
6.39246e-05
6.57017e-05
7.13235e-05
0.000114179
0.00013824
6.54614e-05
6.51215e-05
6.4702e-05
6.43318e-05
6.40467e-05
6.38474e-05
6.37268e-05
6.36799e-05
6.37078e-05
6.38187e-05
6.40301e-05
6.43719e-05
6.4888e-05
6.56282e-05
6.65702e-05
6.72193e-05
6.60123e-05
6.47683e-05
6.3799e-05
6.30541e-05
6.24608e-05
6.19674e-05
6.15418e-05
6.11657e-05
6.08303e-05
6.05333e-05
6.02767e-05
6.00662e-05
5.99111e-05
5.9825e-05
5.98302e-05
5.99652e-05
6.03064e-05
6.10359e-05
6.27381e-05
6.85588e-05
0.000121861
0.00013824
0.00013824
0.00013824
0.00013824
0.00013824
0.00013824
0.00013824
0.00013824
0.00013824
0.00013824
0.00013824
0.00013824
0.00013824
0.00013824
0.00013824
0.00013824
0.00013824
0.00013824
0.00013824
0.00013824
0.00013824
0.00013824
0.00013824
0.000138232
9.71114e-05
6.65125e-05
6.23858e-05
6.11446e-05
6.06418e-05
6.04635e-05
6.04733e-05
6.06106e-05
6.08419e-05
6.11443e-05
6.14975e-05
6.18801e-05
6.22686e-05
6.2638e-05
6.29657e-05
6.32359e-05
6.3445e-05
6.36041e-05
6.37408e-05
6.39009e-05
6.41545e-05
6.46188e-05
6.55357e-05
6.76015e-05
7.42392e-05
0.000127356
0.00013824
0.000138057
8.70135e-05
6.92647e-05
6.56818e-05
6.43043e-05
6.3617e-05
6.32535e-05
6.30765e-05
6.3021e-05
6.30501e-05
6.3139e-05
6.32667e-05
6.34098e-05
6.35383e-05
6.36163e-05
6.36096e-05
6.35067e-05
6.33265e-05
6.31062e-05
6.28806e-05
6.26762e-05
6.25128e-05
6.24078e-05
6.23816e-05
6.24648e-05
6.27106e-05
6.32259e-05
6.42649e-05
6.66378e-05
7.45083e-05
0.000133884
0.00013824
6.65233e-05
6.56064e-05
6.47822e-05
6.4178e-05
6.37613e-05
6.34886e-05
6.33298e-05
6.32702e-05
6.33074e-05
6.34517e-05
6.37307e-05
6.42009e-05
6.49755e-05
6.63071e-05
6.88496e-05
7.37996e-05
6.80667e-05
6.53908e-05
6.39143e-05
6.29611e-05
6.22783e-05
6.1751e-05
6.13211e-05
6.09581e-05
6.06464e-05
6.03798e-05
6.01582e-05
5.99865e-05
5.98745e-05
5.98382e-05
5.99054e-05
6.0127e-05
6.06128e-05
6.16591e-05
6.45012e-05
7.88543e-05
0.000137952
0.00013824
0.00013824
0.00013824
0.00013824
0.00013824
0.00013824
0.00013824
0.00013824
0.00013824
0.00013824
0.00013824
0.00013824
0.00013824
0.00013824
0.00013824
0.00013824
0.00013824
0.00013824
0.00013824
0.00013824
0.00013824
0.00013824
0.00013824
0.00013824
0.000125442
6.94181e-05
6.32614e-05
6.15128e-05
6.08078e-05
6.05163e-05
6.04448e-05
6.05124e-05
6.06774e-05
6.09126e-05
6.11966e-05
6.15093e-05
6.18305e-05
6.21407e-05
6.24235e-05
6.26688e-05
6.28766e-05
6.30593e-05
6.32441e-05
6.3477e-05
6.38348e-05
6.44629e-05
6.57176e-05
6.89626e-05
8.39218e-05
0.000137879
0.00013824
0.00013824
0.000123153
7.31291e-05
6.6671e-05
6.46165e-05
6.36643e-05
6.31633e-05
6.29035e-05
6.27973e-05
6.28e-05
6.28851e-05
6.30321e-05
6.32177e-05
6.34056e-05
6.35422e-05
6.35609e-05
6.34372e-05
6.32066e-05
6.2939e-05
6.26835e-05
6.24708e-05
6.23191e-05
6.22441e-05
6.22667e-05
6.24228e-05
6.27833e-05
6.35124e-05
6.50968e-05
6.99992e-05
0.000106428
0.000138238
0.00013824
7.15437e-05
6.71987e-05
6.52646e-05
6.42118e-05
6.35843e-05
6.32041e-05
6.29914e-05
6.29133e-05
6.29629e-05
6.31531e-05
6.35261e-05
6.41851e-05
6.53807e-05
6.79477e-05
7.66098e-05
0.000130752
7.49637e-05
6.68739e-05
6.42921e-05
6.29762e-05
6.21475e-05
6.15608e-05
6.11137e-05
6.07571e-05
6.04666e-05
6.02313e-05
6.00488e-05
5.99234e-05
5.98664e-05
5.98984e-05
6.00576e-05
6.04211e-05
6.11753e-05
6.29215e-05
6.89478e-05
0.000123801
0.00013824
0.00013824
0.00013824
0.00013824
0.00013824
0.00013824
0.00013824
0.00013824
0.00013824
0.00013824
0.00013824
0.00013824
0.00013824
0.00013824
0.00013824
0.00013824
0.00013824
0.00013824
0.00013824
0.00013824
0.00013824
0.00013824
0.00013824
0.00013824
0.00013824
0.000138199
8.80006e-05
6.56485e-05
6.2231e-05
6.11207e-05
6.06444e-05
6.04546e-05
6.04299e-05
6.05128e-05
6.06702e-05
6.08782e-05
6.11174e-05
6.13705e-05
6.16228e-05
6.18631e-05
6.20866e-05
6.22969e-05
6.25085e-05
6.275e-05
6.30718e-05
6.35657e-05
6.44288e-05
6.62386e-05
7.19362e-05
0.000116984
0.00013824
0.00013824
0.00013824
0.000138213
9.47646e-05
6.96133e-05
6.54286e-05
6.39372e-05
6.32062e-05
6.28216e-05
6.2647e-05
6.262e-05
6.27096e-05
6.28988e-05
6.31699e-05
6.34823e-05
6.37594e-05
6.38368e-05
6.36513e-05
6.32864e-05
6.29086e-05
6.25828e-05
6.23403e-05
6.21922e-05
6.215e-05
6.22361e-05
6.2498e-05
6.30401e-05
6.41506e-05
6.68674e-05
7.78309e-05
0.000137266
0.00013824
0.00013824
0.000120938
7.32818e-05
6.67771e-05
6.4672e-05
6.36623e-05
6.31099e-05
6.28127e-05
6.27057e-05
6.27742e-05
6.30356e-05
6.35585e-05
6.45548e-05
6.66619e-05
7.32628e-05
0.000125442
0.00013824
0.000118187
7.13228e-05
6.5294e-05
6.32322e-05
6.21489e-05
6.14586e-05
6.09711e-05
6.06075e-05
6.03309e-05
6.01242e-05
5.99825e-05
5.99101e-05
5.99222e-05
6.00488e-05
6.03494e-05
6.09618e-05
6.23106e-05
6.65386e-05
9.75531e-05
0.000138235
0.00013824
0.00013824
0.00013824
0.00013824
0.00013824
0.00013824
0.00013824
0.00013824
0.00013824
0.00013824
0.00013824
0.00013824
0.00013824
0.00013824
0.00013824
0.00013824
0.00013824
0.00013824
0.00013824
0.00013824
0.00013824
0.00013824
0.00013824
0.00013824
0.00013824
0.00013824
0.00013114
7.03293e-05
6.36038e-05
6.17113e-05
6.0917e-05
6.05485e-05
6.03997e-05
6.03837e-05
6.04549e-05
6.05845e-05
6.07521e-05
6.09422e-05
6.11432e-05
6.13482e-05
6.15566e-05
6.17758e-05
6.20237e-05
6.23341e-05
6.2769e-05
6.34534e-05
6.4698e-05
6.7655e-05
8.01261e-05
0.000137592
0.00013824
0.00013824
0.00013824
0.00013824
0.000137129
7.79381e-05
6.74399e-05
6.47209e-05
6.35533e-05
6.29536e-05
6.26766e-05
6.26143e-05
6.27243e-05
6.30004e-05
6.34556e-05
6.40629e-05
6.47952e-05
6.50652e-05
6.46574e-05
6.38425e-05
6.31927e-05
6.27044e-05
6.23888e-05
6.22281e-05
6.22228e-05
6.24004e-05
6.28384e-05
6.37215e-05
6.57606e-05
7.26572e-05
0.00013025
0.00013824
0.00013824
0.00013824
0.00013824
0.000120969
7.25247e-05
6.62159e-05
6.42683e-05
6.33803e-05
6.29229e-05
6.27614e-05
6.28658e-05
6.32635e-05
6.40784e-05
6.59247e-05
7.16596e-05
0.000111931
0.00013824
0.00013824
0.000138205
9.19653e-05
6.81143e-05
6.39883e-05
6.24017e-05
6.15224e-05
6.09525e-05
6.05589e-05
6.02832e-05
6.00998e-05
6.00008e-05
5.99915e-05
6.00957e-05
6.03653e-05
6.09087e-05
6.2023e-05
6.49865e-05
7.98306e-05
0.000138015
0.00013824
0.00013824
0.00013824
0.00013824
0.00013824
0.00013824
0.00013824
0.00013824
0.00013824
0.00013824
0.00013824
0.00013824
0.00013824
0.00013824
0.00013824
0.00013824
0.00013824
0.00013824
0.00013824
0.00013824
0.00013824
0.00013824
0.00013824
0.00013824
0.00013824
0.00013824
0.00013824
0.00013824
0.000112111
6.82331e-05
6.30423e-05
6.14863e-05
6.08016e-05
6.04714e-05
6.03297e-05
6.03034e-05
6.03521e-05
6.04513e-05
6.0585e-05
6.07431e-05
6.09218e-05
6.1124e-05
6.13616e-05
6.16587e-05
6.20606e-05
6.26569e-05
6.36549e-05
6.56889e-05
7.20879e-05
0.0001245
0.00013824
0.00013824
0.00013824
0.00013824
0.00013824
0.00013824
0.000134548
7.47774e-05
6.70442e-05
6.46442e-05
6.35315e-05
6.30646e-05
6.29498e-05
6.31118e-05
6.35782e-05
6.45236e-05
6.6016e-05
6.94315e-05
7.08609e-05
6.90946e-05
6.5668e-05
6.42077e-05
6.32784e-05
6.27906e-05
6.25837e-05
6.26295e-05
6.29713e-05
6.38026e-05
6.55771e-05
7.18219e-05
0.000122507
0.00013824
0.00013824
0.00013824
0.00013824
0.00013824
0.00013824
0.000119445
7.23495e-05
6.6269e-05
6.44705e-05
6.35864e-05
6.32916e-05
6.34849e-05
6.42466e-05
6.58109e-05
7.13453e-05
0.000107922
0.000138239
0.00013824
0.00013824
0.00013824
0.000137153
7.63493e-05
6.59285e-05
6.3159e-05
6.18914e-05
6.11483e-05
6.06806e-05
6.03832e-05
6.02159e-05
6.01659e-05
6.02407e-05
6.04852e-05
6.10162e-05
6.21006e-05
6.4659e-05
7.43342e-05
0.000137142
0.00013824
0.00013824
0.00013824
0.00013824
0.00013824
0.00013824
0.00013824
0.00013824
0.00013824
0.00013824
0.00013824
0.00013824
0.00013824
0.00013824
0.00013824
0.00013824
0.00013824
0.00013824
0.00013824
0.00013824
0.00013824
0.00013824
0.00013824
0.00013824
0.00013824
0.00013824
0.00013824
0.00013824
0.00013824
0.000138228
9.40735e-05
6.68676e-05
6.27346e-05
6.13617e-05
6.07237e-05
6.04034e-05
6.02571e-05
6.02171e-05
6.02481e-05
6.03304e-05
6.04534e-05
6.06151e-05
6.08221e-05
6.10929e-05
6.14633e-05
6.20028e-05
6.28679e-05
6.45248e-05
6.92429e-05
0.000100978
0.000138235
0.00013824
0.00013824
0.00013824
0.00013824
0.00013824
0.00013824
0.00013824
0.000134706
7.75426e-05
6.85782e-05
6.52357e-05
6.4288e-05
6.40564e-05
6.43649e-05
6.53419e-05
6.85558e-05
7.39387e-05
0.000111494
0.000128275
0.000108285
7.28391e-05
6.78978e-05
6.4979e-05
6.40109e-05
6.36535e-05
6.38097e-05
6.45645e-05
6.6908e-05
7.25932e-05
0.000124271
0.00013824
0.00013824
0.00013824
0.00013824
0.00013824
0.00013824
0.00013824
0.00013824
0.000126968
7.46965e-05
6.87538e-05
6.56942e-05
6.49204e-05
6.54271e-05
6.80399e-05
7.26949e-05
0.000117282
0.000138239
0.00013824
0.00013824
0.00013824
0.00013824
0.00013824
0.000134539
7.30526e-05
6.53538e-05
6.29506e-05
6.17539e-05
6.1107e-05
6.07379e-05
6.05761e-05
6.05988e-05
6.08119e-05
6.13199e-05
6.25208e-05
6.56488e-05
7.61662e-05
0.000136843
0.00013824
0.00013824
0.00013824
0.00013824
0.00013824
0.00013824
0.00013824
0.00013824
0.00013824
0.00013824
0.00013824
0.00013824
0.00013824
0.00013824
0.00013824
0.00013824
0.00013824
0.00013824
0.00013824
0.00013824
0.00013824
0.00013824
0.00013824
0.00013824
0.00013824
0.00013824
0.00013824
0.00013824
0.00013824
0.00013824
0.00013824
0.000138157
8.52644e-05
6.62855e-05
6.26451e-05
6.13242e-05
6.06947e-05
6.03775e-05
6.0226e-05
6.01813e-05
6.0213e-05
6.03068e-05
6.04611e-05
6.0688e-05
6.10177e-05
6.15105e-05
6.22918e-05
6.36955e-05
6.71414e-05
8.37663e-05
0.000138062
0.00013824
0.00013824
0.00013824
0.00013824
0.00013824
0.00013824
0.00013824
0.00013824
0.00013824
0.000137317
9.76818e-05
7.16133e-05
6.87722e-05
6.79477e-05
6.90557e-05
7.20188e-05
0.000100413
0.000135423
0.00013824
0.00013824
0.000138239
0.000133734
9.47927e-05
7.13303e-05
6.84032e-05
6.71575e-05
6.78784e-05
7.03847e-05
8.55213e-05
0.000133068
0.00013824
0.00013824
0.00013824
0.00013824
0.00013824
0.00013824
0.00013824
0.00013824
0.00013824
0.00013824
0.000136111
0.000104149
7.4372e-05
7.09809e-05
7.29957e-05
9.69067e-05
0.000132286
0.00013824
0.00013824
0.00013824
0.00013824
0.00013824
0.00013824
0.00013824
0.00013824
0.000134448
7.48846e-05
6.65547e-05
6.33842e-05
6.22144e-05
6.16068e-05
6.14282e-05
6.1627e-05
6.21748e-05
6.33561e-05
6.76723e-05
8.82877e-05
0.000137684
0.00013824
0.00013824
0.00013824
0.00013824
0.00013824
0.00013824
0.00013824
0.00013824
0.00013824
0.00013824
0.00013824
0.00013824
0.00013824
0.00013824
0.00013824
0.00013824
0.00013824
0.00013824
0.00013824
0.00013824
0.00013824
0.00013824
0.00013824
0.00013824
0.00013824
0.00013824
0.00013824
0.00013824
0.00013824
0.00013824
0.00013824
0.00013824
0.00013824
0.000138095
8.50968e-05
6.66665e-05
6.27864e-05
6.14098e-05
6.07886e-05
6.04621e-05
6.03161e-05
6.02895e-05
6.03566e-05
6.05159e-05
6.07874e-05
6.12282e-05
6.1965e-05
6.33013e-05
6.6268e-05
7.72096e-05
0.000137359
0.00013824
0.00013824
0.00013824
0.00013824
0.00013824
0.00013824
0.00013824
0.00013824
0.00013824
0.00013824
0.00013824
0.000138231
0.000127853
0.000103271
9.29166e-05
0.000106973
0.000130838
0.000138235
0.00013824
0.00013824
0.00013824
0.00013824
0.00013824
0.000138224
0.000127739
0.000101695
8.69832e-05
9.59226e-05
0.000121619
0.00013813
0.00013824
0.00013824
0.00013824
0.00013824
0.00013824
0.00013824
0.00013824
0.00013824
0.00013824
0.00013824
0.00013824
0.00013824
0.000138238
0.000136245
0.000128843
0.00013492
0.000138229
0.00013824
0.00013824
0.00013824
0.00013824
0.00013824
0.00013824
0.00013824
0.00013824
0.00013824
0.00013824
0.000137076
9.17378e-05
6.93419e-05
6.5827e-05
6.39088e-05
6.36185e-05
6.47016e-05
6.69345e-05
7.08249e-05
0.000113831
0.000138206
0.00013824
0.00013824
0.00013824
0.00013824
0.00013824
0.00013824
0.00013824
0.00013824
0.00013824
0.00013824
0.00013824
0.00013824
0.00013824
0.00013824
0.00013824
0.00013824
0.00013824
0.00013824
0.00013824
0.00013824
0.00013824
0.00013824
0.00013824
0.00013824
0.00013824
0.00013824
0.00013824
0.00013824
0.00013824
0.00013824
0.00013824
0.00013824
0.00013824
0.00013824
0.00013824
0.000138156
9.38207e-05
6.78779e-05
6.32219e-05
6.18494e-05
6.1123e-05
6.07992e-05
6.06855e-05
6.07223e-05
6.09078e-05
6.12765e-05
6.19614e-05
6.33588e-05
6.68402e-05
7.84844e-05
0.000137091
0.00013824
0.00013824
0.00013824
0.00013824
0.00013824
0.00013824
0.00013824
0.00013824
0.00013824
0.00013824
0.00013824
0.00013824
0.00013824
0.00013824
0.000138237
0.000138209
0.000138239
0.00013824
0.00013824
0.00013824
0.00013824
0.00013824
0.00013824
0.00013824
0.00013824
0.00013824
0.000138236
0.00013814
0.000138225
0.00013824
0.00013824
0.00013824
0.00013824
0.00013824
0.00013824
0.00013824
0.00013824
0.00013824
0.00013824
0.00013824
0.00013824
0.00013824
0.00013824
0.00013824
0.00013824
0.00013824
0.00013824
0.00013824
0.00013824
0.00013824
0.00013824
0.00013824
0.00013824
0.00013824
0.00013824
0.00013824
0.00013824
0.00013824
0.00013824
0.000138219
0.000123038
9.01382e-05
7.29482e-05
7.17905e-05
8.1791e-05
0.00010874
0.000134886
0.00013824
0.00013824
0.00013824
0.00013824
0.00013824
0.00013824
0.00013824
0.00013824
0.00013824
0.00013824
0.00013824
0.00013824
0.00013824
0.00013824
0.00013824
0.00013824
0.00013824
0.00013824
0.00013824
0.00013824
0.00013824
0.00013824
0.00013824
0.00013824
0.00013824
0.00013824
0.00013824
0.00013824
0.00013824
0.00013824
0.00013824
0.00013824
0.00013824
0.00013824
0.00013824
0.00013824
0.00013824
0.00013824
0.000138229
0.000112518
6.99052e-05
6.53927e-05
6.28595e-05
6.20915e-05
6.17781e-05
6.17539e-05
6.20332e-05
6.2663e-05
6.40711e-05
6.8625e-05
9.06842e-05
0.00013777
0.00013824
0.00013824
0.00013824
0.00013824
0.00013824
0.00013824
0.00013824
0.00013824
0.00013824
0.00013824
0.00013824
0.00013824
0.00013824
0.00013824
0.00013824
0.00013824
0.00013824
0.00013824
0.00013824
0.00013824
0.00013824
0.00013824
0.00013824
0.00013824
0.00013824
0.00013824
0.00013824
0.00013824
0.00013824
0.00013824
0.00013824
0.00013824
0.00013824
0.00013824
0.00013824
0.00013824
0.00013824
0.00013824
0.00013824
0.00013824
0.00013824
0.00013824
0.00013824
0.00013824
0.00013824
0.00013824
0.00013824
0.00013824
0.00013824
0.00013824
0.00013824
0.00013824
0.00013824
0.00013824
0.00013824
0.00013824
0.00013824
0.00013824
0.00013824
0.00013824
0.00013824
0.00013824
0.000138209
0.00013661
0.000135968
0.000138079
0.00013824
0.00013824
0.00013824
0.00013824
0.00013824
0.00013824
0.00013824
0.00013824
0.00013824
0.00013824
0.00013824
0.00013824
0.00013824
0.00013824
0.00013824
0.00013824
0.00013824
0.00013824
0.00013824
0.00013824
0.00013824
0.00013824
0.00013824
0.00013824
0.00013824
0.00013824
0.00013824
0.00013824
0.00013824
0.00013824
0.00013824
0.00013824
0.00013824
0.00013824
0.00013824
0.00013824
0.00013824
0.00013824
0.00013824
0.00013824
0.00013824
0.00013824
0.000131789
9.14593e-05
6.9164e-05
6.67226e-05
6.54003e-05
6.50438e-05
6.59014e-05
6.78054e-05
7.26907e-05
0.000116761
0.000138213
0.00013824
0.00013824
0.00013824
0.00013824
0.00013824
0.00013824
0.00013824
0.00013824
0.00013824
0.00013824
0.00013824
0.00013824
0.00013824
0.00013824
0.00013824
0.00013824
0.00013824
0.00013824
0.00013824
0.00013824
0.00013824
0.00013824
0.00013824
0.00013824
0.00013824
0.00013824
0.00013824
0.00013824
0.00013824
0.00013824
0.00013824
0.00013824
0.00013824
0.00013824
0.00013824
0.00013824
0.00013824
0.00013824
0.00013824
0.00013824
0.00013824
0.00013824
0.00013824
0.00013824
0.00013824
0.00013824
0.00013824
0.00013824
0.00013824
0.00013824
0.00013824
0.00013824
0.00013824
0.00013824
0.00013824
0.00013824
0.00013824
0.00013824
0.00013824
0.00013824
0.00013824
0.00013824
0.00013824
0.00013824
0.00013824
0.00013824
0.00013824
0.00013824
0.00013824
0.00013824
0.00013824
0.00013824
0.00013824
0.00013824
0.00013824
0.00013824
0.00013824
0.00013824
0.00013824
0.00013824
0.00013824
0.00013824
0.00013824
0.00013824
0.00013824
0.00013824
0.00013824
0.00013824
0.00013824
0.00013824
0.00013824
0.00013824
0.00013824
0.00013824
0.00013824
0.00013824
0.00013824
0.00013824
0.00013824
0.00013824
0.00013824
0.00013824
0.00013824
0.00013824
0.00013824
0.00013824
0.00013824
0.00013824
0.00013824
0.00013824
0.000138224
0.000129155
0.000105988
8.84946e-05
8.35173e-05
9.25634e-05
0.000114893
0.00013646
0.00013824
0.00013824
0.00013824
0.00013824
0.00013824
0.00013824
0.00013824
0.00013824
0.00013824
0.00013824
0.00013824
0.00013824
0.00013824
0.00013824
0.00013824
0.00013824
0.00013824
0.00013824
0.00013824
0.00013824
0.00013824
0.00013824
0.00013824
0.00013824
0.00013824
0.00013824
0.00013824
0.00013824
0.00013824
0.00013824
0.00013824
0.00013824
0.00013824
0.00013824
0.00013824
0.00013824
0.00013824
0.00013824
0.00013824
0.00013824
0.00013824
0.00013824
0.00013824
0.00013824
0.00013824
0.00013824
0.00013824
0.00013824
0.00013824
0.00013824
0.00013824
0.00013824
0.00013824
0.00013824
0.00013824
0.00013824
0.00013824
0.00013824
0.00013824
0.00013824
0.00013824
0.00013824
0.00013824
0.00013824
0.00013824
0.00013824
0.00013824
0.00013824
0.00013824
0.00013824
0.00013824
0.00013824
0.00013824
0.00013824
0.00013824
0.00013824
0.00013824
0.00013824
0.00013824
0.00013824
0.00013824
0.00013824
0.00013824
0.00013824
0.00013824
0.00013824
0.00013824
0.00013824
0.00013824
0.00013824
0.00013824
0.00013824
0.00013824
0.00013824
0.00013824
0.00013824
0.00013824
0.00013824
0.00013824
0.00013824
0.00013824
0.00013824
0.00013824
0.00013824
0.00013824
0.00013824
0.00013824
0.00013824
0.00013824
0.00013824
0.00013824
0.00013824
0.00013824
0.00013824
0.000138239
0.0001382
0.000138121
0.000138222
0.00013824
0.00013824
0.00013824
0.00013824
0.00013824
0.00013824
0.00013824
0.00013824
0.00013824
0.00013824
0.00013824
0.00013824
0.00013824
0.00013824
0.00013824
0.00013824
0.00013824
0.00013824
0.00013824
0.00013824
0.00013824
0.00013824
0.00013824
0.00013824
0.00013824
0.00013824
0.00013824
0.00013824
0.00013824
0.00013824
0.00013824
0.00013824
0.00013824
0.00013824
0.00013824
0.00013824
0.00013824
0.00013824
0.00013824
0.00013824
0.00013824
0.00013824
0.00013824
0.00013824
0.00013824
0.00013824
0.00013824
0.00013824
0.00013824
0.00013824
0.00013824
0.00013824
0.00013824
0.00013824
0.00013824
0.00013824
0.00013824
0.00013824
0.00013824
0.00013824
0.00013824
0.00013824
0.00013824
0.00013824
0.00013824
0.00013824
0.00013824
0.00013824
0.00013824
0.00013824
0.00013824
0.00013824
0.00013824
0.00013824
0.00013824
0.00013824
0.00013824
0.00013824
0.00013824
0.00013824
0.00013824
0.00013824
0.00013824
0.00013824
0.00013824
0.00013824
0.00013824
0.00013824
0.00013824
0.00013824
0.00013824
0.00013824
0.00013824
0.00013824
0.00013824
0.00013824
0.00013824
0.00013824
0.00013824
0.00013824
0.00013824
0.00013824
0.00013824
0.00013824
0.00013824
0.00013824
0.00013824
0.00013824
0.00013824
0.00013824
0.00013824
0.00013824
0.00013824
0.00013824
0.00013824
0.00013824
0.00013824
0.00013824
0.00013824
0.00013824
0.00013824
0.00013824
0.00013824
0.00013824
0.00013824
0.00013824
0.00013824
0.00013824
0.00013824
0.00013824
0.00013824
0.00013824
0.00013824
0.00013824
0.00013824
0.00013824
0.00013824
0.00013824
0.00013824
0.00013824
0.00013824
0.00013824
0.00013824
0.00013824
0.00013824
0.00013824
0.00013824
0.00013824
0.00013824
0.00013824
0.00013824
0.00013824
0.00013824
0.00013824
0.00013824
0.00013824
0.00013824
0.00013824
0.00013824
0.00013824
0.00013824
0.00013824
0.00013824
0.00013824
0.00013824
0.00013824
0.00013824
0.00013824
0.00013824
0.00013824
0.00013824
0.00013824
0.00013824
0.00013824
0.00013824
0.00013824
0.00013824
0.00013824
0.00013824
0.00013824
0.00013824
0.00013824
0.00013824
0.00013824
0.00013824
0.00013824
0.00013824
0.00013824
0.00013824
0.00013824
0.00013824
0.00013824
0.00013824
0.00013824
0.00013824
0.00013824
0.00013824
0.00013824
0.00013824
0.00013824
0.00013824
0.00013824
0.00013824
0.00013824
0.00013824
0.00013824
0.00013824
0.00013824
0.00013824
0.00013824
0.00013824
0.00013824
0.00013824
0.00013824
0.00013824
0.00013824
0.00013824
0.00013824
0.00013824
0.00013824
0.00013824
0.00013824
0.00013824
0.00013824
0.00013824
0.00013824
0.00013824
0.00013824
0.00013824
0.00013824
0.00013824
0.00013824
0.00013824
0.00013824
0.00013824
0.00013824
0.00013824
0.00013824
0.00013824
0.00013824
0.00013824
0.00013824
0.00013824
0.00013824
0.00013824
0.00013824
0.00013824
0.00013824
0.00013824
0.00013824
0.00013824
0.00013824
0.00013824
0.00013824
0.00013824
0.00013824
0.00013824
0.00013824
0.00013824
0.00013824
0.00013824
0.00013824
0.00013824
0.00013824
0.00013824
0.00013824
0.00013824
0.00013824
0.00013824
0.00013824
0.00013824
0.00013824
0.00013824
0.00013824
0.00013824
0.00013824
0.00013824
0.00013824
0.00013824
0.00013824
0.00013824
0.00013824
0.00013824
0.00013824
0.00013824
0.00013824
0.00013824
0.00013824
0.00013824
0.00013824
0.00013824
0.00013824
0.00013824
0.00013824
0.00013824
0.00013824
0.00013824
0.00013824
0.00013824
0.00013824
0.00013824
0.00013824
0.00013824
0.00013824
0.00013824
0.00013824
0.00013824
0.00013824
0.00013824
0.00013824
0.00013824
0.00013824
0.00013824
0.00013824
0.00013824
0.00013824
0.00013824
0.00013824
0.00013824
0.00013824
0.00013824
0.00013824
0.00013824
0.00013824
0.00013824
0.00013824
0.00013824
0.00013824
0.00013824
0.00013824
0.00013824
0.00013824
0.00013824
0.00013824
0.00013824
0.00013824
0.00013824
0.00013824
0.00013824
0.00013824
0.00013824
0.00013824
0.00013824
0.00013824
0.00013824
0.00013824
0.00013824
0.00013824
0.00013824
0.00013824
0.00013824
0.00013824
0.00013824
0.00013824
0.00013824
0.00013824
0.00013824
0.00013824
0.00013824
0.00013824
0.00013824
0.00013824
0.00013824
0.00013824
0.00013824
0.00013824
0.00013824
0.00013824
0.00013824
0.00013824
0.00013824
0.00013824
0.00013824
0.00013824
0.00013824
0.00013824
0.00013824
0.00013824
0.00013824
0.00013824
0.00013824
0.00013824
0.00013824
0.00013824
0.00013824
0.00013824
0.00013824
0.00013824
0.00013824
0.00013824
0.00013824
0.00013824
0.00013824
0.00013824
0.00013824
0.00013824
0.00013824
0.00013824
0.00013824
0.00013824
0.00013824
0.00013824
0.00013824
0.00013824
0.00013824
0.00013824
0.00013824
0.00013824
0.00013824
0.00013824
0.00013824
0.00013824
0.00013824
0.00013824
0.00013824
0.00013824
0.00013824
0.00013824
0.00013824
0.00013824
0.00013824
0.00013824
0.00013824
0.00013824
0.00013824
0.00013824
0.00013824
0.00013824
0.00013824
0.00013824
0.00013824
0.00013824
0.00013824
0.00013824
0.00013824
0.00013824
0.00013824
0.00013824
0.00013824
0.00013824
0.00013824
0.00013824
0.00013824
0.00013824
0.00013824
0.00013824
0.00013824
0.00013824
0.00013824
0.00013824
0.00013824
0.00013824
0.00013824
0.00013824
0.00013824
0.00013824
0.00013824
0.00013824
0.00013824
0.00013824
0.00013824
0.00013824
0.00013824
0.00013824
0.00013824
0.00013824
0.00013824
0.00013824
0.00013824
0.00013824
0.00013824
0.00013824
0.00013824
0.00013824
0.00013824
0.00013824
0.00013824
0.00013824
0.00013824
0.00013824
0.00013824
0.00013824
0.00013824
0.00013824
0.00013824
0.00013824
0.00013824
0.00013824
0.00013824
0.00013824
0.00013824
0.00013824
0.00013824
0.00013824
0.00013824
0.00013824
0.00013824
0.00013824
0.00013824
0.00013824
0.00013824
0.00013824
0.00013824
0.00013824
0.00013824
0.00013824
0.00013824
0.00013824
0.00013824
0.00013824
0.00013824
0.00013824
0.00013824
0.00013824
0.00013824
0.00013824
0.00013824
0.00013824
0.00013824
0.00013824
0.00013824
0.00013824
0.00013824
0.00013824
0.00013824
0.00013824
0.00013824
0.00013824
0.00013824
0.00013824
0.00013824
0.00013824
0.00013824
0.00013824
0.00013824
0.00013824
0.00013824
0.00013824
0.00013824
0.00013824
0.00013824
0.00013824
0.00013824
0.00013824
0.00013824
0.00013824
0.00013824
0.00013824
0.00013824
0.00013824
0.00013824
0.00013824
0.00013824
0.00013824
0.00013824
0.00013824
0.00013824
0.00013824
0.00013824
0.00013824
0.00013824
0.00013824
0.00013824
0.00013824
0.00013824
0.00013824
0.00013824
0.00013824
0.00013824
0.00013824
0.00013824
0.00013824
0.00013824
0.00013824
0.00013824
0.00013824
0.00013824
0.00013824
0.00013824
0.00013824
0.00013824
0.00013824
0.00013824
0.00013824
0.00013824
0.00013824
0.00013824
0.00013824
0.00013824
0.00013824
0.00013824
0.00013824
0.00013824
0.00013824
0.00013824
0.00013824
0.00013824
0.00013824
0.00013824
0.00013824
0.00013824
0.00013824
0.00013824
0.00013824
0.00013824
0.00013824
0.00013824
0.00013824
0.00013824
0.00013824
0.00013824
0.00013824
0.00013824
0.00013824
0.00013824
0.00013824
0.00013824
0.00013824
0.00013824
0.00013824
0.00013824
0.00013824
0.00013824
0.00013824
0.00013824
0.00013824
0.00013824
0.00013824
0.00013824
0.00013824
0.00013824
0.00013824
0.00013824
0.00013824
0.00013824
0.00013824
0.00013824
0.00013824
0.00013824
0.00013824
0.00013824
0.00013824
0.00013824
0.00013824
0.00013824
0.00013824
0.00013824
0.00013824
0.00013824
0.00013824
0.00013824
0.00013824
0.00013824
0.00013824
0.00013824
0.00013824
0.00013824
0.00013824
0.00013824
0.00013824
0.00013824
0.00013824
0.00013824
0.00013824
0.00013824
0.00013824
0.00013824
0.00013824
0.00013824
0.00013824
0.00013824
0.00013824
0.00013824
0.00013824
0.00013824
0.00013824
0.00013824
0.00013824
0.00013824
0.00013824
0.00013824
0.00013824
0.00013824
0.00013824
0.00013824
0.00013824
0.00013824
0.00013824
0.00013824
0.00013824
0.00013824
0.00013824
0.00013824
0.00013824
0.00013824
0.00013824
0.00013824
0.00013824
0.00013824
0.00013824
0.00013824
0.00013824
0.00013824
0.00013824
0.00013824
0.00013824
0.00013824
0.00013824
0.00013824
0.00013824
0.00013824
0.00013824
0.00013824
0.00013824
0.00013824
0.00013824
0.00013824
0.00013824
0.00013824
0.00013824
0.00013824
0.00013824
0.00013824
0.00013824
0.00013824
0.00013824
0.00013824
0.00013824
0.00013824
0.00013824
0.00013824
0.00013824
0.00013824
0.00013824
0.00013824
0.00013824
0.00013824
0.00013824
0.00013824
0.00013824
0.00013824
0.00013824
0.00013824
0.00013824
0.00013824
0.00013824
0.00013824
0.00013824
0.00013824
0.00013824
0.00013824
0.00013824
0.00013824
0.00013824
0.00013824
0.00013824
0.00013824
0.00013824
0.00013824
0.00013824
0.00013824
0.00013824
0.00013824
0.00013824
0.00013824
0.00013824
0.00013824
0.00013824
0.00013824
0.00013824
0.00013824
0.00013824
0.00013824
0.00013824
0.00013824
0.00013824
0.00013824
0.00013824
0.00013824
0.00013824
0.00013824
0.00013824
0.00013824
0.00013824
0.00013824
0.00013824
0.00013824
0.00013824
0.00013824
0.00013824
0.00013824
0.00013824
0.00013824
0.00013824
0.00013824
0.00013824
0.00013824
0.00013824
0.00013824
0.00013824
0.00013824
0.00013824
0.00013824
0.00013824
0.00013824
0.00013824
0.00013824
0.00013824
0.00013824
0.00013824
0.00013824
0.00013824
0.00013824
0.00013824