/*--------------------------------*- C++ -*----------------------------------*\
| =========                 |                                                 |
| \\      /  F ield         | OpenFOAM: The Open Source CFD Toolbox           |
|  \\    /   O peration     | Version:  2406                                  |
|   \\  /    A nd           | Website:  www.openfoam.com                      |
|    \\/     M anipulation  |                                                 |
\*---------------------------------------------------------------------------*/
FoamFile
{
    version     2.0;
    format      ascii;
    arch        "LSB;label=32;scalar=64";
    class       volScalarField;
    location    "6.6";
    object      Da;
}
// * * * * * * * * * * * * * * * * * * * * * * * * * * * * * * * * * * * * * //

dimensions      [0 2 -1 0 0 0 0];

internalField   nonuniform List<scalar> 
14400
(
4.56945e-05
4.56449e-05
4.55674e-05
4.54852e-05
4.54131e-05
4.5358e-05
4.53224e-05
4.53077e-05
4.53152e-05
4.53474e-05
4.54078e-05
4.5499e-05
4.56189e-05
4.57505e-05
4.58461e-05
4.58259e-05
4.56452e-05
4.53833e-05
4.5112e-05
4.48603e-05
4.46328e-05
4.4426e-05
4.42358e-05
4.40594e-05
4.38963e-05
4.37475e-05
4.3615e-05
4.3502e-05
4.34125e-05
4.33517e-05
4.33278e-05
4.33539e-05
4.34551e-05
4.36869e-05
4.42089e-05
4.573e-05
5.39583e-05
7.7946e-05
7.8e-05
7.8e-05
7.8e-05
7.8e-05
7.8e-05
7.8e-05
7.8e-05
7.8e-05
7.8e-05
7.8e-05
7.8e-05
7.8e-05
7.8e-05
7.8e-05
7.8e-05
7.8e-05
7.8e-05
7.8e-05
7.8e-05
7.8e-05
7.8e-05
7.8e-05
7.55211e-05
4.79327e-05
4.4972e-05
4.41306e-05
4.37895e-05
4.36491e-05
4.36181e-05
4.36588e-05
4.37525e-05
4.38882e-05
4.40575e-05
4.4252e-05
4.44614e-05
4.46731e-05
4.48725e-05
4.50455e-05
4.51811e-05
4.52755e-05
4.53332e-05
4.53676e-05
4.54003e-05
4.54618e-05
4.5598e-05
4.58942e-05
4.65784e-05
4.87038e-05
6.17663e-05
7.79945e-05
6.83764e-05
4.9129e-05
4.65113e-05
4.56632e-05
4.52647e-05
4.50567e-05
4.49519e-05
4.49104e-05
4.49107e-05
4.49385e-05
4.49833e-05
4.50358e-05
4.50864e-05
4.51252e-05
4.51424e-05
4.5131e-05
4.50892e-05
4.5021e-05
4.49348e-05
4.48407e-05
4.47482e-05
4.4666e-05
4.46023e-05
4.45663e-05
4.457e-05
4.46319e-05
4.47853e-05
4.51032e-05
4.57962e-05
4.78624e-05
6.04225e-05
7.79928e-05
4.57178e-05
4.56431e-05
4.5535e-05
4.54275e-05
4.53377e-05
4.52714e-05
4.52297e-05
4.52129e-05
4.52222e-05
4.52603e-05
4.53324e-05
4.54442e-05
4.55999e-05
4.57906e-05
4.59668e-05
4.59997e-05
4.57548e-05
4.54205e-05
4.5103e-05
4.48269e-05
4.45882e-05
4.4378e-05
4.41888e-05
4.40163e-05
4.38585e-05
4.37159e-05
4.359e-05
4.34839e-05
4.34014e-05
4.33482e-05
4.33327e-05
4.33694e-05
4.34858e-05
4.37446e-05
4.43376e-05
4.62482e-05
6.0121e-05
7.79972e-05
7.8e-05
7.8e-05
7.8e-05
7.8e-05
7.8e-05
7.8e-05
7.8e-05
7.8e-05
7.8e-05
7.8e-05
7.8e-05
7.8e-05
7.8e-05
7.8e-05
7.8e-05
7.8e-05
7.8e-05
7.8e-05
7.8e-05
7.8e-05
7.8e-05
7.8e-05
7.75994e-05
5.01491e-05
4.53519e-05
4.42413e-05
4.38336e-05
4.36664e-05
4.36197e-05
4.36483e-05
4.3731e-05
4.38553e-05
4.40123e-05
4.41933e-05
4.43884e-05
4.45857e-05
4.4772e-05
4.49347e-05
4.50644e-05
4.51579e-05
4.522e-05
4.52636e-05
4.53096e-05
4.53884e-05
4.55471e-05
4.58762e-05
4.66247e-05
4.90256e-05
6.62161e-05
7.79996e-05
7.39088e-05
4.98178e-05
4.67249e-05
4.57329e-05
4.52769e-05
4.50393e-05
4.49163e-05
4.48625e-05
4.48541e-05
4.48766e-05
4.49192e-05
4.49725e-05
4.50268e-05
4.50708e-05
4.50931e-05
4.50844e-05
4.50418e-05
4.49707e-05
4.48816e-05
4.47864e-05
4.46952e-05
4.46168e-05
4.45593e-05
4.45317e-05
4.45466e-05
4.46236e-05
4.47998e-05
4.51573e-05
4.59418e-05
4.8423e-05
6.73132e-05
7.79999e-05
4.58386e-05
4.56887e-05
4.55036e-05
4.53402e-05
4.52143e-05
4.51264e-05
4.50731e-05
4.50524e-05
4.50648e-05
4.51137e-05
4.52071e-05
4.5358e-05
4.55857e-05
4.59121e-05
4.63265e-05
4.66105e-05
4.60802e-05
4.55322e-05
4.51045e-05
4.47755e-05
4.45133e-05
4.42951e-05
4.41067e-05
4.39402e-05
4.37916e-05
4.36599e-05
4.35461e-05
4.34527e-05
4.33837e-05
4.33452e-05
4.33471e-05
4.34062e-05
4.35564e-05
4.38776e-05
4.46269e-05
4.71892e-05
7.06315e-05
7.8e-05
7.8e-05
7.8e-05
7.8e-05
7.8e-05
7.8e-05
7.8e-05
7.8e-05
7.8e-05
7.8e-05
7.8e-05
7.8e-05
7.8e-05
7.8e-05
7.8e-05
7.8e-05
7.8e-05
7.8e-05
7.8e-05
7.8e-05
7.8e-05
7.8e-05
7.8e-05
7.79964e-05
5.96642e-05
4.62855e-05
4.44725e-05
4.39263e-05
4.37052e-05
4.36272e-05
4.36322e-05
4.36935e-05
4.37965e-05
4.39309e-05
4.40878e-05
4.42577e-05
4.44301e-05
4.4594e-05
4.47393e-05
4.4859e-05
4.49514e-05
4.50215e-05
4.50815e-05
4.51517e-05
4.52632e-05
4.54677e-05
4.58721e-05
4.67839e-05
4.97142e-05
7.3159e-05
7.8e-05
7.79171e-05
5.53138e-05
4.75142e-05
4.59344e-05
4.53263e-05
4.50228e-05
4.48625e-05
4.47845e-05
4.47602e-05
4.47733e-05
4.48128e-05
4.48694e-05
4.49327e-05
4.49895e-05
4.5024e-05
4.5021e-05
4.49754e-05
4.48957e-05
4.47981e-05
4.46982e-05
4.46076e-05
4.45351e-05
4.44884e-05
4.44765e-05
4.45129e-05
4.46212e-05
4.48484e-05
4.53069e-05
4.63537e-05
4.98224e-05
7.60435e-05
7.8e-05
4.63058e-05
4.59015e-05
4.55377e-05
4.5271e-05
4.5087e-05
4.49666e-05
4.48965e-05
4.48702e-05
4.48866e-05
4.49504e-05
4.50736e-05
4.52813e-05
4.56232e-05
4.62102e-05
4.73279e-05
4.94915e-05
4.69825e-05
4.58055e-05
4.51543e-05
4.47334e-05
4.44317e-05
4.41986e-05
4.40084e-05
4.38478e-05
4.37097e-05
4.35916e-05
4.34933e-05
4.34171e-05
4.33671e-05
4.33507e-05
4.33799e-05
4.34773e-05
4.36911e-05
4.41514e-05
4.53955e-05
5.15971e-05
7.78613e-05
7.8e-05
7.8e-05
7.8e-05
7.8e-05
7.8e-05
7.8e-05
7.8e-05
7.8e-05
7.8e-05
7.8e-05
7.8e-05
7.8e-05
7.8e-05
7.8e-05
7.8e-05
7.8e-05
7.8e-05
7.8e-05
7.8e-05
7.8e-05
7.8e-05
7.8e-05
7.8e-05
7.8e-05
7.22364e-05
4.75696e-05
4.48586e-05
4.40886e-05
4.37783e-05
4.36503e-05
4.36193e-05
4.36498e-05
4.37233e-05
4.38278e-05
4.3954e-05
4.40928e-05
4.42354e-05
4.4373e-05
4.44983e-05
4.46069e-05
4.46988e-05
4.47793e-05
4.48607e-05
4.49632e-05
4.51208e-05
4.53978e-05
4.59512e-05
4.73814e-05
5.39521e-05
7.78365e-05
7.8e-05
7.8e-05
7.12923e-05
4.92206e-05
4.63702e-05
4.54632e-05
4.50428e-05
4.48218e-05
4.47072e-05
4.46605e-05
4.46619e-05
4.46996e-05
4.47646e-05
4.48467e-05
4.49298e-05
4.49901e-05
4.49983e-05
4.49436e-05
4.48416e-05
4.47233e-05
4.46102e-05
4.4516e-05
4.44488e-05
4.44154e-05
4.4425e-05
4.44937e-05
4.46526e-05
4.49742e-05
4.56729e-05
4.78334e-05
6.38592e-05
7.79992e-05
7.8e-05
4.8518e-05
4.6603e-05
4.57496e-05
4.52848e-05
4.50076e-05
4.48397e-05
4.47457e-05
4.47113e-05
4.47332e-05
4.48173e-05
4.49821e-05
4.52733e-05
4.58011e-05
4.69327e-05
5.07393e-05
7.4613e-05
5.0015e-05
4.64582e-05
4.53199e-05
4.47389e-05
4.43728e-05
4.41136e-05
4.39159e-05
4.37582e-05
4.36296e-05
4.35254e-05
4.34444e-05
4.33887e-05
4.33631e-05
4.33768e-05
4.34466e-05
4.36065e-05
4.39385e-05
4.47074e-05
4.73592e-05
7.14901e-05
7.8e-05
7.8e-05
7.8e-05
7.8e-05
7.8e-05
7.8e-05
7.8e-05
7.8e-05
7.8e-05
7.8e-05
7.8e-05
7.8e-05
7.8e-05
7.8e-05
7.8e-05
7.8e-05
7.8e-05
7.8e-05
7.8e-05
7.8e-05
7.8e-05
7.8e-05
7.8e-05
7.8e-05
7.8e-05
7.79802e-05
5.56155e-05
4.59035e-05
4.44047e-05
4.39161e-05
4.37065e-05
4.36232e-05
4.36128e-05
4.365e-05
4.372e-05
4.38125e-05
4.39187e-05
4.4031e-05
4.41428e-05
4.42493e-05
4.43482e-05
4.44411e-05
4.45345e-05
4.4641e-05
4.47829e-05
4.50008e-05
4.53816e-05
4.618e-05
4.86935e-05
6.85561e-05
7.79999e-05
7.8e-05
7.8e-05
7.79875e-05
5.87166e-05
4.76637e-05
4.58198e-05
4.51621e-05
4.48397e-05
4.46701e-05
4.45932e-05
4.45814e-05
4.46211e-05
4.47047e-05
4.48244e-05
4.49623e-05
4.50848e-05
4.51189e-05
4.50369e-05
4.48757e-05
4.47087e-05
4.45648e-05
4.44575e-05
4.43919e-05
4.4373e-05
4.44108e-05
4.45262e-05
4.47653e-05
4.5255e-05
4.64507e-05
5.12515e-05
7.75548e-05
7.8e-05
7.8e-05
7.02663e-05
4.92856e-05
4.64164e-05
4.54869e-05
4.50409e-05
4.47969e-05
4.46656e-05
4.46184e-05
4.46487e-05
4.47643e-05
4.49954e-05
4.54356e-05
4.63661e-05
4.92792e-05
7.22894e-05
7.8e-05
6.9062e-05
4.84192e-05
4.57604e-05
4.48505e-05
4.43723e-05
4.40674e-05
4.3852e-05
4.36913e-05
4.35689e-05
4.34773e-05
4.34145e-05
4.33822e-05
4.33872e-05
4.34426e-05
4.35746e-05
4.38438e-05
4.44363e-05
4.62902e-05
5.98101e-05
7.79975e-05
7.8e-05
7.8e-05
7.8e-05
7.8e-05
7.8e-05
7.8e-05
7.8e-05
7.8e-05
7.8e-05
7.8e-05
7.8e-05
7.8e-05
7.8e-05
7.8e-05
7.8e-05
7.8e-05
7.8e-05
7.8e-05
7.8e-05
7.8e-05
7.8e-05
7.8e-05
7.8e-05
7.8e-05
7.8e-05
7.8e-05
7.47716e-05
4.79715e-05
4.50101e-05
4.41763e-05
4.38264e-05
4.36642e-05
4.3599e-05
4.35923e-05
4.36242e-05
4.36819e-05
4.37563e-05
4.38406e-05
4.39297e-05
4.40205e-05
4.41127e-05
4.42095e-05
4.4319e-05
4.4456e-05
4.46479e-05
4.49499e-05
4.5499e-05
4.68014e-05
5.22677e-05
7.77046e-05
7.8e-05
7.8e-05
7.8e-05
7.8e-05
7.74942e-05
5.13056e-05
4.67027e-05
4.55061e-05
4.49918e-05
4.47275e-05
4.46054e-05
4.4578e-05
4.46266e-05
4.47485e-05
4.49493e-05
4.52172e-05
4.55406e-05
4.56598e-05
4.54796e-05
4.51199e-05
4.48331e-05
4.46175e-05
4.44781e-05
4.44069e-05
4.44044e-05
4.44826e-05
4.46757e-05
4.50654e-05
4.59652e-05
4.90067e-05
7.44077e-05
7.8e-05
7.8e-05
7.8e-05
7.8e-05
7.029e-05
4.89514e-05
4.61674e-05
4.5307e-05
4.4915e-05
4.4713e-05
4.46418e-05
4.4688e-05
4.48638e-05
4.52239e-05
4.60393e-05
4.85693e-05
6.62968e-05
7.79998e-05
7.8e-05
7.79838e-05
5.74514e-05
4.69972e-05
4.51816e-05
4.44823e-05
4.40945e-05
4.38429e-05
4.3669e-05
4.3547e-05
4.34659e-05
4.34219e-05
4.34176e-05
4.34632e-05
4.35815e-05
4.382e-05
4.43082e-05
4.56012e-05
5.201e-05
7.78911e-05
7.8e-05
7.8e-05
7.8e-05
7.8e-05
7.8e-05
7.8e-05
7.8e-05
7.8e-05
7.8e-05
7.8e-05
7.8e-05
7.8e-05
7.8e-05
7.8e-05
7.8e-05
7.8e-05
7.8e-05
7.8e-05
7.8e-05
7.8e-05
7.8e-05
7.8e-05
7.8e-05
7.8e-05
7.8e-05
7.8e-05
7.8e-05
7.79999e-05
6.62698e-05
4.70446e-05
4.47619e-05
4.40768e-05
4.37753e-05
4.363e-05
4.35679e-05
4.35566e-05
4.35784e-05
4.36225e-05
4.36818e-05
4.37519e-05
4.3831e-05
4.39204e-05
4.40254e-05
4.41566e-05
4.4334e-05
4.45971e-05
4.50376e-05
4.59353e-05
4.87581e-05
7.1869e-05
7.8e-05
7.8e-05
7.8e-05
7.8e-05
7.8e-05
7.8e-05
7.63249e-05
4.9927e-05
4.6526e-05
4.54717e-05
4.49817e-05
4.47759e-05
4.47253e-05
4.47968e-05
4.50026e-05
4.54191e-05
4.6076e-05
4.75827e-05
4.82146e-05
4.74335e-05
4.59234e-05
4.52796e-05
4.487e-05
4.46547e-05
4.45632e-05
4.45832e-05
4.47338e-05
4.51e-05
4.5883e-05
4.8638e-05
7.09524e-05
7.8e-05
7.8e-05
7.8e-05
7.8e-05
7.8e-05
7.8e-05
6.96077e-05
4.88717e-05
4.61866e-05
4.53945e-05
4.50043e-05
4.48745e-05
4.49598e-05
4.52963e-05
4.59873e-05
4.84287e-05
6.45118e-05
7.79993e-05
7.8e-05
7.8e-05
7.8e-05
7.74984e-05
5.05834e-05
4.60307e-05
4.48139e-05
4.4256e-05
4.39284e-05
4.37219e-05
4.35904e-05
4.35163e-05
4.34941e-05
4.35268e-05
4.36343e-05
4.38676e-05
4.43426e-05
4.54563e-05
4.96347e-05
7.74725e-05
7.8e-05
7.8e-05
7.8e-05
7.8e-05
7.8e-05
7.8e-05
7.8e-05
7.8e-05
7.8e-05
7.8e-05
7.8e-05
7.8e-05
7.8e-05
7.8e-05
7.8e-05
7.8e-05
7.8e-05
7.8e-05
7.8e-05
7.8e-05
7.8e-05
7.8e-05
7.8e-05
7.8e-05
7.8e-05
7.8e-05
7.8e-05
7.8e-05
7.8e-05
7.79944e-05
5.82892e-05
4.64373e-05
4.46251e-05
4.40215e-05
4.37407e-05
4.35997e-05
4.35355e-05
4.3518e-05
4.3532e-05
4.35685e-05
4.3623e-05
4.36945e-05
4.3786e-05
4.39056e-05
4.40691e-05
4.43072e-05
4.46887e-05
4.54191e-05
4.74966e-05
6.14317e-05
7.79977e-05
7.8e-05
7.8e-05
7.8e-05
7.8e-05
7.8e-05
7.8e-05
7.8e-05
7.63931e-05
5.11146e-05
4.72019e-05
4.5733e-05
4.53152e-05
4.52129e-05
4.53491e-05
4.57798e-05
4.71933e-05
4.95533e-05
6.60725e-05
7.35223e-05
6.46468e-05
4.90784e-05
4.69024e-05
4.56195e-05
4.51924e-05
4.50343e-05
4.51032e-05
4.54358e-05
4.64639e-05
4.8973e-05
7.17281e-05
7.8e-05
7.8e-05
7.8e-05
7.8e-05
7.8e-05
7.8e-05
7.8e-05
7.8e-05
7.29414e-05
4.98811e-05
4.7279e-05
4.59298e-05
4.55911e-05
4.58133e-05
4.69645e-05
4.90211e-05
6.86425e-05
7.79995e-05
7.8e-05
7.8e-05
7.8e-05
7.8e-05
7.8e-05
7.63001e-05
4.91538e-05
4.57748e-05
4.4721e-05
4.41945e-05
4.39091e-05
4.37458e-05
4.36742e-05
4.36841e-05
4.3778e-05
4.40014e-05
4.45292e-05
4.58938e-05
5.04164e-05
7.73287e-05
7.8e-05
7.8e-05
7.8e-05
7.8e-05
7.8e-05
7.8e-05
7.8e-05
7.8e-05
7.8e-05
7.8e-05
7.8e-05
7.8e-05
7.8e-05
7.8e-05
7.8e-05
7.8e-05
7.8e-05
7.8e-05
7.8e-05
7.8e-05
7.8e-05
7.8e-05
7.8e-05
7.8e-05
7.8e-05
7.8e-05
7.8e-05
7.8e-05
7.8e-05
7.8e-05
7.8e-05
7.79597e-05
5.44054e-05
4.61779e-05
4.45853e-05
4.40048e-05
4.37276e-05
4.35879e-05
4.35213e-05
4.35018e-05
4.35159e-05
4.35574e-05
4.36257e-05
4.37259e-05
4.38714e-05
4.40888e-05
4.44332e-05
4.50509e-05
4.65637e-05
5.38226e-05
7.7917e-05
7.8e-05
7.8e-05
7.8e-05
7.8e-05
7.8e-05
7.8e-05
7.8e-05
7.8e-05
7.8e-05
7.7576e-05
5.99622e-05
4.85456e-05
4.72911e-05
4.6926e-05
4.74164e-05
4.87229e-05
6.11655e-05
7.67183e-05
7.79998e-05
7.8e-05
7.79996e-05
7.59605e-05
5.86782e-05
4.84197e-05
4.71271e-05
4.65754e-05
4.68944e-05
4.80009e-05
5.45864e-05
7.56607e-05
7.8e-05
7.8e-05
7.8e-05
7.8e-05
7.8e-05
7.8e-05
7.8e-05
7.8e-05
7.8e-05
7.8e-05
7.7028e-05
6.2822e-05
4.9725e-05
4.82612e-05
4.91328e-05
5.96156e-05
7.53185e-05
7.8e-05
7.8e-05
7.8e-05
7.8e-05
7.8e-05
7.8e-05
7.8e-05
7.8e-05
7.62515e-05
4.99211e-05
4.63013e-05
4.49121e-05
4.43958e-05
4.4127e-05
4.4048e-05
4.41355e-05
4.43774e-05
4.48959e-05
4.6792e-05
5.57101e-05
7.77313e-05
7.8e-05
7.8e-05
7.8e-05
7.8e-05
7.8e-05
7.8e-05
7.8e-05
7.8e-05
7.8e-05
7.8e-05
7.8e-05
7.8e-05
7.8e-05
7.8e-05
7.8e-05
7.8e-05
7.8e-05
7.8e-05
7.8e-05
7.8e-05
7.8e-05
7.8e-05
7.8e-05
7.8e-05
7.8e-05
7.8e-05
7.8e-05
7.8e-05
7.8e-05
7.8e-05
7.8e-05
7.8e-05
7.8e-05
7.79301e-05
5.43266e-05
4.63471e-05
4.46481e-05
4.40423e-05
4.37685e-05
4.36248e-05
4.35605e-05
4.35489e-05
4.35787e-05
4.36491e-05
4.37689e-05
4.39633e-05
4.42882e-05
4.4876e-05
4.61753e-05
5.09406e-05
7.75897e-05
7.8e-05
7.8e-05
7.8e-05
7.8e-05
7.8e-05
7.8e-05
7.8e-05
7.8e-05
7.8e-05
7.8e-05
7.8e-05
7.79956e-05
7.33463e-05
6.24501e-05
5.78747e-05
6.40875e-05
7.46707e-05
7.79977e-05
7.8e-05
7.8e-05
7.8e-05
7.8e-05
7.8e-05
7.79925e-05
7.32915e-05
6.17473e-05
5.52498e-05
5.9194e-05
7.05729e-05
7.79487e-05
7.8e-05
7.8e-05
7.8e-05
7.8e-05
7.8e-05
7.8e-05
7.8e-05
7.8e-05
7.8e-05
7.8e-05
7.8e-05
7.8e-05
7.79989e-05
7.70847e-05
7.37725e-05
7.64864e-05
7.79947e-05
7.8e-05
7.8e-05
7.8e-05
7.8e-05
7.8e-05
7.8e-05
7.8e-05
7.8e-05
7.8e-05
7.8e-05
7.74557e-05
5.72773e-05
4.75353e-05
4.59801e-05
4.51336e-05
4.50057e-05
4.54802e-05
4.64694e-05
4.8166e-05
6.70097e-05
7.79835e-05
7.8e-05
7.8e-05
7.8e-05
7.8e-05
7.8e-05
7.8e-05
7.8e-05
7.8e-05
7.8e-05
7.8e-05
7.8e-05
7.8e-05
7.8e-05
7.8e-05
7.8e-05
7.8e-05
7.8e-05
7.8e-05
7.8e-05
7.8e-05
7.8e-05
7.8e-05
7.8e-05
7.8e-05
7.8e-05
7.8e-05
7.8e-05
7.8e-05
7.8e-05
7.8e-05
7.8e-05
7.8e-05
7.8e-05
7.8e-05
7.8e-05
7.79594e-05
5.81616e-05
4.68855e-05
4.484e-05
4.4235e-05
4.39155e-05
4.3773e-05
4.37229e-05
4.37392e-05
4.38211e-05
4.39837e-05
4.42852e-05
4.49011e-05
4.64268e-05
5.14787e-05
7.74628e-05
7.8e-05
7.8e-05
7.8e-05
7.8e-05
7.8e-05
7.8e-05
7.8e-05
7.8e-05
7.8e-05
7.8e-05
7.8e-05
7.8e-05
7.8e-05
7.8e-05
7.79985e-05
7.79857e-05
7.79994e-05
7.8e-05
7.8e-05
7.8e-05
7.8e-05
7.8e-05
7.8e-05
7.8e-05
7.8e-05
7.8e-05
7.7998e-05
7.79535e-05
7.7993e-05
7.8e-05
7.8e-05
7.8e-05
7.8e-05
7.8e-05
7.8e-05
7.8e-05
7.8e-05
7.8e-05
7.8e-05
7.8e-05
7.8e-05
7.8e-05
7.8e-05
7.8e-05
7.8e-05
7.8e-05
7.8e-05
7.8e-05
7.8e-05
7.8e-05
7.8e-05
7.8e-05
7.8e-05
7.8e-05
7.8e-05
7.8e-05
7.8e-05
7.8e-05
7.8e-05
7.79899e-05
7.11723e-05
5.65711e-05
4.90548e-05
4.85562e-05
5.28796e-05
6.47866e-05
7.64373e-05
7.8e-05
7.8e-05
7.8e-05
7.8e-05
7.8e-05
7.8e-05
7.8e-05
7.8e-05
7.8e-05
7.8e-05
7.8e-05
7.8e-05
7.8e-05
7.8e-05
7.8e-05
7.8e-05
7.8e-05
7.8e-05
7.8e-05
7.8e-05
7.8e-05
7.8e-05
7.8e-05
7.8e-05
7.8e-05
7.8e-05
7.8e-05
7.8e-05
7.8e-05
7.8e-05
7.8e-05
7.8e-05
7.8e-05
7.8e-05
7.8e-05
7.8e-05
7.8e-05
7.8e-05
7.79945e-05
6.64261e-05
4.77804e-05
4.57874e-05
4.46798e-05
4.43419e-05
4.42034e-05
4.41926e-05
4.43161e-05
4.45937e-05
4.521e-05
4.72165e-05
5.68162e-05
7.77784e-05
7.8e-05
7.8e-05
7.8e-05
7.8e-05
7.8e-05
7.8e-05
7.8e-05
7.8e-05
7.8e-05
7.8e-05
7.8e-05
7.8e-05
7.8e-05
7.8e-05
7.8e-05
7.8e-05
7.8e-05
7.8e-05
7.8e-05
7.8e-05
7.8e-05
7.8e-05
7.8e-05
7.8e-05
7.8e-05
7.8e-05
7.8e-05
7.8e-05
7.8e-05
7.8e-05
7.8e-05
7.8e-05
7.8e-05
7.8e-05
7.8e-05
7.8e-05
7.8e-05
7.8e-05
7.8e-05
7.8e-05
7.8e-05
7.8e-05
7.8e-05
7.8e-05
7.8e-05
7.8e-05
7.8e-05
7.8e-05
7.8e-05
7.8e-05
7.8e-05
7.8e-05
7.8e-05
7.8e-05
7.8e-05
7.8e-05
7.8e-05
7.8e-05
7.8e-05
7.8e-05
7.8e-05
7.8e-05
7.79853e-05
7.72327e-05
7.69334e-05
7.79227e-05
7.79998e-05
7.8e-05
7.8e-05
7.8e-05
7.8e-05
7.8e-05
7.8e-05
7.8e-05
7.8e-05
7.8e-05
7.8e-05
7.8e-05
7.8e-05
7.8e-05
7.8e-05
7.8e-05
7.8e-05
7.8e-05
7.8e-05
7.8e-05
7.8e-05
7.8e-05
7.8e-05
7.8e-05
7.8e-05
7.8e-05
7.8e-05
7.8e-05
7.8e-05
7.8e-05
7.8e-05
7.8e-05
7.8e-05
7.8e-05
7.8e-05
7.8e-05
7.8e-05
7.8e-05
7.8e-05
7.8e-05
7.8e-05
7.79999e-05
7.50474e-05
5.70976e-05
4.74541e-05
4.63787e-05
4.57918e-05
4.56339e-05
4.60142e-05
4.68564e-05
4.89604e-05
6.83526e-05
7.79871e-05
7.8e-05
7.8e-05
7.8e-05
7.8e-05
7.8e-05
7.8e-05
7.8e-05
7.8e-05
7.8e-05
7.8e-05
7.8e-05
7.8e-05
7.8e-05
7.8e-05
7.8e-05
7.8e-05
7.8e-05
7.8e-05
7.8e-05
7.8e-05
7.8e-05
7.8e-05
7.8e-05
7.8e-05
7.8e-05
7.8e-05
7.8e-05
7.8e-05
7.8e-05
7.8e-05
7.8e-05
7.8e-05
7.8e-05
7.8e-05
7.8e-05
7.8e-05
7.8e-05
7.8e-05
7.8e-05
7.8e-05
7.8e-05
7.8e-05
7.8e-05
7.8e-05
7.8e-05
7.8e-05
7.8e-05
7.8e-05
7.8e-05
7.8e-05
7.8e-05
7.8e-05
7.8e-05
7.8e-05
7.8e-05
7.8e-05
7.8e-05
7.8e-05
7.8e-05
7.8e-05
7.8e-05
7.8e-05
7.8e-05
7.8e-05
7.8e-05
7.8e-05
7.8e-05
7.8e-05
7.8e-05
7.8e-05
7.8e-05
7.8e-05
7.8e-05
7.8e-05
7.8e-05
7.8e-05
7.8e-05
7.8e-05
7.8e-05
7.8e-05
7.8e-05
7.8e-05
7.8e-05
7.8e-05
7.8e-05
7.8e-05
7.8e-05
7.8e-05
7.8e-05
7.8e-05
7.8e-05
7.8e-05
7.8e-05
7.8e-05
7.8e-05
7.8e-05
7.8e-05
7.8e-05
7.8e-05
7.8e-05
7.8e-05
7.8e-05
7.8e-05
7.8e-05
7.8e-05
7.8e-05
7.8e-05
7.8e-05
7.8e-05
7.8e-05
7.7992e-05
7.38642e-05
6.35689e-05
5.58403e-05
5.36531e-05
5.76438e-05
6.75322e-05
7.71634e-05
7.8e-05
7.8e-05
7.8e-05
7.8e-05
7.8e-05
7.8e-05
7.8e-05
7.8e-05
7.8e-05
7.8e-05
7.8e-05
7.8e-05
7.8e-05
7.8e-05
7.8e-05
7.8e-05
7.8e-05
7.8e-05
7.8e-05
7.8e-05
7.8e-05
7.8e-05
7.8e-05
7.8e-05
7.8e-05
7.8e-05
7.8e-05
7.8e-05
7.8e-05
7.8e-05
7.8e-05
7.8e-05
7.8e-05
7.8e-05
7.8e-05
7.8e-05
7.8e-05
7.8e-05
7.8e-05
7.8e-05
7.8e-05
7.8e-05
7.8e-05
7.8e-05
7.8e-05
7.8e-05
7.8e-05
7.8e-05
7.8e-05
7.8e-05
7.8e-05
7.8e-05
7.8e-05
7.8e-05
7.8e-05
7.8e-05
7.8e-05
7.8e-05
7.8e-05
7.8e-05
7.8e-05
7.8e-05
7.8e-05
7.8e-05
7.8e-05
7.8e-05
7.8e-05
7.8e-05
7.8e-05
7.8e-05
7.8e-05
7.8e-05
7.8e-05
7.8e-05
7.8e-05
7.8e-05
7.8e-05
7.8e-05
7.8e-05
7.8e-05
7.8e-05
7.8e-05
7.8e-05
7.8e-05
7.8e-05
7.8e-05
7.8e-05
7.8e-05
7.8e-05
7.8e-05
7.8e-05
7.8e-05
7.8e-05
7.8e-05
7.8e-05
7.8e-05
7.8e-05
7.8e-05
7.8e-05
7.8e-05
7.8e-05
7.8e-05
7.8e-05
7.8e-05
7.8e-05
7.8e-05
7.8e-05
7.8e-05
7.8e-05
7.8e-05
7.8e-05
7.8e-05
7.8e-05
7.8e-05
7.79996e-05
7.79806e-05
7.79432e-05
7.79913e-05
7.8e-05
7.8e-05
7.8e-05
7.8e-05
7.8e-05
7.8e-05
7.8e-05
7.8e-05
7.8e-05
7.8e-05
7.8e-05
7.8e-05
7.8e-05
7.8e-05
7.8e-05
7.8e-05
7.8e-05
7.8e-05
7.8e-05
7.8e-05
7.8e-05
7.8e-05
7.8e-05
7.8e-05
7.8e-05
7.8e-05
7.8e-05
7.8e-05
7.8e-05
7.8e-05
7.8e-05
7.8e-05
7.8e-05
7.8e-05
7.8e-05
7.8e-05
7.8e-05
7.8e-05
7.8e-05
7.8e-05
7.8e-05
7.8e-05
7.8e-05
7.8e-05
7.8e-05
7.8e-05
7.8e-05
7.8e-05
7.8e-05
7.8e-05
7.8e-05
7.8e-05
7.8e-05
7.8e-05
7.8e-05
7.8e-05
7.8e-05
7.8e-05
7.8e-05
7.8e-05
7.8e-05
7.8e-05
7.8e-05
7.8e-05
7.8e-05
7.8e-05
7.8e-05
7.8e-05
7.8e-05
7.8e-05
7.8e-05
7.8e-05
7.8e-05
7.8e-05
7.8e-05
7.8e-05
7.8e-05
7.8e-05
7.8e-05
7.8e-05
7.8e-05
7.8e-05
7.8e-05
7.8e-05
7.8e-05
7.8e-05
7.8e-05
7.8e-05
7.8e-05
7.8e-05
7.8e-05
7.8e-05
7.8e-05
7.8e-05
7.8e-05
7.8e-05
7.8e-05
7.8e-05
7.8e-05
7.8e-05
7.8e-05
7.8e-05
7.8e-05
7.8e-05
7.8e-05
7.8e-05
7.8e-05
7.8e-05
7.8e-05
7.8e-05
7.8e-05
7.8e-05
7.8e-05
7.8e-05
7.8e-05
7.8e-05
7.8e-05
7.8e-05
7.8e-05
7.8e-05
7.8e-05
7.8e-05
7.8e-05
7.8e-05
7.8e-05
7.8e-05
7.8e-05
7.8e-05
7.8e-05
7.8e-05
7.8e-05
7.8e-05
7.8e-05
7.8e-05
7.8e-05
7.8e-05
7.8e-05
7.8e-05
7.8e-05
7.8e-05
7.8e-05
7.8e-05
7.8e-05
7.8e-05
7.8e-05
7.8e-05
7.8e-05
7.8e-05
7.8e-05
7.8e-05
7.8e-05
7.8e-05
7.8e-05
7.8e-05
7.8e-05
7.8e-05
7.8e-05
7.8e-05
7.8e-05
7.8e-05
7.8e-05
7.8e-05
7.8e-05
7.8e-05
7.8e-05
7.8e-05
7.8e-05
7.8e-05
7.8e-05
7.8e-05
7.8e-05
7.8e-05
7.8e-05
7.8e-05
7.8e-05
7.8e-05
7.8e-05
7.8e-05
7.8e-05
7.8e-05
7.8e-05
7.8e-05
7.8e-05
7.8e-05
7.8e-05
7.8e-05
7.8e-05
7.8e-05
7.8e-05
7.8e-05
7.8e-05
7.8e-05
7.8e-05
7.8e-05
7.8e-05
7.8e-05
7.8e-05
7.8e-05
7.8e-05
7.8e-05
7.8e-05
7.8e-05
7.8e-05
7.8e-05
7.8e-05
7.8e-05
7.8e-05
7.8e-05
7.8e-05
7.8e-05
7.8e-05
7.8e-05
7.8e-05
7.8e-05
7.8e-05
7.8e-05
7.8e-05
7.8e-05
7.8e-05
7.8e-05
7.8e-05
7.8e-05
7.8e-05
7.8e-05
7.8e-05
7.8e-05
7.8e-05
7.8e-05
7.8e-05
7.8e-05
7.8e-05
7.8e-05
7.8e-05
7.8e-05
7.8e-05
7.8e-05
7.8e-05
7.8e-05
7.8e-05
7.8e-05
7.8e-05
7.8e-05
7.8e-05
7.8e-05
7.8e-05
7.8e-05
7.8e-05
7.8e-05
7.8e-05
7.8e-05
7.8e-05
7.8e-05
7.8e-05
7.8e-05
7.8e-05
7.8e-05
7.8e-05
7.8e-05
7.8e-05
7.8e-05
7.8e-05
7.8e-05
7.8e-05
7.8e-05
7.8e-05
7.8e-05
7.8e-05
7.8e-05
7.8e-05
7.8e-05
7.8e-05
7.8e-05
7.8e-05
7.8e-05
7.8e-05
7.8e-05
7.8e-05
7.8e-05
7.8e-05
7.8e-05
7.8e-05
7.8e-05
7.8e-05
7.8e-05
7.8e-05
7.8e-05
7.8e-05
7.8e-05
7.8e-05
7.8e-05
7.8e-05
7.8e-05
7.8e-05
7.8e-05
7.8e-05
7.8e-05
7.8e-05
7.8e-05
7.8e-05
7.8e-05
7.8e-05
7.8e-05
7.8e-05
7.8e-05
7.8e-05
7.8e-05
7.8e-05
7.8e-05
7.8e-05
7.8e-05
7.8e-05
7.8e-05
7.8e-05
7.8e-05
7.8e-05
7.8e-05
7.8e-05
7.8e-05
7.8e-05
7.8e-05
7.8e-05
7.8e-05
7.8e-05
7.8e-05
7.8e-05
7.8e-05
7.8e-05
7.8e-05
7.8e-05
7.8e-05
7.8e-05
7.8e-05
7.8e-05
7.8e-05
7.8e-05
7.8e-05
7.8e-05
7.8e-05
7.8e-05
7.8e-05
7.8e-05
7.8e-05
7.8e-05
7.8e-05
7.8e-05
7.8e-05
7.8e-05
7.8e-05
7.8e-05
7.8e-05
7.8e-05
7.8e-05
7.8e-05
7.8e-05
7.8e-05
7.8e-05
7.8e-05
7.8e-05
7.8e-05
7.8e-05
7.8e-05
7.8e-05
7.8e-05
7.8e-05
7.8e-05
7.8e-05
7.8e-05
7.8e-05
7.8e-05
7.8e-05
7.8e-05
7.8e-05
7.8e-05
7.8e-05
7.8e-05
7.8e-05
7.8e-05
7.8e-05
7.8e-05
7.8e-05
7.8e-05
7.8e-05
7.8e-05
7.8e-05
7.8e-05
7.8e-05
7.8e-05
7.8e-05
7.8e-05
7.8e-05
7.8e-05
7.8e-05
7.8e-05
7.8e-05
7.8e-05
7.8e-05
7.8e-05
7.8e-05
7.8e-05
7.8e-05
7.8e-05
7.8e-05
7.8e-05
7.8e-05
7.8e-05
7.8e-05
7.8e-05
7.8e-05
7.8e-05
7.8e-05
7.8e-05
7.8e-05
7.8e-05
7.8e-05
7.8e-05
7.8e-05
7.8e-05
7.8e-05
7.8e-05
7.8e-05
7.8e-05
7.8e-05
7.8e-05
7.8e-05
7.8e-05
7.8e-05
7.8e-05
7.8e-05
7.8e-05
7.8e-05
7.8e-05
7.8e-05
7.8e-05
7.8e-05
7.8e-05
7.8e-05
7.8e-05
7.8e-05
7.8e-05
7.8e-05
7.8e-05
7.8e-05
7.8e-05
7.8e-05
7.8e-05
7.8e-05
7.8e-05
7.8e-05
7.8e-05
7.8e-05
7.8e-05
7.8e-05
7.8e-05
7.8e-05
7.8e-05
7.8e-05
7.8e-05
7.8e-05
7.8e-05
7.8e-05
7.8e-05
7.8e-05
7.8e-05
7.8e-05
7.8e-05
7.8e-05
7.8e-05
7.8e-05
7.8e-05
7.8e-05
7.8e-05
7.8e-05
7.8e-05
7.8e-05
7.8e-05
7.8e-05
7.8e-05
7.8e-05
7.8e-05
7.8e-05
7.8e-05
7.8e-05
7.8e-05
7.8e-05
7.8e-05
7.8e-05
7.8e-05
7.8e-05
7.8e-05
7.8e-05
7.8e-05
7.8e-05
7.8e-05
7.8e-05
7.8e-05
7.8e-05
7.8e-05
7.8e-05
7.8e-05
7.8e-05
7.8e-05
7.8e-05
7.8e-05
7.8e-05
7.8e-05
7.8e-05
7.8e-05
7.8e-05
7.8e-05
7.8e-05
7.8e-05
7.8e-05
7.8e-05
7.8e-05
7.8e-05
7.8e-05
7.8e-05
7.8e-05
7.8e-05
7.8e-05
7.8e-05
7.8e-05
7.8e-05
7.8e-05
7.8e-05
7.8e-05
7.8e-05
7.8e-05
7.8e-05
7.8e-05
7.8e-05
7.8e-05
7.8e-05
7.8e-05
7.8e-05
7.8e-05
7.8e-05
7.8e-05
7.8e-05
7.8e-05
7.8e-05
7.8e-05
7.8e-05
7.8e-05
7.8e-05
7.8e-05
7.8e-05
7.8e-05
7.8e-05
7.8e-05
7.8e-05
7.8e-05
7.8e-05
7.8e-05
7.8e-05
7.8e-05
7.8e-05
7.8e-05
7.8e-05
7.8e-05
7.8e-05
7.8e-05
7.8e-05
7.8e-05
7.8e-05
7.8e-05
7.8e-05
7.8e-05
7.8e-05
7.8e-05
7.8e-05
7.8e-05
7.8e-05
7.8e-05
7.8e-05
7.8e-05
7.8e-05
7.8e-05
7.8e-05
7.8e-05
7.8e-05
7.8e-05
7.8e-05
7.8e-05
7.8e-05
7.8e-05
7.8e-05
7.8e-05
7.8e-05
7.8e-05
7.8e-05
7.8e-05
7.8e-05
7.8e-05
7.8e-05
7.8e-05
7.8e-05
7.8e-05
7.8e-05
7.8e-05
7.8e-05
7.8e-05
7.8e-05
7.8e-05
7.8e-05
7.8e-05
7.8e-05
7.8e-05
7.8e-05
7.8e-05
7.8e-05
7.8e-05
7.8e-05
7.8e-05
7.8e-05
7.8e-05
7.8e-05
7.8e-05
7.8e-05
7.8e-05
7.8e-05
7.8e-05
7.8e-05
7.8e-05
7.8e-05
7.8e-05
7.8e-05
7.8e-05
7.8e-05
7.8e-05
7.8e-05
7.8e-05
7.8e-05
7.8e-05
7.8e-05
7.8e-05
7.8e-05
7.8e-05
7.8e-05
7.8e-05
7.8e-05
7.8e-05
7.8e-05
7.8e-05
7.8e-05
7.8e-05
7.8e-05
7.8e-05
7.8e-05
7.8e-05
7.8e-05
7.8e-05
7.8e-05
7.8e-05
7.8e-05
7.8e-05
7.8e-05
7.8e-05
7.8e-05
7.8e-05
7.8e-05
7.8e-05
7.8e-05
7.8e-05
7.8e-05
7.8e-05
7.8e-05
7.8e-05
7.8e-05
7.8e-05
7.8e-05
7.8e-05
7.8e-05
7.8e-05
7.8e-05
7.8e-05
7.8e-05
7.8e-05
7.8e-05
7.8e-05
7.8e-05
7.8e-05
7.8e-05
7.8e-05
7.8e-05
7.8e-05
7.8e-05
7.8e-05
7.8e-05
7.8e-05
7.8e-05
7.8e-05
7.8e-05
7.8e-05
7.8e-05
7.8e-05
7.8e-05
7.8e-05
7.8e-05
7.8e-05
7.8e-05
7.8e-05
7.8e-05
7.8e-05
7.8e-05
7.8e-05
7.8e-05
7.8e-05
7.8e-05
7.8e-05
7.8e-05
7.8e-05
7.8e-05
7.8e-05
7.8e-05
7.8e-05
7.8e-05
7.8e-05
7.8e-05
7.8e-05
7.8e-05
7.8e-05
7.8e-05
7.8e-05
7.8e-05
7.8e-05
7.8e-05
7.8e-05
7.8e-05
7.8e-05
7.8e-05
7.8e-05
7.8e-05
7.8e-05
7.8e-05
7.8e-05
7.8e-05
7.8e-05
7.8e-05
7.8e-05
7.8e-05
7.8e-05
7.8e-05
7.8e-05
7.8e-05
7.8e-05
7.8e-05
7.8e-05
7.8e-05
7.8e-05
7.8e-05
7.8e-05
7.8e-05
7.8e-05
7.8e-05
7.8e-05
7.8e-05
7.8e-05
7.8e-05
7.8e-05
7.8e-05
7.8e-05
7.8e-05
7.8e-05
7.8e-05
7.8e-05
7.8e-05
7.8e-05
7.8e-05
7.8e-05
7.8e-05
7.8e-05
7.8e-05
7.8e-05
7.8e-05
7.8e-05
7.8e-05
7.8e-05
7.8e-05
7.8e-05
7.8e-05
7.8e-05
7.8e-05
7.8e-05
7.8e-05
7.8e-05
7.8e-05
7.8e-05
7.8e-05
7.8e-05
7.8e-05
7.8e-05
7.8e-05
7.8e-05
7.8e-05
7.8e-05
7.8e-05
7.8e-05
7.8e-05
7.8e-05
7.8e-05
7.8e-05
7.8e-05
7.8e-05
7.8e-05
7.8e-05
7.8e-05
7.8e-05
7.8e-05
7.8e-05
7.8e-05
7.8e-05
7.8e-05
7.8e-05
7.8e-05
7.8e-05
7.8e-05
7.8e-05
7.8e-05
7.8e-05
7.8e-05
7.8e-05
7.8e-05
7.8e-05
7.8e-05
7.8e-05
7.8e-05
7.8e-05
7.8e-05
7.8e-05
7.8e-05
7.8e-05
7.8e-05
7.8e-05
7.8e-05
7.8e-05
7.8e-05
7.8e-05
7.8e-05
7.8e-05
7.8e-05
7.8e-05
7.8e-05
7.8e-05
7.8e-05
7.8e-05
7.8e-05
7.8e-05
7.8e-05
7.8e-05
7.8e-05
7.8e-05
7.8e-05
7.8e-05
7.8e-05
7.8e-05
7.8e-05
7.8e-05
7.8e-05
7.8e-05
7.8e-05
7.8e-05
7.8e-05
7.8e-05
7.8e-05
7.8e-05
7.8e-05
7.8e-05
7.8e-05
7.8e-05
7.8e-05
7.8e-05
7.8e-05
7.8e-05
7.8e-05
7.8e-05
7.8e-05
7.8e-05
7.8e-05
7.8e-05
7.8e-05
7.8e-05
7.8e-05
7.8e-05
7.8e-05
7.8e-05
7.8e-05
7.8e-05
7.8e-05
7.8e-05
7.8e-05
7.8e-05
7.8e-05
7.8e-05
7.8e-05
7.8e-05
7.8e-05
7.8e-05
7.8e-05
7.8e-05
7.8e-05
7.8e-05
7.8e-05
7.8e-05
7.8e-05
7.8e-05
7.8e-05
7.8e-05
7.8e-05
7.8e-05
7.8e-05
7.8e-05
7.8e-05
7.8e-05
7.8e-05
7.8e-05
7.8e-05
7.8e-05
7.8e-05
7.8e-05
7.8e-05
7.8e-05
7.8e-05
7.8e-05
7.8e-05
7.8e-05
7.8e-05
7.8e-05
7.8e-05
7.8e-05
7.8e-05
7.8e-05
7.8e-05
7.8e-05
7.8e-05
7.8e-05
7.8e-05
7.8e-05
7.8e-05
7.8e-05
7.8e-05
7.8e-05
7.8e-05
7.8e-05
7.8e-05
7.8e-05
7.8e-05
7.8e-05
7.8e-05
7.8e-05
7.8e-05
7.8e-05
7.8e-05
7.8e-05
7.8e-05
7.8e-05
7.8e-05
7.8e-05
7.8e-05
7.8e-05
7.8e-05
7.8e-05
7.8e-05
7.8e-05
7.8e-05
7.8e-05
7.8e-05
7.8e-05
7.8e-05
7.8e-05
7.8e-05
7.8e-05
7.8e-05
7.8e-05
7.8e-05
7.8e-05
7.8e-05
7.8e-05
7.8e-05
7.8e-05
7.8e-05
7.8e-05
7.8e-05
7.8e-05
7.8e-05
7.8e-05
7.8e-05
7.8e-05
7.8e-05
7.8e-05
7.8e-05
7.8e-05
7.8e-05
7.8e-05
7.8e-05
7.8e-05
7.8e-05
7.8e-05
7.8e-05
7.8e-05
7.8e-05
7.8e-05
7.8e-05
7.8e-05
7.8e-05
7.8e-05
7.8e-05
7.8e-05
7.8e-05
7.8e-05
7.8e-05
7.8e-05
7.8e-05
7.8e-05
7.8e-05
7.8e-05
7.8e-05
7.8e-05
7.8e-05
7.8e-05
7.8e-05
7.8e-05
7.8e-05
7.8e-05
7.8e-05
7.8e-05
7.8e-05
7.8e-05
7.8e-05
7.8e-05
7.8e-05
7.8e-05
7.8e-05
7.8e-05
7.8e-05
7.8e-05
7.8e-05
7.8e-05
7.8e-05
7.8e-05
7.8e-05
7.8e-05
7.8e-05
7.8e-05
7.8e-05
7.8e-05
7.8e-05
7.8e-05
7.8e-05
7.8e-05
7.8e-05
7.8e-05
7.8e-05
7.8e-05
7.8e-05
7.8e-05
7.8e-05
7.8e-05
7.8e-05
7.8e-05
7.8e-05
7.8e-05
7.8e-05
7.8e-05
7.8e-05
7.8e-05
7.8e-05
7.8e-05
7.8e-05
7.8e-05
7.8e-05
7.8e-05
7.8e-05
7.8e-05
7.8e-05
7.8e-05
7.8e-05
7.8e-05
7.8e-05
7.8e-05
7.8e-05
7.8e-05
7.8e-05
7.8e-05
7.8e-05
7.8e-05
7.8e-05
7.8e-05
7.8e-05
7.8e-05
7.8e-05
7.8e-05
7.8e-05
7.8e-05
7.8e-05
7.8e-05
7.8e-05
7.8e-05
7.8e-05
7.8e-05
7.8e-05
7.8e-05
7.8e-05
7.8e-05
7.8e-05
7.8e-05
7.8e-05
7.8e-05
7.8e-05
7.8e-05
7.8e-05
7.8e-05
7.8e-05
7.8e-05
7.8e-05
7.8e-05
7.8e-05
7.8e-05
7.8e-05
7.8e-05
7.8e-05
7.8e-05
7.8e-05
7.8e-05
7.8e-05
7.8e-05
7.8e-05
7.8e-05
7.8e-05
7.8e-05
7.8e-05
7.8e-05
7.8e-05
7.8e-05
7.8e-05
7.8e-05
7.8e-05
7.8e-05
7.8e-05
7.8e-05
7.8e-05
7.8e-05
7.8e-05
7.8e-05
7.8e-05
7.8e-05
7.8e-05
7.8e-05
7.8e-05
7.8e-05
7.8e-05
7.8e-05
7.8e-05
7.8e-05
7.8e-05
7.8e-05
7.8e-05
7.8e-05
7.8e-05
7.8e-05
7.8e-05
7.8e-05
7.8e-05
7.8e-05
7.8e-05
7.8e-05
7.8e-05
7.8e-05
7.8e-05
7.8e-05
7.8e-05
7.8e-05
7.8e-05
7.8e-05
7.8e-05
7.8e-05
7.8e-05
7.8e-05
7.8e-05
7.8e-05
7.8e-05
7.8e-05
7.8e-05
7.8e-05
7.8e-05
7.8e-05
7.8e-05
7.8e-05
7.8e-05
7.8e-05
7.8e-05
7.8e-05
7.8e-05
7.8e-05
7.8e-05
7.8e-05
7.8e-05
7.8e-05
7.8e-05
7.8e-05
7.8e-05
7.8e-05
7.8e-05
7.8e-05
7.8e-05
7.8e-05
7.8e-05
7.8e-05
7.8e-05
7.8e-05
7.8e-05
7.8e-05
7.8e-05
7.8e-05
7.8e-05
7.8e-05
7.8e-05
7.8e-05
7.8e-05
7.8e-05
7.8e-05
7.8e-05
7.8e-05
7.8e-05
7.8e-05
7.8e-05
7.8e-05
7.8e-05
7.8e-05
7.8e-05
7.8e-05
7.8e-05
7.8e-05
7.8e-05
7.8e-05
7.8e-05
7.8e-05
7.8e-05
7.8e-05
7.8e-05
7.8e-05
7.8e-05
7.8e-05
7.8e-05
7.8e-05
7.8e-05
7.8e-05
7.8e-05
7.8e-05
7.8e-05
7.8e-05
7.8e-05
7.8e-05
7.8e-05
7.8e-05
7.8e-05
7.8e-05
7.8e-05
7.8e-05
7.8e-05
7.8e-05
7.8e-05
7.8e-05
7.8e-05
7.8e-05
7.8e-05
7.8e-05
7.8e-05
7.8e-05
7.8e-05
7.8e-05
7.8e-05
7.8e-05
7.8e-05
7.8e-05
7.8e-05
7.8e-05
7.8e-05
7.8e-05
7.8e-05
7.8e-05
7.8e-05
7.8e-05
7.8e-05
7.8e-05
7.8e-05
7.8e-05
7.8e-05
7.8e-05
7.8e-05
7.8e-05
7.8e-05
7.8e-05
7.8e-05
7.8e-05
7.8e-05
7.8e-05
7.8e-05
7.8e-05
7.8e-05
7.8e-05
7.8e-05
7.8e-05
7.8e-05
7.8e-05
7.8e-05
7.8e-05
7.8e-05
7.8e-05
7.8e-05
7.8e-05
7.8e-05
7.8e-05
7.8e-05
7.8e-05
7.8e-05
7.8e-05
7.8e-05
7.8e-05
7.8e-05
7.8e-05
7.8e-05
7.8e-05
7.8e-05
7.8e-05
7.8e-05
7.8e-05
7.8e-05
7.8e-05
7.8e-05
7.8e-05
7.8e-05
7.8e-05
7.8e-05
7.8e-05
7.8e-05
7.8e-05
7.8e-05
7.8e-05
7.8e-05
7.8e-05
7.8e-05
7.8e-05
7.8e-05
7.8e-05
7.8e-05
7.8e-05
7.8e-05
7.8e-05
7.8e-05
7.8e-05
7.8e-05
7.8e-05
7.8e-05
7.8e-05
7.8e-05
7.8e-05
7.8e-05
7.8e-05
7.8e-05
7.8e-05
7.8e-05
7.8e-05
7.8e-05
7.8e-05
7.8e-05
7.8e-05
7.8e-05
7.8e-05
7.8e-05
7.8e-05
7.8e-05
7.8e-05
7.8e-05
7.8e-05
7.8e-05
7.8e-05
7.8e-05
7.8e-05
7.8e-05
7.8e-05
7.8e-05
7.8e-05
7.8e-05
7.8e-05
7.8e-05
7.8e-05
7.8e-05
7.8e-05
7.8e-05
7.8e-05
7.8e-05
7.8e-05
7.8e-05
7.8e-05
7.8e-05
7.8e-05
7.8e-05
7.8e-05
7.8e-05
7.8e-05
7.8e-05
7.8e-05
7.8e-05
7.8e-05
7.8e-05
7.8e-05
7.8e-05
7.8e-05
7.8e-05
7.8e-05
7.8e-05
7.8e-05
7.8e-05
7.8e-05
7.8e-05
7.8e-05
7.8e-05
7.8e-05
7.8e-05
7.8e-05
7.8e-05
7.8e-05
7.8e-05
7.8e-05
7.8e-05
7.8e-05
7.8e-05
7.8e-05
7.8e-05
7.8e-05
7.8e-05
7.8e-05
7.8e-05
7.8e-05