/*--------------------------------*- C++ -*----------------------------------*\
| =========                 |                                                 |
| \\      /  F ield         | OpenFOAM: The Open Source CFD Toolbox           |
|  \\    /   O peration     | Version:  2406                                  |
|   \\  /    A nd           | Website:  www.openfoam.com                      |
|    \\/     M anipulation  |                                                 |
\*---------------------------------------------------------------------------*/
FoamFile
{
    version     2.0;
    format      ascii;
    arch        "LSB;label=32;scalar=64";
    class       volScalarField;
    location    "9.15";
    object      D;
}
// * * * * * * * * * * * * * * * * * * * * * * * * * * * * * * * * * * * * * //

dimensions      [0 2 -1 0 0 0 0];

internalField   nonuniform List<scalar> 
14400
(
7.68869e-05
7.68807e-05
7.6889e-05
7.6926e-05
7.69882e-05
7.70591e-05
7.71187e-05
7.71524e-05
7.71562e-05
7.71394e-05
7.71228e-05
7.71334e-05
7.71945e-05
7.73085e-05
7.7439e-05
7.75101e-05
7.74631e-05
7.73469e-05
7.72043e-05
7.70244e-05
7.6755e-05
7.63262e-05
7.56712e-05
7.47423e-05
7.35272e-05
7.20632e-05
7.0441e-05
6.87873e-05
6.72288e-05
6.58571e-05
6.47177e-05
6.38226e-05
6.31712e-05
6.27708e-05
6.26608e-05
6.29655e-05
6.41013e-05
6.81635e-05
9.45592e-05
0.000138217
0.00013824
0.00013824
0.00013824
0.00013824
0.00013824
0.00013824
0.00013824
0.00013824
0.00013824
0.00013824
0.00013824
0.00013824
0.00013824
0.00013824
0.00013824
0.00013824
0.00013824
0.00013824
0.000138092
8.63498e-05
6.78285e-05
6.45022e-05
6.36127e-05
6.35261e-05
6.39003e-05
6.46484e-05
6.5768e-05
6.72885e-05
6.92299e-05
7.15474e-05
7.40824e-05
7.65853e-05
7.88128e-05
8.06021e-05
8.18725e-05
8.26011e-05
8.28002e-05
8.25061e-05
8.1777e-05
8.07002e-05
7.94002e-05
7.80454e-05
7.68486e-05
7.60825e-05
7.61949e-05
7.84698e-05
9.00043e-05
0.000137256
9.85919e-05
7.79162e-05
7.38075e-05
7.25686e-05
7.22754e-05
7.2443e-05
7.28706e-05
7.34424e-05
7.40768e-05
7.47115e-05
7.52986e-05
7.58023e-05
7.61957e-05
7.64571e-05
7.65672e-05
7.65106e-05
7.62796e-05
7.58779e-05
7.53182e-05
7.46193e-05
7.38069e-05
7.2916e-05
7.19932e-05
7.10959e-05
7.02897e-05
6.96464e-05
6.92493e-05
6.92197e-05
6.97999e-05
7.16893e-05
7.83974e-05
0.000129432
7.60123e-05
7.59361e-05
7.58446e-05
7.5784e-05
7.57659e-05
7.5779e-05
7.58047e-05
7.58287e-05
7.5847e-05
7.58689e-05
7.59161e-05
7.60184e-05
7.62021e-05
7.64681e-05
7.67551e-05
7.69098e-05
7.67788e-05
7.65233e-05
7.62581e-05
7.59907e-05
7.56673e-05
7.52149e-05
7.45659e-05
7.3675e-05
7.25335e-05
7.11791e-05
6.96945e-05
6.81901e-05
6.67739e-05
6.55242e-05
6.44827e-05
6.36639e-05
6.30735e-05
6.27261e-05
6.26698e-05
6.30451e-05
6.43242e-05
6.90711e-05
0.000106006
0.000138238
0.00013824
0.00013824
0.00013824
0.00013824
0.00013824
0.00013824
0.00013824
0.00013824
0.00013824
0.00013824
0.00013824
0.00013824
0.00013824
0.00013824
0.00013824
0.00013824
0.00013824
0.00013824
0.000138223
9.65136e-05
6.87303e-05
6.46845e-05
6.36546e-05
6.34989e-05
6.3814e-05
6.44952e-05
6.55286e-05
6.69339e-05
6.8726e-05
7.08697e-05
7.32355e-05
7.5606e-05
7.77482e-05
7.9489e-05
8.07348e-05
8.14531e-05
8.16511e-05
8.13645e-05
8.06551e-05
7.96163e-05
7.83797e-05
7.71169e-05
7.60393e-05
7.54205e-05
7.57521e-05
7.87256e-05
9.60434e-05
0.000138041
0.000109754
7.85991e-05
7.36094e-05
7.21322e-05
7.1686e-05
7.1722e-05
7.20273e-05
7.2487e-05
7.3025e-05
7.35851e-05
7.4124e-05
7.46066e-05
7.50023e-05
7.52803e-05
7.54094e-05
7.53625e-05
7.51282e-05
7.4718e-05
7.41581e-05
7.34798e-05
7.27157e-05
7.19013e-05
7.10788e-05
7.02976e-05
6.96148e-05
6.9096e-05
6.88252e-05
6.8939e-05
6.97396e-05
7.21979e-05
8.13723e-05
0.000135887
7.46122e-05
7.43727e-05
7.4072e-05
7.38242e-05
7.3661e-05
7.35725e-05
7.35387e-05
7.35439e-05
7.3584e-05
7.36688e-05
7.38228e-05
7.40839e-05
7.44939e-05
7.50709e-05
7.57294e-05
7.61242e-05
7.57227e-05
7.51205e-05
7.45913e-05
7.41484e-05
7.37218e-05
7.32287e-05
7.25995e-05
7.17913e-05
7.07967e-05
6.96466e-05
6.84056e-05
6.7157e-05
6.59808e-05
6.49378e-05
6.40646e-05
6.33808e-05
6.29022e-05
6.26568e-05
6.27128e-05
6.32523e-05
6.48813e-05
7.08766e-05
0.000124784
0.00013824
0.00013824
0.00013824
0.00013824
0.00013824
0.00013824
0.00013824
0.00013824
0.00013824
0.00013824
0.00013824
0.00013824
0.00013824
0.00013824
0.00013824
0.00013824
0.00013824
0.00013824
0.00013824
0.00013824
0.000115157
7.02658e-05
6.50672e-05
6.37652e-05
6.34666e-05
6.36644e-05
6.42196e-05
6.50968e-05
6.62977e-05
6.78267e-05
6.96572e-05
7.16986e-05
7.37884e-05
7.57281e-05
7.73427e-05
7.85187e-05
7.92058e-05
7.94019e-05
7.91414e-05
7.84921e-05
7.7557e-05
7.64752e-05
7.54179e-05
7.45877e-05
7.42558e-05
7.49781e-05
7.91424e-05
0.000108651
0.000138232
0.000126723
7.99811e-05
7.34655e-05
7.14707e-05
7.07233e-05
7.05232e-05
7.06192e-05
7.08895e-05
7.12626e-05
7.16906e-05
7.2138e-05
7.25737e-05
7.29642e-05
7.32667e-05
7.34291e-05
7.34019e-05
7.31664e-05
7.27487e-05
7.22005e-05
7.15715e-05
7.09017e-05
7.02239e-05
6.9571e-05
6.89806e-05
6.84983e-05
6.81835e-05
6.81253e-05
6.84934e-05
6.97358e-05
7.38541e-05
9.87121e-05
0.000138203
7.32898e-05
7.2725e-05
7.2091e-05
7.15922e-05
7.12543e-05
7.10502e-05
7.0949e-05
7.09311e-05
7.09916e-05
7.11412e-05
7.14094e-05
7.18502e-05
7.25459e-05
7.35997e-05
7.50256e-05
7.61885e-05
7.4874e-05
7.35545e-05
7.26055e-05
7.19208e-05
7.1365e-05
7.08301e-05
7.02394e-05
6.95481e-05
6.8743e-05
6.78414e-05
6.68845e-05
6.59269e-05
6.50233e-05
6.42186e-05
6.35457e-05
6.30297e-05
6.26985e-05
6.25995e-05
6.28401e-05
6.37211e-05
6.6489e-05
8.0483e-05
0.000137861
0.00013824
0.00013824
0.00013824
0.00013824
0.00013824
0.00013824
0.00013824
0.00013824
0.00013824
0.00013824
0.00013824
0.00013824
0.00013824
0.00013824
0.00013824
0.00013824
0.00013824
0.00013824
0.00013824
0.00013824
0.000134235
7.33554e-05
6.59398e-05
6.40377e-05
6.34772e-05
6.34932e-05
6.38736e-05
6.45486e-05
6.54962e-05
6.67053e-05
6.81499e-05
6.97681e-05
7.14505e-05
7.30527e-05
7.44266e-05
7.54559e-05
7.60747e-05
7.62692e-05
7.60706e-05
7.55499e-05
7.48139e-05
7.39984e-05
7.32628e-05
7.2797e-05
7.28838e-05
7.41872e-05
7.9812e-05
0.000124557
0.00013824
0.000137903
8.98012e-05
7.43257e-05
7.09502e-05
6.97063e-05
6.91962e-05
6.90468e-05
6.9106e-05
6.92975e-05
6.95776e-05
6.99173e-05
7.02917e-05
7.06688e-05
7.09977e-05
7.12041e-05
7.12056e-05
7.09717e-05
7.0549e-05
7.00226e-05
6.946e-05
6.89032e-05
6.8379e-05
6.79105e-05
6.75251e-05
6.72607e-05
6.71762e-05
6.7375e-05
6.80844e-05
6.99771e-05
7.63317e-05
0.000124594
0.00013824
7.2963e-05
7.15984e-05
7.04223e-05
6.96119e-05
6.90895e-05
6.87734e-05
6.86089e-05
6.85682e-05
6.86443e-05
6.88495e-05
6.92209e-05
6.98373e-05
7.08569e-05
7.26272e-05
7.59595e-05
8.19268e-05
7.51889e-05
7.23009e-05
7.07458e-05
6.97804e-05
6.90939e-05
6.85234e-05
6.7976e-05
6.74003e-05
6.67749e-05
6.61023e-05
6.54038e-05
6.47111e-05
6.40597e-05
6.3483e-05
6.30112e-05
6.26749e-05
6.25148e-05
6.26053e-05
6.31214e-05
6.46211e-05
7.01114e-05
0.000118327
0.00013824
0.00013824
0.00013824
0.00013824
0.00013824
0.00013824
0.00013824
0.00013824
0.00013824
0.00013824
0.00013824
0.00013824
0.00013824
0.00013824
0.00013824
0.00013824
0.00013824
0.00013824
0.00013824
0.00013824
0.00013824
0.000138236
0.000101525
6.87911e-05
6.467e-05
6.36011e-05
6.33534e-05
6.35176e-05
6.39666e-05
6.4649e-05
6.55359e-05
6.65963e-05
6.77818e-05
6.90191e-05
7.02123e-05
7.12575e-05
7.20635e-05
7.25705e-05
7.27608e-05
7.26596e-05
7.23307e-05
7.18688e-05
7.13919e-05
7.10409e-05
7.10059e-05
7.16444e-05
7.40639e-05
8.45057e-05
0.000136986
0.00013824
0.00013824
0.000123238
7.72732e-05
7.09699e-05
6.89368e-05
6.8044e-05
6.76418e-05
6.75053e-05
6.75379e-05
6.76921e-05
6.79419e-05
6.82678e-05
6.86436e-05
6.90165e-05
6.9292e-05
6.93338e-05
6.90893e-05
6.86376e-05
6.81129e-05
6.75987e-05
6.71339e-05
6.67379e-05
6.64264e-05
6.62211e-05
6.61588e-05
6.63083e-05
6.68093e-05
6.80362e-05
7.1589e-05
9.07187e-05
0.000138111
0.00013824
7.71504e-05
7.18439e-05
6.94861e-05
6.82082e-05
6.74594e-05
6.70218e-05
6.67927e-05
6.67284e-05
6.68178e-05
6.70764e-05
6.75548e-05
6.83729e-05
6.98281e-05
7.29429e-05
8.38827e-05
0.000129715
7.91657e-05
7.18968e-05
6.93549e-05
6.80483e-05
6.72226e-05
6.66105e-05
6.60904e-05
6.56007e-05
6.51119e-05
6.46157e-05
6.41189e-05
6.36379e-05
6.31956e-05
6.28177e-05
6.25337e-05
6.23805e-05
6.24163e-05
6.27588e-05
6.37264e-05
6.66971e-05
8.31245e-05
0.00013805
0.00013824
0.00013824
0.00013824
0.00013824
0.00013824
0.00013824
0.00013824
0.00013824
0.00013824
0.00013824
0.00013824
0.00013824
0.00013824
0.00013824
0.00013824
0.00013824
0.00013824
0.00013824
0.00013824
0.00013824
0.00013824
0.00013824
0.000133116
7.29171e-05
6.58037e-05
6.39334e-05
6.33105e-05
6.32138e-05
6.34245e-05
6.38523e-05
6.44486e-05
6.51747e-05
6.59882e-05
6.68362e-05
6.76561e-05
6.83823e-05
6.89564e-05
6.93398e-05
6.95216e-05
6.95222e-05
6.93912e-05
6.92027e-05
6.90536e-05
6.90744e-05
6.94797e-05
7.07939e-05
7.55287e-05
0.000110594
0.000138238
0.00013824
0.00013824
0.000138176
9.47924e-05
7.27652e-05
6.875e-05
6.72879e-05
6.66039e-05
6.62834e-05
6.61835e-05
6.62435e-05
6.64371e-05
6.67499e-05
6.71668e-05
6.76429e-05
6.80677e-05
6.81827e-05
6.78766e-05
6.73083e-05
6.67163e-05
6.61981e-05
6.57791e-05
6.54681e-05
6.52755e-05
6.5221e-05
6.53489e-05
6.57583e-05
6.66727e-05
6.87861e-05
7.57925e-05
0.00013031
0.00013824
0.00013824
0.00012471
7.66757e-05
6.98751e-05
6.75943e-05
6.64704e-05
6.58607e-05
6.55471e-05
6.54532e-05
6.55589e-05
6.58871e-05
6.6518e-05
6.76642e-05
6.99702e-05
7.6803e-05
0.000126984
0.000138235
0.000105756
7.36009e-05
6.86733e-05
6.68603e-05
6.58519e-05
6.51715e-05
6.46494e-05
6.42079e-05
6.38084e-05
6.34345e-05
6.30835e-05
6.27627e-05
6.2487e-05
6.22792e-05
6.21715e-05
6.22133e-05
6.24946e-05
6.32226e-05
6.50615e-05
7.16824e-05
0.000130124
0.00013824
0.00013824
0.00013824
0.00013824
0.00013824
0.00013824
0.00013824
0.00013824
0.00013824
0.00013824
0.00013824
0.00013824
0.00013824
0.00013824
0.00013824
0.00013824
0.00013824
0.00013824
0.00013824
0.00013824
0.00013824
0.00013824
0.00013824
0.00013824
0.000110333
6.96874e-05
6.48184e-05
6.34743e-05
6.30298e-05
6.29843e-05
6.31729e-05
6.35192e-05
6.39747e-05
6.44986e-05
6.50499e-05
6.55867e-05
6.60687e-05
6.64626e-05
6.67484e-05
6.69236e-05
6.70062e-05
6.70345e-05
6.70675e-05
6.71914e-05
6.75451e-05
6.84097e-05
7.05884e-05
7.80367e-05
0.000133425
0.00013824
0.00013824
0.00013824
0.00013824
0.000135467
7.82311e-05
6.96557e-05
6.71588e-05
6.60746e-05
6.55374e-05
6.53073e-05
6.52942e-05
6.54686e-05
6.58224e-05
6.63685e-05
6.71021e-05
6.79657e-05
6.82939e-05
6.77285e-05
6.67622e-05
6.59412e-05
6.53284e-05
6.48926e-05
6.46208e-05
6.45176e-05
6.46045e-05
6.49466e-05
6.5738e-05
6.75221e-05
7.30736e-05
0.000112794
0.000138239
0.00013824
0.00013824
0.00013824
0.00011692
7.43359e-05
6.82584e-05
6.62507e-05
6.53226e-05
6.48678e-05
6.47279e-05
6.48606e-05
6.53069e-05
6.62292e-05
6.8159e-05
7.36871e-05
0.000109422
0.000138238
0.00013824
0.000134606
7.71052e-05
6.89059e-05
6.62975e-05
6.49929e-05
6.41877e-05
6.3624e-05
6.31931e-05
6.28427e-05
6.25485e-05
6.2301e-05
6.21019e-05
6.19629e-05
6.19083e-05
6.19814e-05
6.22614e-05
6.29226e-05
6.44969e-05
6.97994e-05
0.000112743
0.00013824
0.00013824
0.00013824
0.00013824
0.00013824
0.00013824
0.00013824
0.00013824
0.00013824
0.00013824
0.00013824
0.00013824
0.00013824
0.00013824
0.00013824
0.00013824
0.00013824
0.00013824
0.00013824
0.00013824
0.00013824
0.00013824
0.00013824
0.00013824
0.00013824
0.000138018
8.26394e-05
6.69106e-05
6.4006e-05
6.30491e-05
6.2705e-05
6.26574e-05
6.27848e-05
6.30232e-05
6.33285e-05
6.36655e-05
6.40038e-05
6.43183e-05
6.45909e-05
6.48129e-05
6.49878e-05
6.5133e-05
6.52822e-05
6.54898e-05
6.58469e-05
6.65331e-05
6.80349e-05
7.27334e-05
0.000106463
0.000138237
0.00013824
0.00013824
0.00013824
0.00013824
0.00013824
0.000128578
7.52234e-05
6.83581e-05
6.63287e-05
6.54046e-05
6.49889e-05
6.49006e-05
6.51035e-05
6.55965e-05
6.64886e-05
6.79782e-05
7.10692e-05
7.28215e-05
7.03955e-05
6.75165e-05
6.5974e-05
6.50827e-05
6.45275e-05
6.42399e-05
6.42139e-05
6.44784e-05
6.51441e-05
6.67504e-05
7.15188e-05
9.92664e-05
0.000138227
0.00013824
0.00013824
0.00013824
0.00013824
0.000138238
0.000108721
7.29392e-05
6.73461e-05
6.56104e-05
6.48486e-05
6.46213e-05
6.48071e-05
6.55022e-05
6.71721e-05
7.20718e-05
9.85407e-05
0.000138222
0.00013824
0.00013824
0.00013824
0.000115672
7.25296e-05
6.67102e-05
6.47005e-05
6.36451e-05
6.29793e-05
6.25179e-05
6.2182e-05
6.19357e-05
6.17638e-05
6.16642e-05
6.16489e-05
6.17514e-05
6.20445e-05
6.26877e-05
6.41343e-05
6.8581e-05
9.77768e-05
0.000138232
0.00013824
0.00013824
0.00013824
0.00013824
0.00013824
0.00013824
0.00013824
0.00013824
0.00013824
0.00013824
0.00013824
0.00013824
0.00013824
0.00013824
0.00013824
0.00013824
0.00013824
0.00013824
0.00013824
0.00013824
0.00013824
0.00013824
0.00013824
0.00013824
0.00013824
0.00013824
0.000133041
7.23768e-05
6.53729e-05
6.3445e-05
6.26714e-05
6.23517e-05
6.22671e-05
6.23197e-05
6.24538e-05
6.26332e-05
6.28324e-05
6.30341e-05
6.32282e-05
6.34128e-05
6.35952e-05
6.37945e-05
6.40462e-05
6.44119e-05
6.50088e-05
6.61049e-05
6.8552e-05
7.71063e-05
0.000135627
0.00013824
0.00013824
0.00013824
0.00013824
0.00013824
0.00013824
0.00013824
0.000125454
7.47078e-05
6.84533e-05
6.63602e-05
6.55109e-05
6.52803e-05
6.56311e-05
6.65463e-05
6.86638e-05
7.36326e-05
9.89327e-05
0.000120854
9.23062e-05
7.25539e-05
6.75809e-05
6.58519e-05
6.48926e-05
6.4478e-05
6.45515e-05
6.51832e-05
6.6577e-05
7.14057e-05
9.73085e-05
0.000138212
0.00013824
0.00013824
0.00013824
0.00013824
0.00013824
0.00013824
0.000138238
0.000111189
7.31473e-05
6.77818e-05
6.59908e-05
6.55438e-05
6.5865e-05
6.72865e-05
7.23589e-05
0.000101058
0.000138216
0.00013824
0.00013824
0.00013824
0.00013824
0.000138191
9.18898e-05
6.93089e-05
6.52062e-05
6.36059e-05
6.27246e-05
6.21742e-05
6.18148e-05
6.15912e-05
6.14795e-05
6.14757e-05
6.1596e-05
6.1898e-05
6.25393e-05
6.39635e-05
6.80969e-05
9.08709e-05
0.000138201
0.00013824
0.00013824
0.00013824
0.00013824
0.00013824
0.00013824
0.00013824
0.00013824
0.00013824
0.00013824
0.00013824
0.00013824
0.00013824
0.00013824
0.00013824
0.00013824
0.00013824
0.00013824
0.00013824
0.00013824
0.00013824
0.00013824
0.00013824
0.00013824
0.00013824
0.00013824
0.00013824
0.00013824
0.000121673
7.07282e-05
6.47929e-05
6.30666e-05
6.23313e-05
6.19954e-05
6.18648e-05
6.18495e-05
6.19028e-05
6.19978e-05
6.21197e-05
6.22629e-05
6.2429e-05
6.26287e-05
6.28856e-05
6.3245e-05
6.37934e-05
6.47272e-05
6.6634e-05
7.25387e-05
0.000119127
0.00013824
0.00013824
0.00013824
0.00013824
0.00013824
0.00013824
0.00013824
0.00013824
0.00013824
0.000131431
8.02233e-05
7.11552e-05
6.82374e-05
6.73589e-05
6.85892e-05
7.15813e-05
8.19114e-05
0.00012723
0.000138227
0.00013824
0.000138188
0.000120167
7.55871e-05
7.00433e-05
6.69078e-05
6.59244e-05
6.62447e-05
6.85147e-05
7.28711e-05
0.000108798
0.000138223
0.00013824
0.00013824
0.00013824
0.00013824
0.00013824
0.00013824
0.00013824
0.00013824
0.000138239
0.000125846
7.97652e-05
7.13577e-05
7.00155e-05
7.09513e-05
7.58604e-05
0.000118995
0.000138232
0.00013824
0.00013824
0.00013824
0.00013824
0.00013824
0.00013824
0.000137638
7.98315e-05
6.75327e-05
6.43873e-05
6.29849e-05
6.2224e-05
6.178e-05
6.15525e-05
6.1499e-05
6.1618e-05
6.19387e-05
6.25825e-05
6.40396e-05
6.85006e-05
9.2285e-05
0.000138186
0.00013824
0.00013824
0.00013824
0.00013824
0.00013824
0.00013824
0.00013824
0.00013824
0.00013824
0.00013824
0.00013824
0.00013824
0.00013824
0.00013824
0.00013824
0.00013824
0.00013824
0.00013824
0.00013824
0.00013824
0.00013824
0.00013824
0.00013824
0.00013824
0.00013824
0.00013824
0.00013824
0.00013824
0.00013824
0.00013824
0.000111509
6.98619e-05
6.44258e-05
6.27693e-05
6.20401e-05
6.16844e-05
6.15116e-05
6.14466e-05
6.14518e-05
6.1511e-05
6.16198e-05
6.17828e-05
6.20146e-05
6.23475e-05
6.28502e-05
6.36699e-05
6.52325e-05
6.95366e-05
9.58561e-05
0.000138221
0.00013824
0.00013824
0.00013824
0.00013824
0.00013824
0.00013824
0.00013824
0.00013824
0.00013824
0.00013824
0.000137571
0.000112987
8.38052e-05
7.64084e-05
8.71966e-05
0.000116837
0.000137794
0.00013824
0.00013824
0.00013824
0.00013824
0.00013824
0.000135706
0.000106311
7.64038e-05
7.19387e-05
7.32717e-05
9.23935e-05
0.000128532
0.000138239
0.00013824
0.00013824
0.00013824
0.00013824
0.00013824
0.00013824
0.00013824
0.00013824
0.00013824
0.00013824
0.00013824
0.000137608
0.000120464
0.000106504
0.000117069
0.000136252
0.00013824
0.00013824
0.00013824
0.00013824
0.00013824
0.00013824
0.00013824
0.00013824
0.00013824
0.000137113
7.88582e-05
6.77208e-05
6.42852e-05
6.29234e-05
6.2235e-05
6.19599e-05
6.19864e-05
6.23456e-05
6.31302e-05
6.46688e-05
6.97497e-05
0.00010296
0.000138216
0.00013824
0.00013824
0.00013824
0.00013824
0.00013824
0.00013824
0.00013824
0.00013824
0.00013824
0.00013824
0.00013824
0.00013824
0.00013824
0.00013824
0.00013824
0.00013824
0.00013824
0.00013824
0.00013824
0.00013824
0.00013824
0.00013824
0.00013824
0.00013824
0.00013824
0.00013824
0.00013824
0.00013824
0.00013824
0.00013824
0.00013824
0.000138239
0.000107682
6.95775e-05
6.4237e-05
6.25984e-05
6.18747e-05
6.14832e-05
6.12763e-05
6.11842e-05
6.11835e-05
6.12681e-05
6.14447e-05
6.17356e-05
6.21899e-05
6.29367e-05
6.42821e-05
6.74463e-05
8.12039e-05
0.000137848
0.00013824
0.00013824
0.00013824
0.00013824
0.00013824
0.00013824
0.00013824
0.00013824
0.00013824
0.00013824
0.00013824
0.00013824
0.00013824
0.000137951
0.00013642
0.000138102
0.00013824
0.00013824
0.00013824
0.00013824
0.00013824
0.00013824
0.00013824
0.00013824
0.000138238
0.000136755
0.000129201
0.000133821
0.000138203
0.00013824
0.00013824
0.00013824
0.00013824
0.00013824
0.00013824
0.00013824
0.00013824
0.00013824
0.00013824
0.00013824
0.00013824
0.00013824
0.00013824
0.00013824
0.000138238
0.00013824
0.00013824
0.00013824
0.00013824
0.00013824
0.00013824
0.00013824
0.00013824
0.00013824
0.00013824
0.00013824
0.00013824
0.000137625
9.04493e-05
6.9671e-05
6.54303e-05
6.37622e-05
6.33252e-05
6.35218e-05
6.47105e-05
6.77618e-05
7.35014e-05
0.000122424
0.000138238
0.00013824
0.00013824
0.00013824
0.00013824
0.00013824
0.00013824
0.00013824
0.00013824
0.00013824
0.00013824
0.00013824
0.00013824
0.00013824
0.00013824
0.00013824
0.00013824
0.00013824
0.00013824
0.00013824
0.00013824
0.00013824
0.00013824
0.00013824
0.00013824
0.00013824
0.00013824
0.00013824
0.00013824
0.00013824
0.00013824
0.00013824
0.00013824
0.00013824
0.000138239
0.000111369
6.99589e-05
6.43792e-05
6.27679e-05
6.19237e-05
6.14832e-05
6.12445e-05
6.11669e-05
6.12326e-05
6.14506e-05
6.18632e-05
6.25564e-05
6.3881e-05
6.68275e-05
7.69128e-05
0.000136961
0.00013824
0.00013824
0.00013824
0.00013824
0.00013824
0.00013824
0.00013824
0.00013824
0.00013824
0.00013824
0.00013824
0.00013824
0.00013824
0.00013824
0.00013824
0.00013824
0.00013824
0.00013824
0.00013824
0.00013824
0.00013824
0.00013824
0.00013824
0.00013824
0.00013824
0.00013824
0.00013824
0.00013824
0.00013824
0.00013824
0.00013824
0.00013824
0.00013824
0.00013824
0.00013824
0.00013824
0.00013824
0.00013824
0.00013824
0.00013824
0.00013824
0.00013824
0.00013824
0.00013824
0.00013824
0.00013824
0.00013824
0.00013824
0.00013824
0.00013824
0.00013824
0.00013824
0.00013824
0.00013824
0.00013824
0.00013824
0.00013824
0.00013824
0.00013824
0.000138202
0.000118467
7.85367e-05
6.96629e-05
6.86724e-05
6.93854e-05
7.59463e-05
0.000109332
0.000136608
0.00013824
0.00013824
0.00013824
0.00013824
0.00013824
0.00013824
0.00013824
0.00013824
0.00013824
0.00013824
0.00013824
0.00013824
0.00013824
0.00013824
0.00013824
0.00013824
0.00013824
0.00013824
0.00013824
0.00013824
0.00013824
0.00013824
0.00013824
0.00013824
0.00013824
0.00013824
0.00013824
0.00013824
0.00013824
0.00013824
0.00013824
0.00013824
0.00013824
0.00013824
0.00013824
0.00013824
0.00013824
0.00012267
7.15163e-05
6.60883e-05
6.34195e-05
6.24052e-05
6.18215e-05
6.16028e-05
6.16505e-05
6.19746e-05
6.27137e-05
6.40376e-05
6.78032e-05
8.06366e-05
0.00013703
0.00013824
0.00013824
0.00013824
0.00013824
0.00013824
0.00013824
0.00013824
0.00013824
0.00013824
0.00013824
0.00013824
0.00013824
0.00013824
0.00013824
0.00013824
0.00013824
0.00013824
0.00013824
0.00013824
0.00013824
0.00013824
0.00013824
0.00013824
0.00013824
0.00013824
0.00013824
0.00013824
0.00013824
0.00013824
0.00013824
0.00013824
0.00013824
0.00013824
0.00013824
0.00013824
0.00013824
0.00013824
0.00013824
0.00013824
0.00013824
0.00013824
0.00013824
0.00013824
0.00013824
0.00013824
0.00013824
0.00013824
0.00013824
0.00013824
0.00013824
0.00013824
0.00013824
0.00013824
0.00013824
0.00013824
0.00013824
0.00013824
0.00013824
0.00013824
0.00013824
0.00013824
0.00013824
0.000137808
0.000127146
0.000120082
0.000127205
0.000137507
0.00013824
0.00013824
0.00013824
0.00013824
0.00013824
0.00013824
0.00013824
0.00013824
0.00013824
0.00013824
0.00013824
0.00013824
0.00013824
0.00013824
0.00013824
0.00013824
0.00013824
0.00013824
0.00013824
0.00013824
0.00013824
0.00013824
0.00013824
0.00013824
0.00013824
0.00013824
0.00013824
0.00013824
0.00013824
0.00013824
0.00013824
0.00013824
0.00013824
0.00013824
0.00013824
0.00013824
0.00013824
0.00013824
0.00013824
0.00013824
0.000134399
8.97253e-05
6.92641e-05
6.58202e-05
6.36245e-05
6.30227e-05
6.30443e-05
6.36849e-05
6.59723e-05
7.00452e-05
9.82373e-05
0.000137932
0.00013824
0.00013824
0.00013824
0.00013824
0.00013824
0.00013824
0.00013824
0.00013824
0.00013824
0.00013824
0.00013824
0.00013824
0.00013824
0.00013824
0.00013824
0.00013824
0.00013824
0.00013824
0.00013824
0.00013824
0.00013824
0.00013824
0.00013824
0.00013824
0.00013824
0.00013824
0.00013824
0.00013824
0.00013824
0.00013824
0.00013824
0.00013824
0.00013824
0.00013824
0.00013824
0.00013824
0.00013824
0.00013824
0.00013824
0.00013824
0.00013824
0.00013824
0.00013824
0.00013824
0.00013824
0.00013824
0.00013824
0.00013824
0.00013824
0.00013824
0.00013824
0.00013824
0.00013824
0.00013824
0.00013824
0.00013824
0.00013824
0.00013824
0.00013824
0.00013824
0.00013824
0.00013824
0.00013824
0.00013824
0.00013824
0.00013824
0.00013824
0.00013824
0.00013824
0.00013824
0.00013824
0.00013824
0.00013824
0.00013824
0.00013824
0.00013824
0.00013824
0.00013824
0.00013824
0.00013824
0.00013824
0.00013824
0.00013824
0.00013824
0.00013824
0.00013824
0.00013824
0.00013824
0.00013824
0.00013824
0.00013824
0.00013824
0.00013824
0.00013824
0.00013824
0.00013824
0.00013824
0.00013824
0.00013824
0.00013824
0.00013824
0.00013824
0.00013824
0.00013824
0.00013824
0.00013824
0.00013824
0.00013824
0.00013824
0.00013821
0.000123823
9.00545e-05
7.06301e-05
6.85904e-05
6.85403e-05
7.03119e-05
8.85311e-05
0.000125348
0.000138234
0.00013824
0.00013824
0.00013824
0.00013824
0.00013824
0.00013824
0.00013824
0.00013824
0.00013824
0.00013824
0.00013824
0.00013824
0.00013824
0.00013824
0.00013824
0.00013824
0.00013824
0.00013824
0.00013824
0.00013824
0.00013824
0.00013824
0.00013824
0.00013824
0.00013824
0.00013824
0.00013824
0.00013824
0.00013824
0.00013824
0.00013824
0.00013824
0.00013824
0.00013824
0.00013824
0.00013824
0.00013824
0.00013824
0.00013824
0.00013824
0.00013824
0.00013824
0.00013824
0.00013824
0.00013824
0.00013824
0.00013824
0.00013824
0.00013824
0.00013824
0.00013824
0.00013824
0.00013824
0.00013824
0.00013824
0.00013824
0.00013824
0.00013824
0.00013824
0.00013824
0.00013824
0.00013824
0.00013824
0.00013824
0.00013824
0.00013824
0.00013824
0.00013824
0.00013824
0.00013824
0.00013824
0.00013824
0.00013824
0.00013824
0.00013824
0.00013824
0.00013824
0.00013824
0.00013824
0.00013824
0.00013824
0.00013824
0.00013824
0.00013824
0.00013824
0.00013824
0.00013824
0.00013824
0.00013824
0.00013824
0.00013824
0.00013824
0.00013824
0.00013824
0.00013824
0.00013824
0.00013824
0.00013824
0.00013824
0.00013824
0.00013824
0.00013824
0.00013824
0.00013824
0.00013824
0.00013824
0.00013824
0.00013824
0.00013824
0.00013824
0.00013824
0.00013824
0.000138211
0.000134287
0.00012431
0.000123155
0.000132875
0.000138198
0.00013824
0.00013824
0.00013824
0.00013824
0.00013824
0.00013824
0.00013824
0.00013824
0.00013824
0.00013824
0.00013824
0.00013824
0.00013824
0.00013824
0.00013824
0.00013824
0.00013824
0.00013824
0.00013824
0.00013824
0.00013824
0.00013824
0.00013824
0.00013824
0.00013824
0.00013824
0.00013824
0.00013824
0.00013824
0.00013824
0.00013824
0.00013824
0.00013824
0.00013824
0.00013824
0.00013824
0.00013824
0.00013824
0.00013824
0.00013824
0.00013824
0.00013824
0.00013824
0.00013824
0.00013824
0.00013824
0.00013824
0.00013824
0.00013824
0.00013824
0.00013824
0.00013824
0.00013824
0.00013824
0.00013824
0.00013824
0.00013824
0.00013824
0.00013824
0.00013824
0.00013824
0.00013824
0.00013824
0.00013824
0.00013824
0.00013824
0.00013824
0.00013824
0.00013824
0.00013824
0.00013824
0.00013824
0.00013824
0.00013824
0.00013824
0.00013824
0.00013824
0.00013824
0.00013824
0.00013824
0.00013824
0.00013824
0.00013824
0.00013824
0.00013824
0.00013824
0.00013824
0.00013824
0.00013824
0.00013824
0.00013824
0.00013824
0.00013824
0.00013824
0.00013824
0.00013824
0.00013824
0.00013824
0.00013824
0.00013824
0.00013824
0.00013824
0.00013824
0.00013824
0.00013824
0.00013824
0.00013824
0.00013824
0.00013824
0.00013824
0.00013824
0.00013824
0.00013824
0.00013824
0.00013824
0.00013824
0.00013824
0.00013824
0.00013824
0.00013824
0.00013824
0.00013824
0.00013824
0.00013824
0.00013824
0.00013824
0.00013824
0.00013824
0.00013824
0.00013824
0.00013824
0.00013824
0.00013824
0.00013824
0.00013824
0.00013824
0.00013824
0.00013824
0.00013824
0.00013824
0.00013824
0.00013824
0.00013824
0.00013824
0.00013824
0.00013824
0.00013824
0.00013824
0.00013824
0.00013824
0.00013824
0.00013824
0.00013824
0.00013824
0.00013824
0.00013824
0.00013824
0.00013824
0.00013824
0.00013824
0.00013824
0.00013824
0.00013824
0.00013824
0.00013824
0.00013824
0.00013824
0.00013824
0.00013824
0.00013824
0.00013824
0.00013824
0.00013824
0.00013824
0.00013824
0.00013824
0.00013824
0.00013824
0.00013824
0.00013824
0.00013824
0.00013824
0.00013824
0.00013824
0.00013824
0.00013824
0.00013824
0.00013824
0.00013824
0.00013824
0.00013824
0.00013824
0.00013824
0.00013824
0.00013824
0.00013824
0.00013824
0.00013824
0.00013824
0.00013824
0.00013824
0.00013824
0.00013824
0.00013824
0.00013824
0.00013824
0.00013824
0.00013824
0.00013824
0.00013824
0.00013824
0.00013824
0.00013824
0.00013824
0.00013824
0.00013824
0.00013824
0.00013824
0.00013824
0.00013824
0.00013824
0.00013824
0.00013824
0.00013824
0.00013824
0.00013824
0.00013824
0.00013824
0.00013824
0.00013824
0.00013824
0.00013824
0.00013824
0.00013824
0.00013824
0.00013824
0.00013824
0.00013824
0.00013824
0.00013824
0.00013824
0.00013824
0.00013824
0.00013824
0.00013824
0.00013824
0.00013824
0.00013824
0.00013824
0.00013824
0.00013824
0.00013824
0.00013824
0.00013824
0.00013824
0.00013824
0.00013824
0.00013824
0.00013824
0.00013824
0.00013824
0.00013824
0.00013824
0.00013824
0.00013824
0.00013824
0.00013824
0.00013824
0.00013824
0.00013824
0.00013824
0.00013824
0.00013824
0.00013824
0.00013824
0.00013824
0.00013824
0.00013824
0.00013824
0.00013824
0.00013824
0.00013824
0.00013824
0.00013824
0.00013824
0.00013824
0.00013824
0.00013824
0.00013824
0.00013824
0.00013824
0.00013824
0.00013824
0.00013824
0.00013824
0.00013824
0.00013824
0.00013824
0.00013824
0.00013824
0.00013824
0.00013824
0.00013824
0.00013824
0.00013824
0.00013824
0.00013824
0.00013824
0.00013824
0.00013824
0.00013824
0.00013824
0.00013824
0.00013824
0.00013824
0.00013824
0.00013824
0.00013824
0.00013824
0.00013824
0.00013824
0.00013824
0.00013824
0.00013824
0.00013824
0.00013824
0.00013824
0.00013824
0.00013824
0.00013824
0.00013824
0.00013824
0.00013824
0.00013824
0.00013824
0.00013824
0.00013824
0.00013824
0.00013824
0.00013824
0.00013824
0.00013824
0.00013824
0.00013824
0.00013824
0.00013824
0.00013824
0.00013824
0.00013824
0.00013824
0.00013824
0.00013824
0.00013824
0.00013824
0.00013824
0.00013824
0.00013824
0.00013824
0.00013824
0.00013824
0.00013824
0.00013824
0.00013824
0.00013824
0.00013824
0.00013824
0.00013824
0.00013824
0.00013824
0.00013824
0.00013824
0.00013824
0.00013824
0.00013824
0.00013824
0.00013824
0.00013824
0.00013824
0.00013824
0.00013824
0.00013824
0.00013824
0.00013824
0.00013824
0.00013824
0.00013824
0.00013824
0.00013824
0.00013824
0.00013824
0.00013824
0.00013824
0.00013824
0.00013824
0.00013824
0.00013824
0.00013824
0.00013824
0.00013824
0.00013824
0.00013824
0.00013824
0.00013824
0.00013824
0.00013824
0.00013824
0.00013824
0.00013824
0.00013824
0.00013824
0.00013824
0.00013824
0.00013824
0.00013824
0.00013824
0.00013824
0.00013824
0.00013824
0.00013824
0.00013824
0.00013824
0.00013824
0.00013824
0.00013824
0.00013824
0.00013824
0.00013824
0.00013824
0.00013824
0.00013824
0.00013824
0.00013824
0.00013824
0.00013824
0.00013824
0.00013824
0.00013824
0.00013824
0.00013824
0.00013824
0.00013824
0.00013824
0.00013824
0.00013824
0.00013824
0.00013824
0.00013824
0.00013824
0.00013824
0.00013824
0.00013824
0.00013824
0.00013824
0.00013824
0.00013824
0.00013824
0.00013824
0.00013824
0.00013824
0.00013824
0.00013824
0.00013824
0.00013824
0.00013824
0.00013824
0.00013824
0.00013824
0.00013824
0.00013824
0.00013824
0.00013824
0.00013824
0.00013824
0.00013824
0.00013824
0.00013824
0.00013824
0.00013824
0.00013824
0.00013824
0.00013824
0.00013824
0.00013824
0.00013824
0.00013824
0.00013824
0.00013824
0.00013824
0.00013824
0.00013824
0.00013824
0.00013824
0.00013824
0.00013824
0.00013824
0.00013824
0.00013824
0.00013824
0.00013824
0.00013824
0.00013824
0.00013824
0.00013824
0.00013824
0.00013824
0.00013824
0.00013824
0.00013824
0.00013824
0.00013824
0.00013824
0.00013824
0.00013824
0.00013824
0.00013824
0.00013824
0.00013824
0.00013824
0.00013824
0.00013824
0.00013824
0.00013824
0.00013824
0.00013824
0.00013824
0.00013824
0.00013824
0.00013824
0.00013824
0.00013824
0.00013824
0.00013824
0.00013824
0.00013824
0.00013824
0.00013824
0.00013824
0.00013824
0.00013824
0.00013824
0.00013824
0.00013824
0.00013824
0.00013824
0.00013824
0.00013824
0.00013824
0.00013824
0.00013824
0.00013824
0.00013824
0.00013824
0.00013824
0.00013824
0.00013824
0.00013824
0.00013824