/*--------------------------------*- C++ -*----------------------------------*\
| =========                 |                                                 |
| \\      /  F ield         | OpenFOAM: The Open Source CFD Toolbox           |
|  \\    /   O peration     | Version:  2406                                  |
|   \\  /    A nd           | Website:  www.openfoam.com                      |
|    \\/     M anipulation  |                                                 |
\*---------------------------------------------------------------------------*/
FoamFile
{
    version     2.0;
    format      ascii;
    arch        "LSB;label=32;scalar=64";
    class       volScalarField;
    location    "9.15";
    object      Da;
}
// * * * * * * * * * * * * * * * * * * * * * * * * * * * * * * * * * * * * * //

dimensions      [0 2 -1 0 0 0 0];

internalField   nonuniform List<scalar> 
14400
(
5.08955e-05
5.08928e-05
5.08967e-05
5.09133e-05
5.0941e-05
5.09725e-05
5.0999e-05
5.1014e-05
5.10157e-05
5.10082e-05
5.10007e-05
5.10053e-05
5.10321e-05
5.10824e-05
5.11401e-05
5.11717e-05
5.11512e-05
5.11004e-05
5.1038e-05
5.09591e-05
5.08406e-05
5.06516e-05
5.03624e-05
4.9952e-05
4.94146e-05
4.87667e-05
4.80483e-05
4.73156e-05
4.66248e-05
4.60166e-05
4.55115e-05
4.51145e-05
4.48255e-05
4.46477e-05
4.45984e-05
4.47323e-05
4.52329e-05
4.7022e-05
5.86069e-05
7.79893e-05
7.8e-05
7.8e-05
7.8e-05
7.8e-05
7.8e-05
7.8e-05
7.8e-05
7.8e-05
7.8e-05
7.8e-05
7.8e-05
7.8e-05
7.8e-05
7.8e-05
7.8e-05
7.8e-05
7.8e-05
7.8e-05
7.7932e-05
5.49927e-05
4.68738e-05
4.54102e-05
4.50186e-05
4.49813e-05
4.51477e-05
4.54796e-05
4.59759e-05
4.66499e-05
4.75104e-05
4.85372e-05
4.96598e-05
5.07674e-05
5.17527e-05
5.25437e-05
5.31051e-05
5.34268e-05
5.35145e-05
5.3384e-05
5.30612e-05
5.25844e-05
5.20088e-05
5.14088e-05
5.08785e-05
5.05385e-05
5.05867e-05
5.15904e-05
5.66827e-05
7.75639e-05
6.04737e-05
5.13445e-05
4.95298e-05
4.89829e-05
4.88541e-05
4.89289e-05
4.91187e-05
4.93721e-05
4.96532e-05
4.99342e-05
5.01941e-05
5.0417e-05
5.0591e-05
5.07066e-05
5.07554e-05
5.07303e-05
5.06282e-05
5.04506e-05
5.0203e-05
4.98938e-05
4.95343e-05
4.91399e-05
4.87312e-05
4.83337e-05
4.79764e-05
4.76911e-05
4.75146e-05
4.75007e-05
4.77563e-05
4.85904e-05
5.15531e-05
7.40955e-05
5.0508e-05
5.04744e-05
5.04342e-05
5.04076e-05
5.03998e-05
5.04058e-05
5.04174e-05
5.04281e-05
5.04362e-05
5.04458e-05
5.04665e-05
5.05116e-05
5.05926e-05
5.07101e-05
5.0837e-05
5.09055e-05
5.0848e-05
5.07356e-05
5.0619e-05
5.05015e-05
5.03591e-05
5.01596e-05
4.9873e-05
4.94793e-05
4.89744e-05
4.83749e-05
4.77174e-05
4.70508e-05
4.6423e-05
4.5869e-05
4.54072e-05
4.50441e-05
4.47822e-05
4.46278e-05
4.46022e-05
4.47673e-05
4.53312e-05
4.74238e-05
6.36651e-05
7.79992e-05
7.8e-05
7.8e-05
7.8e-05
7.8e-05
7.8e-05
7.8e-05
7.8e-05
7.8e-05
7.8e-05
7.8e-05
7.8e-05
7.8e-05
7.8e-05
7.8e-05
7.8e-05
7.8e-05
7.8e-05
7.8e-05
7.79922e-05
5.94785e-05
4.7273e-05
4.54907e-05
4.5037e-05
4.49691e-05
4.51093e-05
4.54116e-05
4.58698e-05
4.64927e-05
4.7287e-05
4.82369e-05
4.92847e-05
5.0334e-05
5.12817e-05
5.20515e-05
5.26021e-05
5.29193e-05
5.30065e-05
5.28793e-05
5.2565e-05
5.2105e-05
5.15574e-05
5.09979e-05
5.05202e-05
5.02453e-05
5.03905e-05
5.17029e-05
5.93488e-05
7.79116e-05
6.54043e-05
5.16458e-05
4.94417e-05
4.87894e-05
4.85929e-05
4.86094e-05
4.87451e-05
4.89489e-05
4.91873e-05
4.94353e-05
4.96739e-05
4.98875e-05
5.00626e-05
5.01856e-05
5.02427e-05
5.02219e-05
5.01184e-05
4.99369e-05
4.96892e-05
4.93891e-05
4.90508e-05
4.86903e-05
4.8326e-05
4.79799e-05
4.76772e-05
4.74471e-05
4.73266e-05
4.73761e-05
4.77292e-05
4.88142e-05
5.28614e-05
7.69534e-05
4.98875e-05
4.97817e-05
4.9649e-05
4.95396e-05
4.94677e-05
4.94288e-05
4.94139e-05
4.94163e-05
4.94341e-05
4.94715e-05
4.95396e-05
4.96548e-05
4.9836e-05
5.0091e-05
5.0382e-05
5.05567e-05
5.03796e-05
5.01141e-05
4.98807e-05
4.96856e-05
4.94975e-05
4.928e-05
4.90021e-05
4.86448e-05
4.82047e-05
4.76955e-05
4.71458e-05
4.65925e-05
4.60712e-05
4.56089e-05
4.52217e-05
4.49185e-05
4.47061e-05
4.45968e-05
4.46208e-05
4.48583e-05
4.55762e-05
4.82199e-05
7.19808e-05
7.8e-05
7.8e-05
7.8e-05
7.8e-05
7.8e-05
7.8e-05
7.8e-05
7.8e-05
7.8e-05
7.8e-05
7.8e-05
7.8e-05
7.8e-05
7.8e-05
7.8e-05
7.8e-05
7.8e-05
7.8e-05
7.8e-05
7.79999e-05
6.77228e-05
4.79519e-05
4.56593e-05
4.50855e-05
4.49545e-05
4.50429e-05
4.52893e-05
4.56783e-05
4.62106e-05
4.68883e-05
4.76995e-05
4.86039e-05
4.95293e-05
5.03878e-05
5.1102e-05
5.1622e-05
5.19255e-05
5.20118e-05
5.18961e-05
5.16083e-05
5.1194e-05
5.07146e-05
5.02459e-05
4.98775e-05
4.97295e-05
5.00475e-05
5.18863e-05
6.49174e-05
7.79962e-05
7.29023e-05
5.22553e-05
4.9377e-05
4.8496e-05
4.81662e-05
4.80782e-05
4.81212e-05
4.82412e-05
4.84065e-05
4.85961e-05
4.87942e-05
4.89871e-05
4.91599e-05
4.92937e-05
4.93656e-05
4.93535e-05
4.92494e-05
4.90646e-05
4.8822e-05
4.85436e-05
4.82471e-05
4.7947e-05
4.76578e-05
4.73962e-05
4.71824e-05
4.70426e-05
4.70163e-05
4.71784e-05
4.77268e-05
4.95449e-05
6.05094e-05
7.79837e-05
4.93007e-05
4.90512e-05
4.87711e-05
4.85508e-05
4.84016e-05
4.83115e-05
4.82668e-05
4.8259e-05
4.82858e-05
4.8352e-05
4.84705e-05
4.86653e-05
4.89728e-05
4.94386e-05
5.00686e-05
5.05822e-05
5.00023e-05
4.94198e-05
4.90009e-05
4.86987e-05
4.84535e-05
4.82173e-05
4.79563e-05
4.76506e-05
4.72944e-05
4.68951e-05
4.64713e-05
4.6047e-05
4.56466e-05
4.52899e-05
4.49915e-05
4.47627e-05
4.46155e-05
4.45711e-05
4.46765e-05
4.50642e-05
4.62801e-05
5.23862e-05
7.78243e-05
7.8e-05
7.8e-05
7.8e-05
7.8e-05
7.8e-05
7.8e-05
7.8e-05
7.8e-05
7.8e-05
7.8e-05
7.8e-05
7.8e-05
7.8e-05
7.8e-05
7.8e-05
7.8e-05
7.8e-05
7.8e-05
7.8e-05
7.8e-05
7.61876e-05
4.93042e-05
4.60426e-05
4.52051e-05
4.49586e-05
4.49666e-05
4.51357e-05
4.54351e-05
4.58552e-05
4.63911e-05
4.70314e-05
4.77484e-05
4.84937e-05
4.92032e-05
4.98113e-05
5.02666e-05
5.05401e-05
5.06257e-05
5.05373e-05
5.03063e-05
4.99798e-05
4.96181e-05
4.92917e-05
4.90845e-05
4.91216e-05
4.96965e-05
5.21808e-05
7.19447e-05
7.8e-05
7.785e-05
5.65812e-05
4.9755e-05
4.82645e-05
4.77152e-05
4.749e-05
4.74244e-05
4.74509e-05
4.75359e-05
4.766e-05
4.78104e-05
4.79761e-05
4.81429e-05
4.82884e-05
4.83797e-05
4.83804e-05
4.82769e-05
4.80899e-05
4.7857e-05
4.76081e-05
4.73616e-05
4.71295e-05
4.6922e-05
4.67512e-05
4.66339e-05
4.65961e-05
4.66835e-05
4.69965e-05
4.78322e-05
5.06385e-05
7.19506e-05
7.8e-05
4.91534e-05
4.85509e-05
4.80314e-05
4.76733e-05
4.74425e-05
4.73029e-05
4.72303e-05
4.72123e-05
4.7246e-05
4.73368e-05
4.7501e-05
4.77735e-05
4.82241e-05
4.90063e-05
5.04775e-05
5.31087e-05
5.01383e-05
4.88633e-05
4.81765e-05
4.77502e-05
4.74471e-05
4.71951e-05
4.69532e-05
4.66986e-05
4.64219e-05
4.61241e-05
4.58148e-05
4.55079e-05
4.52193e-05
4.49637e-05
4.47545e-05
4.46052e-05
4.45338e-05
4.45732e-05
4.48002e-05
4.54608e-05
4.78792e-05
6.91123e-05
7.8e-05
7.8e-05
7.8e-05
7.8e-05
7.8e-05
7.8e-05
7.8e-05
7.8e-05
7.8e-05
7.8e-05
7.8e-05
7.8e-05
7.8e-05
7.8e-05
7.8e-05
7.8e-05
7.8e-05
7.8e-05
7.8e-05
7.8e-05
7.8e-05
7.79979e-05
6.16679e-05
4.7298e-05
4.54836e-05
4.50128e-05
4.49042e-05
4.49776e-05
4.5177e-05
4.54796e-05
4.58727e-05
4.63427e-05
4.68681e-05
4.74163e-05
4.79449e-05
4.84077e-05
4.87643e-05
4.89885e-05
4.90724e-05
4.90271e-05
4.88808e-05
4.86757e-05
4.84638e-05
4.83076e-05
4.82911e-05
4.85722e-05
4.96399e-05
5.42455e-05
7.74424e-05
7.8e-05
7.8e-05
7.13545e-05
5.10558e-05
4.82716e-05
4.73735e-05
4.69792e-05
4.68017e-05
4.67417e-05
4.67563e-05
4.68246e-05
4.69352e-05
4.70794e-05
4.72456e-05
4.74105e-05
4.75323e-05
4.75508e-05
4.74427e-05
4.72429e-05
4.70108e-05
4.67833e-05
4.65776e-05
4.64023e-05
4.62644e-05
4.61734e-05
4.61456e-05
4.62114e-05
4.64324e-05
4.69741e-05
4.85415e-05
5.69653e-05
7.79419e-05
7.8e-05
5.09982e-05
4.8657e-05
4.76158e-05
4.70512e-05
4.67203e-05
4.6527e-05
4.64258e-05
4.63974e-05
4.6437e-05
4.65514e-05
4.67629e-05
4.71245e-05
4.77676e-05
4.91431e-05
5.39666e-05
7.42139e-05
5.18921e-05
4.86824e-05
4.75597e-05
4.69825e-05
4.66178e-05
4.63474e-05
4.61176e-05
4.5901e-05
4.56847e-05
4.54651e-05
4.52451e-05
4.50321e-05
4.48361e-05
4.46687e-05
4.45427e-05
4.44745e-05
4.44898e-05
4.46404e-05
4.50664e-05
4.63713e-05
5.35366e-05
7.79112e-05
7.8e-05
7.8e-05
7.8e-05
7.8e-05
7.8e-05
7.8e-05
7.8e-05
7.8e-05
7.8e-05
7.8e-05
7.8e-05
7.8e-05
7.8e-05
7.8e-05
7.8e-05
7.8e-05
7.8e-05
7.8e-05
7.8e-05
7.8e-05
7.8e-05
7.8e-05
7.56885e-05
4.91162e-05
4.59829e-05
4.51587e-05
4.48845e-05
4.48426e-05
4.49365e-05
4.51263e-05
4.53907e-05
4.57125e-05
4.60731e-05
4.64488e-05
4.68121e-05
4.71337e-05
4.73878e-05
4.75574e-05
4.76375e-05
4.76374e-05
4.75788e-05
4.74948e-05
4.74281e-05
4.74365e-05
4.76148e-05
4.81947e-05
5.02853e-05
6.57622e-05
7.7999e-05
7.8e-05
7.8e-05
7.79713e-05
5.87696e-05
4.90611e-05
4.72891e-05
4.66435e-05
4.63416e-05
4.62001e-05
4.61561e-05
4.61828e-05
4.62685e-05
4.64068e-05
4.65911e-05
4.68016e-05
4.69894e-05
4.70402e-05
4.69049e-05
4.66536e-05
4.63918e-05
4.61626e-05
4.59773e-05
4.58396e-05
4.57544e-05
4.57302e-05
4.57866e-05
4.59673e-05
4.63711e-05
4.73044e-05
5.03977e-05
7.44716e-05
7.8e-05
7.8e-05
7.19894e-05
5.07892e-05
4.77862e-05
4.67786e-05
4.6282e-05
4.60125e-05
4.5874e-05
4.58325e-05
4.58793e-05
4.60244e-05
4.63033e-05
4.68099e-05
4.78288e-05
5.08468e-05
7.30051e-05
7.79976e-05
6.36134e-05
4.94319e-05
4.72564e-05
4.64557e-05
4.60103e-05
4.57096e-05
4.54789e-05
4.52837e-05
4.5107e-05
4.49415e-05
4.47862e-05
4.46441e-05
4.4522e-05
4.44298e-05
4.43819e-05
4.44e-05
4.45238e-05
4.48447e-05
4.56555e-05
4.8574e-05
7.43467e-05
7.8e-05
7.8e-05
7.8e-05
7.8e-05
7.8e-05
7.8e-05
7.8e-05
7.8e-05
7.8e-05
7.8e-05
7.8e-05
7.8e-05
7.8e-05
7.8e-05
7.8e-05
7.8e-05
7.8e-05
7.8e-05
7.8e-05
7.8e-05
7.8e-05
7.8e-05
7.8e-05
7.79998e-05
6.55572e-05
4.76916e-05
4.55478e-05
4.49559e-05
4.47605e-05
4.47411e-05
4.48251e-05
4.49787e-05
4.51807e-05
4.54129e-05
4.56572e-05
4.5895e-05
4.61085e-05
4.62829e-05
4.64092e-05
4.64866e-05
4.65228e-05
4.65349e-05
4.6549e-05
4.66032e-05
4.67589e-05
4.71403e-05
4.8102e-05
5.13893e-05
7.58579e-05
7.8e-05
7.8e-05
7.8e-05
7.8e-05
7.67603e-05
5.14676e-05
4.76871e-05
4.65851e-05
4.61064e-05
4.58692e-05
4.57677e-05
4.57621e-05
4.58392e-05
4.59956e-05
4.62369e-05
4.65611e-05
4.69426e-05
4.70877e-05
4.68376e-05
4.64107e-05
4.60478e-05
4.57769e-05
4.55842e-05
4.5464e-05
4.54183e-05
4.54567e-05
4.56078e-05
4.59573e-05
4.67451e-05
4.91949e-05
6.6704e-05
7.79998e-05
7.8e-05
7.8e-05
7.79999e-05
6.85363e-05
4.97539e-05
4.70708e-05
4.61838e-05
4.57737e-05
4.55728e-05
4.55111e-05
4.55697e-05
4.57669e-05
4.61745e-05
4.7027e-05
4.94672e-05
6.52247e-05
7.79992e-05
7.8e-05
7.63764e-05
5.09731e-05
4.7357e-05
4.62054e-05
4.56292e-05
4.52735e-05
4.50244e-05
4.48339e-05
4.4679e-05
4.45488e-05
4.44393e-05
4.43511e-05
4.42895e-05
4.42651e-05
4.42972e-05
4.44206e-05
4.47121e-05
4.5406e-05
4.77415e-05
6.66076e-05
7.79999e-05
7.8e-05
7.8e-05
7.8e-05
7.8e-05
7.8e-05
7.8e-05
7.8e-05
7.8e-05
7.8e-05
7.8e-05
7.8e-05
7.8e-05
7.8e-05
7.8e-05
7.8e-05
7.8e-05
7.8e-05
7.8e-05
7.8e-05
7.8e-05
7.8e-05
7.8e-05
7.8e-05
7.8e-05
7.78966e-05
5.33267e-05
4.64648e-05
4.51893e-05
4.47682e-05
4.4617e-05
4.45964e-05
4.46532e-05
4.4759e-05
4.48944e-05
4.50437e-05
4.51936e-05
4.53328e-05
4.54535e-05
4.55517e-05
4.56289e-05
4.5693e-05
4.57587e-05
4.58501e-05
4.60075e-05
4.63102e-05
4.6973e-05
4.90462e-05
6.39156e-05
7.79984e-05
7.8e-05
7.8e-05
7.8e-05
7.8e-05
7.8e-05
7.36925e-05
5.01444e-05
4.71134e-05
4.62171e-05
4.58094e-05
4.56259e-05
4.5587e-05
4.56767e-05
4.58945e-05
4.62882e-05
4.69464e-05
4.83094e-05
4.90849e-05
4.80111e-05
4.67421e-05
4.60607e-05
4.5667e-05
4.54217e-05
4.52945e-05
4.5283e-05
4.53999e-05
4.56941e-05
4.64032e-05
4.85057e-05
6.07139e-05
7.79942e-05
7.8e-05
7.8e-05
7.8e-05
7.8e-05
7.79993e-05
6.4899e-05
4.91349e-05
4.66664e-05
4.58994e-05
4.55633e-05
4.5463e-05
4.55451e-05
4.58518e-05
4.65896e-05
4.87509e-05
6.04021e-05
7.79917e-05
7.8e-05
7.8e-05
7.79999e-05
6.79731e-05
4.89537e-05
4.63858e-05
4.54985e-05
4.50325e-05
4.47384e-05
4.45345e-05
4.4386e-05
4.42771e-05
4.4201e-05
4.41568e-05
4.41499e-05
4.41951e-05
4.43243e-05
4.46079e-05
4.52452e-05
4.72005e-05
5.99837e-05
7.79963e-05
7.8e-05
7.8e-05
7.8e-05
7.8e-05
7.8e-05
7.8e-05
7.8e-05
7.8e-05
7.8e-05
7.8e-05
7.8e-05
7.8e-05
7.8e-05
7.8e-05
7.8e-05
7.8e-05
7.8e-05
7.8e-05
7.8e-05
7.8e-05
7.8e-05
7.8e-05
7.8e-05
7.8e-05
7.8e-05
7.8e-05
7.56443e-05
4.88757e-05
4.5792e-05
4.49425e-05
4.46015e-05
4.44607e-05
4.44236e-05
4.44472e-05
4.45067e-05
4.45863e-05
4.46745e-05
4.47638e-05
4.48497e-05
4.49314e-05
4.5012e-05
4.51e-05
4.52111e-05
4.53725e-05
4.56359e-05
4.61197e-05
4.71991e-05
5.09662e-05
7.68274e-05
7.8e-05
7.8e-05
7.8e-05
7.8e-05
7.8e-05
7.8e-05
7.8e-05
7.22978e-05
4.9914e-05
4.71511e-05
4.62299e-05
4.58549e-05
4.57531e-05
4.59082e-05
4.63124e-05
4.72444e-05
4.94402e-05
6.0566e-05
7.02731e-05
5.76375e-05
4.89628e-05
4.67673e-05
4.6005e-05
4.55812e-05
4.53984e-05
4.54308e-05
4.57098e-05
4.63257e-05
4.84548e-05
5.98383e-05
7.79871e-05
7.8e-05
7.8e-05
7.8e-05
7.8e-05
7.8e-05
7.8e-05
7.79991e-05
6.5978e-05
4.92252e-05
4.68536e-05
4.60665e-05
4.58696e-05
4.60111e-05
4.66364e-05
4.88764e-05
6.15008e-05
7.79889e-05
7.8e-05
7.8e-05
7.8e-05
7.8e-05
7.79778e-05
5.74415e-05
4.75259e-05
4.57193e-05
4.50137e-05
4.46248e-05
4.43816e-05
4.42229e-05
4.4124e-05
4.40745e-05
4.40727e-05
4.41257e-05
4.42589e-05
4.45419e-05
4.51694e-05
4.6985e-05
5.69292e-05
7.79814e-05
7.8e-05
7.8e-05
7.8e-05
7.8e-05
7.8e-05
7.8e-05
7.8e-05
7.8e-05
7.8e-05
7.8e-05
7.8e-05
7.8e-05
7.8e-05
7.8e-05
7.8e-05
7.8e-05
7.8e-05
7.8e-05
7.8e-05
7.8e-05
7.8e-05
7.8e-05
7.8e-05
7.8e-05
7.8e-05
7.8e-05
7.8e-05
7.8e-05
7.05634e-05
4.81527e-05
4.55369e-05
4.47754e-05
4.4451e-05
4.43028e-05
4.42453e-05
4.42388e-05
4.42625e-05
4.43047e-05
4.43587e-05
4.4422e-05
4.44955e-05
4.45838e-05
4.46972e-05
4.48559e-05
4.50979e-05
4.55101e-05
4.63517e-05
4.8957e-05
6.94963e-05
7.8e-05
7.8e-05
7.8e-05
7.8e-05
7.8e-05
7.8e-05
7.8e-05
7.8e-05
7.8e-05
7.49524e-05
5.2308e-05
4.83434e-05
4.70539e-05
4.66667e-05
4.72094e-05
4.85323e-05
5.30488e-05
7.30908e-05
7.79941e-05
7.8e-05
7.79761e-05
6.99484e-05
5.02856e-05
4.7851e-05
4.64664e-05
4.60349e-05
4.61756e-05
4.71755e-05
4.91022e-05
6.49068e-05
7.79922e-05
7.8e-05
7.8e-05
7.8e-05
7.8e-05
7.8e-05
7.8e-05
7.8e-05
7.8e-05
7.79997e-05
7.24714e-05
5.20969e-05
4.84335e-05
4.78415e-05
4.82543e-05
5.03981e-05
6.94293e-05
7.79965e-05
7.8e-05
7.8e-05
7.8e-05
7.8e-05
7.8e-05
7.8e-05
7.77236e-05
5.21176e-05
4.67378e-05
4.53563e-05
4.47385e-05
4.44026e-05
4.42066e-05
4.41061e-05
4.40822e-05
4.41344e-05
4.42758e-05
4.45595e-05
4.52025e-05
4.71639e-05
5.75451e-05
7.79745e-05
7.8e-05
7.8e-05
7.8e-05
7.8e-05
7.8e-05
7.8e-05
7.8e-05
7.8e-05
7.8e-05
7.8e-05
7.8e-05
7.8e-05
7.8e-05
7.8e-05
7.8e-05
7.8e-05
7.8e-05
7.8e-05
7.8e-05
7.8e-05
7.8e-05
7.8e-05
7.8e-05
7.8e-05
7.8e-05
7.8e-05
7.8e-05
7.8e-05
7.8e-05
7.79999e-05
6.60527e-05
4.7769e-05
4.53744e-05
4.46437e-05
4.43217e-05
4.41648e-05
4.40887e-05
4.40601e-05
4.40625e-05
4.40888e-05
4.4137e-05
4.4209e-05
4.43114e-05
4.44585e-05
4.46803e-05
4.50418e-05
4.57307e-05
4.76261e-05
5.91863e-05
7.79911e-05
7.8e-05
7.8e-05
7.8e-05
7.8e-05
7.8e-05
7.8e-05
7.8e-05
7.8e-05
7.8e-05
7.8e-05
7.76956e-05
6.6776e-05
5.38762e-05
5.06343e-05
5.53703e-05
6.84821e-05
7.77968e-05
7.8e-05
7.8e-05
7.8e-05
7.8e-05
7.8e-05
7.68546e-05
6.38069e-05
5.06234e-05
4.86858e-05
4.92654e-05
5.76453e-05
7.3662e-05
7.79995e-05
7.8e-05
7.8e-05
7.8e-05
7.8e-05
7.8e-05
7.8e-05
7.8e-05
7.8e-05
7.8e-05
7.8e-05
7.8e-05
7.77107e-05
7.00801e-05
6.38993e-05
6.85755e-05
7.70978e-05
7.8e-05
7.8e-05
7.8e-05
7.8e-05
7.8e-05
7.8e-05
7.8e-05
7.8e-05
7.8e-05
7.74808e-05
5.16761e-05
4.68191e-05
4.53105e-05
4.47096e-05
4.44064e-05
4.42851e-05
4.42962e-05
4.44536e-05
4.47994e-05
4.54742e-05
4.77161e-05
6.22516e-05
7.79885e-05
7.8e-05
7.8e-05
7.8e-05
7.8e-05
7.8e-05
7.8e-05
7.8e-05
7.8e-05
7.8e-05
7.8e-05
7.8e-05
7.8e-05
7.8e-05
7.8e-05
7.8e-05
7.8e-05
7.8e-05
7.8e-05
7.8e-05
7.8e-05
7.8e-05
7.8e-05
7.8e-05
7.8e-05
7.8e-05
7.8e-05
7.8e-05
7.8e-05
7.8e-05
7.8e-05
7.8e-05
7.79995e-05
6.43509e-05
4.76423e-05
4.52902e-05
4.45671e-05
4.42478e-05
4.40753e-05
4.39841e-05
4.39435e-05
4.39433e-05
4.39807e-05
4.40588e-05
4.41873e-05
4.43879e-05
4.47171e-05
4.53094e-05
4.6699e-05
5.27129e-05
7.78193e-05
7.8e-05
7.8e-05
7.8e-05
7.8e-05
7.8e-05
7.8e-05
7.8e-05
7.8e-05
7.8e-05
7.8e-05
7.8e-05
7.8e-05
7.79998e-05
7.78682e-05
7.71748e-05
7.79368e-05
7.79999e-05
7.8e-05
7.8e-05
7.8e-05
7.8e-05
7.8e-05
7.8e-05
7.8e-05
7.79991e-05
7.73229e-05
7.39461e-05
7.60037e-05
7.7983e-05
7.8e-05
7.8e-05
7.8e-05
7.8e-05
7.8e-05
7.8e-05
7.8e-05
7.8e-05
7.8e-05
7.8e-05
7.8e-05
7.8e-05
7.8e-05
7.8e-05
7.8e-05
7.79991e-05
7.8e-05
7.8e-05
7.8e-05
7.8e-05
7.8e-05
7.8e-05
7.8e-05
7.8e-05
7.8e-05
7.8e-05
7.8e-05
7.8e-05
7.77154e-05
5.67507e-05
4.76813e-05
4.58078e-05
4.50786e-05
4.48866e-05
4.49718e-05
4.54884e-05
4.6835e-05
4.93213e-05
7.08826e-05
7.7999e-05
7.8e-05
7.8e-05
7.8e-05
7.8e-05
7.8e-05
7.8e-05
7.8e-05
7.8e-05
7.8e-05
7.8e-05
7.8e-05
7.8e-05
7.8e-05
7.8e-05
7.8e-05
7.8e-05
7.8e-05
7.8e-05
7.8e-05
7.8e-05
7.8e-05
7.8e-05
7.8e-05
7.8e-05
7.8e-05
7.8e-05
7.8e-05
7.8e-05
7.8e-05
7.8e-05
7.8e-05
7.8e-05
7.8e-05
7.79995e-05
6.59713e-05
4.78096e-05
4.535e-05
4.46401e-05
4.42686e-05
4.40744e-05
4.39691e-05
4.39351e-05
4.39642e-05
4.40604e-05
4.42426e-05
4.45486e-05
4.51317e-05
4.64232e-05
5.08249e-05
7.74097e-05
7.8e-05
7.8e-05
7.8e-05
7.8e-05
7.8e-05
7.8e-05
7.8e-05
7.8e-05
7.8e-05
7.8e-05
7.8e-05
7.8e-05
7.8e-05
7.8e-05
7.8e-05
7.8e-05
7.8e-05
7.8e-05
7.8e-05
7.8e-05
7.8e-05
7.8e-05
7.8e-05
7.8e-05
7.8e-05
7.8e-05
7.8e-05
7.8e-05
7.8e-05
7.8e-05
7.8e-05
7.8e-05
7.8e-05
7.8e-05
7.8e-05
7.8e-05
7.8e-05
7.8e-05
7.8e-05
7.8e-05
7.8e-05
7.8e-05
7.8e-05
7.8e-05
7.8e-05
7.8e-05
7.8e-05
7.8e-05
7.8e-05
7.8e-05
7.8e-05
7.8e-05
7.8e-05
7.8e-05
7.8e-05
7.8e-05
7.8e-05
7.8e-05
7.8e-05
7.79824e-05
6.9158e-05
5.1497e-05
4.76779e-05
4.72435e-05
4.75543e-05
5.0356e-05
6.50737e-05
7.72377e-05
7.8e-05
7.8e-05
7.8e-05
7.8e-05
7.8e-05
7.8e-05
7.8e-05
7.8e-05
7.8e-05
7.8e-05
7.8e-05
7.8e-05
7.8e-05
7.8e-05
7.8e-05
7.8e-05
7.8e-05
7.8e-05
7.8e-05
7.8e-05
7.8e-05
7.8e-05
7.8e-05
7.8e-05
7.8e-05
7.8e-05
7.8e-05
7.8e-05
7.8e-05
7.8e-05
7.8e-05
7.8e-05
7.8e-05
7.8e-05
7.8e-05
7.8e-05
7.79999e-05
7.09744e-05
4.84827e-05
4.60955e-05
4.49267e-05
4.44794e-05
4.42223e-05
4.41264e-05
4.41476e-05
4.42904e-05
4.46163e-05
4.52007e-05
4.6854e-05
5.24308e-05
7.74393e-05
7.8e-05
7.8e-05
7.8e-05
7.8e-05
7.8e-05
7.8e-05
7.8e-05
7.8e-05
7.8e-05
7.8e-05
7.8e-05
7.8e-05
7.8e-05
7.8e-05
7.8e-05
7.8e-05
7.8e-05
7.8e-05
7.8e-05
7.8e-05
7.8e-05
7.8e-05
7.8e-05
7.8e-05
7.8e-05
7.8e-05
7.8e-05
7.8e-05
7.8e-05
7.8e-05
7.8e-05
7.8e-05
7.8e-05
7.8e-05
7.8e-05
7.8e-05
7.8e-05
7.8e-05
7.8e-05
7.8e-05
7.8e-05
7.8e-05
7.8e-05
7.8e-05
7.8e-05
7.8e-05
7.8e-05
7.8e-05
7.8e-05
7.8e-05
7.8e-05
7.8e-05
7.8e-05
7.8e-05
7.8e-05
7.8e-05
7.8e-05
7.8e-05
7.8e-05
7.8e-05
7.8e-05
7.8e-05
7.77963e-05
7.29933e-05
6.9849e-05
7.30116e-05
7.76534e-05
7.79998e-05
7.8e-05
7.8e-05
7.8e-05
7.8e-05
7.8e-05
7.8e-05
7.8e-05
7.8e-05
7.8e-05
7.8e-05
7.8e-05
7.8e-05
7.8e-05
7.8e-05
7.8e-05
7.8e-05
7.8e-05
7.8e-05
7.8e-05
7.8e-05
7.8e-05
7.8e-05
7.8e-05
7.8e-05
7.8e-05
7.8e-05
7.8e-05
7.8e-05
7.8e-05
7.8e-05
7.8e-05
7.8e-05
7.8e-05
7.8e-05
7.8e-05
7.8e-05
7.8e-05
7.8e-05
7.8e-05
7.62341e-05
5.63768e-05
4.74992e-05
4.59764e-05
4.50134e-05
4.47513e-05
4.47613e-05
4.50419e-05
4.60449e-05
4.78468e-05
6.01662e-05
7.78557e-05
7.8e-05
7.8e-05
7.8e-05
7.8e-05
7.8e-05
7.8e-05
7.8e-05
7.8e-05
7.8e-05
7.8e-05
7.8e-05
7.8e-05
7.8e-05
7.8e-05
7.8e-05
7.8e-05
7.8e-05
7.8e-05
7.8e-05
7.8e-05
7.8e-05
7.8e-05
7.8e-05
7.8e-05
7.8e-05
7.8e-05
7.8e-05
7.8e-05
7.8e-05
7.8e-05
7.8e-05
7.8e-05
7.8e-05
7.8e-05
7.8e-05
7.8e-05
7.8e-05
7.8e-05
7.8e-05
7.8e-05
7.8e-05
7.8e-05
7.8e-05
7.8e-05
7.8e-05
7.8e-05
7.8e-05
7.8e-05
7.8e-05
7.8e-05
7.8e-05
7.8e-05
7.8e-05
7.8e-05
7.8e-05
7.8e-05
7.8e-05
7.8e-05
7.8e-05
7.8e-05
7.8e-05
7.8e-05
7.8e-05
7.8e-05
7.8e-05
7.8e-05
7.8e-05
7.8e-05
7.8e-05
7.8e-05
7.8e-05
7.8e-05
7.8e-05
7.8e-05
7.8e-05
7.8e-05
7.8e-05
7.8e-05
7.8e-05
7.8e-05
7.8e-05
7.8e-05
7.8e-05
7.8e-05
7.8e-05
7.8e-05
7.8e-05
7.8e-05
7.8e-05
7.8e-05
7.8e-05
7.8e-05
7.8e-05
7.8e-05
7.8e-05
7.8e-05
7.8e-05
7.8e-05
7.8e-05
7.8e-05
7.8e-05
7.8e-05
7.8e-05
7.8e-05
7.8e-05
7.8e-05
7.8e-05
7.8e-05
7.8e-05
7.79857e-05
7.15151e-05
5.652e-05
4.80787e-05
4.72037e-05
4.71826e-05
4.79511e-05
5.58605e-05
7.22084e-05
7.79971e-05
7.8e-05
7.8e-05
7.8e-05
7.8e-05
7.8e-05
7.8e-05
7.8e-05
7.8e-05
7.8e-05
7.8e-05
7.8e-05
7.8e-05
7.8e-05
7.8e-05
7.8e-05
7.8e-05
7.8e-05
7.8e-05
7.8e-05
7.8e-05
7.8e-05
7.8e-05
7.8e-05
7.8e-05
7.8e-05
7.8e-05
7.8e-05
7.8e-05
7.8e-05
7.8e-05
7.8e-05
7.8e-05
7.8e-05
7.8e-05
7.8e-05
7.8e-05
7.8e-05
7.8e-05
7.8e-05
7.8e-05
7.8e-05
7.8e-05
7.8e-05
7.8e-05
7.8e-05
7.8e-05
7.8e-05
7.8e-05
7.8e-05
7.8e-05
7.8e-05
7.8e-05
7.8e-05
7.8e-05
7.8e-05
7.8e-05
7.8e-05
7.8e-05
7.8e-05
7.8e-05
7.8e-05
7.8e-05
7.8e-05
7.8e-05
7.8e-05
7.8e-05
7.8e-05
7.8e-05
7.8e-05
7.8e-05
7.8e-05
7.8e-05
7.8e-05
7.8e-05
7.8e-05
7.8e-05
7.8e-05
7.8e-05
7.8e-05
7.8e-05
7.8e-05
7.8e-05
7.8e-05
7.8e-05
7.8e-05
7.8e-05
7.8e-05
7.8e-05
7.8e-05
7.8e-05
7.8e-05
7.8e-05
7.8e-05
7.8e-05
7.8e-05
7.8e-05
7.8e-05
7.8e-05
7.8e-05
7.8e-05
7.8e-05
7.8e-05
7.8e-05
7.8e-05
7.8e-05
7.8e-05
7.8e-05
7.8e-05
7.8e-05
7.8e-05
7.8e-05
7.8e-05
7.79861e-05
7.61686e-05
7.1709e-05
7.1198e-05
7.55379e-05
7.79797e-05
7.8e-05
7.8e-05
7.8e-05
7.8e-05
7.8e-05
7.8e-05
7.8e-05
7.8e-05
7.8e-05
7.8e-05
7.8e-05
7.8e-05
7.8e-05
7.8e-05
7.8e-05
7.8e-05
7.8e-05
7.8e-05
7.8e-05
7.8e-05
7.8e-05
7.8e-05
7.8e-05
7.8e-05
7.8e-05
7.8e-05
7.8e-05
7.8e-05
7.8e-05
7.8e-05
7.8e-05
7.8e-05
7.8e-05
7.8e-05
7.8e-05
7.8e-05
7.8e-05
7.8e-05
7.8e-05
7.8e-05
7.8e-05
7.8e-05
7.8e-05
7.8e-05
7.8e-05
7.8e-05
7.8e-05
7.8e-05
7.8e-05
7.8e-05
7.8e-05
7.8e-05
7.8e-05
7.8e-05
7.8e-05
7.8e-05
7.8e-05
7.8e-05
7.8e-05
7.8e-05
7.8e-05
7.8e-05
7.8e-05
7.8e-05
7.8e-05
7.8e-05
7.8e-05
7.8e-05
7.8e-05
7.8e-05
7.8e-05
7.8e-05
7.8e-05
7.8e-05
7.8e-05
7.8e-05
7.8e-05
7.8e-05
7.8e-05
7.8e-05
7.8e-05
7.8e-05
7.8e-05
7.8e-05
7.8e-05
7.8e-05
7.8e-05
7.8e-05
7.8e-05
7.8e-05
7.8e-05
7.8e-05
7.8e-05
7.8e-05
7.8e-05
7.8e-05
7.8e-05
7.8e-05
7.8e-05
7.8e-05
7.8e-05
7.8e-05
7.8e-05
7.8e-05
7.8e-05
7.8e-05
7.8e-05
7.8e-05
7.8e-05
7.8e-05
7.8e-05
7.8e-05
7.8e-05
7.8e-05
7.8e-05
7.8e-05
7.8e-05
7.8e-05
7.8e-05
7.8e-05
7.8e-05
7.8e-05
7.8e-05
7.8e-05
7.8e-05
7.8e-05
7.8e-05
7.8e-05
7.8e-05
7.8e-05
7.8e-05
7.8e-05
7.8e-05
7.8e-05
7.8e-05
7.8e-05
7.8e-05
7.8e-05
7.8e-05
7.8e-05
7.8e-05
7.8e-05
7.8e-05
7.8e-05
7.8e-05
7.8e-05
7.8e-05
7.8e-05
7.8e-05
7.8e-05
7.8e-05
7.8e-05
7.8e-05
7.8e-05
7.8e-05
7.8e-05
7.8e-05
7.8e-05
7.8e-05
7.8e-05
7.8e-05
7.8e-05
7.8e-05
7.8e-05
7.8e-05
7.8e-05
7.8e-05
7.8e-05
7.8e-05
7.8e-05
7.8e-05
7.8e-05
7.8e-05
7.8e-05
7.8e-05
7.8e-05
7.8e-05
7.8e-05
7.8e-05
7.8e-05
7.8e-05
7.8e-05
7.8e-05
7.8e-05
7.8e-05
7.8e-05
7.8e-05
7.8e-05
7.8e-05
7.8e-05
7.8e-05
7.8e-05
7.8e-05
7.8e-05
7.8e-05
7.8e-05
7.8e-05
7.8e-05
7.8e-05
7.8e-05
7.8e-05
7.8e-05
7.8e-05
7.8e-05
7.8e-05
7.8e-05
7.8e-05
7.8e-05
7.8e-05
7.8e-05
7.8e-05
7.8e-05
7.8e-05
7.8e-05
7.8e-05
7.8e-05
7.8e-05
7.8e-05
7.8e-05
7.8e-05
7.8e-05
7.8e-05
7.8e-05
7.8e-05
7.8e-05
7.8e-05
7.8e-05
7.8e-05
7.8e-05
7.8e-05
7.8e-05
7.8e-05
7.8e-05
7.8e-05
7.8e-05
7.8e-05
7.8e-05
7.8e-05
7.8e-05
7.8e-05
7.8e-05
7.8e-05
7.8e-05
7.8e-05
7.8e-05
7.8e-05
7.8e-05
7.8e-05
7.8e-05
7.8e-05
7.8e-05
7.8e-05
7.8e-05
7.8e-05
7.8e-05
7.8e-05
7.8e-05
7.8e-05
7.8e-05
7.8e-05
7.8e-05
7.8e-05
7.8e-05
7.8e-05
7.8e-05
7.8e-05
7.8e-05
7.8e-05
7.8e-05
7.8e-05
7.8e-05
7.8e-05
7.8e-05
7.8e-05
7.8e-05
7.8e-05
7.8e-05
7.8e-05
7.8e-05
7.8e-05
7.8e-05
7.8e-05
7.8e-05
7.8e-05
7.8e-05
7.8e-05
7.8e-05
7.8e-05
7.8e-05
7.8e-05
7.8e-05
7.8e-05
7.8e-05
7.8e-05
7.8e-05
7.8e-05
7.8e-05
7.8e-05
7.8e-05
7.8e-05
7.8e-05
7.8e-05
7.8e-05
7.8e-05
7.8e-05
7.8e-05
7.8e-05
7.8e-05
7.8e-05
7.8e-05
7.8e-05
7.8e-05
7.8e-05
7.8e-05
7.8e-05
7.8e-05
7.8e-05
7.8e-05
7.8e-05
7.8e-05
7.8e-05
7.8e-05
7.8e-05
7.8e-05
7.8e-05
7.8e-05
7.8e-05
7.8e-05
7.8e-05
7.8e-05
7.8e-05
7.8e-05
7.8e-05
7.8e-05
7.8e-05
7.8e-05
7.8e-05
7.8e-05
7.8e-05
7.8e-05
7.8e-05
7.8e-05
7.8e-05
7.8e-05
7.8e-05
7.8e-05
7.8e-05
7.8e-05
7.8e-05
7.8e-05
7.8e-05
7.8e-05
7.8e-05
7.8e-05
7.8e-05
7.8e-05
7.8e-05
7.8e-05
7.8e-05
7.8e-05
7.8e-05
7.8e-05
7.8e-05
7.8e-05
7.8e-05
7.8e-05
7.8e-05
7.8e-05
7.8e-05
7.8e-05
7.8e-05
7.8e-05
7.8e-05
7.8e-05
7.8e-05
7.8e-05
7.8e-05
7.8e-05
7.8e-05
7.8e-05
7.8e-05
7.8e-05
7.8e-05
7.8e-05
7.8e-05
7.8e-05
7.8e-05
7.8e-05
7.8e-05
7.8e-05
7.8e-05
7.8e-05
7.8e-05
7.8e-05
7.8e-05
7.8e-05
7.8e-05
7.8e-05
7.8e-05
7.8e-05
7.8e-05
7.8e-05
7.8e-05
7.8e-05
7.8e-05
7.8e-05
7.8e-05
7.8e-05
7.8e-05
7.8e-05
7.8e-05
7.8e-05
7.8e-05
7.8e-05
7.8e-05
7.8e-05
7.8e-05
7.8e-05
7.8e-05
7.8e-05
7.8e-05
7.8e-05
7.8e-05
7.8e-05
7.8e-05
7.8e-05
7.8e-05
7.8e-05
7.8e-05
7.8e-05
7.8e-05
7.8e-05
7.8e-05
7.8e-05
7.8e-05
7.8e-05
7.8e-05
7.8e-05
7.8e-05
7.8e-05
7.8e-05
7.8e-05
7.8e-05
7.8e-05
7.8e-05
7.8e-05
7.8e-05
7.8e-05
7.8e-05
7.8e-05
7.8e-05
7.8e-05
7.8e-05
7.8e-05
7.8e-05
7.8e-05
7.8e-05
7.8e-05
7.8e-05
7.8e-05
7.8e-05
7.8e-05
7.8e-05
7.8e-05
7.8e-05
7.8e-05
7.8e-05
7.8e-05
7.8e-05
7.8e-05
7.8e-05
7.8e-05
7.8e-05
7.8e-05
7.8e-05
7.8e-05
7.8e-05
7.8e-05
7.8e-05
7.8e-05
7.8e-05
7.8e-05
7.8e-05
7.8e-05
7.8e-05
7.8e-05
7.8e-05
7.8e-05
7.8e-05
7.8e-05
7.8e-05
7.8e-05
7.8e-05
7.8e-05
7.8e-05
7.8e-05
7.8e-05
7.8e-05
7.8e-05
7.8e-05
7.8e-05
7.8e-05
7.8e-05
7.8e-05
7.8e-05
7.8e-05
7.8e-05
7.8e-05
7.8e-05
7.8e-05
7.8e-05
7.8e-05
7.8e-05
7.8e-05
7.8e-05
7.8e-05
7.8e-05
7.8e-05
7.8e-05
7.8e-05
7.8e-05
7.8e-05
7.8e-05
7.8e-05
7.8e-05
7.8e-05
7.8e-05
7.8e-05
7.8e-05
7.8e-05
7.8e-05
7.8e-05
7.8e-05
7.8e-05
7.8e-05
7.8e-05
7.8e-05
7.8e-05
7.8e-05
7.8e-05
7.8e-05
7.8e-05
7.8e-05
7.8e-05
7.8e-05
7.8e-05
7.8e-05
7.8e-05
7.8e-05
7.8e-05
7.8e-05
7.8e-05
7.8e-05
7.8e-05
7.8e-05
7.8e-05
7.8e-05
7.8e-05
7.8e-05
7.8e-05
7.8e-05
7.8e-05
7.8e-05
7.8e-05
7.8e-05
7.8e-05
7.8e-05
7.8e-05
7.8e-05
7.8e-05
7.8e-05
7.8e-05
7.8e-05
7.8e-05
7.8e-05
7.8e-05
7.8e-05
7.8e-05
7.8e-05
7.8e-05
7.8e-05
7.8e-05
7.8e-05
7.8e-05
7.8e-05
7.8e-05
7.8e-05
7.8e-05
7.8e-05
7.8e-05
7.8e-05
7.8e-05
7.8e-05
7.8e-05
7.8e-05
7.8e-05
7.8e-05
7.8e-05
7.8e-05
7.8e-05
7.8e-05
7.8e-05
7.8e-05
7.8e-05
7.8e-05
7.8e-05
7.8e-05
7.8e-05
7.8e-05
7.8e-05
7.8e-05
7.8e-05
7.8e-05
7.8e-05
7.8e-05
7.8e-05
7.8e-05
7.8e-05
7.8e-05
7.8e-05
7.8e-05
7.8e-05
7.8e-05
7.8e-05
7.8e-05
7.8e-05
7.8e-05
7.8e-05
7.8e-05
7.8e-05
7.8e-05
7.8e-05
7.8e-05
7.8e-05
7.8e-05
7.8e-05
7.8e-05
7.8e-05
7.8e-05
7.8e-05
7.8e-05
7.8e-05
7.8e-05
7.8e-05
7.8e-05
7.8e-05
7.8e-05
7.8e-05
7.8e-05
7.8e-05
7.8e-05
7.8e-05
7.8e-05
7.8e-05
7.8e-05
7.8e-05
7.8e-05
7.8e-05
7.8e-05
7.8e-05
7.8e-05
7.8e-05
7.8e-05
7.8e-05
7.8e-05
7.8e-05
7.8e-05
7.8e-05
7.8e-05
7.8e-05
7.8e-05
7.8e-05
7.8e-05
7.8e-05
7.8e-05
7.8e-05
7.8e-05
7.8e-05
7.8e-05
7.8e-05
7.8e-05
7.8e-05
7.8e-05
7.8e-05
7.8e-05
7.8e-05
7.8e-05
7.8e-05
7.8e-05
7.8e-05
7.8e-05
7.8e-05
7.8e-05
7.8e-05
7.8e-05
7.8e-05
7.8e-05
7.8e-05
7.8e-05
7.8e-05
7.8e-05
7.8e-05
7.8e-05
7.8e-05
7.8e-05
7.8e-05
7.8e-05
7.8e-05
7.8e-05
7.8e-05
7.8e-05
7.8e-05
7.8e-05
7.8e-05
7.8e-05
7.8e-05
7.8e-05
7.8e-05
7.8e-05
7.8e-05
7.8e-05
7.8e-05
7.8e-05
7.8e-05
7.8e-05
7.8e-05
7.8e-05
7.8e-05
7.8e-05
7.8e-05
7.8e-05
7.8e-05
7.8e-05
7.8e-05
7.8e-05
7.8e-05
7.8e-05
7.8e-05
7.8e-05
7.8e-05
7.8e-05
7.8e-05
7.8e-05
7.8e-05
7.8e-05
7.8e-05
7.8e-05
7.8e-05
7.8e-05
7.8e-05
7.8e-05
7.8e-05
7.8e-05
7.8e-05
7.8e-05
7.8e-05
7.8e-05
7.8e-05
7.8e-05
7.8e-05
7.8e-05
7.8e-05
7.8e-05
7.8e-05
7.8e-05
7.8e-05
7.8e-05
7.8e-05
7.8e-05
7.8e-05
7.8e-05
7.8e-05
7.8e-05
7.8e-05
7.8e-05
7.8e-05
7.8e-05
7.8e-05
7.8e-05
7.8e-05
7.8e-05
7.8e-05
7.8e-05
7.8e-05
7.8e-05
7.8e-05
7.8e-05
7.8e-05
7.8e-05
7.8e-05
7.8e-05
7.8e-05
7.8e-05
7.8e-05
7.8e-05
7.8e-05
7.8e-05
7.8e-05
7.8e-05
7.8e-05
7.8e-05
7.8e-05
7.8e-05
7.8e-05
7.8e-05
7.8e-05
7.8e-05
7.8e-05
7.8e-05
7.8e-05
7.8e-05
7.8e-05
7.8e-05
7.8e-05
7.8e-05
7.8e-05
7.8e-05
7.8e-05
7.8e-05
7.8e-05
7.8e-05
7.8e-05
7.8e-05
7.8e-05
7.8e-05
7.8e-05
7.8e-05
7.8e-05
7.8e-05
7.8e-05
7.8e-05
7.8e-05
7.8e-05
7.8e-05
7.8e-05
7.8e-05
7.8e-05
7.8e-05
7.8e-05
7.8e-05
7.8e-05
7.8e-05
7.8e-05
7.8e-05
7.8e-05
7.8e-05
7.8e-05
7.8e-05
7.8e-05
7.8e-05
7.8e-05
7.8e-05
7.8e-05
7.8e-05
7.8e-05
7.8e-05
7.8e-05
7.8e-05
7.8e-05
7.8e-05
7.8e-05
7.8e-05
7.8e-05
7.8e-05
7.8e-05
7.8e-05
7.8e-05
7.8e-05
7.8e-05
7.8e-05
7.8e-05
7.8e-05
7.8e-05
7.8e-05
7.8e-05
7.8e-05
7.8e-05
7.8e-05
7.8e-05
7.8e-05
7.8e-05
7.8e-05
7.8e-05
7.8e-05
7.8e-05
7.8e-05
7.8e-05
7.8e-05
7.8e-05
7.8e-05
7.8e-05
7.8e-05
7.8e-05
7.8e-05
7.8e-05
7.8e-05
7.8e-05
7.8e-05
7.8e-05
7.8e-05
7.8e-05
7.8e-05
7.8e-05
7.8e-05
7.8e-05
7.8e-05
7.8e-05
7.8e-05
7.8e-05
7.8e-05
7.8e-05
7.8e-05
7.8e-05
7.8e-05
7.8e-05
7.8e-05
7.8e-05
7.8e-05
7.8e-05
7.8e-05
7.8e-05
7.8e-05
7.8e-05
7.8e-05
7.8e-05
7.8e-05
7.8e-05
7.8e-05
7.8e-05
7.8e-05
7.8e-05
7.8e-05
7.8e-05
7.8e-05
7.8e-05
7.8e-05
7.8e-05
7.8e-05
7.8e-05
7.8e-05
7.8e-05
7.8e-05
7.8e-05
7.8e-05
7.8e-05
7.8e-05
7.8e-05
7.8e-05
7.8e-05
7.8e-05
7.8e-05
7.8e-05
7.8e-05
7.8e-05
7.8e-05
7.8e-05
7.8e-05
7.8e-05
7.8e-05
7.8e-05
7.8e-05
7.8e-05
7.8e-05
7.8e-05
7.8e-05
7.8e-05
7.8e-05
7.8e-05
7.8e-05
7.8e-05
7.8e-05
7.8e-05
7.8e-05
7.8e-05
7.8e-05
7.8e-05
7.8e-05
7.8e-05
7.8e-05
7.8e-05
7.8e-05
7.8e-05
7.8e-05
7.8e-05
7.8e-05
7.8e-05
7.8e-05
7.8e-05
7.8e-05
7.8e-05
7.8e-05
7.8e-05
7.8e-05
7.8e-05
7.8e-05
7.8e-05
7.8e-05
7.8e-05
7.8e-05
7.8e-05
7.8e-05
7.8e-05
7.8e-05
7.8e-05
7.8e-05
7.8e-05
7.8e-05
7.8e-05
7.8e-05
7.8e-05
7.8e-05
7.8e-05
7.8e-05
7.8e-05
7.8e-05
7.8e-05
7.8e-05
7.8e-05
7.8e-05
7.8e-05
7.8e-05
7.8e-05
7.8e-05
7.8e-05
7.8e-05
7.8e-05
7.8e-05
7.8e-05
7.8e-05
7.8e-05
7.8e-05
7.8e-05
7.8e-05
7.8e-05
7.8e-05
7.8e-05
7.8e-05
7.8e-05
7.8e-05
7.8e-05
7.8e-05
7.8e-05
7.8e-05
7.8e-05
7.8e-05
7.8e-05
7.8e-05
7.8e-05
7.8e-05
7.8e-05
7.8e-05
7.8e-05
7.8e-05
7.8e-05
7.8e-05
7.8e-05
7.8e-05
7.8e-05
7.8e-05
7.8e-05
7.8e-05
7.8e-05
7.8e-05
7.8e-05
7.8e-05
7.8e-05
7.8e-05
7.8e-05
7.8e-05
7.8e-05
7.8e-05
7.8e-05
7.8e-05
7.8e-05
7.8e-05
7.8e-05
7.8e-05
7.8e-05
7.8e-05
7.8e-05
7.8e-05
7.8e-05
7.8e-05
7.8e-05
7.8e-05
7.8e-05
7.8e-05
7.8e-05
7.8e-05
7.8e-05
7.8e-05
7.8e-05
7.8e-05
7.8e-05
7.8e-05
7.8e-05