/*--------------------------------*- C++ -*----------------------------------*\
| =========                 |                                                 |
| \\      /  F ield         | OpenFOAM: The Open Source CFD Toolbox           |
|  \\    /   O peration     | Version:  2406                                  |
|   \\  /    A nd           | Website:  www.openfoam.com                      |
|    \\/     M anipulation  |                                                 |
\*---------------------------------------------------------------------------*/
FoamFile
{
    version     2.0;
    format      ascii;
    arch        "LSB;label=32;scalar=64";
    class       volScalarField;
    location    "3.8";
    object      C_0;
}
// * * * * * * * * * * * * * * * * * * * * * * * * * * * * * * * * * * * * * //

dimensions      [1 -3 0 0 0 0 0];

internalField   nonuniform List<scalar> 
14400
(
0.487702
0.477576
0.464147
0.451108
0.44023
0.432518
0.428584
0.428789
0.433313
0.442176
0.455232
0.47213
0.492203
0.514155
0.53512
0.546881
0.545114
0.531095
0.511914
0.494359
0.48037
0.47096
0.46681
0.468442
0.476289
0.490742
0.512165
0.540906
0.577274
0.621473
0.673418
0.732204
0.794108
0.839152
0.86857
0.894005
0.916412
0.936148
0.95349
0.968655
0.981813
0.9931
1.00262
1.01047
1.01671
1.0214
1.02456
1.02624
1.02644
1.02517
1.02243
1.01821
1.01247
1.00519
0.996307
0.985771
0.9735
0.959395
0.943335
0.925171
0.904714
0.88173
0.855923
0.826919
0.78949
0.734167
0.668248
0.608043
0.555416
0.510475
0.47296
0.442509
0.41875
0.401343
0.389994
0.384469
0.384584
0.390205
0.401239
0.417616
0.439254
0.465995
0.497436
0.532306
0.565013
0.585881
0.596222
0.600919
0.600165
0.593763
0.578166
0.551678
0.522262
0.49561
0.47298
0.454768
0.441041
0.431653
0.426263
0.424322
0.425034
0.427327
0.429849
0.431176
0.430475
0.428618
0.427064
0.427196
0.430125
0.436682
0.447464
0.462864
0.483091
0.508149
0.537712
0.570552
0.60069
0.619535
0.629166
0.633831
0.5042
0.492728
0.477443
0.463088
0.451294
0.442964
0.438665
0.438739
0.443352
0.452519
0.466099
0.483759
0.504876
0.528118
0.548761
0.557684
0.556747
0.544414
0.524641
0.506185
0.491396
0.481356
0.476758
0.47812
0.485871
0.500394
0.522049
0.551178
0.588093
0.633026
0.685937
0.745686
0.803676
0.84373
0.872062
0.897033
0.919083
0.938542
0.955667
0.970661
0.983683
0.994862
1.0043
1.01208
1.01827
1.02291
1.02605
1.02771
1.02791
1.02664
1.02392
1.01972
1.01402
1.00678
0.997964
0.987507
0.975333
0.961349
0.94544
0.927463
0.907241
0.884553
0.859118
0.830568
0.796197
0.744978
0.679365
0.618724
0.565468
0.519915
0.48187
0.450986
0.426896
0.409261
0.39779
0.392248
0.39245
0.398265
0.409596
0.426373
0.448514
0.475862
0.508019
0.543629
0.574318
0.592142
0.601862
0.606368
0.605812
0.600091
0.587686
0.563742
0.533932
0.506734
0.483627
0.465091
0.45124
0.441962
0.436951
0.435686
0.437394
0.440978
0.444867
0.44699
0.445479
0.442244
0.439393
0.438524
0.440768
0.446938
0.457598
0.473109
0.493642
0.519153
0.549239
0.582472
0.609745
0.625193
0.63413
0.638495
0.529288
0.520369
0.503152
0.486728
0.473303
0.463815
0.458824
0.458647
0.463438
0.473195
0.487765
0.506787
0.529567
0.554133
0.570798
0.576448
0.576329
0.568782
0.54977
0.529736
0.513435
0.502179
0.496706
0.49754
0.505104
0.519769
0.54188
0.571756
0.609682
0.655869
0.710149
0.7703
0.818772
0.85175
0.878907
0.902982
0.924344
0.94327
0.959976
0.974639
0.987397
0.998365
1.00764
1.01528
1.02137
1.02594
1.02902
1.03065
1.03083
1.02958
1.02688
1.02273
1.0171
1.00996
1.00126
0.990959
0.978976
0.965229
0.949613
0.931999
0.912233
0.890122
0.86543
0.837863
0.806994
0.763663
0.701546
0.640199
0.58567
0.538895
0.499797
0.468054
0.443305
0.425215
0.4135
0.407924
0.408304
0.414503
0.426424
0.44399
0.467104
0.495557
0.528761
0.56444
0.590005
0.604012
0.612713
0.616882
0.616622
0.61196
0.602877
0.585304
0.556789
0.528891
0.504897
0.485723
0.471612
0.462535
0.458251
0.458307
0.461993
0.468277
0.475319
0.479629
0.4759
0.469493
0.463927
0.46107
0.461979
0.467405
0.477843
0.493585
0.514718
0.54106
0.571742
0.60347
0.624025
0.635881
0.643667
0.647525
0.558062
0.554113
0.539923
0.521513
0.506051
0.494986
0.489038
0.488516
0.493576
0.504175
0.520115
0.540831
0.565139
0.586592
0.596501
0.600668
0.601176
0.597975
0.585571
0.564576
0.546409
0.533463
0.526735
0.526808
0.53411
0.548994
0.571778
0.602728
0.641999
0.689654
0.744847
0.798258
0.835124
0.8634
0.888835
0.911644
0.932041
0.950216
0.96633
0.98052
0.9929
1.00356
1.01259
1.02005
1.02598
1.03044
1.03345
1.03503
1.0352
1.03395
1.0313
1.02722
1.02169
1.01469
1.00617
0.99609
0.984384
0.970978
0.955783
0.938689
0.919569
0.898272
0.874617
0.848398
0.819382
0.785004
0.73471
0.672476
0.616086
0.56756
0.526943
0.493937
0.468209
0.449439
0.437354
0.431728
0.432377
0.439153
0.451948
0.470672
0.495188
0.525161
0.559532
0.591341
0.609379
0.620613
0.628098
0.631823
0.631836
0.628215
0.621113
0.610352
0.590174
0.561904
0.536683
0.516594
0.502075
0.493248
0.489967
0.491879
0.49832
0.508572
0.520424
0.525239
0.520956
0.509707
0.500158
0.49453
0.493562
0.497957
0.508112
0.524221
0.546216
0.573714
0.604659
0.627526
0.640848
0.650587
0.657132
0.660412
0.589464
0.587876
0.581428
0.565982
0.549093
0.536256
0.529209
0.528271
0.533699
0.545326
0.562855
0.584781
0.607058
0.619305
0.624994
0.628546
0.629637
0.628285
0.623622
0.609503
0.590063
0.575168
0.566901
0.566032
0.573024
0.58821
0.611876
0.644205
0.684931
0.733542
0.78632
0.824305
0.852186
0.87789
0.901389
0.922716
0.941959
0.959222
0.974608
0.988212
1.00012
1.0104
1.01912
1.02633
1.03208
1.03639
1.0393
1.04082
1.04097
1.03974
1.03714
1.03315
1.02775
1.02093
1.01264
1.00285
0.991491
0.978517
0.96385
0.947405
0.929084
0.908778
0.886368
0.861731
0.834751
0.805349
0.76802
0.713869
0.656418
0.606023
0.563571
0.52895
0.501938
0.482261
0.469679
0.463989
0.465001
0.472542
0.486477
0.506687
0.532932
0.5644
0.598172
0.619567
0.631708
0.640962
0.647243
0.650477
0.650682
0.647954
0.642487
0.634619
0.623389
0.603966
0.578371
0.557412
0.54238
0.533816
0.531685
0.535758
0.544941
0.558555
0.565946
0.567634
0.566407
0.559577
0.546649
0.538264
0.535101
0.538309
0.548157
0.564723
0.587508
0.615253
0.636962
0.650459
0.660594
0.668486
0.673862
0.676579
0.622453
0.621525
0.619865
0.613518
0.600999
0.586912
0.578969
0.577538
0.583463
0.596046
0.614773
0.633376
0.645173
0.650935
0.655621
0.658886
0.660539
0.660623
0.659417
0.654868
0.642783
0.626839
0.617063
0.615204
0.621902
0.637458
0.662145
0.696142
0.737771
0.784739
0.820382
0.846561
0.87134
0.894583
0.916116
0.935873
0.953858
0.970106
0.984668
0.997601
1.00896
1.0188
1.02716
1.03408
1.03961
1.04375
1.04654
1.048
1.04812
1.04691
1.04437
1.04049
1.03525
1.02864
1.02062
1.01116
1.00022
0.98775
0.973696
0.957996
0.940583
0.921389
0.900347
0.877405
0.85254
0.825791
0.797289
0.759308
0.705755
0.654303
0.609983
0.573459
0.544891
0.524077
0.510863
0.505096
0.506576
0.515057
0.530344
0.552265
0.580412
0.612513
0.63489
0.647149
0.65679
0.664283
0.669436
0.672161
0.672461
0.67043
0.666264
0.660279
0.652942
0.643138
0.627398
0.607076
0.591795
0.583556
0.582445
0.588487
0.598132
0.60381
0.604619
0.604584
0.60507
0.604756
0.599674
0.590825
0.585634
0.587776
0.597241
0.613982
0.636015
0.653604
0.665296
0.674568
0.682581
0.688903
0.693251
0.695463
0.65637
0.655903
0.655123
0.654334
0.650655
0.643927
0.636715
0.634656
0.641242
0.653442
0.665343
0.674037
0.678948
0.683618
0.687668
0.690837
0.693011
0.694251
0.694798
0.695059
0.692962
0.686142
0.67621
0.673852
0.680436
0.696346
0.72172
0.757039
0.793457
0.823707
0.847074
0.869953
0.892031
0.912987
0.932617
0.950803
0.967493
0.982674
0.996357
1.00856
1.01933
1.02867
1.03663
1.04324
1.04851
1.05247
1.05512
1.0565
1.05659
1.0554
1.05294
1.04918
1.04412
1.03775
1.03003
1.02095
1.01048
0.998566
0.985187
0.970299
0.953863
0.935846
0.916226
0.895003
0.872213
0.847956
0.822416
0.795818
0.760021
0.711697
0.66632
0.627734
0.597453
0.575273
0.56127
0.555418
0.5575
0.567057
0.583715
0.607088
0.635779
0.656104
0.667587
0.676478
0.684022
0.689943
0.694057
0.696268
0.69657
0.695043
0.691858
0.68729
0.681723
0.675656
0.668761
0.658398
0.647539
0.640174
0.639034
0.640953
0.642866
0.641808
0.641092
0.641008
0.641545
0.642733
0.644321
0.643042
0.641936
0.644064
0.652575
0.664791
0.676595
0.685016
0.692695
0.699938
0.706259
0.711291
0.714777
0.716558
0.690755
0.690592
0.690383
0.690362
0.690884
0.69108
0.689977
0.690676
0.69492
0.700751
0.705246
0.70891
0.71293
0.71692
0.720597
0.723782
0.726416
0.728572
0.730464
0.732447
0.735019
0.737288
0.737424
0.7394
0.746538
0.762543
0.786021
0.811029
0.83363
0.853595
0.87393
0.894146
0.913843
0.932718
0.95056
0.967228
0.982637
0.996741
1.00952
1.02097
1.0311
1.03993
1.04746
1.05372
1.05872
1.06248
1.06499
1.06628
1.06634
1.06518
1.0628
1.05918
1.05432
1.0482
1.04082
1.03215
1.02216
1.01085
0.998187
0.984149
0.968724
0.951907
0.933709
0.914166
0.893355
0.871403
0.848509
0.824953
0.801046
0.770118
0.731194
0.691352
0.659772
0.636017
0.621048
0.615099
0.617974
0.628587
0.645906
0.668536
0.684293
0.693289
0.700507
0.707154
0.712876
0.717411
0.72058
0.722285
0.722509
0.721313
0.718836
0.715299
0.711005
0.706328
0.701703
0.697576
0.692509
0.68771
0.684798
0.682235
0.679429
0.677758
0.676931
0.676811
0.677369
0.678653
0.680822
0.684194
0.687462
0.69123
0.697033
0.703213
0.708576
0.714499
0.720529
0.726229
0.731227
0.735226
0.738009
0.739434
0.725303
0.725328
0.725457
0.725843
0.72669
0.728197
0.730555
0.733108
0.735264
0.737401
0.740168
0.743413
0.746941
0.750535
0.754017
0.757279
0.760299
0.763157
0.76604
0.769243
0.773176
0.778373
0.78547
0.792762
0.802555
0.816598
0.832908
0.848737
0.865405
0.882952
0.900906
0.91886
0.936475
0.953482
0.969677
0.984913
0.999087
1.01213
1.02401
1.0347
1.04419
1.05248
1.05957
1.06547
1.07019
1.07372
1.07609
1.07729
1.07732
1.07619
1.07389
1.07041
1.06576
1.05992
1.05289
1.04465
1.03518
1.02449
1.01256
0.999387
0.984978
0.969349
0.952535
0.934599
0.915636
0.895792
0.875265
0.854323
0.833303
0.81261
0.788692
0.760552
0.730615
0.705452
0.689568
0.683407
0.687054
0.697825
0.709508
0.718976
0.724081
0.728971
0.733997
0.738754
0.742918
0.746245
0.748566
0.749783
0.749869
0.748863
0.746873
0.744066
0.740669
0.736949
0.733187
0.729621
0.726311
0.723134
0.719691
0.716698
0.714389
0.712863
0.712063
0.711936
0.712467
0.713688
0.715671
0.718497
0.722088
0.72624
0.730249
0.734491
0.739058
0.743874
0.748691
0.753222
0.757194
0.760377
0.762597
0.763736
0.759825
0.759958
0.760274
0.760862
0.761835
0.763279
0.765202
0.767371
0.769576
0.771924
0.774613
0.777631
0.780887
0.784263
0.787658
0.791016
0.794344
0.797718
0.801295
0.80531
0.810067
0.815926
0.823249
0.832257
0.842942
0.854648
0.867409
0.881364
0.896288
0.911902
0.927881
0.943911
0.959715
0.975058
0.989754
1.00366
1.01666
1.02869
1.03969
1.04963
1.05848
1.06622
1.07287
1.0784
1.08283
1.08614
1.08835
1.08946
1.08946
1.08836
1.08615
1.08283
1.07839
1.07284
1.06617
1.05837
1.04943
1.03937
1.02817
1.01586
1.00245
0.987975
0.972485
0.956057
0.9388
0.920862
0.902437
0.883772
0.86517
0.846996
0.829687
0.812718
0.794226
0.776672
0.763201
0.755978
0.754392
0.756283
0.758464
0.759391
0.76158
0.764515
0.767756
0.770947
0.773797
0.776085
0.777655
0.778412
0.778319
0.777398
0.775726
0.773424
0.770657
0.767611
0.764476
0.761401
0.758455
0.755626
0.752885
0.750475
0.748565
0.747243
0.746524
0.746401
0.746875
0.74796
0.749678
0.752031
0.754945
0.758267
0.761757
0.765433
0.76929
0.773247
0.777141
0.780774
0.783949
0.786492
0.788265
0.789176
0.794215
0.794406
0.794817
0.795499
0.796508
0.797881
0.799603
0.801583
0.803743
0.806106
0.808728
0.811611
0.814712
0.817971
0.821336
0.824785
0.828341
0.832075
0.836114
0.840635
0.845856
0.852013
0.859319
0.867891
0.877701
0.888537
0.900325
0.913022
0.926479
0.940487
0.954805
0.96919
0.983415
0.997281
1.01062
1.0233
1.03522
1.04628
1.05644
1.06564
1.07386
1.08108
1.08727
1.09244
1.09657
1.09967
1.10172
1.10274
1.10271
1.10164
1.09952
1.09636
1.09214
1.08688
1.08057
1.07322
1.06481
1.05537
1.04491
1.03344
1.02099
1.00761
0.993371
0.978344
0.962645
0.946419
0.929849
0.913157
0.896609
0.880512
0.865215
0.851092
0.838602
0.827594
0.817802
0.810197
0.804494
0.800296
0.798178
0.797672
0.798333
0.799751
0.801568
0.803479
0.805237
0.806644
0.807558
0.80789
0.807597
0.806686
0.805207
0.803247
0.800922
0.798364
0.795704
0.793053
0.790481
0.78803
0.785748
0.783752
0.782152
0.781019
0.780388
0.780269
0.780672
0.781599
0.78305
0.785003
0.787396
0.790126
0.793077
0.796193
0.799423
0.802684
0.805852
0.808784
0.811336
0.813376
0.814797
0.815526
0.828414
0.828634
0.829089
0.829807
0.830817
0.832134
0.833746
0.835615
0.837709
0.840027
0.842583
0.845374
0.84838
0.851572
0.854928
0.858448
0.86216
0.866127
0.87045
0.875259
0.880708
0.886952
0.894122
0.902287
0.911434
0.921474
0.932331
0.943921
0.956119
0.968762
0.981662
0.994628
1.00747
1.02003
1.03215
1.04371
1.05462
1.06478
1.07414
1.08264
1.09025
1.09695
1.10271
1.10751
1.11136
1.11423
1.11613
1.11706
1.117
1.11596
1.11394
1.11093
1.10694
1.10197
1.09603
1.08911
1.08123
1.0724
1.06264
1.05198
1.04046
1.02812
1.01504
1.0013
0.987016
0.972321
0.957382
0.942398
0.927595
0.913228
0.89957
0.886897
0.875457
0.865337
0.856607
0.849248
0.84338
0.839051
0.836262
0.834786
0.834329
0.834589
0.835284
0.836167
0.837027
0.837695
0.838044
0.837991
0.837492
0.836542
0.83517
0.833435
0.83142
0.829217
0.826924
0.824624
0.822387
0.820266
0.818323
0.816633
0.815272
0.814295
0.813738
0.813617
0.813943
0.814714
0.81592
0.817535
0.819507
0.821766
0.824231
0.82684
0.829527
0.832212
0.834798
0.837176
0.839235
0.840877
0.84202
0.842606
0.862394
0.862625
0.863097
0.863824
0.86482
0.866091
0.867631
0.869423
0.871451
0.87371
0.876202
0.878922
0.881861
0.885008
0.888357
0.891919
0.895724
0.899824
0.904299
0.909243
0.914764
0.920966
0.927931
0.935702
0.944273
0.953595
0.963602
0.974212
0.985315
0.996779
1.00845
1.02019
1.03182
1.04321
1.05424
1.06479
1.07476
1.08408
1.09269
1.10053
1.10756
1.11376
1.11909
1.12355
1.12711
1.12977
1.13152
1.13236
1.13227
1.13126
1.12934
1.12649
1.12272
1.11804
1.11245
1.10597
1.0986
1.09036
1.08128
1.07139
1.06074
1.04938
1.03737
1.02481
1.0118
0.998465
0.984961
0.971457
0.958146
0.945235
0.93294
0.921468
0.910993
0.901623
0.893429
0.886445
0.880721
0.876266
0.873034
0.870882
0.869607
0.86899
0.868813
0.868877
0.869008
0.869063
0.868933
0.868539
0.867839
0.866819
0.865494
0.863904
0.862104
0.860162
0.85815
0.856134
0.854174
0.852326
0.850644
0.849186
0.848008
0.847152
0.84665
0.84652
0.846768
0.847393
0.848383
0.84971
0.851333
0.853197
0.855243
0.857409
0.859631
0.861839
0.863952
0.865885
0.867552
0.868878
0.8698
0.870272
0.896142
0.896377
0.896851
0.897572
0.898547
0.899778
0.901264
0.902994
0.904962
0.907161
0.909592
0.912251
0.915135
0.918241
0.921574
0.925148
0.928991
0.933148
0.937677
0.94265
0.94814
0.954217
0.960933
0.968316
0.97636
0.98503
0.994271
1.00401
1.01415
1.02459
1.03519
1.04584
1.0564
1.06676
1.07681
1.08643
1.09555
1.1041
1.112
1.11922
1.12571
1.13143
1.13636
1.14048
1.14377
1.14622
1.14782
1.14857
1.14846
1.14749
1.14566
1.14297
1.13942
1.13502
1.12978
1.12371
1.11683
1.10916
1.10073
1.09157
1.08173
1.07127
1.06025
1.04876
1.0369
1.02478
1.01254
1.00032
0.988295
0.976626
0.965488
0.955041
0.945423
0.936733
0.929039
0.922384
0.916792
0.912256
0.908727
0.906099
0.904228
0.902951
0.902101
0.90152
0.901065
0.900618
0.900084
0.899394
0.898505
0.897401
0.896085
0.894582
0.89293
0.891178
0.889379
0.887586
0.88585
0.884219
0.88274
0.88146
0.88042
0.879655
0.879191
0.879043
0.879216
0.879709
0.880507
0.881588
0.882916
0.884448
0.886134
0.88792
0.88975
0.89156
0.893286
0.894859
0.896211
0.897284
0.898028
0.898409
0.929655
0.929888
0.930357
0.931066
0.932017
0.933213
0.934651
0.936328
0.938239
0.940382
0.942754
0.945355
0.948185
0.951248
0.95455
0.958107
0.961945
0.966099
0.970613
0.975539
0.980928
0.986827
0.993269
1.00027
1.00782
1.01589
1.02444
1.0334
1.04269
1.05222
1.06188
1.07158
1.0812
1.09063
1.09979
1.10858
1.11692
1.12475
1.13201
1.13864
1.14461
1.14989
1.15443
1.15823
1.16126
1.16352
1.16498
1.16565
1.16552
1.16458
1.16284
1.1603
1.15696
1.15284
1.14793
1.14226
1.13585
1.12872
1.1209
1.11243
1.10335
1.09372
1.08361
1.07309
1.06226
1.05122
1.04009
1.029
1.01809
1.00749
0.997344
0.987786
0.978925
0.970846
0.963612
0.95726
0.951807
0.947241
0.943517
0.940558
0.938255
0.936486
0.935121
0.934035
0.933115
0.93226
0.931391
0.930447
0.929388
0.928194
0.926863
0.925408
0.923856
0.922241
0.920602
0.918982
0.917421
0.91596
0.914639
0.913493
0.912557
0.911858
0.911416
0.911244
0.911346
0.911718
0.912349
0.913218
0.914295
0.915545
0.916925
0.918389
0.919887
0.921367
0.922774
0.924052
0.925149
0.926018
0.92662
0.926928
0.962935
0.963164
0.963624
0.964316
0.965243
0.966404
0.9678
0.969428
0.971286
0.973372
0.975687
0.97823
0.981004
0.984014
0.98727
0.990785
0.994582
0.998688
1.00314
1.00796
1.01321
1.01889
1.02505
1.03167
1.03876
1.04628
1.0542
1.06246
1.07099
1.07972
1.08855
1.0974
1.10617
1.11478
1.12314
1.13117
1.13881
1.14598
1.15264
1.15873
1.16422
1.16907
1.17326
1.17675
1.17954
1.1816
1.18294
1.18353
1.18337
1.18247
1.18082
1.17843
1.17529
1.17143
1.16685
1.16156
1.1556
1.14897
1.14173
1.13389
1.12551
1.11665
1.10736
1.09773
1.08783
1.07775
1.06761
1.0575
1.04756
1.03789
1.02861
1.01983
1.01164
1.00411
0.997301
0.991237
0.985935
0.981382
0.977544
0.97436
0.971748
0.969615
0.967861
0.966386
0.965099
0.963917
0.962773
0.961614
0.960405
0.959124
0.957764
0.956332
0.954845
0.953327
0.951807
0.950318
0.948892
0.947562
0.946361
0.945317
0.944457
0.943803
0.943371
0.94317
0.943204
0.943469
0.943954
0.94464
0.945503
0.946512
0.947631
0.948822
0.950042
0.951247
0.95239
0.953427
0.954316
0.955019
0.955505
0.955754
0.995985
0.996209
0.996658
0.997333
0.998234
0.999362
1.00072
1.0023
1.0041
1.00613
1.00839
1.01087
1.01359
1.01654
1.01973
1.02318
1.02691
1.03094
1.03528
1.03998
1.04504
1.0505
1.05635
1.06261
1.06926
1.07628
1.08363
1.09125
1.0991
1.10711
1.11519
1.12329
1.13131
1.13917
1.14682
1.15416
1.16115
1.16773
1.17383
1.17943
1.18447
1.18892
1.19277
1.19598
1.19854
1.20042
1.20163
1.20215
1.20198
1.20111
1.19955
1.19729
1.19436
1.19074
1.18646
1.18154
1.176
1.16985
1.16314
1.15589
1.14817
1.14001
1.13147
1.12263
1.11356
1.10435
1.09508
1.08585
1.07676
1.06791
1.05939
1.05129
1.0437
1.03667
1.03024
1.02445
1.01931
1.01481
1.01092
1.00759
1.00476
1.00237
1.00032
0.998549
0.996976
0.995535
0.994169
0.992833
0.991494
0.990131
0.988737
0.987312
0.985865
0.984415
0.982982
0.98159
0.980266
0.979036
0.977925
0.976956
0.976151
0.975526
0.975094
0.974862
0.974832
0.975
0.975356
0.975884
0.976564
0.977368
0.978267
0.979227
0.980213
0.981187
0.982112
0.982951
0.983669
0.984236
0.984629
0.984829
1.02881
1.02903
1.02947
1.03012
1.031
1.03209
1.03341
1.03494
1.0367
1.03867
1.04087
1.04329
1.04593
1.04881
1.05193
1.0553
1.05894
1.06286
1.06708
1.07162
1.07648
1.08169
1.08726
1.09316
1.0994
1.10594
1.11277
1.11982
1.12706
1.13442
1.14184
1.14925
1.15659
1.16379
1.17079
1.17751
1.18392
1.18994
1.19554
1.20067
1.2053
1.20939
1.21292
1.21586
1.2182
1.21992
1.22101
1.22147
1.22128
1.22045
1.21897
1.21685
1.21409
1.21072
1.20673
1.20215
1.19699
1.19129
1.18508
1.17838
1.17125
1.16374
1.15589
1.14777
1.13945
1.131
1.12251
1.11405
1.10572
1.09758
1.08974
1.08225
1.07519
1.06861
1.06255
1.05702
1.05205
1.04763
1.04373
1.04032
1.03735
1.03477
1.03251
1.03051
1.02872
1.02708
1.02553
1.02405
1.02261
1.02117
1.01974
1.01831
1.01689
1.01549
1.01411
1.01279
1.01155
1.01039
1.00935
1.00843
1.00766
1.00706
1.00662
1.00635
1.00626
1.00634
1.00659
1.00698
1.0075
1.00813
1.00884
1.00961
1.01039
1.01118
1.01192
1.01259
1.01317
1.01363
1.01394
1.0141
1.06142
1.06163
1.06206
1.06269
1.06354
1.0646
1.06588
1.06737
1.06907
1.07099
1.07312
1.07547
1.07805
1.08085
1.08388
1.08716
1.09069
1.09449
1.09856
1.10292
1.10758
1.11255
1.11781
1.12338
1.12923
1.13533
1.14167
1.14821
1.15489
1.16166
1.16848
1.17529
1.18202
1.18862
1.19503
1.20119
1.20706
1.21258
1.21771
1.22242
1.22666
1.23041
1.23365
1.23635
1.23848
1.24005
1.24104
1.24143
1.24122
1.24042
1.23903
1.23703
1.23446
1.2313
1.22758
1.22332
1.21854
1.21325
1.2075
1.20131
1.19473
1.1878
1.18057
1.17311
1.16546
1.1577
1.1499
1.14213
1.13447
1.12698
1.11973
1.11279
1.10621
1.10004
1.09431
1.08904
1.08424
1.07992
1.07605
1.0726
1.06955
1.06684
1.06443
1.06228
1.06032
1.05852
1.05684
1.05524
1.0537
1.05221
1.05074
1.0493
1.0479
1.04652
1.0452
1.04393
1.04274
1.04163
1.04064
1.03976
1.03902
1.03842
1.03796
1.03767
1.03752
1.03752
1.03767
1.03794
1.03833
1.03881
1.03936
1.03996
1.04058
1.04121
1.0418
1.04233
1.0428
1.04316
1.04341
1.04354
1.09382
1.09402
1.09443
1.09505
1.09587
1.0969
1.09814
1.09958
1.10123
1.10309
1.10515
1.10744
1.10993
1.11265
1.11559
1.11876
1.12218
1.12584
1.12975
1.13393
1.13838
1.14309
1.14807
1.15331
1.15879
1.16449
1.17039
1.17644
1.18262
1.18887
1.19514
1.2014
1.20758
1.21363
1.21951
1.22516
1.23054
1.2356
1.24031
1.24463
1.24852
1.25196
1.25492
1.25739
1.25934
1.26076
1.26165
1.26198
1.26177
1.261
1.25968
1.25781
1.25539
1.25245
1.24899
1.24502
1.24058
1.23568
1.23035
1.22463
1.21855
1.21216
1.2055
1.19862
1.19158
1.18445
1.17727
1.17011
1.16305
1.15613
1.14941
1.14296
1.13682
1.13102
1.1256
1.12058
1.11596
1.11175
1.10794
1.1045
1.1014
1.09862
1.09611
1.09383
1.09176
1.08984
1.08806
1.08637
1.08476
1.08321
1.08172
1.08027
1.07887
1.07751
1.07622
1.07499
1.07383
1.07277
1.07181
1.07096
1.07023
1.06963
1.06916
1.06883
1.06863
1.06856
1.06862
1.06879
1.06906
1.06941
1.06983
1.07029
1.07078
1.07126
1.07173
1.07215
1.07252
1.0728
1.073
1.07311
1.12601
1.1262
1.1266
1.1272
1.12799
1.12899
1.13019
1.13158
1.13318
1.13498
1.13698
1.13918
1.1416
1.14422
1.14706
1.15013
1.15341
1.15693
1.16068
1.16467
1.1689
1.17337
1.17808
1.183
1.18814
1.19346
1.19894
1.20456
1.21027
1.21604
1.22183
1.22758
1.23327
1.23883
1.24422
1.24941
1.25434
1.25898
1.2633
1.26726
1.27083
1.27398
1.27669
1.27894
1.28072
1.28201
1.28281
1.28309
1.28287
1.28213
1.28088
1.27912
1.27686
1.27411
1.27089
1.2672
1.26308
1.25853
1.2536
1.2483
1.24268
1.23678
1.23064
1.22429
1.21781
1.21123
1.20461
1.19801
1.19148
1.18507
1.17884
1.17283
1.16708
1.16163
1.1565
1.15172
1.14728
1.1432
1.13946
1.13604
1.13294
1.13012
1.12755
1.1252
1.12304
1.12104
1.11917
1.11742
1.11576
1.11417
1.11265
1.11119
1.10979
1.10845
1.10717
1.10597
1.10484
1.10381
1.10287
1.10203
1.10131
1.1007
1.10022
1.09985
1.09961
1.09948
1.09946
1.09954
1.09971
1.09996
1.10026
1.1006
1.10097
1.10134
1.1017
1.10203
1.10231
1.10254
1.10269
1.10277
1.158
1.15819
1.15857
1.15915
1.15992
1.16088
1.16204
1.16338
1.16492
1.16666
1.16859
1.17072
1.17305
1.17558
1.17832
1.18126
1.18442
1.18779
1.19137
1.19517
1.19919
1.20342
1.20786
1.21249
1.21729
1.22226
1.22737
1.23258
1.23787
1.2432
1.24854
1.25384
1.25907
1.26418
1.26914
1.2739
1.27843
1.28269
1.28665
1.29028
1.29355
1.29644
1.29892
1.30098
1.3026
1.30376
1.30447
1.30471
1.30447
1.30377
1.30259
1.30093
1.29882
1.29626
1.29325
1.28983
1.28599
1.28178
1.2772
1.2723
1.2671
1.26165
1.25597
1.25012
1.24413
1.23805
1.23193
1.22583
1.21978
1.21384
1.20804
1.20243
1.19705
1.19192
1.18706
1.1825
1.17825
1.1743
1.17064
1.16728
1.1642
1.16137
1.15876
1.15637
1.15416
1.1521
1.15018
1.14838
1.14667
1.14506
1.14351
1.14205
1.14064
1.13931
1.13805
1.13687
1.13576
1.13475
1.13382
1.133
1.13227
1.13166
1.13116
1.13076
1.13047
1.13029
1.1302
1.13021
1.13029
1.13044
1.13064
1.13089
1.13115
1.13143
1.1317
1.13195
1.13217
1.13234
1.13246
1.13252
1.1898
1.18998
1.19035
1.19091
1.19165
1.19258
1.19369
1.19499
1.19648
1.19815
1.20001
1.20206
1.20431
1.20674
1.20937
1.21219
1.21521
1.21843
1.22184
1.22546
1.22927
1.23326
1.23744
1.24179
1.24629
1.25093
1.25568
1.26053
1.26543
1.27036
1.27529
1.28018
1.28499
1.2897
1.29425
1.29863
1.30279
1.3067
1.31033
1.31366
1.31666
1.3193
1.32157
1.32345
1.32492
1.32598
1.3266
1.3268
1.32656
1.32588
1.32476
1.32321
1.32123
1.31884
1.31604
1.31285
1.30929
1.30538
1.30114
1.2966
1.29178
1.28674
1.28148
1.27607
1.27053
1.26491
1.25925
1.25359
1.24798
1.24245
1.23705
1.23181
1.22676
1.22193
1.21733
1.21299
1.20891
1.20509
1.20154
1.19825
1.1952
1.19238
1.18978
1.18736
1.18512
1.18303
1.18107
1.17924
1.1775
1.17587
1.17431
1.17284
1.17144
1.17011
1.16886
1.16769
1.1666
1.16559
1.16468
1.16386
1.16313
1.16251
1.16198
1.16156
1.16123
1.161
1.16085
1.16079
1.1608
1.16087
1.16099
1.16115
1.16133
1.16153
1.16172
1.16191
1.16207
1.1622
1.16229
1.16233
1.22141
1.22159
1.22195
1.22248
1.2232
1.22409
1.22516
1.22641
1.22784
1.22945
1.23124
1.23321
1.23537
1.2377
1.24022
1.24292
1.2458
1.24887
1.25212
1.25555
1.25915
1.26292
1.26686
1.27094
1.27515
1.27948
1.28391
1.28841
1.29296
1.29752
1.30208
1.30659
1.31103
1.31536
1.31955
1.32357
1.32739
1.33099
1.33432
1.33737
1.34012
1.34254
1.34461
1.34632
1.34766
1.34861
1.34917
1.34933
1.34908
1.34843
1.34737
1.34591
1.34406
1.34183
1.33922
1.33625
1.33294
1.3293
1.32537
1.32116
1.3167
1.31202
1.30716
1.30215
1.29702
1.29181
1.28656
1.28131
1.27609
1.27095
1.26591
1.261
1.25625
1.25169
1.24734
1.24321
1.2393
1.23563
1.23219
1.22897
1.22598
1.22319
1.22059
1.21818
1.21593
1.21382
1.21185
1.20999
1.20824
1.20659
1.20503
1.20355
1.20215
1.20083
1.19959
1.19843
1.19735
1.19635
1.19544
1.19462
1.19389
1.19325
1.19271
1.19226
1.1919
1.19162
1.19142
1.1913
1.19124
1.19125
1.1913
1.19138
1.19149
1.19162
1.19175
1.19188
1.192
1.19209
1.19215
1.19219
1.25285
1.25302
1.25336
1.25388
1.25456
1.25542
1.25645
1.25765
1.25903
1.26057
1.26229
1.26418
1.26624
1.26848
1.27088
1.27346
1.27621
1.27913
1.28222
1.28546
1.28887
1.29243
1.29612
1.29995
1.30389
1.30794
1.31206
1.31624
1.32046
1.32469
1.3289
1.33307
1.33717
1.34116
1.34502
1.34872
1.35223
1.35553
1.35859
1.36139
1.3639
1.36612
1.36801
1.36957
1.37079
1.37164
1.37214
1.37226
1.37201
1.37138
1.37038
1.36901
1.36728
1.36519
1.36276
1.35999
1.35691
1.35353
1.34988
1.34597
1.34184
1.3375
1.33299
1.32834
1.32358
1.31875
1.31388
1.309
1.30414
1.29934
1.29462
1.29002
1.28556
1.28126
1.27713
1.2732
1.26946
1.26593
1.2626
1.25947
1.25654
1.2538
1.25123
1.24883
1.24659
1.24448
1.2425
1.24064
1.23888
1.23723
1.23566
1.23418
1.23279
1.23147
1.23024
1.22908
1.22801
1.22702
1.22611
1.22529
1.22456
1.22391
1.22335
1.22287
1.22247
1.22216
1.22192
1.22174
1.22163
1.22158
1.22157
1.22159
1.22164
1.22171
1.22179
1.22187
1.22195
1.22201
1.22205
1.22208
1.28411
1.28427
1.2846
1.2851
1.28576
1.28658
1.28757
1.28872
1.29004
1.29152
1.29317
1.29498
1.29695
1.29908
1.30138
1.30384
1.30645
1.30922
1.31215
1.31522
1.31844
1.32179
1.32526
1.32885
1.33254
1.33631
1.34016
1.34405
1.34796
1.35188
1.35578
1.35963
1.36341
1.36709
1.37064
1.37405
1.37728
1.38031
1.38312
1.38569
1.38799
1.39002
1.39175
1.39317
1.39427
1.39504
1.39547
1.39556
1.39531
1.39471
1.39376
1.39247
1.39085
1.38889
1.38662
1.38405
1.38118
1.37804
1.37464
1.37101
1.36717
1.36315
1.35896
1.35464
1.35022
1.34573
1.3412
1.33665
1.33212
1.32764
1.32323
1.31891
1.31471
1.31065
1.30674
1.30299
1.29942
1.29602
1.29281
1.28978
1.28692
1.28423
1.28171
1.27934
1.27711
1.27501
1.27304
1.27118
1.26943
1.26777
1.26621
1.26473
1.26334
1.26204
1.26081
1.25966
1.25859
1.25761
1.2567
1.25588
1.25513
1.25447
1.2539
1.2534
1.25297
1.25262
1.25234
1.25213
1.25197
1.25186
1.2518
1.25177
1.25177
1.2518
1.25183
1.25187
1.25191
1.25195
1.25197
1.25199
1.31521
1.31537
1.31568
1.31616
1.31679
1.31758
1.31853
1.31963
1.32089
1.32231
1.32388
1.32561
1.32749
1.32953
1.33172
1.33405
1.33654
1.33916
1.34193
1.34484
1.34787
1.35102
1.35428
1.35765
1.3611
1.36462
1.3682
1.37182
1.37546
1.37909
1.3827
1.38626
1.38975
1.39314
1.39642
1.39956
1.40253
1.40531
1.40789
1.41025
1.41236
1.41421
1.41579
1.41709
1.41808
1.41877
1.41915
1.41922
1.41896
1.41838
1.41748
1.41627
1.41475
1.41292
1.4108
1.40839
1.40572
1.4028
1.39964
1.39626
1.39269
1.38895
1.38506
1.38105
1.37694
1.37276
1.36854
1.3643
1.36007
1.35587
1.35174
1.34768
1.34372
1.33988
1.33618
1.33261
1.3292
1.32594
1.32284
1.31991
1.31713
1.31451
1.31203
1.30969
1.30749
1.30542
1.30346
1.30161
1.29987
1.29822
1.29667
1.2952
1.29382
1.29252
1.2913
1.29016
1.28909
1.28811
1.28721
1.28638
1.28563
1.28496
1.28437
1.28385
1.2834
1.28302
1.28271
1.28245
1.28225
1.2821
1.282
1.28192
1.28188
1.28186
1.28186
1.28187
1.28188
1.2819
1.28191
1.28191
1.34615
1.3463
1.3466
1.34706
1.34766
1.34842
1.34932
1.35038
1.35159
1.35294
1.35444
1.35609
1.35788
1.35982
1.3619
1.36412
1.36648
1.36896
1.37158
1.37432
1.37718
1.38014
1.38321
1.38636
1.38958
1.39287
1.39621
1.39957
1.40295
1.40632
1.40966
1.41296
1.41618
1.41932
1.42234
1.42523
1.42796
1.43052
1.43289
1.43505
1.43699
1.43868
1.44012
1.4413
1.4422
1.44282
1.44315
1.44319
1.44293
1.44237
1.44152
1.44038
1.43895
1.43723
1.43525
1.43301
1.43052
1.42779
1.42485
1.42171
1.41839
1.4149
1.41128
1.40755
1.40372
1.39983
1.39589
1.39193
1.38797
1.38404
1.38016
1.37635
1.37262
1.36899
1.36547
1.36208
1.35882
1.3557
1.35272
1.34988
1.34718
1.34463
1.34221
1.33992
1.33775
1.33571
1.33377
1.33194
1.33022
1.32858
1.32704
1.32558
1.32421
1.32292
1.32171
1.32057
1.31952
1.31854
1.31763
1.3168
1.31605
1.31537
1.31476
1.31422
1.31376
1.31335
1.31301
1.31272
1.31249
1.3123
1.31216
1.31205
1.31197
1.31192
1.31188
1.31186
1.31185
1.31185
1.31184
1.31184
1.37694
1.37708
1.37737
1.3778
1.37838
1.37911
1.37997
1.38098
1.38213
1.38342
1.38485
1.38642
1.38813
1.38997
1.39195
1.39405
1.39628
1.39864
1.40111
1.40369
1.40638
1.40917
1.41204
1.41499
1.41801
1.42108
1.42419
1.42732
1.43046
1.43358
1.43668
1.43973
1.44271
1.4456
1.44839
1.45105
1.45357
1.45592
1.4581
1.46008
1.46185
1.4634
1.46472
1.46579
1.4666
1.46716
1.46744
1.46745
1.46719
1.46666
1.46585
1.46477
1.46343
1.46182
1.45997
1.45787
1.45555
1.45301
1.45026
1.44733
1.44424
1.441
1.43762
1.43414
1.43057
1.42694
1.42326
1.41956
1.41585
1.41217
1.40852
1.40493
1.40141
1.39798
1.39464
1.39141
1.3883
1.38531
1.38245
1.37971
1.3771
1.37462
1.37226
1.37002
1.3679
1.36589
1.36398
1.36218
1.36047
1.35885
1.35732
1.35588
1.35452
1.35324
1.35204
1.35091
1.34986
1.34888
1.34798
1.34715
1.34639
1.34571
1.34509
1.34453
1.34405
1.34362
1.34325
1.34294
1.34268
1.34246
1.34228
1.34214
1.34203
1.34195
1.34189
1.34184
1.34181
1.34179
1.34178
1.34178
1.40758
1.40772
1.40799
1.40841
1.40896
1.40965
1.41048
1.41144