/*--------------------------------*- C++ -*----------------------------------*\
| =========                 |                                                 |
| \\      /  F ield         | OpenFOAM: The Open Source CFD Toolbox           |
|  \\    /   O peration     | Version:  2406                                  |
|   \\  /    A nd           | Website:  www.openfoam.com                      |
|    \\/     M anipulation  |                                                 |
\*---------------------------------------------------------------------------*/
FoamFile
{
    version     2.0;
    format      ascii;
    arch        "LSB;label=32;scalar=64";
    class       volScalarField;
    location    "8.05";
    object      Da;
}
// * * * * * * * * * * * * * * * * * * * * * * * * * * * * * * * * * * * * * //

dimensions      [0 2 -1 0 0 0 0];

internalField   nonuniform List<scalar> 
14400
(
4.83393e-05
4.83142e-05
4.82781e-05
4.82447e-05
4.82204e-05
4.82058e-05
4.81985e-05
4.81963e-05
4.81992e-05
4.82102e-05
4.82344e-05
4.82774e-05
4.83407e-05
4.84147e-05
4.84711e-05
4.84645e-05
4.83649e-05
4.82049e-05
4.80184e-05
4.78163e-05
4.75922e-05
4.73338e-05
4.70316e-05
4.66849e-05
4.63033e-05
4.59048e-05
4.55111e-05
4.51426e-05
4.48142e-05
4.45359e-05
4.43141e-05
4.41547e-05
4.40668e-05
4.40693e-05
4.42054e-05
4.45902e-05
4.56388e-05
4.9703e-05
7.72154e-05
7.8e-05
7.8e-05
7.8e-05
7.8e-05
7.8e-05
7.8e-05
7.8e-05
7.8e-05
7.8e-05
7.8e-05
7.8e-05
7.8e-05
7.8e-05
7.8e-05
7.8e-05
7.8e-05
7.8e-05
7.8e-05
7.8e-05
7.8e-05
7.37104e-05
4.8096e-05
4.53952e-05
4.4675e-05
4.44321e-05
4.4402e-05
4.45074e-05
4.47218e-05
4.50377e-05
4.5455e-05
4.59729e-05
4.65812e-05
4.72508e-05
4.79299e-05
4.85513e-05
4.90528e-05
4.9393e-05
4.95567e-05
4.95506e-05
4.94e-05
4.91452e-05
4.88397e-05
4.85464e-05
4.83381e-05
4.83129e-05
4.86662e-05
5.00878e-05
5.69846e-05
7.78349e-05
6.19581e-05
5.01392e-05
4.80234e-05
4.73318e-05
4.70605e-05
4.69832e-05
4.70157e-05
4.71148e-05
4.72532e-05
4.74105e-05
4.75698e-05
4.77167e-05
4.78383e-05
4.79222e-05
4.79572e-05
4.79347e-05
4.78519e-05
4.77133e-05
4.75285e-05
4.73104e-05
4.7073e-05
4.68313e-05
4.66004e-05
4.63964e-05
4.62367e-05
4.61425e-05
4.61447e-05
4.62999e-05
4.674e-05
4.78883e-05
5.18764e-05
7.68112e-05
4.81549e-05
4.81018e-05
4.80274e-05
4.79578e-05
4.79046e-05
4.78695e-05
4.78502e-05
4.78444e-05
4.7852e-05
4.78759e-05
4.79219e-05
4.7997e-05
4.81052e-05
4.82385e-05
4.83604e-05
4.83913e-05
4.82519e-05
4.80322e-05
4.77978e-05
4.75659e-05
4.73282e-05
4.70701e-05
4.67802e-05
4.64555e-05
4.61029e-05
4.57368e-05
4.53756e-05
4.50367e-05
4.47342e-05
4.44777e-05
4.42743e-05
4.41311e-05
4.4059e-05
4.40798e-05
4.42451e-05
4.47042e-05
4.61241e-05
5.38254e-05
7.79225e-05
7.8e-05
7.8e-05
7.8e-05
7.8e-05
7.8e-05
7.8e-05
7.8e-05
7.8e-05
7.8e-05
7.8e-05
7.8e-05
7.8e-05
7.8e-05
7.8e-05
7.8e-05
7.8e-05
7.8e-05
7.8e-05
7.8e-05
7.8e-05
7.6654e-05
4.91073e-05
4.56597e-05
4.47634e-05
4.44614e-05
4.44011e-05
4.44841e-05
4.46766e-05
4.49671e-05
4.53525e-05
4.58301e-05
4.6389e-05
4.70033e-05
4.76273e-05
4.82022e-05
4.86709e-05
4.89932e-05
4.91523e-05
4.91538e-05
4.9022e-05
4.87964e-05
4.85286e-05
4.8279e-05
4.81182e-05
4.81462e-05
4.85808e-05
5.03162e-05
6.04267e-05
7.79742e-05
6.7502e-05
5.05431e-05
4.80493e-05
4.72627e-05
4.69402e-05
4.68249e-05
4.68247e-05
4.68946e-05
4.70073e-05
4.71436e-05
4.72882e-05
4.74275e-05
4.75483e-05
4.76366e-05
4.76778e-05
4.76598e-05
4.75782e-05
4.744e-05
4.72588e-05
4.70501e-05
4.6829e-05
4.66093e-05
4.64046e-05
4.62291e-05
4.60988e-05
4.60348e-05
4.60703e-05
4.62708e-05
4.68065e-05
4.83686e-05
5.59326e-05
7.78897e-05
4.7909e-05
4.77861e-05
4.76286e-05
4.74893e-05
4.73844e-05
4.73144e-05
4.72751e-05
4.7263e-05
4.72773e-05
4.73214e-05
4.74026e-05
4.75323e-05
4.77234e-05
4.79806e-05
4.82678e-05
4.84258e-05
4.81443e-05
4.77696e-05
4.74321e-05
4.71428e-05
4.68807e-05
4.66228e-05
4.6353e-05
4.60645e-05
4.57592e-05
4.54463e-05
4.51387e-05
4.485e-05
4.45919e-05
4.43739e-05
4.42039e-05
4.40911e-05
4.40496e-05
4.4107e-05
4.43294e-05
4.49235e-05
4.70079e-05
6.3807e-05
7.79994e-05
7.8e-05
7.8e-05
7.8e-05
7.8e-05
7.8e-05
7.8e-05
7.8e-05
7.8e-05
7.8e-05
7.8e-05
7.8e-05
7.8e-05
7.8e-05
7.8e-05
7.8e-05
7.8e-05
7.8e-05
7.8e-05
7.8e-05
7.8e-05
7.7972e-05
5.60334e-05
4.64788e-05
4.49635e-05
4.45252e-05
4.4404e-05
4.44439e-05
4.45953e-05
4.48395e-05
4.51684e-05
4.55756e-05
4.60496e-05
4.65679e-05
4.70945e-05
4.75835e-05
4.79882e-05
4.82733e-05
4.84221e-05
4.84382e-05
4.83434e-05
4.81743e-05
4.79778e-05
4.78094e-05
4.77368e-05
4.78647e-05
4.84454e-05
5.06812e-05
6.68525e-05
7.79994e-05
7.50736e-05
5.15047e-05
4.82204e-05
4.71892e-05
4.67543e-05
4.65662e-05
4.65082e-05
4.65285e-05
4.65988e-05
4.67012e-05
4.68222e-05
4.69499e-05
4.70711e-05
4.7169e-05
4.72232e-05
4.72139e-05
4.7133e-05
4.69933e-05
4.68159e-05
4.66213e-05
4.64253e-05
4.62405e-05
4.60778e-05
4.59487e-05
4.58679e-05
4.5857e-05
4.59542e-05
4.62406e-05
4.69507e-05
4.92767e-05
6.61437e-05
7.79995e-05
4.78364e-05
4.75423e-05
4.72309e-05
4.69861e-05
4.68133e-05
4.67012e-05
4.66386e-05
4.66187e-05
4.66394e-05
4.67045e-05
4.68249e-05
4.70212e-05
4.7328e-05
4.77986e-05
4.8488e-05
4.9231e-05
4.82979e-05
4.75494e-05
4.70331e-05
4.66606e-05
4.63651e-05
4.61051e-05
4.58563e-05
4.56065e-05
4.53526e-05
4.50982e-05
4.48509e-05
4.46202e-05
4.44152e-05
4.4245e-05
4.41187e-05
4.4048e-05
4.4052e-05
4.41689e-05
4.44929e-05
4.5335e-05
4.83418e-05
7.48216e-05
7.8e-05
7.8e-05
7.8e-05
7.8e-05
7.8e-05
7.8e-05
7.8e-05
7.8e-05
7.8e-05
7.8e-05
7.8e-05
7.8e-05
7.8e-05
7.8e-05
7.8e-05
7.8e-05
7.8e-05
7.8e-05
7.8e-05
7.8e-05
7.8e-05
7.8e-05
6.85451e-05
4.76392e-05
4.52718e-05
4.46347e-05
4.44221e-05
4.43991e-05
4.44939e-05
4.46775e-05
4.49357e-05
4.52579e-05
4.56315e-05
4.60372e-05
4.64482e-05
4.68314e-05
4.71532e-05
4.73872e-05
4.75202e-05
4.75547e-05
4.75089e-05
4.74132e-05
4.73081e-05
4.72438e-05
4.72891e-05
4.75662e-05
4.84011e-05
5.13367e-05
7.42367e-05
7.8e-05
7.7988e-05
6.05201e-05
4.91332e-05
4.72429e-05
4.65908e-05
4.62935e-05
4.61597e-05
4.61202e-05
4.61423e-05
4.62078e-05
4.63049e-05
4.64231e-05
4.65496e-05
4.66654e-05
4.67417e-05
4.67465e-05
4.66617e-05
4.65125e-05
4.63326e-05
4.61481e-05
4.5976e-05
4.58268e-05
4.5709e-05
4.56321e-05
4.56102e-05
4.56682e-05
4.58555e-05
4.62887e-05
4.73286e-05
5.08507e-05
7.61811e-05
7.8e-05
4.85178e-05
4.76146e-05
4.69808e-05
4.65744e-05
4.63154e-05
4.61553e-05
4.60676e-05
4.60389e-05
4.6065e-05
4.61504e-05
4.63114e-05
4.65839e-05
4.70496e-05
4.7915e-05
4.99049e-05
5.59777e-05
4.93319e-05
4.75294e-05
4.67078e-05
4.62201e-05
4.58801e-05
4.56118e-05
4.53782e-05
4.51608e-05
4.49517e-05
4.475e-05
4.45589e-05
4.43841e-05
4.42331e-05
4.41142e-05
4.40381e-05
4.40202e-05
4.40877e-05
4.43008e-05
4.48403e-05
4.6656e-05
6.07426e-05
7.79979e-05
7.8e-05
7.8e-05
7.8e-05
7.8e-05
7.8e-05
7.8e-05
7.8e-05
7.8e-05
7.8e-05
7.8e-05
7.8e-05
7.8e-05
7.8e-05
7.8e-05
7.8e-05
7.8e-05
7.8e-05
7.8e-05
7.8e-05
7.8e-05
7.8e-05
7.8e-05
7.75604e-05
5.0564e-05
4.59141e-05
4.48488e-05
4.44814e-05
4.43687e-05
4.43923e-05
4.45066e-05
4.46892e-05
4.49251e-05
4.52005e-05
4.54988e-05
4.58001e-05
4.60819e-05
4.63223e-05
4.65044e-05
4.66203e-05
4.66727e-05
4.66761e-05
4.66548e-05
4.66431e-05
4.6689e-05
4.68718e-05
4.73729e-05
4.89057e-05
5.71642e-05
7.79358e-05
7.8e-05
7.8e-05
7.50341e-05
5.08286e-05
4.75734e-05
4.65579e-05
4.60966e-05
4.58649e-05
4.57581e-05
4.57316e-05
4.57638e-05
4.58429e-05
4.59601e-05
4.61038e-05
4.62539e-05
4.63708e-05
4.64006e-05
4.62976e-05
4.61189e-05
4.59188e-05
4.57312e-05
4.55729e-05
4.54518e-05
4.53737e-05
4.53475e-05
4.53891e-05
4.55313e-05
4.58535e-05
4.65941e-05
4.8929e-05
6.61579e-05
7.79997e-05
7.8e-05
5.36861e-05
4.85757e-05
4.70441e-05
4.63499e-05
4.59685e-05
4.57473e-05
4.56296e-05
4.55903e-05
4.5622e-05
4.57301e-05
4.59388e-05
4.63095e-05
4.70234e-05
4.88492e-05
5.84085e-05
7.75142e-05
5.31425e-05
4.79458e-05
4.65518e-05
4.58923e-05
4.54874e-05
4.5199e-05
4.49704e-05
4.47747e-05
4.45994e-05
4.44397e-05
4.42958e-05
4.41709e-05
4.40707e-05
4.4004e-05
4.3984e-05
4.40324e-05
4.41912e-05
4.45628e-05
4.54948e-05
4.89856e-05
7.67555e-05
7.8e-05
7.8e-05
7.8e-05
7.8e-05
7.8e-05
7.8e-05
7.8e-05
7.8e-05
7.8e-05
7.8e-05
7.8e-05
7.8e-05
7.8e-05
7.8e-05
7.8e-05
7.8e-05
7.8e-05
7.8e-05
7.8e-05
7.8e-05
7.8e-05
7.8e-05
7.8e-05
7.8e-05
6.95026e-05
4.7758e-05
4.53055e-05
4.46256e-05
4.43779e-05
4.43129e-05
4.43514e-05
4.44587e-05
4.46145e-05
4.48033e-05
4.50105e-05
4.52213e-05
4.54205e-05
4.55947e-05
4.57345e-05
4.58364e-05
4.59041e-05
4.59497e-05
4.59938e-05
4.60678e-05
4.62227e-05
4.65596e-05
4.73596e-05
4.99959e-05
7.07255e-05
7.8e-05
7.8e-05
7.8e-05
7.79997e-05
6.64791e-05
4.93433e-05
4.68987e-05
4.60829e-05
4.56976e-05
4.55056e-05
4.54274e-05
4.54308e-05
4.55017e-05
4.56334e-05
4.58189e-05
4.60417e-05
4.62468e-05
4.63417e-05
4.61724e-05
4.59119e-05
4.56529e-05
4.54361e-05
4.52745e-05
4.51697e-05
4.51244e-05
4.51479e-05
4.52621e-05
4.55158e-05
4.60566e-05
4.74964e-05
5.44726e-05
7.78829e-05
7.8e-05
7.8e-05
7.74433e-05
5.31277e-05
4.78037e-05
4.64354e-05
4.58395e-05
4.55219e-05
4.53599e-05
4.53054e-05
4.53456e-05
4.54875e-05
4.57691e-05
4.62989e-05
4.74817e-05
5.15818e-05
7.70968e-05
7.8e-05
7.11968e-05
4.9562e-05
4.67165e-05
4.57362e-05
4.52227e-05
4.48946e-05
4.46572e-05
4.44708e-05
4.43173e-05
4.41888e-05
4.4083e-05
4.40012e-05
4.39489e-05
4.39365e-05
4.39828e-05
4.41237e-05
4.44404e-05
4.51891e-05
4.77737e-05
7.06493e-05
7.8e-05
7.8e-05
7.8e-05
7.8e-05
7.8e-05
7.8e-05
7.8e-05
7.8e-05
7.8e-05
7.8e-05
7.8e-05
7.8e-05
7.8e-05
7.8e-05
7.8e-05
7.8e-05
7.8e-05
7.8e-05
7.8e-05
7.8e-05
7.8e-05
7.8e-05
7.8e-05
7.8e-05
7.8e-05
7.79771e-05
5.59901e-05
4.6438e-05
4.49381e-05
4.44637e-05
4.42816e-05
4.42351e-05
4.42675e-05
4.43505e-05
4.44661e-05
4.46003e-05
4.47412e-05
4.48785e-05
4.50044e-05
4.5114e-05
4.5207e-05
4.52882e-05
4.53693e-05
4.54702e-05
4.56251e-05
4.58984e-05
4.64465e-05
4.78822e-05
5.48794e-05
7.78769e-05
7.8e-05
7.8e-05
7.8e-05
7.8e-05
7.79821e-05
5.86071e-05
4.83606e-05
4.64535e-05
4.57506e-05
4.54218e-05
4.52767e-05
4.52527e-05
4.53286e-05
4.55045e-05
4.57882e-05
4.61972e-05
4.66589e-05
4.70551e-05
4.65608e-05
4.60403e-05
4.562e-05
4.53184e-05
4.51254e-05
4.50228e-05
4.50056e-05
4.50866e-05
4.53057e-05
4.57472e-05
4.67533e-05
5.02888e-05
7.65486e-05
7.8e-05
7.8e-05
7.8e-05
7.8e-05
7.68051e-05
5.1018e-05
4.72057e-05
4.60771e-05
4.55513e-05
4.53056e-05
4.52229e-05
4.52813e-05
4.54899e-05
4.59282e-05
4.68618e-05
4.99785e-05
7.44092e-05
7.8e-05
7.8e-05
7.79869e-05
5.87905e-05
4.77386e-05
4.58473e-05
4.5121e-05
4.4718e-05
4.44523e-05
4.42607e-05
4.41172e-05
4.40102e-05
4.39352e-05
4.38928e-05
4.38889e-05
4.39387e-05
4.40748e-05
4.43707e-05
4.50435e-05
4.71998e-05
6.31135e-05
7.79994e-05
7.8e-05
7.8e-05
7.8e-05
7.8e-05
7.8e-05
7.8e-05
7.8e-05
7.8e-05
7.8e-05
7.8e-05
7.8e-05
7.8e-05
7.8e-05
7.8e-05
7.8e-05
7.8e-05
7.8e-05
7.8e-05
7.8e-05
7.8e-05
7.8e-05
7.8e-05
7.8e-05
7.8e-05
7.8e-05
7.8e-05
7.66224e-05
4.89832e-05
4.56056e-05
4.46997e-05
4.43378e-05
4.41835e-05
4.41354e-05
4.41495e-05
4.42018e-05
4.4277e-05
4.43644e-05
4.44565e-05
4.45485e-05
4.46384e-05
4.47278e-05
4.48231e-05
4.49371e-05
4.50931e-05
4.53363e-05
4.57661e-05
4.66731e-05
4.95573e-05
7.27332e-05
7.8e-05
7.8e-05
7.8e-05
7.8e-05
7.8e-05
7.8e-05
7.79289e-05
5.59492e-05
4.80757e-05
4.62684e-05
4.56199e-05
4.53552e-05
4.5297e-05
4.54007e-05
4.56947e-05
4.62567e-05
4.74079e-05
4.91478e-05
5.22173e-05
4.8919e-05
4.70422e-05
4.60367e-05
4.5481e-05
4.51977e-05
4.50764e-05
4.50884e-05
4.52603e-05
4.57104e-05
4.66582e-05
4.97118e-05
7.48243e-05
7.8e-05
7.8e-05
7.8e-05
7.8e-05
7.8e-05
7.8e-05
7.64146e-05
5.10111e-05
4.73846e-05
4.6078e-05
4.56106e-05
4.54508e-05
4.55635e-05
4.5956e-05
4.69175e-05
4.97234e-05
7.29623e-05
7.8e-05
7.8e-05
7.8e-05
7.8e-05
7.72355e-05
5.06103e-05
4.64372e-05
4.52563e-05
4.47056e-05
4.43769e-05
4.41588e-05
4.40116e-05
4.39176e-05
4.38694e-05
4.38676e-05
4.39212e-05
4.40562e-05
4.43436e-05
4.4992e-05
4.69597e-05
5.91166e-05
7.79949e-05
7.8e-05
7.8e-05
7.8e-05
7.8e-05
7.8e-05
7.8e-05
7.8e-05
7.8e-05
7.8e-05
7.8e-05
7.8e-05
7.8e-05
7.8e-05
7.8e-05
7.8e-05
7.8e-05
7.8e-05
7.8e-05
7.8e-05
7.8e-05
7.8e-05
7.8e-05
7.8e-05
7.8e-05
7.8e-05
7.8e-05
7.8e-05
7.8e-05
7.2285e-05
4.80633e-05
4.53471e-05
4.45675e-05
4.42373e-05
4.40861e-05
4.40263e-05
4.40185e-05
4.40426e-05
4.40871e-05
4.4145e-05
4.42132e-05
4.42916e-05
4.43833e-05
4.44963e-05
4.46468e-05
4.48669e-05
4.52294e-05
4.5943e-05
4.7992e-05
6.16846e-05
7.79971e-05
7.8e-05
7.8e-05
7.8e-05
7.8e-05
7.8e-05
7.8e-05
7.8e-05
7.79357e-05
5.89724e-05
4.85676e-05
4.64956e-05
4.58989e-05
4.57743e-05
4.59644e-05
4.66782e-05
4.85582e-05
5.57035e-05
7.36961e-05
7.7696e-05
7.2317e-05
5.29047e-05
4.80717e-05
4.62723e-05
4.57139e-05
4.55233e-05
4.5583e-05
4.59671e-05
4.74097e-05
5.08973e-05
7.55505e-05
7.8e-05
7.8e-05
7.8e-05
7.8e-05
7.8e-05
7.8e-05
7.8e-05
7.8e-05
7.72633e-05
5.61361e-05
4.84643e-05
4.69705e-05
4.64056e-05
4.68082e-05
4.81175e-05
5.23924e-05
7.53087e-05
7.8e-05
7.8e-05
7.8e-05
7.8e-05
7.8e-05
7.8e-05
7.47582e-05
4.90438e-05
4.59253e-05
4.49699e-05
4.44887e-05
4.41994e-05
4.4027e-05
4.39371e-05
4.39165e-05
4.39687e-05
4.4111e-05
4.43977e-05
4.50494e-05
4.71062e-05
5.91601e-05
7.79913e-05
7.8e-05
7.8e-05
7.8e-05
7.8e-05
7.8e-05
7.8e-05
7.8e-05
7.8e-05
7.8e-05
7.8e-05
7.8e-05
7.8e-05
7.8e-05
7.8e-05
7.8e-05
7.8e-05
7.8e-05
7.8e-05
7.8e-05
7.8e-05
7.8e-05
7.8e-05
7.8e-05
7.8e-05
7.8e-05
7.8e-05
7.8e-05
7.8e-05
7.8e-05
7.8e-05
6.77481e-05
4.77024e-05
4.52213e-05
4.44816e-05
4.41604e-05
4.40038e-05
4.39283e-05
4.39016e-05
4.3907e-05
4.39366e-05
4.39878e-05
4.40615e-05
4.41627e-05
4.4302e-05
4.45027e-05
4.4814e-05
4.5372e-05
4.67044e-05
5.25191e-05
7.77836e-05
7.8e-05
7.8e-05
7.8e-05
7.8e-05
7.8e-05
7.8e-05
7.8e-05
7.8e-05
7.8e-05
7.79893e-05
6.87375e-05
5.04616e-05
4.82449e-05
4.78675e-05
4.84104e-05
5.17665e-05
6.95495e-05
7.7951e-05
7.8e-05
7.8e-05
7.8e-05
7.7807e-05
6.61965e-05
4.96855e-05
4.79309e-05
4.7375e-05
4.76334e-05
4.88065e-05
6.05396e-05
7.74368e-05
7.8e-05
7.8e-05
7.8e-05
7.8e-05
7.8e-05
7.8e-05
7.8e-05
7.8e-05
7.8e-05
7.8e-05
7.79633e-05
6.95163e-05
5.5415e-05
5.04181e-05
5.38468e-05
6.70037e-05
7.77576e-05
7.8e-05
7.8e-05
7.8e-05
7.8e-05
7.8e-05
7.8e-05
7.8e-05
7.8e-05
7.33189e-05
4.88374e-05
4.59745e-05
4.4985e-05
4.44803e-05
4.42333e-05
4.41349e-05
4.41528e-05
4.43087e-05
4.46613e-05
4.5355e-05
4.76336e-05
6.34524e-05
7.79953e-05
7.8e-05
7.8e-05
7.8e-05
7.8e-05
7.8e-05
7.8e-05
7.8e-05
7.8e-05
7.8e-05
7.8e-05
7.8e-05
7.8e-05
7.8e-05
7.8e-05
7.8e-05
7.8e-05
7.8e-05
7.8e-05
7.8e-05
7.8e-05
7.8e-05
7.8e-05
7.8e-05
7.8e-05
7.8e-05
7.8e-05
7.8e-05
7.8e-05
7.8e-05
7.8e-05
7.8e-05
7.79999e-05
6.60822e-05
4.76195e-05
4.51839e-05
4.44575e-05
4.4135e-05
4.39605e-05
4.38703e-05
4.38319e-05
4.38334e-05
4.38716e-05
4.39483e-05
4.4071e-05
4.42558e-05
4.45439e-05
4.50253e-05
4.60346e-05
4.94571e-05
7.63811e-05
7.8e-05
7.8e-05
7.8e-05
7.8e-05
7.8e-05
7.8e-05
7.8e-05
7.8e-05
7.8e-05
7.8e-05
7.8e-05
7.8e-05
7.72304e-05
6.95668e-05
6.53785e-05
7.09286e-05
7.76708e-05
7.8e-05
7.8e-05
7.8e-05
7.8e-05
7.8e-05
7.8e-05
7.79998e-05
7.66268e-05
6.74036e-05
6.08841e-05
6.44555e-05
7.41184e-05
7.79963e-05
7.8e-05
7.8e-05
7.8e-05
7.8e-05
7.8e-05
7.8e-05
7.8e-05
7.8e-05
7.8e-05
7.8e-05
7.8e-05
7.8e-05
7.8e-05
7.79472e-05
7.72156e-05
7.78862e-05
7.79999e-05
7.8e-05
7.8e-05
7.8e-05
7.8e-05
7.8e-05
7.8e-05
7.8e-05
7.8e-05
7.8e-05
7.8e-05
7.53987e-05
5.09715e-05
4.69666e-05
4.53579e-05
4.48675e-05
4.4733e-05
4.48302e-05
4.53203e-05
4.67071e-05
4.93705e-05
7.15362e-05
7.79995e-05
7.8e-05
7.8e-05
7.8e-05
7.8e-05
7.8e-05
7.8e-05
7.8e-05
7.8e-05
7.8e-05
7.8e-05
7.8e-05
7.8e-05
7.8e-05
7.8e-05
7.8e-05
7.8e-05
7.8e-05
7.8e-05
7.8e-05
7.8e-05
7.8e-05
7.8e-05
7.8e-05
7.8e-05
7.8e-05
7.8e-05
7.8e-05
7.8e-05
7.8e-05
7.8e-05
7.8e-05
7.8e-05
7.8e-05
7.79999e-05
6.78574e-05
4.78445e-05
4.533e-05
4.45849e-05
4.41947e-05
4.39979e-05
4.38927e-05
4.38571e-05
4.38836e-05
4.3975e-05
4.41462e-05
4.44252e-05
4.49223e-05
4.58825e-05
4.89338e-05
7.47871e-05
7.8e-05
7.8e-05
7.8e-05
7.8e-05
7.8e-05
7.8e-05
7.8e-05
7.8e-05
7.8e-05
7.8e-05
7.8e-05
7.8e-05
7.8e-05
7.8e-05
7.8e-05
7.79996e-05
7.8e-05
7.8e-05
7.8e-05
7.8e-05
7.8e-05
7.8e-05
7.8e-05
7.8e-05
7.8e-05
7.8e-05
7.79999e-05
7.79963e-05
7.79994e-05
7.8e-05
7.8e-05
7.8e-05
7.8e-05
7.8e-05
7.8e-05
7.8e-05
7.8e-05
7.8e-05
7.8e-05
7.8e-05
7.8e-05
7.8e-05
7.8e-05
7.8e-05
7.8e-05
7.8e-05
7.8e-05
7.8e-05
7.8e-05
7.8e-05
7.8e-05
7.8e-05
7.8e-05
7.8e-05
7.8e-05
7.8e-05
7.8e-05
7.8e-05
7.8e-05
7.76967e-05
6.42798e-05
4.88893e-05
4.72865e-05
4.70094e-05
4.73604e-05
4.98018e-05
6.50358e-05
7.73595e-05
7.8e-05
7.8e-05
7.8e-05
7.8e-05
7.8e-05
7.8e-05
7.8e-05
7.8e-05
7.8e-05
7.8e-05
7.8e-05
7.8e-05
7.8e-05
7.8e-05
7.8e-05
7.8e-05
7.8e-05
7.8e-05
7.8e-05
7.8e-05
7.8e-05
7.8e-05
7.8e-05
7.8e-05
7.8e-05
7.8e-05
7.8e-05
7.8e-05
7.8e-05
7.8e-05
7.8e-05
7.8e-05
7.8e-05
7.8e-05
7.8e-05
7.8e-05
7.8e-05
7.27758e-05
4.88984e-05
4.62229e-05
4.49074e-05
4.44492e-05
4.41845e-05
4.40772e-05
4.40898e-05
4.42225e-05
4.45278e-05
4.50637e-05
4.64289e-05
4.97721e-05
7.54897e-05
7.8e-05
7.8e-05
7.8e-05
7.8e-05
7.8e-05
7.8e-05
7.8e-05
7.8e-05
7.8e-05
7.8e-05
7.8e-05
7.8e-05
7.8e-05
7.8e-05
7.8e-05
7.8e-05
7.8e-05
7.8e-05
7.8e-05
7.8e-05
7.8e-05
7.8e-05
7.8e-05
7.8e-05
7.8e-05
7.8e-05
7.8e-05
7.8e-05
7.8e-05
7.8e-05
7.8e-05
7.8e-05
7.8e-05
7.8e-05
7.8e-05
7.8e-05
7.8e-05
7.8e-05
7.8e-05
7.8e-05
7.8e-05
7.8e-05
7.8e-05
7.8e-05
7.8e-05
7.8e-05
7.8e-05
7.8e-05
7.8e-05
7.8e-05
7.8e-05
7.8e-05
7.8e-05
7.8e-05
7.8e-05
7.8e-05
7.8e-05
7.8e-05
7.8e-05
7.8e-05
7.8e-05
7.79996e-05
7.68938e-05
7.04037e-05
6.79593e-05
7.20674e-05
7.75491e-05
7.79998e-05
7.8e-05
7.8e-05
7.8e-05
7.8e-05
7.8e-05
7.8e-05
7.8e-05
7.8e-05
7.8e-05
7.8e-05
7.8e-05
7.8e-05
7.8e-05
7.8e-05
7.8e-05
7.8e-05
7.8e-05
7.8e-05
7.8e-05
7.8e-05
7.8e-05
7.8e-05
7.8e-05
7.8e-05
7.8e-05
7.8e-05
7.8e-05
7.8e-05
7.8e-05
7.8e-05
7.8e-05
7.8e-05
7.8e-05
7.8e-05
7.8e-05
7.8e-05
7.8e-05
7.8e-05
7.8e-05
7.7054e-05
5.88789e-05
4.76284e-05
4.61101e-05
4.50652e-05
4.47406e-05
4.47262e-05
4.49852e-05
4.59193e-05
4.7608e-05
5.72175e-05
7.73245e-05
7.8e-05
7.8e-05
7.8e-05
7.8e-05
7.8e-05
7.8e-05
7.8e-05
7.8e-05
7.8e-05
7.8e-05
7.8e-05
7.8e-05
7.8e-05
7.8e-05
7.8e-05
7.8e-05
7.8e-05
7.8e-05
7.8e-05
7.8e-05
7.8e-05
7.8e-05
7.8e-05
7.8e-05
7.8e-05
7.8e-05
7.8e-05
7.8e-05
7.8e-05
7.8e-05
7.8e-05
7.8e-05
7.8e-05
7.8e-05
7.8e-05
7.8e-05
7.8e-05
7.8e-05
7.8e-05
7.8e-05
7.8e-05
7.8e-05
7.8e-05
7.8e-05
7.8e-05
7.8e-05
7.8e-05
7.8e-05
7.8e-05
7.8e-05
7.8e-05
7.8e-05
7.8e-05
7.8e-05
7.8e-05
7.8e-05
7.8e-05
7.8e-05
7.8e-05
7.8e-05
7.8e-05
7.8e-05
7.8e-05
7.8e-05
7.8e-05
7.8e-05
7.8e-05
7.8e-05
7.8e-05
7.8e-05
7.8e-05
7.8e-05
7.8e-05
7.8e-05
7.8e-05
7.8e-05
7.8e-05
7.8e-05
7.8e-05
7.8e-05
7.8e-05
7.8e-05
7.8e-05
7.8e-05
7.8e-05
7.8e-05
7.8e-05
7.8e-05
7.8e-05
7.8e-05
7.8e-05
7.8e-05
7.8e-05
7.8e-05
7.8e-05
7.8e-05
7.8e-05
7.8e-05
7.8e-05
7.8e-05
7.8e-05
7.8e-05
7.8e-05
7.8e-05
7.8e-05
7.8e-05
7.8e-05
7.8e-05
7.8e-05
7.79959e-05
7.29981e-05
5.88423e-05
4.86247e-05
4.72824e-05
4.71914e-05
4.78972e-05
5.50316e-05
7.10014e-05
7.79888e-05
7.8e-05
7.8e-05
7.8e-05
7.8e-05
7.8e-05
7.8e-05
7.8e-05
7.8e-05
7.8e-05
7.8e-05
7.8e-05
7.8e-05
7.8e-05
7.8e-05
7.8e-05
7.8e-05
7.8e-05
7.8e-05
7.8e-05
7.8e-05
7.8e-05
7.8e-05
7.8e-05
7.8e-05
7.8e-05
7.8e-05
7.8e-05
7.8e-05
7.8e-05
7.8e-05
7.8e-05
7.8e-05
7.8e-05
7.8e-05
7.8e-05
7.8e-05
7.8e-05
7.8e-05
7.8e-05
7.8e-05
7.8e-05
7.8e-05
7.8e-05
7.8e-05
7.8e-05
7.8e-05
7.8e-05
7.8e-05
7.8e-05
7.8e-05
7.8e-05
7.8e-05
7.8e-05
7.8e-05
7.8e-05
7.8e-05
7.8e-05
7.8e-05
7.8e-05
7.8e-05
7.8e-05
7.8e-05
7.8e-05
7.8e-05
7.8e-05
7.8e-05
7.8e-05
7.8e-05
7.8e-05
7.8e-05
7.8e-05
7.8e-05
7.8e-05
7.8e-05
7.8e-05
7.8e-05
7.8e-05
7.8e-05
7.8e-05
7.8e-05
7.8e-05
7.8e-05
7.8e-05
7.8e-05
7.8e-05
7.8e-05
7.8e-05
7.8e-05
7.8e-05
7.8e-05
7.8e-05
7.8e-05
7.8e-05
7.8e-05
7.8e-05
7.8e-05
7.8e-05
7.8e-05
7.8e-05
7.8e-05
7.8e-05
7.8e-05
7.8e-05
7.8e-05
7.8e-05
7.8e-05
7.8e-05
7.8e-05
7.8e-05
7.8e-05
7.8e-05
7.8e-05
7.79954e-05
7.70088e-05
7.29209e-05
7.18949e-05
7.55844e-05
7.79706e-05
7.8e-05
7.8e-05
7.8e-05
7.8e-05
7.8e-05
7.8e-05
7.8e-05
7.8e-05
7.8e-05
7.8e-05
7.8e-05
7.8e-05
7.8e-05
7.8e-05
7.8e-05
7.8e-05
7.8e-05
7.8e-05
7.8e-05
7.8e-05
7.8e-05
7.8e-05
7.8e-05
7.8e-05
7.8e-05
7.8e-05
7.8e-05
7.8e-05
7.8e-05
7.8e-05
7.8e-05
7.8e-05
7.8e-05
7.8e-05
7.8e-05
7.8e-05
7.8e-05
7.8e-05
7.8e-05
7.8e-05
7.8e-05
7.8e-05
7.8e-05
7.8e-05
7.8e-05
7.8e-05
7.8e-05
7.8e-05
7.8e-05
7.8e-05
7.8e-05
7.8e-05
7.8e-05
7.8e-05
7.8e-05
7.8e-05
7.8e-05
7.8e-05
7.8e-05
7.8e-05
7.8e-05
7.8e-05
7.8e-05
7.8e-05
7.8e-05
7.8e-05
7.8e-05
7.8e-05
7.8e-05
7.8e-05
7.8e-05
7.8e-05
7.8e-05
7.8e-05
7.8e-05
7.8e-05
7.8e-05
7.8e-05
7.8e-05
7.8e-05
7.8e-05
7.8e-05
7.8e-05
7.8e-05
7.8e-05
7.8e-05
7.8e-05
7.8e-05
7.8e-05
7.8e-05
7.8e-05
7.8e-05
7.8e-05
7.8e-05
7.8e-05
7.8e-05
7.8e-05
7.8e-05
7.8e-05
7.8e-05
7.8e-05
7.8e-05
7.8e-05
7.8e-05
7.8e-05
7.8e-05
7.8e-05
7.8e-05
7.8e-05
7.8e-05
7.8e-05
7.8e-05
7.8e-05
7.8e-05
7.8e-05
7.8e-05
7.8e-05
7.8e-05
7.8e-05
7.8e-05
7.8e-05
7.8e-05
7.8e-05
7.8e-05
7.8e-05
7.8e-05
7.8e-05
7.8e-05
7.8e-05
7.8e-05
7.8e-05
7.8e-05
7.8e-05
7.8e-05
7.8e-05
7.8e-05
7.8e-05
7.8e-05
7.8e-05
7.8e-05
7.8e-05
7.8e-05
7.8e-05
7.8e-05
7.8e-05
7.8e-05
7.8e-05
7.8e-05
7.8e-05
7.8e-05
7.8e-05
7.8e-05
7.8e-05
7.8e-05
7.8e-05
7.8e-05
7.8e-05
7.8e-05
7.8e-05
7.8e-05
7.8e-05
7.8e-05
7.8e-05
7.8e-05
7.8e-05
7.8e-05
7.8e-05
7.8e-05
7.8e-05
7.8e-05
7.8e-05
7.8e-05
7.8e-05
7.8e-05
7.8e-05
7.8e-05
7.8e-05
7.8e-05
7.8e-05
7.8e-05
7.8e-05
7.8e-05
7.8e-05
7.8e-05
7.8e-05
7.8e-05
7.8e-05
7.8e-05
7.8e-05
7.8e-05
7.8e-05
7.8e-05
7.8e-05
7.8e-05
7.8e-05
7.8e-05
7.8e-05
7.8e-05
7.8e-05
7.8e-05
7.8e-05
7.8e-05
7.8e-05
7.8e-05
7.8e-05
7.8e-05
7.8e-05
7.8e-05
7.8e-05
7.8e-05
7.8e-05
7.8e-05
7.8e-05
7.8e-05
7.8e-05
7.8e-05
7.8e-05
7.8e-05
7.8e-05
7.8e-05
7.8e-05
7.8e-05
7.8e-05
7.8e-05
7.8e-05
7.8e-05
7.8e-05
7.8e-05
7.8e-05
7.8e-05
7.8e-05
7.8e-05
7.8e-05
7.8e-05
7.8e-05
7.8e-05
7.8e-05
7.8e-05
7.8e-05
7.8e-05
7.8e-05
7.8e-05
7.8e-05
7.8e-05
7.8e-05
7.8e-05
7.8e-05
7.8e-05
7.8e-05
7.8e-05
7.8e-05
7.8e-05
7.8e-05
7.8e-05
7.8e-05
7.8e-05
7.8e-05
7.8e-05
7.8e-05
7.8e-05
7.8e-05
7.8e-05
7.8e-05
7.8e-05
7.8e-05
7.8e-05
7.8e-05
7.8e-05
7.8e-05
7.8e-05
7.8e-05
7.8e-05
7.8e-05
7.8e-05
7.8e-05
7.8e-05
7.8e-05
7.8e-05
7.8e-05
7.8e-05
7.8e-05
7.8e-05
7.8e-05
7.8e-05
7.8e-05
7.8e-05
7.8e-05
7.8e-05
7.8e-05
7.8e-05
7.8e-05
7.8e-05
7.8e-05
7.8e-05
7.8e-05
7.8e-05
7.8e-05
7.8e-05
7.8e-05
7.8e-05
7.8e-05
7.8e-05
7.8e-05
7.8e-05
7.8e-05
7.8e-05
7.8e-05
7.8e-05
7.8e-05
7.8e-05
7.8e-05
7.8e-05
7.8e-05
7.8e-05
7.8e-05
7.8e-05
7.8e-05
7.8e-05
7.8e-05
7.8e-05
7.8e-05
7.8e-05
7.8e-05
7.8e-05
7.8e-05
7.8e-05
7.8e-05
7.8e-05
7.8e-05
7.8e-05
7.8e-05
7.8e-05
7.8e-05
7.8e-05
7.8e-05
7.8e-05
7.8e-05
7.8e-05
7.8e-05
7.8e-05
7.8e-05
7.8e-05
7.8e-05
7.8e-05
7.8e-05
7.8e-05
7.8e-05
7.8e-05
7.8e-05
7.8e-05
7.8e-05
7.8e-05
7.8e-05
7.8e-05
7.8e-05
7.8e-05
7.8e-05
7.8e-05
7.8e-05
7.8e-05
7.8e-05
7.8e-05
7.8e-05
7.8e-05
7.8e-05
7.8e-05
7.8e-05
7.8e-05
7.8e-05
7.8e-05
7.8e-05
7.8e-05
7.8e-05
7.8e-05
7.8e-05
7.8e-05
7.8e-05
7.8e-05
7.8e-05
7.8e-05
7.8e-05
7.8e-05
7.8e-05
7.8e-05
7.8e-05
7.8e-05
7.8e-05
7.8e-05
7.8e-05
7.8e-05
7.8e-05
7.8e-05
7.8e-05
7.8e-05
7.8e-05
7.8e-05
7.8e-05
7.8e-05
7.8e-05
7.8e-05
7.8e-05
7.8e-05
7.8e-05
7.8e-05
7.8e-05
7.8e-05
7.8e-05
7.8e-05
7.8e-05
7.8e-05
7.8e-05
7.8e-05
7.8e-05
7.8e-05
7.8e-05
7.8e-05
7.8e-05
7.8e-05
7.8e-05
7.8e-05
7.8e-05
7.8e-05
7.8e-05
7.8e-05
7.8e-05
7.8e-05
7.8e-05
7.8e-05
7.8e-05
7.8e-05
7.8e-05
7.8e-05
7.8e-05
7.8e-05
7.8e-05
7.8e-05
7.8e-05
7.8e-05
7.8e-05
7.8e-05
7.8e-05
7.8e-05
7.8e-05
7.8e-05
7.8e-05
7.8e-05
7.8e-05
7.8e-05
7.8e-05
7.8e-05
7.8e-05
7.8e-05
7.8e-05
7.8e-05
7.8e-05
7.8e-05
7.8e-05
7.8e-05
7.8e-05
7.8e-05
7.8e-05
7.8e-05
7.8e-05
7.8e-05
7.8e-05
7.8e-05
7.8e-05
7.8e-05
7.8e-05
7.8e-05
7.8e-05
7.8e-05
7.8e-05
7.8e-05
7.8e-05
7.8e-05
7.8e-05
7.8e-05
7.8e-05
7.8e-05
7.8e-05
7.8e-05
7.8e-05
7.8e-05
7.8e-05
7.8e-05
7.8e-05
7.8e-05
7.8e-05
7.8e-05
7.8e-05
7.8e-05
7.8e-05
7.8e-05
7.8e-05
7.8e-05
7.8e-05
7.8e-05
7.8e-05
7.8e-05
7.8e-05
7.8e-05
7.8e-05
7.8e-05
7.8e-05
7.8e-05
7.8e-05
7.8e-05
7.8e-05
7.8e-05
7.8e-05
7.8e-05
7.8e-05
7.8e-05
7.8e-05
7.8e-05
7.8e-05
7.8e-05
7.8e-05
7.8e-05
7.8e-05
7.8e-05
7.8e-05
7.8e-05
7.8e-05
7.8e-05
7.8e-05
7.8e-05
7.8e-05
7.8e-05
7.8e-05
7.8e-05
7.8e-05
7.8e-05
7.8e-05
7.8e-05
7.8e-05
7.8e-05
7.8e-05
7.8e-05
7.8e-05
7.8e-05
7.8e-05
7.8e-05
7.8e-05
7.8e-05
7.8e-05
7.8e-05
7.8e-05
7.8e-05
7.8e-05
7.8e-05
7.8e-05
7.8e-05
7.8e-05
7.8e-05
7.8e-05
7.8e-05
7.8e-05
7.8e-05
7.8e-05
7.8e-05
7.8e-05
7.8e-05
7.8e-05
7.8e-05
7.8e-05
7.8e-05
7.8e-05
7.8e-05
7.8e-05
7.8e-05
7.8e-05
7.8e-05
7.8e-05
7.8e-05
7.8e-05
7.8e-05
7.8e-05
7.8e-05
7.8e-05
7.8e-05
7.8e-05
7.8e-05
7.8e-05
7.8e-05
7.8e-05
7.8e-05
7.8e-05
7.8e-05
7.8e-05
7.8e-05
7.8e-05
7.8e-05
7.8e-05
7.8e-05
7.8e-05
7.8e-05
7.8e-05
7.8e-05
7.8e-05
7.8e-05
7.8e-05
7.8e-05
7.8e-05
7.8e-05
7.8e-05
7.8e-05
7.8e-05
7.8e-05
7.8e-05
7.8e-05
7.8e-05
7.8e-05
7.8e-05
7.8e-05
7.8e-05
7.8e-05
7.8e-05
7.8e-05
7.8e-05
7.8e-05
7.8e-05
7.8e-05
7.8e-05
7.8e-05
7.8e-05
7.8e-05
7.8e-05
7.8e-05
7.8e-05
7.8e-05
7.8e-05
7.8e-05
7.8e-05
7.8e-05
7.8e-05
7.8e-05
7.8e-05
7.8e-05
7.8e-05
7.8e-05
7.8e-05
7.8e-05
7.8e-05
7.8e-05
7.8e-05
7.8e-05
7.8e-05
7.8e-05
7.8e-05
7.8e-05
7.8e-05
7.8e-05
7.8e-05
7.8e-05
7.8e-05
7.8e-05
7.8e-05
7.8e-05
7.8e-05
7.8e-05
7.8e-05
7.8e-05
7.8e-05
7.8e-05
7.8e-05
7.8e-05
7.8e-05
7.8e-05
7.8e-05
7.8e-05
7.8e-05
7.8e-05
7.8e-05
7.8e-05
7.8e-05
7.8e-05
7.8e-05
7.8e-05
7.8e-05
7.8e-05
7.8e-05
7.8e-05
7.8e-05
7.8e-05
7.8e-05
7.8e-05
7.8e-05
7.8e-05
7.8e-05
7.8e-05
7.8e-05
7.8e-05
7.8e-05
7.8e-05
7.8e-05
7.8e-05
7.8e-05
7.8e-05
7.8e-05
7.8e-05
7.8e-05
7.8e-05
7.8e-05
7.8e-05
7.8e-05
7.8e-05
7.8e-05
7.8e-05
7.8e-05
7.8e-05
7.8e-05
7.8e-05
7.8e-05
7.8e-05
7.8e-05
7.8e-05
7.8e-05
7.8e-05
7.8e-05
7.8e-05
7.8e-05
7.8e-05
7.8e-05
7.8e-05
7.8e-05
7.8e-05
7.8e-05
7.8e-05
7.8e-05
7.8e-05
7.8e-05
7.8e-05
7.8e-05
7.8e-05
7.8e-05
7.8e-05
7.8e-05
7.8e-05
7.8e-05
7.8e-05
7.8e-05
7.8e-05
7.8e-05
7.8e-05
7.8e-05
7.8e-05
7.8e-05
7.8e-05
7.8e-05
7.8e-05
7.8e-05
7.8e-05
7.8e-05
7.8e-05
7.8e-05
7.8e-05
7.8e-05
7.8e-05
7.8e-05
7.8e-05
7.8e-05
7.8e-05
7.8e-05
7.8e-05
7.8e-05
7.8e-05
7.8e-05
7.8e-05
7.8e-05
7.8e-05
7.8e-05
7.8e-05
7.8e-05
7.8e-05
7.8e-05
7.8e-05
7.8e-05
7.8e-05
7.8e-05
7.8e-05
7.8e-05
7.8e-05
7.8e-05
7.8e-05
7.8e-05
7.8e-05
7.8e-05
7.8e-05
7.8e-05
7.8e-05
7.8e-05
7.8e-05
7.8e-05
7.8e-05
7.8e-05
7.8e-05
7.8e-05
7.8e-05
7.8e-05
7.8e-05
7.8e-05
7.8e-05
7.8e-05
7.8e-05
7.8e-05
7.8e-05
7.8e-05
7.8e-05
7.8e-05
7.8e-05
7.8e-05
7.8e-05
7.8e-05
7.8e-05
7.8e-05
7.8e-05
7.8e-05
7.8e-05
7.8e-05
7.8e-05
7.8e-05
7.8e-05
7.8e-05
7.8e-05
7.8e-05
7.8e-05
7.8e-05
7.8e-05
7.8e-05
7.8e-05
7.8e-05
7.8e-05
7.8e-05
7.8e-05
7.8e-05
7.8e-05
7.8e-05
7.8e-05
7.8e-05
7.8e-05
7.8e-05
7.8e-05
7.8e-05
7.8e-05
7.8e-05
7.8e-05
7.8e-05
7.8e-05
7.8e-05
7.8e-05
7.8e-05
7.8e-05
7.8e-05
7.8e-05
7.8e-05
7.8e-05
7.8e-05
7.8e-05
7.8e-05
7.8e-05
7.8e-05
7.8e-05
7.8e-05
7.8e-05
7.8e-05
7.8e-05
7.8e-05
7.8e-05
7.8e-05
7.8e-05
7.8e-05
7.8e-05
7.8e-05
7.8e-05
7.8e-05
7.8e-05
7.8e-05
7.8e-05
7.8e-05
7.8e-05
7.8e-05
7.8e-05
7.8e-05
7.8e-05
7.8e-05
7.8e-05
7.8e-05
7.8e-05
7.8e-05
7.8e-05
7.8e-05
7.8e-05
7.8e-05
7.8e-05
7.8e-05
7.8e-05
7.8e-05
7.8e-05
7.8e-05
7.8e-05
7.8e-05
7.8e-05
7.8e-05
7.8e-05
7.8e-05
7.8e-05
7.8e-05
7.8e-05
7.8e-05
7.8e-05
7.8e-05
7.8e-05
7.8e-05
7.8e-05
7.8e-05
7.8e-05
7.8e-05
7.8e-05
7.8e-05
7.8e-05
7.8e-05
7.8e-05
7.8e-05
7.8e-05
7.8e-05
7.8e-05
7.8e-05
7.8e-05
7.8e-05
7.8e-05
7.8e-05
7.8e-05
7.8e-05
7.8e-05
7.8e-05
7.8e-05
7.8e-05
7.8e-05
7.8e-05
7.8e-05
7.8e-05
7.8e-05
7.8e-05
7.8e-05
7.8e-05
7.8e-05
7.8e-05
7.8e-05
7.8e-05
7.8e-05
7.8e-05
7.8e-05
7.8e-05
7.8e-05
7.8e-05
7.8e-05
7.8e-05
7.8e-05
7.8e-05
7.8e-05
7.8e-05
7.8e-05
7.8e-05
7.8e-05
7.8e-05
7.8e-05
7.8e-05
7.8e-05
7.8e-05
7.8e-05
7.8e-05
7.8e-05
7.8e-05
7.8e-05
7.8e-05
7.8e-05
7.8e-05
7.8e-05
7.8e-05
7.8e-05
7.8e-05
7.8e-05
7.8e-05
7.8e-05
7.8e-05
7.8e-05
7.8e-05
7.8e-05
7.8e-05
7.8e-05
7.8e-05
7.8e-05
7.8e-05
7.8e-05
7.8e-05
7.8e-05
7.8e-05
7.8e-05
7.8e-05
7.8e-05
7.8e-05
7.8e-05
7.8e-05
7.8e-05
7.8e-05
7.8e-05
7.8e-05
7.8e-05
7.8e-05
7.8e-05
7.8e-05
7.8e-05
7.8e-05
7.8e-05
7.8e-05
7.8e-05
7.8e-05
7.8e-05
7.8e-05
7.8e-05
7.8e-05
7.8e-05
7.8e-05
7.8e-05
7.8e-05
7.8e-05
7.8e-05
7.8e-05
7.8e-05
7.8e-05
7.8e-05
7.8e-05
7.8e-05
7.8e-05
7.8e-05
7.8e-05
7.8e-05
7.8e-05
7.8e-05
7.8e-05
7.8e-05
7.8e-05
7.8e-05
7.8e-05
7.8e-05
7.8e-05
7.8e-05
7.8e-05
7.8e-05
7.8e-05
7.8e-05
7.8e-05
7.8e-05
7.8e-05
7.8e-05
7.8e-05
7.8e-05
7.8e-05
7.8e-05
7.8e-05
7.8e-05
7.8e-05
7.8e-05
7.8e-05
7.8e-05
7.8e-05
7.8e-05
7.8e-05
7.8e-05
7.8e-05
7.8e-05
7.8e-05
7.8e-05
7.8e-05
7.8e-05
7.8e-05
7.8e-05
7.8e-05
7.8e-05
7.8e-05
7.8e-05
7.8e-05
7.8e-05
7.8e-05
7.8e-05
7.8e-05
7.8e-05
7.8e-05
7.8e-05
7.8e-05
7.8e-05
7.8e-05
7.8e-05
7.8e-05
7.8e-05
7.8e-05
7.8e-05
7.8e-05
7.8e-05
7.8e-05
7.8e-05
7.8e-05
7.8e-05
7.8e-05
7.8e-05
7.8e-05
7.8e-05
7.8e-05
7.8e-05
7.8e-05
7.8e-05
7.8e-05
7.8e-05
7.8e-05
7.8e-05
7.8e-05
7.8e-05
7.8e-05
7.8e-05
7.8e-05
7.8e-05
7.8e-05
7.8e-05
7.8e-05
7.8e-05
7.8e-05
7.8e-05
7.8e-05
7.8e-05
7.8e-05
7.8e-05
7.8e-05
7.8e-05
7.8e-05
7.8e-05
7.8e-05
7.8e-05
7.8e-05
7.8e-05
7.8e-05
7.8e-05
7.8e-05
7.8e-05
7.8e-05
7.8e-05
7.8e-05
7.8e-05
7.8e-05
7.8e-05
7.8e-05
7.8e-05
7.8e-05
7.8e-05
7.8e-05
7.8e-05
7.8e-05
7.8e-05
7.8e-05
7.8e-05
7.8e-05
7.8e-05
7.8e-05
7.8e-05
7.8e-05
7.8e-05
7.8e-05
7.8e-05
7.8e-05
7.8e-05
7.8e-05
7.8e-05
7.8e-05
7.8e-05
7.8e-05
7.8e-05
7.8e-05
7.8e-05
7.8e-05
7.8e-05
7.8e-05
7.8e-05
7.8e-05
7.8e-05
7.8e-05
7.8e-05
7.8e-05
7.8e-05
7.8e-05
7.8e-05
7.8e-05
7.8e-05
7.8e-05
7.8e-05
7.8e-05
7.8e-05
7.8e-05
7.8e-05
7.8e-05
7.8e-05
7.8e-05
7.8e-05
7.8e-05
7.8e-05
7.8e-05
7.8e-05
7.8e-05
7.8e-05
7.8e-05
7.8e-05
7.8e-05
7.8e-05
7.8e-05
7.8e-05
7.8e-05
7.8e-05
7.8e-05
7.8e-05
7.8e-05
7.8e-05
7.8e-05
7.8e-05
7.8e-05
7.8e-05
7.8e-05
7.8e-05
7.8e-05
7.8e-05
7.8e-05
7.8e-05
7.8e-05
7.8e-05
7.8e-05
7.8e-05
7.8e-05
7.8e-05
7.8e-05
7.8e-05
7.8e-05
7.8e-05
7.8e-05
7.8e-05
7.8e-05
7.8e-05
7.8e-05
7.8e-05
7.8e-05
7.8e-05
7.8e-05
7.8e-05
7.8e-05
7.8e-05
7.8e-05
7.8e-05
7.8e-05