/*--------------------------------*- C++ -*----------------------------------*\
| =========                 |                                                 |
| \\      /  F ield         | OpenFOAM: The Open Source CFD Toolbox           |
|  \\    /   O peration     | Version:  2406                                  |
|   \\  /    A nd           | Website:  www.openfoam.com                      |
|    \\/     M anipulation  |                                                 |
\*---------------------------------------------------------------------------*/
FoamFile
{
    version     2.0;
    format      ascii;
    arch        "LSB;label=32;scalar=64";
    class       volScalarField;
    location    "4.95";
    object      C_0;
}
// * * * * * * * * * * * * * * * * * * * * * * * * * * * * * * * * * * * * * //

dimensions      [1 -3 0 0 0 0 0];

internalField   nonuniform List<scalar> 
14400
(
0.327587
0.324565
0.319732
0.314374
0.309518
0.305904
0.304032
0.304209
0.306584
0.31116
0.317789
0.326144
0.335652
0.345375
0.353778
0.358418
0.355215
0.34794
0.339236
0.330919
0.324188
0.319863
0.318536
0.320671
0.326659
0.336859
0.351625
0.371312
0.396294
0.426948
0.46364
0.506649
0.555968
0.610549
0.664444
0.702643
0.72856
0.751239
0.771095
0.788419
0.803434
0.816318
0.827208
0.836216
0.843426
0.848906
0.852703
0.854854
0.85538
0.854288
0.851577
0.847231
0.841222
0.833508
0.824034
0.812726
0.799491
0.784211
0.766738
0.746887
0.724426
0.699058
0.668289
0.622146
0.562927
0.508015
0.459348
0.417064
0.380901
0.350475
0.325379
0.305226
0.289671
0.27842
0.271228
0.267903
0.268298
0.272308
0.279861
0.290906
0.305394
0.323249
0.344313
0.36822
0.394004
0.418435
0.433847
0.439495
0.43893
0.430365
0.412997
0.392404
0.372854
0.355425
0.340523
0.328293
0.318725
0.311686
0.306936
0.304129
0.302832
0.302547
0.302783
0.303153
0.303514
0.304056
0.305206
0.307497
0.311468
0.317598
0.326286
0.337836
0.352458
0.370253
0.391176
0.414922
0.440475
0.46362
0.477534
0.482915
0.340574
0.336375
0.330267
0.323858
0.318225
0.314079
0.311888
0.311938
0.314366
0.319174
0.326228
0.335233
0.345681
0.356747
0.367043
0.373756
0.368929
0.359652
0.349406
0.33998
0.332456
0.327566
0.325853
0.327749
0.333627
0.343837
0.358721
0.378632
0.403937
0.435012
0.47222
0.515851
0.565939
0.621365
0.671831
0.706371
0.731757
0.754061
0.773629
0.790727
0.805566
0.81831
0.829091
0.838013
0.845157
0.850587
0.85435
0.85648
0.856996
0.855908
0.853212
0.848894
0.842926
0.835269
0.825868
0.814654
0.801536
0.786403
0.769116
0.749499
0.727332
0.702327
0.673301
0.63021
0.571916
0.516675
0.467414
0.424548
0.387872
0.35701
0.331555
0.311118
0.295351
0.283959
0.276698
0.273373
0.27384
0.277995
0.285767
0.297109
0.311977
0.330301
0.351934
0.376531
0.403096
0.426833
0.440295
0.445692
0.445509
0.43898
0.422876
0.401906
0.381856
0.363976
0.348721
0.336262
0.326605
0.319623
0.315075
0.312604
0.311739
0.311913
0.312521
0.313042
0.31324
0.313401
0.314088
0.315945
0.319579
0.325504
0.334129
0.345759
0.360596
0.378729
0.400099
0.424377
0.450425
0.471974
0.483394
0.488294
0.367196
0.36003
0.351223
0.342736
0.335601
0.330435
0.327631
0.327437
0.329971
0.335231
0.343098
0.353318
0.365454
0.378769
0.391751
0.398716
0.394691
0.382325
0.369393
0.357966
0.348968
0.343008
0.340553
0.341986
0.347653
0.357886
0.373013
0.393373
0.419322
0.451223
0.489413
0.534118
0.585162
0.640467
0.68405
0.71357
0.738032
0.759619
0.778631
0.795295
0.809792
0.822266
0.832834
0.841588
0.848602
0.853935
0.857631
0.859718
0.860217
0.859135
0.856469
0.852206
0.846319
0.838773
0.829516
0.818484
0.805596
0.79075
0.773823
0.75466
0.733075
0.708838
0.681673
0.644462
0.590358
0.534144
0.483619
0.439596
0.401909
0.370186
0.344016
0.323011
0.306821
0.295148
0.287746
0.284423
0.285033
0.289476
0.297685
0.309617
0.325233
0.344467
0.367154
0.392872
0.420272
0.44178
0.452458
0.45747
0.457815
0.453534
0.441481
0.42072
0.399859
0.381117
0.365172
0.352261
0.342428
0.335566
0.331439
0.329673
0.329741
0.330937
0.332414
0.333324
0.333108
0.332381
0.332038
0.33296
0.335887
0.341386
0.34988
0.361666
0.376925
0.395708
0.417894
0.442942
0.468758
0.48585
0.494406
0.498572
0.404514
0.394481
0.382057
0.370744
0.361559
0.35498
0.351319
0.350785
0.353481
0.359392
0.368398
0.38027
0.394561
0.410308
0.424126
0.427651
0.426079
0.414193
0.398548
0.384666
0.373714
0.366274
0.362768
0.363541
0.368912
0.379193
0.394693
0.41573
0.44264
0.475759
0.515358
0.561491
0.61336
0.663774
0.698287
0.724091
0.747185
0.767753
0.78598
0.80203
0.816041
0.828128
0.838389
0.846901
0.853729
0.858922
0.862518
0.864545
0.865019
0.863946
0.861325
0.857141
0.851372
0.843986
0.834938
0.824171
0.811613
0.797179
0.780764
0.762244
0.74147
0.718267
0.692426
0.661739
0.616601
0.559988
0.507945
0.462341
0.423201
0.39021
0.362979
0.341125
0.324299
0.312202
0.304589
0.301267
0.302093
0.306968
0.315827
0.328633
0.34535
0.365904
0.390074
0.417159
0.444446
0.460987
0.469364
0.473914
0.474698
0.471836
0.464848
0.448489
0.426791
0.406885
0.389959
0.376384
0.366296
0.359626
0.356157
0.355522
0.357144
0.36013
0.363248
0.365052
0.363894
0.361497
0.359357
0.358725
0.360522
0.365358
0.373645
0.385657
0.401531
0.421221
0.44449
0.47031
0.491602
0.502875
0.509609
0.513016
0.44136
0.436001
0.421532
0.407404
0.395958
0.38773
0.38303
0.382081
0.385003
0.391743
0.402137
0.415953
0.432543
0.449817
0.458015
0.45907
0.458515
0.452464
0.436127
0.419918
0.406743
0.397514
0.392707
0.39265
0.397656
0.408022
0.424037
0.445981
0.474155
0.508854
0.550209
0.597795
0.648952
0.686849
0.713519
0.737316
0.758862
0.778227
0.795507
0.810804
0.824213
0.835818
0.845693
0.8539
0.86049
0.865505
0.868976
0.870925
0.871367
0.870307
0.867742
0.86366
0.858043
0.850863
0.84208
0.831647
0.819507
0.805589
0.789812
0.772082
0.752294
0.730335
0.706091
0.679472
0.644691
0.593565
0.540423
0.493002
0.452033
0.417394
0.388765
0.365784
0.348109
0.335445
0.327548
0.324227
0.32534
0.330787
0.340506
0.354455
0.372595
0.394825
0.420832
0.449368
0.471844
0.482931
0.49003
0.494126
0.495226
0.493469
0.48915
0.479984
0.461631
0.441102
0.423127
0.408714
0.398308
0.391904
0.38933
0.390271
0.394181
0.399948
0.405797
0.409549
0.406369
0.401191
0.396276
0.393361
0.393587
0.397524
0.40553
0.417824
0.434472
0.455113
0.47894
0.501856
0.515103
0.522799
0.52814
0.530866
0.475434
0.474738
0.467531
0.451988
0.43859
0.428679
0.422816
0.421386
0.42462
0.432346
0.444217
0.459991
0.478022
0.488387
0.491071
0.492075
0.491951
0.490555
0.481262
0.463613
0.448149
0.436919
0.430633
0.429603
0.434186
0.444692
0.461377
0.484449
0.514135
0.550691
0.593947
0.641955
0.680408
0.707424
0.731007
0.752794
0.772721
0.790785
0.807017
0.821466
0.834188
0.845237
0.854665
0.862515
0.868827
0.873632
0.876954
0.878812
0.879217
0.878172
0.875674
0.871716
0.866279
0.859341
0.850871
0.840831
0.829178
0.815857
0.800812
0.783978
0.765289
0.744687
0.722126
0.6976
0.670788
0.633148
0.580955
0.531858
0.488772
0.452133
0.421787
0.397407
0.378672
0.365296
0.35704
0.353719
0.35519
0.36135
0.372128
0.387462
0.407282
0.431352
0.458822
0.485262
0.499511
0.507712
0.513697
0.517332
0.518613
0.517663
0.514732
0.5102
0.500417
0.482969
0.464538
0.449181
0.438467
0.432397
0.430884
0.433713
0.440563
0.449758
0.458606
0.461407
0.459115
0.450828
0.442515
0.436665
0.435016
0.437891
0.445551
0.458127
0.475661
0.496699
0.5181
0.531521
0.539044
0.545076
0.549285
0.551443
0.510096
0.509807
0.50888
0.502016
0.488672
0.477594
0.470536
0.468531
0.472216
0.481054
0.493903
0.510324
0.520087
0.523455
0.525142
0.526206
0.526559
0.526198
0.524157
0.514384
0.497727
0.484568
0.476807
0.474684
0.478796
0.489513
0.507042
0.531426
0.562667
0.600953
0.644641
0.680533
0.706565
0.729038
0.750292
0.770131
0.788443
0.805174
0.820309
0.833856
0.845836
0.856279
0.865213
0.872668
0.87867
0.88324
0.886397
0.888153
0.888516
0.887489
0.885069
0.881248
0.876015
0.86935
0.861231
0.85163
0.840515
0.827851
0.8136
0.797727
0.780199
0.760998
0.740127
0.717624
0.693583
0.666836
0.628678
0.579063
0.533749
0.494841
0.462518
0.436488
0.416491
0.402258
0.393567
0.390244
0.392142
0.399148
0.41117
0.428082
0.449752
0.475606
0.503155
0.519579
0.527966
0.534706
0.539715
0.542891
0.544231
0.543837
0.541912
0.538758
0.534744
0.526343
0.512932
0.497092
0.486445
0.480785
0.480308
0.484694
0.494061
0.500826
0.504325
0.504916
0.504912
0.50202
0.495942
0.487516
0.484324
0.486146
0.493396
0.505919
0.523937
0.54049
0.551976
0.558615
0.56446
0.569177
0.57248
0.574179
0.545046
0.54498
0.544927
0.544728
0.540214
0.532818
0.52511
0.522483
0.526762
0.53654
0.546843
0.55401
0.556596
0.558302
0.559835
0.561047
0.561881
0.56236
0.5626
0.561196
0.553653
0.539914
0.531336
0.528003
0.531617
0.542626
0.561193
0.586967
0.619044
0.65725
0.687999
0.711203
0.731847
0.751873
0.77099
0.788994
0.805746
0.82116
0.835189
0.847811
0.859022
0.868828
0.877241
0.884275
0.889945
0.894263
0.897241
0.898887
0.899206
0.898199
0.895863
0.892194
0.887182
0.880814
0.873073
0.863943
0.853402
0.841431
0.828012
0.81313
0.796782
0.77898
0.759758
0.739188
0.717385
0.694521
0.668724
0.632666
0.586778
0.545751
0.511417
0.483542
0.462111
0.446884
0.437674
0.434345
0.436737
0.4447
0.458118
0.476636
0.500038
0.52646
0.543075
0.551296
0.55796
0.563431
0.567567
0.570285
0.571584
0.571542
0.570321
0.56816
0.565373
0.562348
0.557014
0.548989
0.540466
0.535332
0.535543
0.538508
0.541277
0.54206
0.541291
0.541277
0.541999
0.543496
0.543388
0.541457
0.539522
0.540577
0.547317
0.557915
0.568268
0.576084
0.581355
0.586457
0.591005
0.59469
0.597279
0.598613
0.580061
0.580139
0.580359
0.580862
0.581866
0.580954
0.57916
0.578909
0.581532
0.585767
0.589314
0.590413
0.591789
0.593322
0.594847
0.596269
0.597558
0.598763
0.60001
0.60152
0.602363
0.599088
0.593277
0.588812
0.592198
0.60354
0.623048
0.649669
0.67777
0.702058
0.721129
0.739473
0.757748
0.775615
0.792803
0.809109
0.824387
0.838532
0.851476
0.863178
0.873613
0.882771
0.890648
0.897246
0.90257
0.906626
0.909417
0.910948
0.911221
0.910236
0.907992
0.904484
0.899705
0.893649
0.886306
0.877665
0.867719
0.85646
0.843885
0.829999
0.81482
0.79838
0.780738
0.761984
0.742248
0.72171
0.700607
0.677265
0.645534
0.604352
0.568761
0.538956
0.516032
0.499695
0.489868
0.486531
0.48947
0.498409
0.51329
0.532766
0.556126
0.570737
0.578019
0.583927
0.589146
0.593492
0.596835
0.5991
0.600278
0.600427
0.599669
0.598188
0.596223
0.594062
0.592029
0.589935
0.5863
0.583196
0.581809
0.581004
0.578949
0.577541
0.576872
0.576899
0.577616
0.579055
0.581297
0.584227
0.586017
0.588675
0.593349
0.598767
0.602817
0.606741
0.610864
0.614852
0.618411
0.621301
0.623333
0.624381
0.615
0.615155
0.615508
0.616146
0.61719
0.618751
0.620754
0.622297
0.623344
0.623796
0.624431
0.625481
0.626824
0.628349
0.629964
0.631621
0.63332
0.635123
0.637156
0.639625
0.642826
0.646944
0.64902
0.651743
0.657834
0.669152
0.685332
0.703342
0.720537
0.735723
0.751583
0.767811
0.784059
0.800034
0.815497
0.830254
0.84416
0.857103
0.869005
0.87981
0.889481
0.897994
0.905333
0.911492
0.916465
0.920252
0.922853
0.924267
0.924494
0.923534
0.921384
0.918043
0.913507
0.907772
0.900835
0.892694
0.883349
0.872804
0.861069
0.848162
0.834117
0.818982
0.80283
0.785761
0.767913
0.749463
0.730639
0.711721
0.692038
0.665984
0.633665
0.602424
0.578443
0.560951
0.550358
0.547032
0.550545
0.560051
0.575952
0.592257
0.603103
0.608278
0.612858
0.617246
0.621205
0.624558
0.62718
0.629
0.630001
0.630218
0.62974
0.6287
0.627271
0.625644
0.624008
0.622476
0.62109
0.619451
0.617242
0.615076
0.613394
0.61228
0.611757
0.611831
0.612508
0.613809
0.615756
0.618355
0.621574
0.624985
0.627979
0.630826
0.63392
0.63719
0.640508
0.643675
0.646489
0.648768
0.650371
0.651197
0.649784
0.649971
0.650371
0.651026
0.651982
0.653247
0.654717
0.656098
0.657167
0.658068
0.659053
0.660256
0.661679
0.663286
0.66504
0.66693
0.668979
0.671251
0.673867
0.676998
0.680884
0.685823
0.69224
0.700015
0.708384
0.718521
0.729865
0.741423
0.754025
0.76754
0.781669
0.796128
0.810642
0.824967
0.838895
0.852251
0.864895
0.876716
0.887632
0.897577
0.906508
0.914389
0.921199
0.926922
0.931546
0.935065
0.937475
0.938772
0.938955
0.93802
0.935968
0.932797
0.928506
0.923096
0.916568
0.908927
0.900179
0.890338
0.879423
0.867465
0.854505
0.840602
0.825839
0.810319
0.794179
0.777592
0.760765
0.743952
0.72745
0.711461
0.692155
0.670237
0.647865
0.629548
0.618051
0.614735
0.618648
0.626419
0.633947
0.639576
0.641933
0.644779
0.64789
0.650993
0.653869
0.656353
0.658328
0.659721
0.660507
0.660704
0.660372
0.659603
0.658515
0.657237
0.655884
0.654528
0.653174
0.651708
0.650084
0.64853
0.647273
0.646426
0.646046
0.646159
0.646779
0.647914
0.649562
0.651689
0.654207
0.6569
0.65954
0.662156
0.664847
0.667591
0.670303
0.672853
0.675099
0.676913
0.678185
0.67884
0.684381
0.684576
0.684978
0.685605
0.686465
0.68754
0.688754
0.689981
0.691133
0.692256
0.693455
0.694811
0.69635
0.698074
0.699981
0.702082
0.704413
0.707038
0.71006
0.713618
0.717887
0.723062
0.729334
0.736734
0.745191
0.754382
0.764308
0.77503
0.786545
0.798741
0.811427
0.824389
0.837413
0.850298
0.862865
0.874959
0.886452
0.897236
0.907227
0.91636
0.924583
0.931857
0.938153
0.94345
0.947732
0.950988
0.95321
0.954393
0.954531
0.953625
0.951671
0.94867
0.944625
0.939538
0.933415
0.926265
0.918102
0.908945
0.898822
0.887768
0.875834
0.863084
0.849603
0.835496
0.820894
0.805958
0.790877
0.775873
0.761198
0.747128
0.733982
0.721137
0.707266
0.694524
0.684965
0.67976
0.678413
0.678937
0.678695
0.678557
0.679458
0.681014
0.682931
0.684966
0.686926
0.688659
0.690056
0.691048
0.691601
0.69172
0.69144
0.690824
0.689949
0.688903
0.687762
0.686578
0.685369
0.684121
0.682857
0.681687
0.68074
0.680106
0.679842
0.67998
0.680534
0.681509
0.682888
0.684632
0.686665
0.688868
0.691126
0.693409
0.695719
0.698025
0.70026
0.702333
0.704144
0.705598
0.706615
0.707138
0.718782
0.718974
0.719362
0.719949
0.720733
0.721692
0.72278
0.723937
0.725127
0.726366
0.727702
0.729182
0.730835
0.732679
0.734727
0.737005
0.739551
0.742427
0.745717
0.749528
0.753983
0.759206
0.765298
0.772284
0.780118
0.788681
0.797929
0.807844
0.818383
0.829452
0.840908
0.852589
0.864323
0.875947
0.887308
0.89827
0.908716
0.918547
0.927682
0.936052
0.943606
0.950302
0.956106
0.960993
0.964944
0.967945
0.969985
0.971056
0.971154
0.970276
0.96842
0.965589
0.961786
0.957016
0.951289
0.944617
0.937019
0.92852
0.91915
0.908952
0.897978
0.886297
0.873993
0.861167
0.847944
0.834469
0.820913
0.807466
0.794341
0.781766
0.769974
0.759175
0.74969
0.741416
0.734207
0.72811
0.723133
0.719494
0.717382
0.716406
0.716329
0.71689
0.717852
0.719015
0.720209
0.721301
0.722191
0.722813
0.72313
0.723134
0.722846
0.722302
0.721556
0.720665
0.719684
0.718654
0.717603
0.716551
0.715534
0.714622
0.713894
0.713417
0.713237
0.713383
0.71387
0.714698
0.715848
0.717286
0.718955
0.720779
0.722687
0.724636
0.726597
0.728529
0.730378
0.732075
0.733546
0.73472
0.735539
0.73596
0.752991
0.753175
0.753545
0.754098
0.754827
0.755716
0.756737
0.757862
0.759073
0.760379
0.761805
0.76338
0.765131
0.767078
0.769244
0.771659
0.77436
0.777403
0.780854
0.784794
0.78931
0.794481
0.800368
0.806987
0.814314
0.822294
0.830881
0.840033
0.849693
0.859774
0.870165
0.880734
0.891344
0.901859
0.91215
0.922097
0.931596
0.940556
0.948899
0.956561
0.963489
0.969639
0.974975
0.979472
0.983106
0.985862
0.987727
0.988693
0.988753
0.987904
0.986145
0.98348
0.979912
0.975451
0.970106
0.963895
0.956838
0.948964
0.940306
0.93091
0.920831
0.910134
0.898904
0.887236
0.875245
0.863062
0.850838
0.838736
0.826935
0.81562
0.804974
0.795166
0.78635
0.778549
0.77174
0.765924
0.761145
0.757476
0.754933
0.753355
0.752562
0.752363
0.752574
0.753031
0.753593
0.754144
0.754595
0.754883
0.75497
0.754843
0.754506
0.753983
0.753307
0.752517
0.751654
0.750751
0.749838
0.748944
0.748106
0.747373
0.746798
0.746429
0.746304
0.746446
0.746866
0.747563
0.748521
0.749711
0.75109
0.752606
0.754207
0.755852
0.757502
0.759117
0.760649
0.762043
0.763244
0.764198
0.764861
0.765201
0.787016
0.787192
0.787545
0.78807
0.788761
0.789606
0.79059
0.791699
0.792925
0.794273
0.795759
0.797404
0.79923
0.801258
0.803513
0.806025
0.808828
0.811969
0.815502
0.819485
0.823981
0.829041
0.834704
0.840982
0.847859
0.855301
0.863269
0.871715
0.880581
0.889788
0.899243
0.908838
0.918461
0.927996
0.937334
0.946371
0.955014
0.963181
0.970798
0.977805
0.984149
0.989788
0.994685
0.998813
1.00215
1.00467
1.00637
1.00724
1.00726
1.00644
1.00478
1.00227
0.998934
0.994768
0.989791
0.984018
0.977475
0.970191
0.962202
0.953553
0.944299
0.934506
0.924252
0.913627
0.902737
0.891697
0.88064
0.869706
0.859044
0.848805
0.839134
0.830164
0.821997
0.814684
0.808243
0.80269
0.798047
0.794331
0.791519
0.789518
0.788201
0.787425
0.78705
0.786944
0.786989
0.787087
0.787161
0.787153
0.787026
0.786759
0.786353
0.785816
0.785171
0.784444
0.783663
0.782858
0.782055
0.781283
0.780573
0.779965
0.779495
0.779199
0.779105
0.779231
0.779586
0.780167
0.780961
0.781945
0.783087
0.784347
0.785684
0.787062
0.788443
0.789788
0.791057
0.792205
0.793189
0.793967
0.794507
0.794783
0.820864
0.821033
0.821372
0.821876
0.82254
0.823358
0.82432
0.825419
0.826654
0.828028
0.829553
0.831247
0.833126
0.835211
0.837527
0.840098
0.842958
0.846144
0.849698
0.853665
0.858086
0.862999
0.868427
0.874377
0.880837
0.887783
0.895178
0.902978
0.911126
0.919553
0.92818
0.936916
0.945665
0.954331
0.962819
0.97104
0.97891
0.986354
0.993307
0.999711
1.00552
1.01068
1.01517
1.01895
1.022
1.0243
1.02585
1.02662
1.02661
1.02582
1.02425
1.0219
1.01878
1.0149
1.01027
1.00491
0.998854
0.992123
0.984756
0.976799
0.968306
0.959339
0.949971
0.940285
0.930377
0.92035
0.910319
0.900404
0.89073
0.881421
0.872595
0.864357
0.85679
0.849947
0.843859
0.838547
0.834021
0.830281
0.827295
0.824998
0.823297
0.822087
0.821258
0.820704
0.820331
0.820055
0.81981
0.819543
0.819219
0.818817
0.818329
0.817758
0.817117
0.816423
0.815697
0.814962
0.81424
0.813558
0.812941
0.812417
0.812018
0.811767
0.811686
0.811788
0.812079
0.812557
0.813212
0.814023
0.814966
0.81601
0.817122
0.818269
0.819418
0.820535
0.821585
0.822531
0.823338
0.823975
0.824416
0.824641
0.854542
0.854706
0.855033
0.855521
0.856166
0.856965
0.857912
0.859004
0.860242
0.861631
0.863181
0.864903
0.866815
0.868935
0.871283
0.873883
0.876762
0.879951
0.883483
0.887389
0.8917
0.896442
0.901627
0.90726
0.91333
0.919815
0.926683
0.933892
0.941391
0.94912
0.957009
0.96498
0.972952
0.980843
0.988572
0.996058
1.00323
1.01002
1.01637
1.02222
1.02752
1.03225
1.03635
1.03981
1.0426
1.0447
1.0461
1.04678
1.04674
1.04598
1.0445
1.0423
1.03939
1.03577
1.03147
1.02651
1.0209
1.01469
1.0079
1.00058
0.992787
0.984572
0.976006
0.967166
0.958135
0.949008
0.939882
0.930861
0.92205
0.913554
0.905469
0.89788
0.890859
0.884454
0.8787
0.873617
0.869211
0.865476
0.862383
0.859882
0.857904
0.856368
0.855189
0.854284
0.853575
0.852993
0.85248
0.85199
0.851491
0.850961
0.850388
0.849771
0.849116
0.848434
0.847741
0.847052
0.846387
0.845767
0.845213
0.844747
0.844391
0.844165
0.844083
0.844155
0.844386
0.844772
0.845305
0.845969
0.846744
0.847604
0.848524
0.849474
0.850426
0.85135
0.852217
0.852995
0.853658
0.85418
0.85454
0.854724
0.888056
0.888215
0.888534
0.889009
0.88964
0.890423
0.891358
0.892443
0.89368
0.895075
0.896634
0.898371
0.900297
0.90243
0.904787
0.907388
0.910257
0.913416
0.916892
0.920708
0.924885
0.92944
0.93438
0.939707
0.945408
0.951465
0.957846
0.964516
0.971428
0.978527
0.985754
0.993042
1.00032
1.00752
1.01457
1.02139
1.02793
1.03413
1.03992
1.04526
1.05011
1.05443
1.05818
1.06134
1.06388
1.06579
1.06706
1.06766
1.0676
1.06687
1.06547
1.06341
1.0607
1.05734
1.05335
1.04875
1.04357
1.03783
1.03158
1.02484
1.01769
1.01016
1.00232
0.994236
0.985991
0.977664
0.969339
0.961107
0.953057
0.945276
0.937845
0.930836
0.92431
0.918311
0.912871
0.908008
0.90373
0.900028
0.896879
0.894243
0.892068
0.890291
0.888847
0.887668
0.886692
0.885861
0.885126
0.884447
0.883794
0.883146
0.88249
0.881822
0.881142
0.880457
0.879779
0.879118
0.87849
0.877911
0.877398
0.876967
0.876636
0.876418
0.876325
0.876364
0.876536
0.87684
0.877267
0.877804
0.878436
0.87914
0.879896
0.880678
0.881462
0.882223
0.882936
0.883575
0.884119
0.884546
0.884841
0.884991
0.92141
0.921566
0.921877
0.922342
0.92296
0.923731
0.924654
0.92573
0.926961
0.928353
0.929912
0.931648
0.933573
0.935701
0.938047
0.940627
0.94346
0.946565
0.949961
0.953665
0.957692
0.962051
0.966748
0.971778
0.977132
0.982788
0.988722
0.994898
1.00128
1.00781
1.01444
1.02111
1.02777
1.03435
1.04078
1.04701
1.05298
1.05864
1.06393
1.06881
1.07324
1.07718
1.08061
1.08349
1.08581
1.08754
1.08868
1.08921
1.08912
1.08842
1.08711
1.08518
1.08265
1.07953
1.07583
1.07157
1.06678
1.06149
1.05573
1.04953
1.04296
1.03605
1.02887
1.02147
1.01393
1.00632
0.998704
0.991171
0.983794
0.976647
0.969799
0.963311
0.957234
0.951608
0.946463
0.941816
0.937673
0.934028
0.930861
0.928143
0.925833
0.923882
0.922239
0.92085
0.919663
0.918633
0.917716
0.916878
0.916093
0.915339
0.914605
0.913883
0.913172
0.912475
0.911798
0.911151
0.910544
0.909989
0.909499
0.909088
0.908767
0.908547
0.908436
0.908438
0.908555
0.908784
0.909118
0.909546
0.910054
0.910625
0.91124
0.911879
0.912521
0.913145
0.913728
0.914252
0.914696
0.915045
0.915286
0.915408
0.954609
0.954761
0.955065
0.955521
0.956128
0.956887
0.957797
0.958861
0.960082
0.961463
0.963011
0.964736
0.966647
0.968754
0.971072
0.973613
0.976392
0.979423
0.982722
0.986299
0.990165
0.994326
0.998781
1.00353
1.00855
1.01384
1.01935
1.02508
1.03097
1.03699
1.04308
1.0492
1.0553
1.06132
1.0672
1.07289
1.07834
1.08351
1.08834
1.0928
1.09685
1.10045
1.10357
1.1062
1.10831
1.10988
1.1109
1.11137
1.11126
1.11059
1.10935
1.10755
1.10519
1.10229
1.09886
1.09492
1.0905
1.08561
1.0803
1.07461
1.06856
1.06222
1.05563
1.04885
1.04194
1.03497
1.02799
1.02108
1.0143
1.00772
1.00139
0.995373
0.989705
0.984425
0.979558
0.97512
0.971118
0.967548
0.964395
0.961636
0.959239
0.957166
0.955377
0.953829
0.952479
0.95129
0.950226
0.949257
0.948359
0.947514
0.946708
0.945934
0.945189
0.944472
0.943789
0.943144
0.942545
0.942001
0.941523
0.941118
0.940797
0.940567
0.940433
0.940398
0.940463
0.940624
0.940876
0.941208
0.94161
0.942066
0.942561
0.943078
0.943599
0.944106
0.94458
0.945007
0.945368
0.945652
0.945848
0.945948
0.987655
0.987804
0.988102
0.988549
0.989145
0.989891
0.990787
0.991836
0.993041
0.994405
0.995936
0.997639
0.999523
1.0016
1.00387
1.00636
1.00907
1.01201
1.0152
1.01864
1.02234
1.02631
1.03052
1.035
1.03971
1.04465
1.04978
1.05509
1.06054
1.06609
1.07169
1.07732
1.08291
1.08842
1.0938
1.09901
1.104
1.10872
1.11313
1.1172
1.1209
1.12419
1.12704
1.12943
1.13135
1.13277
1.13369
1.13409
1.13397
1.13333
1.13216
1.13048
1.12828
1.12559
1.12241
1.11876
1.11467
1.11017
1.10527
1.10003
1.09447
1.08864
1.08259
1.07636
1.07002
1.06362
1.05721
1.05086
1.04461
1.03854
1.03268
1.02708
1.02179
1.01683
1.01222
1.00799
1.00413
1.00065
0.997535
0.994766
0.99232
0.990167
0.988274
0.986609
0.985135
0.983823
0.982641
0.981564
0.980573
0.979648
0.978779
0.977956
0.977176
0.976437
0.97574
0.97509
0.974491
0.973949
0.973471
0.973065
0.972736
0.97249
0.97233
0.972258
0.972274
0.972374
0.972552
0.972801
0.97311
0.973467
0.97386
0.974273
0.97469
0.975098
0.975482
0.975826
0.976118
0.976348
0.976507
0.976587
1.02055
1.0207
1.02099
1.02143
1.02201
1.02274
1.02362
1.02466
1.02584
1.02718
1.02869
1.03036
1.03221
1.03424
1.03646
1.03888
1.04152
1.04436
1.04743
1.05073
1.05426
1.05802
1.06202
1.06623
1.07065
1.07526
1.08004
1.08497
1.09001
1.09513
1.10029
1.10546
1.1106
1.11565
1.12058
1.12535
1.12991
1.13423
1.13827
1.14199
1.14536
1.14836
1.15096
1.15314
1.15488
1.15617
1.15699
1.15734
1.1572
1.15659
1.15549
1.15391
1.15187
1.14937
1.14642
1.14305
1.13927
1.13511
1.13059
1.12576
1.12064
1.11528
1.10971
1.10399
1.09816
1.09227
1.08637
1.08052
1.07476
1.06914
1.0637
1.05849
1.05354
1.04888
1.04452
1.04048
1.03677
1.03339
1.03033
1.02757
1.02511
1.02291
1.02095
1.0192
1.01763
1.01622
1.01495
1.01379
1.01272
1.01173
1.0108
1.00994
1.00912
1.00836
1.00765
1.00698
1.00638
1.00583
1.00535
1.00493
1.00459
1.00433
1.00414
1.00403
1.004
1.00404
1.00416
1.00433
1.00456
1.00483
1.00514
1.00546
1.00579
1.00612
1.00642
1.0067
1.00693
1.00712
1.00724
1.00731
1.0533
1.05345
1.05373
1.05416
1.05473
1.05545
1.05631
1.05732
1.05848
1.0598
1.06127
1.06291
1.06471
1.06669
1.06885
1.0712
1.07374
1.07649
1.07943
1.08259
1.08595
1.08952
1.09329
1.09725
1.10139
1.1057
1.11015
1.11473
1.11939
1.12413
1.12889
1.13365
1.13837
1.143
1.14753
1.15189
1.15607
1.16002
1.16371
1.16712
1.1702
1.17294
1.17531
1.17729
1.17887
1.18003
1.18077
1.18106
1.18092
1.18033
1.17929
1.17782
1.17592
1.17359
1.17086
1.16774
1.16424
1.1604
1.15623
1.15177
1.14706
1.14212
1.13699
1.13173
1.12636
1.12093
1.11549
1.11009
1.10476
1.09956
1.0945
1.08964
1.08501
1.08061
1.07649
1.07264
1.06908
1.06581
1.06281
1.06009
1.05763
1.05541
1.0534
1.0516
1.04997
1.04849
1.04715
1.04592
1.04479
1.04374
1.04277
1.04186
1.04102
1.04023
1.0395
1.03882
1.03821
1.03765
1.03716
1.03673
1.03637
1.03609
1.03587
1.03573
1.03565
1.03565
1.0357
1.03581
1.03597
1.03617
1.0364
1.03664
1.0369
1.03715
1.03739
1.03761
1.03779
1.03794
1.03804
1.03809
1.08591
1.08605
1.08633
1.08675
1.08731
1.08801
1.08885
1.08984
1.09097
1.09225
1.09369
1.09528
1.09704
1.09896
1.10105
1.10332
1.10577
1.10841
1.11123
1.11423
1.11743
1.12081
1.12436
1.12809
1.13197
1.13599
1.14014
1.14439
1.14872
1.15309
1.15749
1.16187
1.16621
1.17047
1.17463
1.17863
1.18246
1.18608
1.18945
1.19256
1.19538
1.19788
1.20004
1.20185
1.20328
1.20433
1.20498
1.20523
1.20507
1.20451
1.20354
1.20216
1.20039
1.19823
1.19569
1.1928
1.18956
1.18601
1.18216
1.17805
1.1737
1.16914
1.16442
1.15956
1.15461
1.1496
1.14458
1.13959
1.13465
1.12981
1.12511
1.12057
1.11622
1.11209
1.10818
1.10452
1.1011
1.09794
1.09503
1.09235
1.08991
1.08769
1.08567
1.08383
1.08215
1.08063
1.07923
1.07795
1.07677
1.07568
1.07467
1.07373
1.07286
1.07205
1.0713
1.07061
1.06998
1.06941
1.0689
1.06846
1.06808
1.06777
1.06753
1.06735
1.06724
1.06719
1.06719
1.06724
1.06734
1.06747
1.06764
1.06782
1.06801
1.0682
1.06839
1.06855
1.0687
1.06881
1.06889
1.06893
1.11838
1.11852
1.11879
1.1192
1.11974
1.12042
1.12124
1.1222
1.12331
1.12456
1.12595
1.1275
1.1292
1.13106
1.13308
1.13526
1.13762
1.14014
1.14283
1.14569
1.14872
1.15192
1.15527
1.15877
1.16241
1.16617
1.17003
1.17398
1.17799
1.18204
1.1861
1.19014
1.19414
1.19806
1.20187
1.20554
1.20905
1.21237
1.21546
1.2183
1.22088
1.22316
1.22513
1.22677
1.22807
1.22901
1.22959
1.2298
1.22964
1.2291
1.22818
1.22689
1.22524
1.22323
1.22088
1.2182
1.2152
1.21192
1.20836
1.20456
1.20054
1.19634
1.19198
1.18749
1.18292
1.17829
1.17365
1.16902
1.16444
1.15994
1.15556
1.15131
1.14723
1.14333
1.13963
1.13615
1.13288
1.12983
1.127
1.12438
1.12198
1.11977
1.11774
1.11589
1.11419
1.11263
1.1112
1.10988
1.10866
1.10754
1.1065
1.10553
1.10463
1.1038
1.10303
1.10233
1.10168
1.1011
1.10058
1.10012
1.09973
1.09939
1.09912
1.09891
1.09876
1.09867
1.09863
1.09863
1.09867
1.09875
1.09886
1.09898
1.09912
1.09926
1.09939
1.09952
1.09963
1.09971
1.09977
1.0998
1.15072
1.15085
1.15111
1.15151
1.15204
1.1527
1.1535
1.15443
1.1555
1.15671
1.15806
1.15956
1.1612
1.163
1.16494
1.16704
1.16929
1.1717
1.17427
1.17699
1.17986
1.18287
1.18603
1.18932
1.19272
1.19623
1.19983
1.20351
1.20723
1.21097
1.21473
1.21846
1.22214
1.22575
1.22925
1.23262
1.23584
1.23888
1.24171
1.24432
1.24667
1.24875
1.25055
1.25204
1.25322
1.25407
1.25458
1.25475
1.25458
1.25406
1.2532
1.25199
1.25045
1.24858
1.2464
1.24391
1.24114
1.2381
1.23481
1.23129
1.22758
1.22369
1.21966
1.21551
1.21128
1.207
1.20269
1.1984
1.19414
1.18995
1.18586
1.18189
1.17805
1.17438
1.17087
1.16755
1.16443
1.16149
1.15875
1.15621
1.15385
1.15166
1.14965
1.14779
1.14608
1.14451
1.14305
1.14171
1.14047
1.13932
1.13825
1.13726
1.13634
1.13549
1.13471
1.13399
1.13333
1.13273
1.1322
1.13172
1.13131
1.13095
1.13065
1.13042
1.13023
1.1301
1.13002
1.12998
1.12997
1.13
1.13006
1.13014
1.13022
1.13032
1.13041
1.1305
1.13058
1.13065
1.13069
1.13071
1.18292
1.18305
1.1833
1.18369
1.1842
1.18484
1.18561
1.18652
1.18755
1.18872
1.19003
1.19147
1.19306
1.19478
1.19665
1.19866
1.20081
1.20311
1.20555
1.20813
1.21084
1.21369
1.21666
1.21975
1.22293
1.22621
1.22957
1.23298
1.23643
1.23991
1.24338
1.24682
1.25022
1.25354
1.25676
1.25986
1.26282
1.2656
1.2682
1.27058
1.27273
1.27463
1.27627
1.27762
1.27869
1.27945
1.27991
1.28005
1.27987
1.27937
1.27856
1.27743
1.27599
1.27425
1.27222
1.26991
1.26734
1.26452
1.26147
1.25822
1.25478
1.25119
1.24746
1.24362
1.2397
1.23573
1.23173
1.22774
1.22378
1.21987
1.21605
1.21232
1.20872
1.20525
1.20193
1.19877
1.19578
1.19296
1.19032
1.18784
1.18554
1.18339
1.1814
1.17955
1.17784
1.17626
1.1748
1.17344
1.17218
1.17101
1.16992
1.16892
1.16798
1.16712
1.16632
1.16559
1.16491
1.1643
1.16375
1.16326
1.16283
1.16245
1.16213
1.16186
1.16165
1.16148
1.16136
1.16128
1.16124
1.16123
1.16124
1.16128
1.16132
1.16138
1.16144
1.1615
1.16155
1.1616
1.16163
1.16164
1.21499
1.21512
1.21537
1.21574
1.21623
1.21685
1.2176
1.21847
1.21947
1.2206
1.22186
1.22325
1.22477
1.22642
1.22821
1.23013
1.23219
1.23437
1.23669
1.23913
1.2417
1.24438
1.24717
1.25007
1.25305
1.25612
1.25924
1.26242
1.26562
1.26884
1.27205
1.27523
1.27836
1.28143
1.28439
1.28724
1.28996
1.29251
1.29489
1.29707
1.29904
1.30077
1.30227
1.3035
1.30446
1.30515
1.30555
1.30566
1.30548
1.305
1.30423
1.30317
1.30183
1.30021
1.29832
1.29617
1.29379
1.29117
1.28835
1.28533
1.28215
1.27882
1.27536
1.2718
1.26816
1.26448
1.26077
1.25705
1.25336
1.24971
1.24613
1.24264
1.23925
1.23597
1.23283
1.22982
1.22697
1.22426
1.22171
1.21931
1.21706
1.21496
1.213
1.21118
1.20948
1.2079
1.20643
1.20507
1.2038
1.20262
1.20152
1.2005
1.19955
1.19868
1.19787
1.19712
1.19644
1.19581
1.19525
1.19474
1.19429
1.19389
1.19355
1.19326
1.19302
1.19282
1.19267
1.19255
1.19247
1.19243
1.1924
1.1924
1.19241
1.19244
1.19247
1.1925
1.19253
1.19256
1.19258
1.19259
1.24695
1.24706
1.2473
1.24766
1.24814
1.24874
1.24946
1.2503
1.25126
1.25235
1.25356
1.25489
1.25635
1.25793
1.25964
1.26147
1.26343
1.2655
1.2677
1.27001
1.27244
1.27496
1.27759
1.2803
1.2831
1.28596
1.28887
1.29182
1.2948
1.29778
1.30075
1.3037
1.30659
1.30941
1.31214
1.31476
1.31726
1.3196