/*--------------------------------*- C++ -*----------------------------------*\
| =========                 |                                                 |
| \\      /  F ield         | OpenFOAM: The Open Source CFD Toolbox           |
|  \\    /   O peration     | Version:  2406                                  |
|   \\  /    A nd           | Website:  www.openfoam.com                      |
|    \\/     M anipulation  |                                                 |
\*---------------------------------------------------------------------------*/
FoamFile
{
    version     2.0;
    format      ascii;
    arch        "LSB;label=32;scalar=64";
    class       volScalarField;
    location    "2.05";
    object      C;
}
// * * * * * * * * * * * * * * * * * * * * * * * * * * * * * * * * * * * * * //

dimensions      [1 -3 0 0 0 0 0];

internalField   nonuniform List<scalar> 
14400
(
1.52174
1.51552
1.50239
1.47403
1.43334
1.39876
1.37792
1.37357
1.38649
1.41595
1.45923
1.50838
1.54348
1.56283
1.57622
1.58445
1.58783
1.58625
1.57921
1.56555
1.536
1.496
1.46509
1.44972
1.45248
1.47421
1.51422
1.56996
1.63437
1.68276
1.71327
1.73915
1.76154
1.78107
1.79818
1.8132
1.82639
1.83794
1.84798
1.85665
1.86403
1.87019
1.87521
1.87911
1.88195
1.88375
1.88452
1.88429
1.88306
1.88083
1.8776
1.87334
1.86806
1.86171
1.85427
1.84569
1.83593
1.82491
1.81257
1.79881
1.78351
1.76653
1.7477
1.72678
1.70351
1.67751
1.6483
1.61521
1.57537
1.5135
1.4332
1.36185
1.30455
1.26293
1.23753
1.22844
1.23552
1.25835
1.29615
1.34714
1.40629
1.45103
1.47651
1.49479
1.50799
1.51684
1.52182
1.52316
1.52097
1.51518
1.50554
1.49161
1.47256
1.44055
1.39379
1.34933
1.31764
1.30156
1.3017
1.31713
1.34485
1.37556
1.39354
1.39793
1.39321
1.37491
1.34371
1.31536
1.29928
1.29851
1.31398
1.34512
1.38912
1.43543
1.46717
1.48621
1.50033
1.51036
1.5168
1.51996
1.52794
1.52243
1.51098
1.49126
1.45774
1.42169
1.39941
1.39457
1.40804
1.43899
1.48379
1.52477
1.55089
1.56875
1.58138
1.58931
1.59278
1.59171
1.58576
1.57426
1.55416
1.5207
1.48808
1.47133
1.47367
1.49601
1.5376
1.59526
1.65039
1.68863
1.71765
1.74264
1.7644
1.78348
1.80026
1.81504
1.82804
1.83944
1.84936
1.85794
1.86524
1.87135
1.87631
1.88018
1.88299
1.88477
1.88553
1.88529
1.88406
1.88183
1.87861
1.87438
1.86912
1.8628
1.8554
1.84688
1.83718
1.82624
1.81399
1.80034
1.78519
1.76838
1.74977
1.72914
1.70624
1.68073
1.65217
1.61997
1.58328
1.53143
1.45717
1.38462
1.32616
1.28378
1.258
1.24887
1.25623
1.27971
1.31858
1.37092
1.42485
1.46019
1.48278
1.49987
1.51232
1.52073
1.52545
1.5267
1.52457
1.51901
1.50985
1.49671
1.47902
1.45461
1.41636
1.37131
1.33836
1.32186
1.32252
1.3394
1.36812
1.39223
1.40361
1.40703
1.40322
1.39146
1.36692
1.33758
1.32002
1.3187
1.33456
1.36692
1.41143
1.44926
1.47347
1.49114
1.50442
1.51394
1.52009
1.52312
1.53967
1.53525
1.52635
1.51302
1.49278
1.46439
1.44065
1.43508
1.44934
1.48169
1.51798
1.54498
1.56453
1.57991
1.59122
1.59865
1.60226
1.60204
1.59787
1.58958
1.57712
1.55736
1.53086
1.51284
1.5145
1.53779
1.58053
1.63028
1.66958
1.69962
1.72606
1.74936
1.76995
1.78819
1.80435
1.81865
1.83129
1.8424
1.8521
1.86049
1.86765
1.87364
1.87851
1.88231
1.88506
1.8868
1.88753
1.88728
1.88605
1.88384
1.88064
1.87644
1.87123
1.86498
1.85766
1.84924
1.83966
1.82887
1.81681
1.80339
1.78851
1.77205
1.75386
1.73378
1.71158
1.68699
1.65968
1.62922
1.59506
1.55586
1.5005
1.42863
1.36866
1.32509
1.29867
1.28946
1.29729
1.32176
1.36169
1.41305
1.45088
1.47517
1.49454
1.50958
1.52072
1.52829
1.53254
1.53362
1.5316
1.52646
1.51811
1.50638
1.49103
1.47188
1.44689
1.41248
1.3781
1.36102
1.36248
1.38135
1.40176
1.4142
1.42113
1.42335
1.42066
1.41326
1.40037
1.37941
1.35982
1.35764
1.37402
1.40777
1.44162
1.46623
1.48518
1.50045
1.51227
1.52088
1.52651
1.52929
1.55582
1.55255
1.54616
1.53707
1.5263
1.5122
1.49686
1.4912
1.5056
1.52885
1.54985
1.56698
1.58236
1.59512
1.60496
1.61179
1.61557
1.61632
1.6141
1.60907
1.60168
1.59304
1.58098
1.56996
1.57116
1.59513
1.62951
1.66176
1.68873
1.71422
1.73761
1.75879
1.77786
1.79497
1.81028
1.82394
1.83606
1.84677
1.85615
1.86428
1.87123
1.87705
1.88179
1.88548
1.88815
1.88983
1.89053
1.89026
1.88902
1.88683
1.88366
1.87952
1.87438
1.86822
1.86103
1.85275
1.84335
1.83279
1.82099
1.80789
1.7934
1.77743
1.75985
1.74053
1.7193
1.69598
1.67034
1.64217
1.61124
1.57746
1.54019
1.49008
1.43018
1.3858
1.35874
1.34944
1.3577
1.38283
1.42215
1.45454
1.47612
1.49488
1.51062
1.5232
1.53268
1.53918
1.5428
1.54364
1.54174
1.53712
1.52976
1.51965
1.50684
1.49154
1.47445
1.45477
1.43146
1.41514
1.41625
1.42609
1.43379
1.43946
1.44337
1.44459
1.44282
1.43835
1.43211
1.42385
1.41333
1.41145
1.42698
1.44963
1.46879
1.48553
1.50056
1.51322
1.52331
1.53082
1.53578
1.53825
1.57524
1.57297
1.56865
1.56279
1.55633
1.55078
1.54658
1.54573
1.55451
1.56579
1.57796
1.59074
1.60278
1.61326
1.62172
1.62796
1.63191
1.63359
1.63315
1.63091
1.62747
1.62394
1.62205
1.62208
1.62774
1.64549
1.66617
1.68736
1.70936
1.73093
1.75135
1.77032
1.78772
1.80355
1.81787
1.83075
1.84225
1.85246
1.86144
1.86925
1.87593
1.88154
1.88611
1.88966
1.89223
1.89384
1.89449
1.89419
1.89296
1.89078
1.88766
1.88359
1.87854
1.87251
1.86547
1.85738
1.84822
1.83793
1.82647
1.81378
1.79979
1.78442
1.76759
1.74919
1.72912
1.70727
1.68354
1.65787
1.63026
1.60093
1.57043
1.53921
1.50074
1.46208
1.43532
1.42593
1.43365
1.45239
1.47313
1.48842
1.50353
1.51759
1.52985
1.53992
1.54763
1.55293
1.55585
1.5564
1.55461
1.55051
1.54415
1.53563
1.52512
1.51301
1.49999
1.48726
1.47568
1.46543
1.46267
1.46241
1.46405
1.46647
1.46831
1.4688
1.46768
1.4652
1.46212
1.4598
1.45936
1.46136
1.47083
1.48176
1.49398
1.50655
1.51831
1.52856
1.53694
1.54329
1.54754
1.54967
1.59692
1.59544
1.59269
1.58912
1.58546
1.58274
1.58213
1.58454
1.58911
1.59638
1.60545
1.61523
1.62478
1.63341
1.64071
1.64643
1.6505
1.65297
1.65399
1.65393
1.65337
1.6532
1.65465
1.65917
1.66791
1.67975
1.69485
1.71213
1.73041
1.74877
1.76656
1.78342
1.79915
1.81365
1.82691
1.83893
1.84974
1.85939
1.86791
1.87534
1.88171
1.88707
1.89144
1.89483
1.89728
1.8988
1.89939
1.89906
1.89783
1.89568
1.89261
1.88862
1.88369
1.87781
1.87095
1.86309
1.8542
1.84424
1.83318
1.82097
1.80755
1.79288
1.77688
1.75952
1.74072
1.72045
1.69869
1.6755
1.65102
1.62557
1.59973
1.57444
1.55091
1.5272
1.50775
1.49815
1.49902
1.50512
1.51214
1.52161
1.53197
1.54212
1.55128
1.55899
1.56497
1.56908
1.57126
1.57149
1.56978
1.56616
1.56072
1.55359
1.54502
1.53538
1.52527
1.5155
1.50704
1.50062
1.49596
1.49383
1.49353
1.49407
1.49461
1.49461
1.4939
1.49264
1.49137
1.49093
1.49229
1.49617
1.50185
1.50965
1.51881
1.52838
1.53756
1.54576
1.5526
1.55787
1.56143
1.56322
1.62009
1.61918
1.61755
1.61553
1.61365
1.61258
1.61298
1.61527
1.61933
1.62515
1.63224
1.63996
1.64768
1.6549
1.66126
1.66656
1.67071
1.67378
1.67592
1.67746
1.67888
1.68085
1.68417
1.68966
1.69782
1.70846
1.72135
1.73591
1.7514
1.76717
1.78271
1.79766
1.8118
1.825
1.83718
1.84831
1.8584
1.86744
1.87546
1.88248
1.88852
1.8936
1.89774
1.90095
1.90327
1.90468
1.90521
1.90485
1.90361
1.9015
1.89849
1.8946
1.8898
1.88408
1.87743
1.86983
1.86125
1.85166
1.84104
1.82936
1.81657
1.80265
1.78756
1.77127
1.75378
1.7351
1.71527
1.69442
1.67274
1.65059
1.6285
1.60721
1.58765
1.57085
1.55781
1.54902
1.54472
1.54479
1.54824
1.55388
1.56065
1.56763
1.57416
1.57978
1.58418
1.58717
1.58863
1.58853
1.58685
1.58363
1.57897
1.573
1.56597
1.55821
1.55018
1.54246
1.5356
1.53007
1.52595
1.52342
1.52216
1.52166
1.52144
1.52114
1.52066
1.5201
1.5198
1.52026
1.52199
1.5253
1.53006
1.53617
1.54322
1.55061
1.5578
1.56432
1.56984
1.57414
1.57708
1.57856
1.64416
1.64366
1.64278
1.64179
1.64104
1.64096
1.64193
1.64421
1.64781
1.65264
1.6584
1.66469
1.67109
1.67724
1.68287
1.68782
1.69202
1.69551
1.69845
1.70111
1.70384
1.70713
1.71151
1.71747
1.72527
1.73491
1.74619
1.75875
1.77211
1.7858
1.79943
1.81271
1.8254
1.83736
1.84849
1.85875
1.86809
1.87651
1.88401
1.8906
1.89627
1.90106
1.90496
1.90798
1.91014
1.91145
1.91191
1.91152
1.91028
1.9082
1.90526
1.90147
1.89682
1.89129
1.88487
1.87755
1.8693
1.86012
1.84997
1.83885
1.82672
1.81358
1.79942
1.78424
1.76805
1.7509
1.73289
1.71416
1.69493
1.67554
1.65646
1.63825
1.6216
1.60722
1.59574
1.58752
1.58269
1.58109
1.58212
1.58505
1.5891
1.59358
1.59796
1.6018
1.6048
1.60677
1.60757
1.60713
1.60545
1.60255
1.59852
1.59348
1.58766
1.58131
1.57481
1.56853
1.56286
1.55809
1.55437
1.55173
1.55003
1.54899
1.54833
1.54786
1.54749
1.54729
1.54748
1.54832
1.5501
1.55297
1.5569
1.56177
1.56728
1.57305
1.5787
1.58388
1.5883
1.59178
1.59417
1.59539
1.66873
1.6685
1.66813
1.66781
1.66777
1.66828
1.66958
1.67183
1.67506
1.67919
1.68402
1.68931
1.69475
1.7001
1.70517
1.70982
1.71402
1.7178
1.72128
1.72467
1.72824
1.73233
1.73729
1.74342
1.75089
1.75971
1.76976
1.78079
1.79247
1.80449
1.81652
1.82834
1.83972
1.85054
1.86069
1.87009
1.8787
1.88651
1.89348
1.89962
1.90493
1.9094
1.91305
1.91587
1.91788
1.91907
1.91945
1.91903
1.91779
1.91575
1.91289
1.90921
1.90471
1.89938
1.89321
1.88618
1.87829
1.86953
1.85988
1.84934
1.83789
1.82555
1.81231
1.7982
1.78326
1.76757
1.75122
1.73439
1.71728
1.7002
1.68354
1.66773
1.65329
1.6407
1.63039
1.62262
1.61745
1.61474
1.61412
1.61509
1.61711
1.61965
1.62229
1.62465
1.62646
1.62754
1.62774
1.62699
1.62527
1.62261
1.61906
1.61475
1.60985
1.60458
1.5992
1.59398
1.58921
1.58507
1.58169
1.5791
1.57723
1.57593
1.57505
1.57447
1.57414
1.57411
1.57449
1.57545
1.57712
1.57958
1.58282
1.58672
1.59107
1.59561
1.60007
1.60418
1.60772
1.61051
1.61244
1.61343
1.69353
1.69348
1.69345
1.69354
1.69394
1.6948
1.69628
1.69848
1.70141
1.70503
1.7092
1.71376
1.7185
1.72325
1.72788
1.73228
1.73644
1.74038
1.7442
1.74804
1.75212
1.75666
1.7619
1.76803
1.77515
1.78329
1.79235
1.80217
1.81251
1.82315
1.83384
1.84439
1.85462
1.8644
1.87362
1.88222
1.89013
1.89733
1.90378
1.90948
1.91441
1.91857
1.92196
1.92458
1.92642
1.9275
1.92781
1.92734
1.92611
1.92411
1.92133
1.91778
1.91344
1.90832
1.9024
1.89568
1.88816
1.87983
1.87068
1.86073
1.84996
1.8384
1.82606
1.81299
1.79924
1.78488
1.77005
1.75489
1.7396
1.72445
1.70975
1.69585
1.68312
1.67191
1.66251
1.65511
1.64974
1.64629
1.64452
1.64408
1.64458
1.64563
1.64689
1.64804
1.64887
1.64918
1.64885
1.64782
1.64604
1.64354
1.64037
1.63662
1.63242
1.62796
1.62342
1.61901
1.61491
1.61129
1.60823
1.60576
1.60386
1.60246
1.60147
1.60082
1.60049
1.60051
1.60094
1.60185
1.60334
1.60542
1.60808
1.61121
1.61466
1.61826
1.62179
1.62505
1.62787
1.63011
1.63166
1.63245
1.71838
1.71845
1.71862
1.71898
1.71964
1.7207
1.72226
1.72439
1.72709
1.73032
1.734
1.73802
1.74224
1.74653
1.7508
1.75499
1.75908
1.76308
1.76708
1.77118
1.77554
1.78029
1.78562
1.79163
1.79841
1.80594
1.81419
1.82301
1.83226
1.84175
1.8513
1.86075
1.86996
1.8788
1.88718
1.89503
1.90228
1.90889
1.91484
1.9201
1.92466
1.92851
1.93165
1.93405
1.93574
1.9367
1.93693
1.93643
1.9352
1.93325
1.93055
1.92712
1.92295
1.91804
1.91239
1.90599
1.89884
1.89094
1.8823
1.87292
1.86282
1.85202
1.84055
1.82846
1.81581
1.80268
1.7892
1.77551
1.76178
1.74825
1.73516
1.7228
1.71142
1.7013
1.69265
1.68557
1.6801
1.67617
1.6736
1.67214
1.67151
1.67141
1.67158
1.67177
1.67178
1.67145
1.67068
1.66938
1.66754
1.66515
1.66225
1.65892
1.65527
1.65141
1.64751
1.64371
1.64015
1.63694
1.63416
1.63185
1.63
1.62858
1.62754
1.62685
1.6265
1.6265
1.62689
1.6277
1.62896
1.63069
1.63285
1.63537
1.63812
1.64097
1.64377
1.64636
1.64861
1.65039
1.65163
1.65227
1.74317
1.74331
1.74361
1.74412
1.74493
1.74609
1.74768
1.74972
1.75222
1.75516
1.75847
1.76208
1.76589
1.76983
1.77381
1.77781
1.78179
1.7858
1.78986
1.79408
1.79854
1.80336
1.80865
1.81447
1.82089
1.82789
1.83544
1.84343
1.85176
1.86028
1.86886
1.87737
1.88567
1.89367
1.90128
1.90843
1.91506
1.92112
1.92659
1.93143
1.93563
1.93917
1.94205
1.94425
1.94578
1.94662
1.94678
1.94625
1.94503
1.94311
1.94051
1.93721
1.93321
1.92851
1.92312
1.91704
1.91026
1.90279
1.89465
1.88584
1.87639
1.86632
1.85567
1.84449
1.83285
1.82084
1.80856
1.79615
1.78377
1.77161
1.75986
1.74874
1.73847
1.72924
1.72119
1.71442
1.70894
1.70469
1.70156
1.69937
1.6979
1.69693
1.69626
1.69568
1.69503
1.69418
1.69302
1.6915
1.68958
1.68726
1.68456
1.68155
1.6783
1.67492
1.6715
1.66817
1.66503
1.66216
1.65964
1.65748
1.65571
1.65431
1.65326
1.65254
1.65216
1.65211
1.65241
1.65308
1.65412
1.65553
1.65728
1.65929
1.66148
1.66374
1.66596
1.66802
1.6698
1.67122
1.67221
1.67271
1.76782
1.768
1.76837
1.76898
1.76986
1.77107
1.77263
1.77458
1.77692
1.77962
1.78264
1.78593
1.78943
1.79307
1.79681
1.80063
1.8045
1.80844
1.8125
1.81672
1.82119
1.82597
1.83113
1.83673
1.84279
1.8493
1.85624
1.86352
1.87107
1.87876
1.8865
1.89418
1.90168
1.90893
1.91584
1.92235
1.9284
1.93395
1.93895
1.9434
1.94725
1.9505
1.95313
1.95513
1.9565
1.95723
1.95732
1.95675
1.95554
1.95368
1.95116
1.94798
1.94416
1.93968
1.93455
1.92878
1.92237
1.91532
1.90766
1.8994
1.89057
1.88119
1.87131
1.86098
1.85027
1.83926
1.82806
1.81677
1.80555
1.79454
1.78392
1.77384
1.76449
1.75599
1.74846
1.74197
1.73653
1.7321
1.72859
1.72587
1.72378
1.72216
1.72083
1.71965
1.71848
1.7172
1.71573
1.71402
1.71202
1.70974
1.70719
1.70442
1.70148
1.69845
1.69541
1.69244
1.68963
1.68705
1.68473
1.68273
1.68104
1.67968
1.67864
1.67791
1.67748
1.67737
1.67756
1.67808
1.67891
1.68004
1.68143
1.68303
1.68477
1.68656
1.68831
1.68994
1.69135
1.69248
1.69327
1.69367
1.79229
1.79249
1.79291
1.79356
1.79447
1.79568
1.79721
1.79907
1.80126
1.80376
1.80655
1.80958
1.81282
1.81622
1.81975
1.82338
1.82712
1.83097
1.83496
1.83913
1.84352
1.84819
1.85318
1.85852
1.86423
1.8703
1.87669
1.88335
1.89022
1.8972
1.90421
1.91115
1.91795
1.92453
1.93081
1.93673
1.94224
1.94731
1.95189
1.95595
1.95947
1.96244
1.96483
1.96665
1.96787
1.96849
1.9685
1.96791
1.96671
1.96489
1.96246
1.95942
1.95576
1.9515
1.94663
1.94116
1.9351
1.92847
1.92128
1.91354
1.90529
1.89656
1.8874
1.87785
1.86799
1.85788
1.84763
1.83733
1.82711
1.8171
1.80743
1.79823
1.78964
1.78177
1.77469
1.76847
1.76311
1.75858
1.75482
1.75173
1.7492
1.74708
1.74526
1.74362
1.74203
1.74041
1.73869
1.73681
1.73474
1.73249
1.73005
1.72745
1.72475
1.72199
1.71924
1.71656
1.71401
1.71165
1.70952
1.70765
1.70605
1.70474
1.70371
1.70296
1.7025
1.70231
1.7024
1.70277
1.7034
1.70428
1.70537
1.70663
1.708
1.70941
1.7108
1.71208
1.71319
1.71408
1.71471
1.71502
1.81656
1.81677
1.8172
1.81787
1.81879
1.81998
1.82145
1.82322
1.82527
1.82761
1.8302
1.83302
1.83604
1.83923
1.84257
1.84604
1.84963
1.85336
1.85724
1.8613
1.86557
1.87009
1.87487
1.87994
1.88531
1.89096
1.89687
1.90298
1.90925
1.9156
1.92197
1.92828
1.93445
1.94042
1.94613
1.95152
1.95654
1.96116
1.96533
1.96904
1.97225
1.97495
1.97712
1.97875
1.97983
1.98034
1.98029
1.97967
1.97848
1.97672
1.97437
1.97146
1.96797
1.96392
1.9593
1.95413
1.94842
1.94218
1.93543
1.92819
1.92049
1.91237
1.90387
1.89504
1.88594
1.87665
1.86724
1.85781
1.84847
1.83931
1.83045
1.82201
1.81408
1.80674
1.80007
1.79411
1.78886
1.7843
1.78039
1.77704
1.77419
1.77171
1.76952
1.76752
1.76561
1.76373
1.7618
1.75979
1.75766
1.75542
1.75305
1.75059
1.74807
1.74552
1.74299
1.74054
1.7382
1.73603
1.73405
1.7323
1.73078
1.72951
1.7285
1.72774
1.72723
1.72697
1.72696
1.72719
1.72765
1.72831
1.72915
1.73012
1.73119
1.73229
1.73338
1.73438
1.73526
1.73596
1.73645
1.7367
1.84061
1.84083
1.84126
1.84193
1.84283
1.84399
1.8454
1.84708
1.84902
1.8512
1.85363
1.85626
1.8591
1.8621
1.86526
1.86857
1.87201
1.8756
1.87935
1.88327
1.88738
1.89171
1.89627
1.90107
1.90611
1.91137
1.91683
1.92246
1.9282
1.934
1.9398
1.94553
1.95114
1.95657
1.96176
1.96667
1.97124
1.97545
1.97925
1.98262
1.98555
1.98799
1.98995
1.9914
1.99235
1.99276
1.99265
1.99201
1.99083
1.98912
1.98686
1.98407
1.98075
1.9769
1.97253
1.96764
1.96226
1.9564
1.95007
1.9433
1.93612
1.92856
1.92067
1.91249
1.90409
1.89552
1.88687
1.87821
1.86963
1.86122
1.85307
1.84528
1.83791
1.83106
1.82475
1.81903
1.81391
1.80937
1.80538
1.80187
1.79879
1.79606
1.7936
1.79133
1.78918
1.78708
1.785
1.78288
1.7807
1.77846
1.77615
1.7738
1.77141
1.76902
1.76667
1.7644
1.76223
1.76021
1.75836
1.75671
1.75526
1.75403
1.75303
1.75226
1.75171
1.75138
1.75128
1.75138
1.75168
1.75216
1.75278
1.75352
1.75434
1.75519
1.75603
1.75681
1.7575
1.75804
1.75842
1.75862
1.86445
1.86467
1.86509
1.86574
1.86662
1.86773
1.86909
1.87068
1.8725
1.87456
1.87684
1.87931
1.88198
1.88481
1.88781
1.89095
1.89424
1.89768
1.90128
1.90504
1.90898
1.91311
1.91743
1.92196
1.92668
1.93158
1.93664
1.94182
1.94709
1.95239
1.95768
1.96291
1.96802
1.97296
1.97768
1.98215
1.98631
1.99014
1.9936
1.99666
1.99931
2.00152
2.00328
2.00457
2.00539
2.00571
2.00555
2.00488
2.00372
2.00205
1.99989
1.99722
1.99405
1.9904
1.98626
1.98165
1.97659
1.97108
1.96514
1.95881
1.95211
1.94508
1.93775
1.93017
1.9224
1.91449
1.90651
1.89853
1.89062
1.88286
1.87533
1.86811
1.86125
1.85481
1.84884
1.84336
1.83838
1.8339
1.82987
1.82628
1.82305
1.82014
1.81748
1.81501
1.81268
1.81043
1.80822
1.80602
1.80381
1.80157
1.79931
1.79703
1.79475
1.79249
1.79028
1.78815
1.78612
1.78422
1.78248
1.7809
1.77952
1.77833
1.77734
1.77655
1.77596
1.77558
1.77539
1.77538
1.77554
1.77586
1.7763
1.77685
1.77746
1.7781
1.77874
1.77934
1.77987
1.78029
1.78058
1.78074
1.88808
1.88829
1.8887
1.88933
1.89018
1.89124
1.89253
1.89404
1.89576
1.8977
1.89984
1.90217
1.90468
1.90736
1.9102
1.91319
1.91633
1.91961
1.92304
1.92663
1.93039
1.93431
1.93839
1.94265
1.94707
1.95163
1.95632
1.9611
1.96594
1.9708
1.97563
1.9804
1.98506
1.98956
1.99386
1.99793
2.00171
2.00519
2.00834
2.01112
2.01351
2.0155
2.01708
2.01822
2.01891
2.01916
2.01894
2.01826
2.01711
2.01549
2.01341
2.01086
2.00785
2.00438
2.00047
1.99612
1.99135
1.98618
1.98062
1.9747
1.96845
1.9619
1.95508
1.94805
1.94085
1.93353
1.92615
1.91877
1.91146
1.90428
1.8973
1.89057
1.88416
1.8781
1.87244
1.86719
1.86236
1.85796
1.85395
1.8503
1.84699
1.84396
1.84117
1.83857
1.8361
1.83374
1.83144
1.82918
1.82694
1.82471
1.82248
1.82026
1.81807
1.81591
1.81381
1.81179
1.80988
1.80808
1.80642
1.80492
1.80358
1.80242
1.80144
1.80064
1.80002
1.79958
1.79931
1.79921
1.79925
1.79943
1.79972
1.8001
1.80054
1.80102
1.8015
1.80195
1.80234
1.80266
1.80289
1.803
1.9115
1.9117
1.9121
1.9127
1.91351
1.91453
1.91575
1.91718
1.91881
1.92064
1.92266
1.92485
1.92722
1.92976
1.93244
1.93528
1.93826
1.94138
1.94465
1.94807
1.95163
1.95533
1.95919
1.96318
1.96731
1.97156
1.9759
1.98031
1.98476
1.98922
1.99365
1.99801
2.00226
2.00636
2.01028
2.01398
2.01742
2.02059
2.02344
2.02595
2.02812
2.02991
2.03131
2.03231
2.03289
2.03306
2.03279
2.0321
2.03097
2.0294
2.0274
2.02496
2.0221
2.01881
2.01511
2.01101
2.00652
2.00166
1.99645
1.99092
1.98508
1.97897
1.97263
1.9661
1.95941
1.95262
1.94578
1.93894
1.93216
1.9255
1.919
1.91272
1.90671
1.901
1.89562
1.89059
1.88593
1.88162
1.87765
1.874
1.87065
1.86755
1.86467
1.86197
1.85942
1.85698
1.85462
1.85232
1.85006
1.84783
1.84564
1.84347
1.84135
1.83927
1.83726
1.83534
1.83351
1.83179
1.83021
1.82876
1.82747
1.82633
1.82535
1.82454
1.82389
1.82341
1.82307
1.82288
1.82283
1.82289
1.82305
1.8233
1.8236
1.82393
1.82427
1.8246
1.8249
1.82513
1.8253
1.82539
1.93472
1.93491
1.93529
1.93587
1.93664
1.93761
1.93877
1.94012
1.94166
1.94338
1.94529
1.94736
1.9496
1.95199
1.95454
1.95722
1.96005
1.96301
1.96611
1.96935
1.97271
1.97621
1.97984
1.98358
1.98744
1.99138
1.99541
1.99948
2.00358
2.00768
2.01174
2.01573
2.01961
2.02335
2.02692
2.03029
2.03342
2.03629
2.03887
2.04115
2.04309
2.0447
2.04594
2.04681
2.04729
2.04738
2.04708
2.04637
2.04526
2.04374
2.04181
2.03949
2.03676
2.03365
2.03015
2.02629
2.02206
2.0175
2.01262
2.00743
2.00198
1.99628
1.99037
1.98429
1.97808
1.97177
1.96541
1.95906
1.95276
1.94655
1.94049
1.93461
1.92896
1.92356
1.91845
1.91364
1.90913
1.90493
1.90103
1.89741
1.89405
1.89092
1.88799
1.88524
1.88263
1.88014
1.87774
1.87541
1.87314
1.87093
1.86876
1.86664
1.86458
1.86257
1.86063
1.85878
1.85703
1.85538
1.85385
1.85245
1.85119
1.85008
1.84911
1.84828
1.84761
1.84708
1.84669
1.84642
1.84628
1.84625
1.8463
1.84643
1.84661
1.84683
1.84707
1.8473
1.8475
1.84767
1.84779
1.84786
1.95774
1.95792
1.95829
1.95884
1.95957
1.96049
1.96159
1.96287
1.96432
1.96595
1.96775
1.96971
1.97182
1.97408
1.97648
1.97903
1.9817
1.98451
1.98744
1.9905
1.99367
1.99696
2.00037
2.00387
2.00747
2.01114
2.01487
2.01863
2.02241
2.02617
2.0299
2.03355
2.03709
2.04051
2.04376
2.04683
2.04967
2.05227
2.05461
2.05667
2.05842
2.05984
2.06094
2.06169
2.06208
2.06211
2.06177
2.06105
2.05995
2.05848
2.05663
2.05441
2.05182
2.04887
2.04557
2.04192
2.03794
2.03366
2.02908
2.02422
2.01912
2.0138
2.00829
2.00262
1.99683
1.99096
1.98504
1.97913
1.97325
1.96746
1.96178
1.95627
1.95094
1.94584
1.94098
1.93637
1.93203
1.92795
1.92413
1.92056
1.91722
1.91408
1.91114
1.90836
1.90572
1.9032
1.90078
1.89844
1.89618
1.89398
1.89184
1.88976
1.88774
1.88579
1.88392
1.88213
1.88043
1.87884
1.87736
1.87601
1.87478
1.87368
1.87271
1.87188
1.87118
1.87061
1.87017
1.86985
1.86963
1.86951
1.86947
1.86951
1.86959
1.86972
1.86986
1.87001
1.87015
1.87026
1.87034
1.87039
1.98058
1.98076
1.9811
1.98163
1.98232
1.98319
1.98423
1.98544
1.98681
1.98835
1.99005
1.99189
1.99389
1.99602
1.99829
2.0007
2.00322
2.00587
2.00864
2.01152
2.01451
2.01761
2.02079
2.02407
2.02742
2.03083
2.03429
2.03777
2.04125
2.04471
2.04813
2.05147
2.05471
2.05783
2.06079
2.06358
2.06617
2.06853
2.07064
2.07249
2.07406
2.07533
2.07629
2.07693
2.07723
2.0772
2.07683
2.0761
2.07503
2.0736
2.07183
2.06971
2.06724
2.06444
2.06132
2.05788
2.05413
2.05011
2.04581
2.04126
2.03648
2.03151
2.02636
2.02107
2.01567
2.01019
2.00467
1.99915
1.99366
1.98824
1.98292
1.97774
1.97271
1.96788
1.96325
1.95884
1.95466
1.95071
1.94698
1.94347
1.94017
1.93706
1.93412
1.93134
1.92869
1.92616
1.92374
1.9214
1.91915
1.91697
1.91486
1.91281
1.91084
1.90894
1.90712
1.90538
1.90374
1.90219
1.90076
1.89943
1.89823
1.89714
1.89618
1.89534
1.89462
1.89402
1.89354
1.89316
1.89288
1.89269
1.89258
1.89253
1.89254
1.89258
1.89265
1.89273
1.89281
1.89288
1.89293
1.89296
2.00325
2.00341
2.00374
2.00424
2.0049
2.00572
2.0067
2.00784
2.00914
2.01059
2.01219
2.01393
2.01581
2.01783
2.01997
2.02224
2.02462
2.02712
2.02973
2.03244
2.03525
2.03815
2.04113
2.04419
2.04731
2.05048
2.05368
2.0569
2.06011
2.06329
2.06643
2.06949
2.07246
2.0753
2.078
2.08054
2.08288
2.08502
2.08693
2.08859
2.08999
2.09112
2.09196
2.09249
2.09272
2.09264
2.09224
2.09151
2.09045
2.08907
2.08737
2.08534
2.083
2.08034
2.07739
2.07414
2.07061
2.06682
2.06279
2.05852
2.05405
2.04939
2.04458
2.03963
2.03458
2.02947
2.02431
2.01914
2.014
2.00892
2.00392
1.99904
1.9943
1.98971
1.9853
1.98108
1.97706
1.97324
1.96961
1.96618
1.96294
1.95986
1.95695
1.95418
1.95154
1.94902
1.9466
1.94428
1.94204
1.93989
1.9378
1.9358
1.93386
1.93201
1.93023
1.92854
1.92694
1.92544
1.92404
1.92274
1.92156
1.92048
1.91952
1.91868
1.91794
1.91731
1.91679
1.91637
1.91604
1.91579
1.91562
1.9155
1.91544
1.91542
1.91543
1.91545
1.91549
1.91552
1.91554
1.91556
2.02575
2.02591
2.02622
2.02669
2.02731
2.02809
2.02901
2.03009
2.03132
2.03268
2.03419
2.03583
2.03761
2.03951
2.04153
2.04366
2.04591
2.04826
2.05071
2.05326
2.0559
2.05861
2.0614
2.06425
2.06715
2.07009
2.07306
2.07603
2.07899
2.08192
2.0848
2.0876
2.09032
2.09292
2.09538
2.09768
2.09981
2.10175
2.10347
2.10496
2.10621
2.1072
2.10792
2.10837
2.10853
2.1084
2.10797
2.10724
2.1062
2.10487
2.10323
2.10129
2.09906
2.09654
2.09374
2.09068
2.08735
2.08379
2.07999
2.07599
2.07179
2.06743
2.06292
2.05829
2.05357
2.04878
2.04395
2.03911
2.03429
2.02951
2.02481
2.0202
2.01572
2.01136
2.00716
2.00313
1.99926
1.99557
1.99205
1.98871
1.98553
1.9825
1.97963
1.97689
1.97427
1.97177
1.96937
1.96707
1.96486
1.96273
1.96068
1.9587
1.95681
1.95499
1.95326
1.95161
1.95005
1.94858
1.94721
1.94594
1.94477
1.94371
1.94275
1.9419
1.94115
1.9405
1.93995
1.93949
1.93912
1.93882
1.93859
1.93842
1.93831
1.93823
1.93819
1.93817
1.93816
1.93816
1.93817
1.93817
2.04809
2.04824
2.04854
2.04898
2.04957
2.0503
2.05117
2.05219
2.05335
2.05463
2.05605
2.0576
2.05927
2.06106
2.06296
2.06497
2.06709
2.0693
2.0716
2.07399
2.07646
2.079
2.0816
2.08426
2.08696
2.08969
2.09243
2.09518
2.0979
2.1006
2.10324
2.10581
2.1083
2.11067
2.11291
2.115
2.11693
2.11868
2.12023
2.12157
2.12268
2.12355
2.12417
2.12453
2.12463
2.12445
2.124
2.12327
2.12226
2.12096
2.11939
2.11754
2.11541
2.11302
2.11037
2.10747
2.10434
2.10098
2.09741
2.09364
2.08971
2.08561
2.08138
2.07704
2.07262
2.06813
2.0636
2.05906
2.05453
2.05004
2.0456
2.04125
2.037
2.03286
2.02886
2.025
2.02129
2.01772
2.01432
2.01107
2.00796
2.005
2.00217
1.99947
1.99689
1.99442
1.99205
1.98978
1.98759
1.98549
1.98347
1.98153
1.97967
1.97789
1.9762
1.97459
1.97306
1.97162
1.97028
1.96903
1.96788
1.96683
1.96588
1.96502
1.96426
1.96359
1.96302
1.96253
1.96211
1.96178
1.9615
1.96129
1.96113
1.96101
1.96092
1.96086
1.96083
1.9608
1.96079
1.96078
2.07029
2.07043
2.07071
2.07112
2.07168
2.07237
2.07319
2.07415
2.07524
2.07645
2.07779
2.07925
2.08082
2.0825
2.08429
2.08618
2.08817
2.09024
2.0924
2.09464
2.09695
2.09932
2.10175
2.10422
2.10673
2.10926
2.1118
2.11434
2.11685
2.11933
2.12176
2.12411
2.12638
2.12855
2.13059
2.13249
2.13424
2.13582
2.13721
2.1384
2.13938
2.14014
2.14067
2.14096
2.141
2.14078
2.14031
2.13958
2.13859
2.13734
2.13582
2.13405
2.13203
2.12976
2.12725
2.1245
2.12154
2.11838
2.11502
2.11148
2.10777
2.10393
2.09996
2.09589
2.09173
2.08751
2.08326
2.07899
2.07473
2.0705
2.06631
2.0622
2.05817
2.05423
2.05042
2.04672
2.04316
2.03973
2.03643
2.03327
2.03025
2.02736
2.02459
2.02194
2.0194
2.01696
2.01463
2.01239
2.01024
2.00817
2.00619
2.00428
2.00246
2.00071
1.99905
1.99747
1.99598
1.99457
1.99326
1.99203
1.99089
1.98985
1.9889
1.98804
1.98727
1.98659
1.986
1.98548
1.98504
1.98467
1.98436
1.98411
1.98391
1.98375
1.98363
1.98354
1.98348
1.98343
1.9834
1.98339
2.09234
2.09247
2.09274
2.09313
2.09365
2.0943
2.09508
2.09598
2.09701
2.09815
2.09941
2.10078
2.10226
2.10384
2.10552
2.10729
2.10915
2.1111
2.11312
2.11522
2.11738
2.11959
2.12185
2.12415
2.12648
2.12883
2.13117
2.13351
2.13583
2.13811
2.14034
2.1425
2.14457
2.14655
2.1484
2.15013
2.15171
2.15313
2.15438
2.15544
2.15631
2.15697
2.15741
2.15763
2.15762
2.15737
2.15688
2.15616
2.15518
2.15397
2.15251
2.15082
2.14889
2.14673
2.14435
2.14176
2.13896
2.13597
2.1328
2.12947
2.12598
2.12237
2.11864
2.11481
2.1109
2.10694
2.10294
2.09892
2.0949
2.09091
2.08695
2.08306
2.07923
2.07549
2.07185
2.06831
2.06489
2.06159
2.05841
2.05535
2.05241
2.04959
2.04688
2.04429
2.0418
2.03941
2.03711
2.03491
2.0328
2.03077
2.02882
2.02695
2.02516
2.02345
2.02183
2.02028
2.01882
2.01744
2.01614
2.01493
2.01381
2.01278
2.01183
2.01098
2.0102
2.00951
2.00889
2.00836
2.00789
2.00749
2.00715
2.00687
2.00664
2.00645
2.00631
2.00619
2.0061
2.00604
2.00601
2.00599
2.11426
2.11439
2.11464
2.11501
2.1155
2.11611
2.11684
2.11769
2.11865
2.11973
2.12091
2.1222
2.12359
2.12507
2.12665
2.12831
2.13006
2.13188
2.13377
2.13573
2.13775
2.13981
2.14192
2.14405
2.14621
2.14838
2.15056
2.15272
2.15485
2.15695
2.15899
2.16097
2.16286
2.16466
2.16635
2.16792
2.16935
2.17062
2.17174
2.17268
2.17344
2.17401
2.17437
2.17453
2.17447
2.1742
2.1737
2.17297
2.17202
2.17084
2.16944
2.16782
2.16598
2.16393
2.16167
2.15921
2.15656
2.15374
2.15075
2.14761
2.14433
2.14092
2.13741
2.13381
2.13013
2.1264
2.12263
2.11884
2.11505
2.11128
2.10754
2.10384
2.10021
2.09665
2.09317
2.08979
2.08651
2.08333
2.08026
2.0773
2.07445
2.07171
2.06907
2.06653
2.0641
2.06176
2.05951
2.05735
2.05527
2.05328
2.05137
2.04954
2.04778
2.04611
2.04452
2.043
2.04156
2.04021
2.03894
2.03775
2.03664
2.03562
2.03468
2.03382
2.03304
2.03234
2.03172
2.03116
2.03068
2.03026
2.02989
2.02959
2.02933
2.02912
2.02895
2.02881
2.02871
2.02863
2.02859
2.02856
2.13606
2.13618
2.13641
2.13676
2.13722
2.1378
2.13849
2.13928
2.14019
2.1412
2.14231
2.14352
2.14482
2.14621
2.14769
2.14925
2.15089
2.15259
2.15436
2.15619
2.15807
2.15999
2.16195
2.16393
2.16593
2.16794
2.16995
2.17194
2.17391
2.17583
2.17771
2.17952
2.18125
2.18289
2.18442
2.18584
2.18713
2.18828
2.18927
2.19011
2.19077
2.19125
2.19155
2.19165
2.19155
2.19124
2.19073
2.19001
2.18908
2.18794
2.18659
2.18504
2.18328
2.18133
2.17918
2.17685
2.17435
2.17168
2.16886
2.16589
2.1628
2.15959
2.15628
2.15288
2.14941
2.1459
2.14234
2.13876
2.13518
2.13161
2.12807
2.12457
2.12111
2.11772
2.1144
2.11117
2.10802
2.10496
2.102
2.09914
2.09638
2.09372
2.09115
2.08868
2.0863
2.08401
2.08181
2.0797
2.07766
2.07571
2.07384
2.07204
2.07033
2.06869
2.06712
2.06564
2.06423
2.0629
2.06165
2.06048
2.05939
2.05838
2.05744
2.05659
2.05581
2.0551
2.05447
2.0539
2.0534
2.05296
2.05258
2.05225
2.05197
2.05174
2.05155
2.0514
2.05128
2.0512
2.05114
2.05111
2.15774
2.15785
2.15807
2.1584
2.15883
2.15937
2.16002
2.16077
2.16162
2.16257
2.16361
2.16474
2.16596
2.16727
2.16865
2.17011
2.17164
2.17323
2.17489
2.17659
2.17834
2.18013
2.18195
2.18379
2.18565
2.1875
2.18936
2.19119
2.193
2.19477
2.19649
2.19814
2.19972
2.20121
2.20261
2.20389
2.20505
2.20608
2.20697
2.2077
2.20828
2.20868
2.20891
2.20896
2.20883
2.2085
2.20798
2.20727
2.20636
2.20525
2.20395
2.20246
2.20078
2.19892
2.19688
2.19467
2.19229
2.18977
2.1871
2.1843
2.18138
2.17835
2.17522
2.17202
2.16875
2.16543
2.16207
2.15869
2.15531
2.15193
2.14856
2.14524
2.14195
2.13872
2.13555
2.13246
2.12944
2.1265
2.12365
2.12089
2.11821
2.11563
2.11314
2.11073
2.10841
2.10618
2.10403
2.10196
2.09997
2.09806
2.09623
2.09447
2.09279
2.09119
2.08966
2.0882
2.08682
2.08552
2.08429
2.08313
2.08206
2.08106
2.08013
2.07928
2.0785
2.07779
2.07715
2.07657
2.07606
2.07561
2.07521
2.07487
2.07457
2.07432
2.07412
2.07395
2.07382
2.07373
2.07367
2.07363
2.17931
2.17941
2.17962
2.17993
2.18034
2.18084
2.18145
2.18215
2.18295
2.18384
2.18482
2.18588
2.18702
2.18824
2.18954
2.1909
2.19233
2.19382
2.19536
2.19695
2.19858
2.20024
2.20193
2.20364
2.20535
2.20707
2.20878
2.21047
2.21213
2.21376
2.21533
2.21684
2.21828
2.21964
2.2209
2.22206
2.22311
2.22402
2.22481
2.22545
2.22595
2.22628
2.22646
2.22646
2.22629
2.22595
2.22542
2.22471
2.22382
2.22275
2.2215
2.22007
2.21846
2.21668
2.21474
2.21264
2.21039
2.208
2.20548
2.20283
2.20007
2.1972
2.19425
2.19123
2.18814
2.185
2.18182
2.17863
2.17542
2.17222
2.16903
2.16586
2.16274
2.15966
2.15663
2.15367
2.15077
2.14795
2.1452
2.14254
2.13995
2.13745
2.13503
2.13269
2.13044