/*--------------------------------*- C++ -*----------------------------------*\
| =========                 |                                                 |
| \\      /  F ield         | OpenFOAM: The Open Source CFD Toolbox           |
|  \\    /   O peration     | Version:  2406                                  |
|   \\  /    A nd           | Website:  www.openfoam.com                      |
|    \\/     M anipulation  |                                                 |
\*---------------------------------------------------------------------------*/
FoamFile
{
    version     2.0;
    format      ascii;
    arch        "LSB;label=32;scalar=64";
    class       volScalarField;
    location    "2.05";
    object      C_0;
}
// * * * * * * * * * * * * * * * * * * * * * * * * * * * * * * * * * * * * * //

dimensions      [1 -3 0 0 0 0 0];

internalField   nonuniform List<scalar> 
14400
(
1.52858
1.52239
1.50931
1.48115
1.44052
1.40576
1.38478
1.38038
1.39334
1.42294
1.46637
1.51541
1.55027
1.56957
1.58293
1.59116
1.59453
1.59298
1.58598
1.57241
1.54306
1.50309
1.47203
1.45652
1.45922
1.48095
1.52103
1.57683
1.64107
1.68917
1.71953
1.74533
1.76764
1.7871
1.80415
1.81913
1.83227
1.84378
1.85378
1.86242
1.86977
1.87591
1.88089
1.88478
1.8876
1.88938
1.89015
1.88991
1.88867
1.88644
1.88321
1.87896
1.87367
1.86734
1.8599
1.85134
1.84159
1.8306
1.81828
1.80455
1.78928
1.77233
1.75354
1.73267
1.70945
1.68351
1.65436
1.62134
1.58175
1.52023
1.43995
1.36845
1.31101
1.26929
1.24385
1.23478
1.24191
1.26486
1.30281
1.35396
1.41315
1.45765
1.48297
1.50119
1.51434
1.52317
1.52813
1.52946
1.52727
1.52148
1.51187
1.49796
1.47896
1.44716
1.40049
1.35585
1.32405
1.30793
1.30812
1.32369
1.35161
1.38235
1.40018
1.40455
1.39984
1.38169
1.35047
1.32191
1.30569
1.30486
1.32036
1.35162
1.39579
1.442
1.47352
1.49252
1.50661
1.51661
1.52304
1.52619
1.53477
1.52927
1.51786
1.49827
1.46491
1.42873
1.40632
1.40143
1.41494
1.44602
1.49091
1.5317
1.55766
1.57548
1.58807
1.596
1.59946
1.59841
1.5925
1.58105
1.56112
1.52785
1.49509
1.47819
1.48046
1.50282
1.5445
1.60221
1.65701
1.69497
1.7239
1.7488
1.77049
1.78951
1.80623
1.82096
1.83391
1.84527
1.85516
1.8637
1.87097
1.87705
1.882
1.88585
1.88864
1.8904
1.89115
1.89091
1.88967
1.88744
1.88422
1.87999
1.87473
1.86843
1.86104
1.85252
1.84284
1.83192
1.8197
1.80608
1.79095
1.77418
1.75561
1.73503
1.71217
1.68672
1.65822
1.62609
1.58949
1.53804
1.4641
1.39132
1.33271
1.29023
1.26441
1.25529
1.26271
1.28632
1.32534
1.37791
1.43164
1.46669
1.48921
1.50625
1.51867
1.52705
1.53175
1.53299
1.53086
1.52531
1.51616
1.50305
1.4854
1.46111
1.42301
1.37787
1.34481
1.32827
1.32899
1.34601
1.37486
1.3989
1.41021
1.41362
1.40982
1.39813
1.37365
1.34417
1.32647
1.32509
1.34098
1.37344
1.41805
1.45573
1.47981
1.49744
1.51068
1.52018
1.52632
1.52934
1.54646
1.54205
1.53318
1.51988
1.49981
1.47155
1.44763
1.44202
1.45633
1.48884
1.52495
1.55175
1.57126
1.5866
1.59789
1.6053
1.60891
1.60871
1.60456
1.59631
1.58389
1.56434
1.53799
1.51979
1.52139
1.54469
1.58756
1.63699
1.67597
1.70592
1.73228
1.7555
1.77603
1.7942
1.8103
1.82456
1.83715
1.84822
1.85789
1.86625
1.87338
1.87934
1.88419
1.88797
1.8907
1.89243
1.89315
1.89289
1.89166
1.88944
1.88624
1.88205
1.87684
1.8706
1.86329
1.85488
1.84532
1.83455
1.82251
1.80911
1.79426
1.77784
1.75969
1.73965
1.7175
1.69297
1.66571
1.63532
1.60124
1.56224
1.50721
1.43534
1.37536
1.3317
1.30523
1.29603
1.30393
1.32852
1.36851
1.41985
1.45744
1.48163
1.50094
1.51594
1.52704
1.53459
1.53882
1.53989
1.53787
1.53274
1.5244
1.51269
1.49738
1.47827
1.45345
1.41916
1.38463
1.36752
1.36903
1.38806
1.40842
1.42076
1.42768
1.42989
1.4272
1.41981
1.40702
1.38611
1.36635
1.36412
1.38053
1.41442
1.44814
1.47259
1.49149
1.50673
1.51851
1.52711
1.53272
1.5355
1.56256
1.55929
1.55292
1.54385
1.5331
1.51916
1.50388
1.49824
1.5126
1.53577
1.55658
1.57368
1.58902
1.60176
1.61158
1.6184
1.62218
1.62294
1.62074
1.61572
1.60836
1.59975
1.58788
1.57691
1.57813
1.60204
1.63622
1.66818
1.69507
1.72048
1.74379
1.7649
1.78391
1.80096
1.81622
1.82983
1.84191
1.85258
1.86192
1.87002
1.87694
1.88274
1.88746
1.89113
1.89378
1.89545
1.89614
1.89586
1.89462
1.89242
1.88925
1.88511
1.87998
1.87383
1.86665
1.85838
1.849
1.83846
1.82668
1.81361
1.79915
1.78321
1.76567
1.74639
1.7252
1.70193
1.67635
1.64824
1.61738
1.58368
1.54667
1.49681
1.43712
1.39262
1.36553
1.35623
1.36454
1.38984
1.42894
1.46115
1.48257
1.50128
1.51697
1.52952
1.53897
1.54545
1.54906
1.54989
1.54799
1.54337
1.53602
1.52593
1.51315
1.49788
1.48081
1.46129
1.43804
1.42174
1.42283
1.43267
1.44027
1.44594
1.44985
1.45106
1.44929
1.44482
1.43859
1.43042
1.4199
1.41803
1.43353
1.45612
1.47513
1.49184
1.50683
1.51946
1.52953
1.53702
1.54197
1.54443
1.58191
1.57965
1.57534
1.5695
1.56305
1.5575
1.5534
1.55259
1.5613
1.57247
1.58461
1.59737
1.60939
1.61984
1.62829
1.63452
1.63846
1.64014
1.63971
1.63748
1.63407
1.63055
1.62867
1.62879
1.63447
1.65209
1.67259
1.6937
1.71563
1.73713
1.75749
1.7764
1.79374
1.80952
1.82379
1.83662
1.84808
1.85826
1.8672
1.87498
1.88164
1.88722
1.89176
1.8953
1.89786
1.89945
1.90009
1.89978
1.89854
1.89636
1.89324
1.88917
1.88413
1.87811
1.87108
1.863
1.85385
1.84358
1.83215
1.81948
1.80552
1.79018
1.77338
1.75502
1.735
1.71319
1.68952
1.6639
1.63636
1.60709
1.57665
1.54559
1.5074
1.46902
1.44233
1.43295
1.44058
1.45913
1.47965
1.49483
1.5099
1.52393
1.53616
1.54619
1.55388
1.55917
1.56207
1.56261
1.56082
1.55673
1.55038
1.54187
1.53139
1.51929
1.5063
1.49359
1.48209
1.47191
1.46913
1.46881
1.47045
1.47288
1.47471
1.4752
1.47408
1.47159
1.46851
1.46618
1.4658
1.46782
1.47722
1.48807
1.50026
1.51281
1.52454
1.53476
1.54313
1.54946
1.5537
1.55583
1.60353
1.60206
1.59931
1.59574
1.59209
1.58937
1.58876
1.59115
1.59571
1.60297
1.61203
1.62179
1.63132
1.63993
1.64721
1.65293
1.657
1.65946
1.66049
1.66043
1.65988
1.65971
1.66114
1.66564
1.67433
1.68613
1.70118
1.71841
1.73663
1.75492
1.77266
1.78946
1.80514
1.81959
1.8328
1.84478
1.85555
1.86516
1.87365
1.88105
1.8874
1.89274
1.89708
1.90046
1.90289
1.90439
1.90498
1.90464
1.9034
1.90125
1.89818
1.8942
1.88927
1.88339
1.87654
1.8687
1.85982
1.84988
1.83884
1.82665
1.81326
1.79861
1.78266
1.76532
1.74656
1.72634
1.70463
1.68149
1.65706
1.63166
1.60588
1.58064
1.55715
1.53367
1.51438
1.50481
1.50558
1.51149
1.51848
1.52793
1.53827
1.54839
1.55753
1.56521
1.57118
1.57528
1.57745
1.57767
1.57595
1.57234
1.56691
1.55979
1.55123
1.54161
1.53151
1.52177
1.51332
1.50691
1.50226
1.50015
1.49985
1.5004
1.50094
1.50094
1.50022
1.49897
1.49769
1.49724
1.49859
1.50244
1.50811
1.51589
1.52503
1.53459
1.54375
1.55193
1.55875
1.564
1.56756
1.56934
1.62663
1.62573
1.62409
1.62208
1.6202
1.61913
1.61952
1.6218
1.62586
1.63166
1.63874
1.64645
1.65415
1.66136
1.6677
1.67299
1.67714
1.6802
1.68234
1.68388
1.6853
1.68726
1.69056
1.69603
1.70416
1.71476
1.72761
1.74211
1.75755
1.77327
1.78875
1.80366
1.81775
1.8309
1.84304
1.85413
1.86418
1.87319
1.88118
1.88817
1.89418
1.89924
1.90336
1.90656
1.90886
1.91026
1.91078
1.91041
1.90917
1.90705
1.90405
1.90015
1.89536
1.88965
1.88301
1.87542
1.86685
1.85728
1.84668
1.83502
1.82226
1.80836
1.7933
1.77705
1.7596
1.74096
1.72117
1.70036
1.67872
1.65662
1.63457
1.61333
1.5938
1.57702
1.56402
1.55525
1.55097
1.55105
1.55449
1.56012
1.56687
1.57383
1.58035
1.58595
1.59034
1.59331
1.59477
1.59466
1.59298
1.58977
1.58511
1.57916
1.57214
1.56439
1.55638
1.54866
1.54182
1.53629
1.53219
1.52967
1.52841
1.52792
1.5277
1.5274
1.52691
1.52635
1.52605
1.5265
1.52822
1.53151
1.53626
1.54236
1.54939
1.55677
1.56394
1.57044
1.57595
1.58024
1.58317
1.58465
1.65063
1.65013
1.64925
1.64826
1.64752
1.64743
1.6484
1.65067
1.65426
1.65908
1.66483
1.67111
1.67749
1.68363
1.68925
1.69419
1.69838
1.70187
1.7048
1.70745
1.71018
1.71346
1.71782
1.72375
1.73153
1.74113
1.75237
1.76488
1.77819
1.79184
1.80543
1.81866
1.8313
1.84322
1.85432
1.86454
1.87385
1.88224
1.88971
1.89627
1.90192
1.90668
1.91056
1.91357
1.91572
1.91701
1.91746
1.91706
1.91582
1.91373
1.9108
1.90701
1.90236
1.89684
1.89043
1.88312
1.87489
1.86572
1.85559
1.84449
1.83238
1.81927
1.80514
1.78998
1.77383
1.75672
1.73874
1.72005
1.70086
1.68152
1.66247
1.64429
1.62768
1.61332
1.60186
1.59366
1.58885
1.58726
1.58829
1.59121
1.59525
1.59972
1.60409
1.60791
1.61091
1.61287
1.61366
1.61322
1.61154
1.60864
1.60461
1.59959
1.59377
1.58744
1.58094
1.57467
1.56901
1.56425
1.56054
1.55791
1.55621
1.55518
1.55453
1.55405
1.55368
1.55348
1.55366
1.5545
1.55626
1.55912
1.56304
1.5679
1.57339
1.57915
1.58479
1.58995
1.59437
1.59784
1.60022
1.60144
1.67513
1.6749
1.67453
1.67421
1.67416
1.67467
1.67597
1.67822
1.68144
1.68556
1.69038
1.69565
1.70108
1.70643
1.71148
1.71613
1.72031
1.72408
1.72756
1.73094
1.7345
1.73858
1.74352
1.74962
1.75706
1.76586
1.77587
1.78686
1.7985
1.81047
1.82247
1.83424
1.84559
1.85637
1.86648
1.87585
1.88443
1.8922
1.89915
1.90526
1.91055
1.915
1.91863
1.92144
1.92343
1.92461
1.92499
1.92455
1.92331
1.92126
1.91841
1.91473
1.91024
1.90491
1.89875
1.89173
1.88385
1.87511
1.86547
1.85495
1.84352
1.8312
1.81799
1.80391
1.789
1.77334
1.75703
1.74023
1.72316
1.70611
1.68948
1.67371
1.65929
1.64673
1.63644
1.62868
1.62353
1.62082
1.62021
1.62118
1.62319
1.62573
1.62835
1.63071
1.63251
1.63358
1.63378
1.63303
1.63131
1.62865
1.62511
1.62081
1.61591
1.61065
1.60527
1.60007
1.5953
1.59117
1.5878
1.58522
1.58335
1.58206
1.58118
1.58059
1.58026
1.58023
1.58061
1.58156
1.58322
1.58567
1.5889
1.59279
1.59713
1.60166
1.60611
1.61021
1.61374
1.61653
1.61845
1.61943
1.69986
1.69981
1.69977
1.69987
1.70026
1.70112
1.7026
1.70479
1.70772
1.71133
1.71549
1.72003
1.72476
1.72951
1.73412
1.73852
1.74267
1.7466
1.7504
1.75424
1.7583
1.76283
1.76805
1.77415
1.78125
1.78936
1.79839
1.80817
1.81848
1.82908
1.83973
1.85024
1.86044
1.87018
1.87937
1.88794
1.89582
1.90299
1.90942
1.9151
1.92001
1.92415
1.92752
1.93012
1.93195
1.93302
1.93332
1.93285
1.93161
1.92961
1.92683
1.92327
1.91894
1.91382
1.90791
1.90121
1.8937
1.88538
1.87625
1.86631
1.85556
1.84402
1.83171
1.81866
1.80494
1.79062
1.77581
1.76068
1.74542
1.7303
1.71563
1.70176
1.68905
1.67787
1.66849
1.6611
1.65574
1.6523
1.65054
1.6501
1.6506
1.65164
1.65289
1.65404
1.65486
1.65517
1.65484
1.6538
1.65203
1.64953
1.64636
1.64262
1.63843
1.63397
1.62944
1.62503
1.62095
1.61733
1.61427
1.61181
1.60992
1.60852
1.60753
1.60688
1.60655
1.60657
1.60699
1.6079
1.60938
1.61145
1.6141
1.61722
1.62067
1.62426
1.62778
1.63103
1.63384
1.63608
1.63762
1.63841
1.72464
1.7247
1.72488
1.72523
1.72589
1.72694
1.7285
1.73062
1.73332
1.73654
1.74022
1.74423
1.74843
1.75272
1.75698
1.76116
1.76524
1.76923
1.77322
1.77731
1.78164
1.78639
1.79169
1.79768
1.80443
1.81195
1.82016
1.82895
1.83817
1.84762
1.85714
1.86656
1.87574
1.88455
1.8929
1.90071
1.90793
1.91452
1.92045
1.92569
1.93023
1.93406
1.93718
1.93957
1.94124
1.94219
1.94241
1.94191
1.94068
1.93872
1.93602
1.93259
1.92843
1.92352
1.91788
1.91148
1.90434
1.89646
1.88783
1.87847
1.86839
1.85761
1.84617
1.8341
1.82147
1.80837
1.79491
1.78125
1.76755
1.75405
1.74099
1.72864
1.71729
1.70719
1.69855
1.69149
1.68604
1.68211
1.67954
1.67809
1.67746
1.67736
1.67752
1.67771
1.67772
1.67739
1.67661
1.67532
1.67347
1.67108
1.66819
1.66487
1.66122
1.65737
1.65347
1.64968
1.64612
1.64292
1.64015
1.63784
1.63599
1.63457
1.63354
1.63285
1.6325
1.6325
1.63288
1.63368
1.63494
1.63667
1.63882
1.64133
1.64407
1.64692
1.64971
1.65229
1.65453
1.65631
1.65755
1.65818
1.74936
1.74949
1.74979
1.75031
1.75111
1.75227
1.75385
1.75588
1.75838
1.76131
1.76462
1.76822
1.77202
1.77595
1.77992
1.78391
1.78788
1.79187
1.79593
1.80013
1.80458
1.80938
1.81465
1.82046
1.82685
1.83383
1.84135
1.84931
1.85761
1.86611
1.87466
1.88313
1.8914
1.89937
1.90696
1.91408
1.92068
1.92672
1.93216
1.93698
1.94116
1.94469
1.94755
1.94974
1.95126
1.95209
1.95224
1.9517
1.95047
1.94856
1.94595
1.94265
1.93866
1.93397
1.92858
1.92251
1.91574
1.90828
1.90015
1.89136
1.88192
1.87187
1.86124
1.85009
1.83847
1.82648
1.81423
1.80185
1.78949
1.77735
1.76562
1.75453
1.74428
1.73506
1.72703
1.72027
1.7148
1.71056
1.70744
1.70525
1.70378
1.70281
1.70214
1.70156
1.70091
1.70005
1.6989
1.69738
1.69546
1.69314
1.69045
1.68744
1.6842
1.68082
1.67741
1.67408
1.67094
1.66808
1.66556
1.66341
1.66164
1.66024
1.65919
1.65848
1.65809
1.65804
1.65834
1.659
1.66004
1.66145
1.66318
1.66519
1.66738
1.66963
1.67185
1.67389
1.67567
1.67709
1.67808
1.67858
1.77393
1.77411
1.77449
1.77509
1.77597
1.77717
1.77874
1.78068
1.78301
1.7857
1.78872
1.792
1.79549
1.79912
1.80286
1.80666
1.81052
1.81445
1.81849
1.82271
1.82716
1.83192
1.83707
1.84264
1.84868
1.85518
1.86209
1.86934
1.87686
1.88453
1.89224
1.89989
1.90737
1.91459
1.92147
1.92796
1.93398
1.93951
1.94449
1.94891
1.95275
1.95598
1.9586
1.96059
1.96195
1.96267
1.96275
1.96218
1.96096
1.95909
1.95657
1.9534
1.94958
1.94511
1.93998
1.93422
1.92781
1.92078
1.91313
1.90489
1.89607
1.88671
1.87684
1.86654
1.85585
1.84486
1.83367
1.82241
1.81121
1.80023
1.78962
1.77957
1.77023
1.76175
1.75423
1.74776
1.74233
1.7379
1.7344
1.73168
1.7296
1.72798
1.72665
1.72547
1.7243
1.72302
1.72155
1.71984
1.71785
1.71557
1.71302
1.71025
1.70732
1.70429
1.70125
1.69829
1.69549
1.69291
1.6906
1.68859
1.68691
1.68555
1.68451
1.68378
1.68335
1.68324
1.68343
1.68394
1.68477
1.68589
1.68728
1.68888
1.69061
1.6924
1.69415
1.69577
1.69718
1.6983
1.69908
1.69948
1.79834
1.79854
1.79895
1.7996
1.80051
1.80172
1.80324
1.80509
1.80728
1.80977
1.81255
1.81558
1.81881
1.8222
1.82572
1.82935
1.83307
1.83691
1.84089
1.84504
1.84942
1.85407
1.85905
1.86437
1.87006
1.87611
1.88248
1.88912
1.89596
1.90291
1.90989
1.91681
1.92359
1.93014
1.93639
1.94229
1.94779
1.95283
1.95739
1.96143
1.96494
1.96789
1.97027
1.97207
1.97328
1.97389
1.9739
1.9733
1.97209
1.97028
1.96785
1.9648
1.96115
1.95689
1.95203
1.94657
1.94052
1.93389
1.92671
1.91899
1.91075
1.90204
1.89289
1.88336
1.87352
1.86343
1.8532
1.84292
1.83272
1.82273
1.81307
1.8039
1.79532
1.78746
1.7804
1.77419
1.76884
1.76432
1.76057
1.75749
1.75495
1.75284
1.75103
1.74938
1.74779
1.74618
1.74445
1.74258
1.74051
1.73826
1.73582
1.73323
1.73053
1.72777
1.72503
1.72235
1.71981
1.71745
1.71533
1.71346
1.71186
1.71055
1.70952
1.70877
1.70831
1.70812
1.70821
1.70857
1.7092
1.71008
1.71117
1.71242
1.71379
1.71519
1.71657
1.71785
1.71896
1.71985
1.72047
1.72079
1.82253
1.82275
1.82318
1.82384
1.82476
1.82594
1.82741
1.82918
1.83123
1.83356
1.83614
1.83895
1.84197
1.84515
1.84848
1.85193
1.85552
1.85924
1.86311
1.86715
1.87141
1.87591
1.88067
1.88573
1.89108
1.89671
1.90259
1.90869
1.91493
1.92126
1.92761
1.93389
1.94004
1.94598
1.95167
1.95704
1.96204
1.96664
1.9708
1.97449
1.97768
1.98037
1.98253
1.98414
1.98521
1.98572
1.98566
1.98504
1.98384
1.98207
1.97973
1.97681
1.97333
1.96928
1.96467
1.9595
1.9538
1.94757
1.94083
1.9336
1.92592
1.91781
1.90932
1.90051
1.89143
1.88215
1.87276
1.86335
1.85402
1.84488
1.83605
1.82762
1.8197
1.81238
1.80572
1.79977
1.79453
1.78998
1.78607
1.78274
1.77988
1.77741
1.77523
1.77322
1.77132
1.76943
1.76751
1.7655
1.76338
1.76113
1.75877
1.75631
1.75379
1.75125
1.74872
1.74627
1.74394
1.74177
1.7398
1.73805
1.73653
1.73526
1.73425
1.73349
1.73298
1.73272
1.73271
1.73294
1.73339
1.73405
1.73489
1.73586
1.73692
1.73802
1.7391
1.7401
1.74098
1.74167
1.74216
1.74241
1.84652
1.84674
1.84717
1.84783
1.84873
1.84988
1.85129
1.85297
1.8549
1.85708
1.8595
1.86213
1.86495
1.86795
1.8711
1.8744
1.87783
1.88141
1.88515
1.88905
1.89316
1.89747
1.90201
1.90679
1.91181
1.91706
1.9225
1.92811
1.93382
1.9396
1.94538
1.95109
1.95668
1.96209
1.96726
1.97215
1.9767
1.98089
1.98468
1.98803
1.99094
1.99337
1.99532
1.99676
1.99769
1.9981
1.99799
1.99734
1.99616
1.99444
1.99218
1.98939
1.98607
1.98222
1.97786
1.97298
1.96761
1.96175
1.95543
1.94867
1.9415
1.93396
1.92608
1.91792
1.90953
1.90098
1.89234
1.8837
1.87513
1.86674
1.85861
1.85083
1.84348
1.83663
1.83034
1.82463
1.81952
1.81499
1.811
1.8075
1.80443
1.8017
1.79924
1.79697
1.79482
1.79273
1.79065
1.78853
1.78636
1.78412
1.78182
1.77946
1.77708
1.7747
1.77235
1.77008
1.76792
1.7659
1.76405
1.7624
1.76095
1.75972
1.75872
1.75795
1.7574
1.75708
1.75697
1.75707
1.75737
1.75784
1.75847
1.7592
1.76002
1.76087
1.7617
1.76248
1.76316
1.76371
1.76409
1.76428
1.87029
1.87051
1.87093
1.87158
1.87246
1.87356
1.87491
1.8765
1.87832
1.88037
1.88264
1.88511
1.88777
1.8906
1.89358
1.89672
1.9
1.90343
1.90701
1.91076
1.91469
1.9188
1.92311
1.92762
1.93232
1.93721
1.94225
1.94741
1.95266
1.95794
1.96321
1.96842
1.97351
1.97843
1.98314
1.98758
1.99173
1.99554
1.99898
2.00203
2.00467
2.00687
2.00861
2.00989
2.0107
2.01102
2.01085
2.01018
2.00901
2.00734
2.00517
2.0025
1.99934
1.99569
1.99156
1.98695
1.98189
1.97639
1.97047
1.96415
1.95746
1.95044
1.94312
1.93556
1.9278
1.9199
1.91193
1.90397
1.89607
1.88833
1.88082
1.8736
1.86676
1.86033
1.85437
1.8489
1.84393
1.83945
1.83544
1.83185
1.82863
1.82572
1.82307
1.8206
1.81827
1.81602
1.81382
1.81162
1.80941
1.80717
1.80492
1.80264
1.80036
1.79811
1.7959
1.79377
1.79174
1.78985
1.78811
1.78654
1.78515
1.78396
1.78297
1.78218
1.7816
1.78121
1.78102
1.78101
1.78117
1.78149
1.78193
1.78247
1.78308
1.78372
1.78436
1.78496
1.78548
1.7859
1.78619
1.78635
1.89385
1.89406
1.89448
1.8951
1.89594
1.89701
1.89829
1.89979
1.90151
1.90345
1.90558
1.90791
1.91041
1.91308
1.91591
1.91889
1.92202
1.92529
1.92871
1.93229
1.93603
1.93994
1.94401
1.94825
1.95265
1.9572
1.96187
1.96663
1.97145
1.97629
1.98111
1.98587
1.9905
1.99499
1.99927
2.00332
2.00709
2.01055
2.01368
2.01645
2.01883
2.02081
2.02237
2.0235
2.02419
2.02442
2.0242
2.02352
2.02236
2.02074
2.01866
2.01611
2.0131
2.00964
2.00573
2.00138
1.99662
1.99145
1.9859
1.97999
1.97375
1.96721
1.96041
1.95339
1.9462
1.93889
1.93152
1.92416
1.91686
1.9097
1.90273
1.89601
1.88961
1.88356
1.87791
1.87267
1.86786
1.86345
1.85945
1.85582
1.85251
1.84949
1.8467
1.8441
1.84163
1.83927
1.83698
1.83472
1.83248
1.83025
1.82803
1.82582
1.82362
1.82147
1.81937
1.81736
1.81544
1.81365
1.81199
1.81049
1.80915
1.80799
1.80701
1.80621
1.80559
1.80516
1.80489
1.80478
1.80483
1.805
1.80529
1.80567
1.80611
1.80658
1.80706
1.80751
1.8079
1.80822
1.80845
1.80856
1.91721
1.9174
1.9178
1.91841
1.91921
1.92023
1.92145
1.92287
1.9245
1.92632
1.92833
1.93052
1.93288
1.93541
1.93809
1.94092
1.94389
1.947
1.95026
1.95366
1.95721
1.9609
1.96474
1.96872
1.97284
1.97707
1.98139
1.98579
1.99023
1.99467
1.99908
2.00342
2.00766
2.01174
2.01564
2.01932
2.02275
2.0259
2.02874
2.03124
2.03339
2.03517
2.03656
2.03755
2.03813
2.03829
2.03802
2.03732
2.03618
2.03461
2.03261
2.03017
2.02731
2.02403
2.02033
2.01624
2.01175
2.0069
2.0017
1.99617
1.99034
1.98424
1.97791
1.97139
1.96471
1.95794
1.95111
1.94428
1.93752
1.93086
1.92438
1.91811
1.91211
1.90641
1.90104
1.89602
1.89136
1.88706
1.8831
1.87946
1.87611
1.87302
1.87014
1.86745
1.8649
1.86246
1.8601
1.8578
1.85555
1.85332
1.85113
1.84897
1.84685
1.84477
1.84277
1.84084
1.83902
1.8373
1.83572
1.83427
1.83298
1.83185
1.83087
1.83006
1.82941
1.82892
1.82859
1.8284
1.82834
1.8284
1.82857
1.82881
1.82911
1.82944
1.82978
1.83011
1.8304
1.83064
1.8308
1.83089
1.94036
1.94055
1.94093
1.94151
1.94228
1.94324
1.9444
1.94574
1.94728
1.949
1.9509
1.95296
1.9552
1.95758
1.96012
1.9628
1.96561
1.96857
1.97166
1.97488
1.97824
1.98172
1.98533
1.98906
1.9929
1.99684
2.00085
2.00491
2.00899
2.01307
2.01711
2.02109
2.02495
2.02868
2.03223
2.03558
2.0387
2.04156
2.04413
2.04639
2.04833
2.04992
2.05115
2.05201
2.05249
2.05258
2.05226
2.05155
2.05044
2.04892
2.04699
2.04466
2.04194
2.03883
2.03533
2.03147
2.02725
2.0227
2.01782
2.01264
2.0072
2.00151
1.99561
1.98954
1.98333
1.97703
1.97069
1.96435
1.95806
1.95186
1.94581
1.93994
1.9343
1.92891
1.92381
1.919
1.91451
1.91032
1.90642
1.90281
1.89945
1.89633
1.8934
1.89065
1.88805
1.88556
1.88316
1.88084
1.87858
1.87636
1.8742
1.87208
1.87002
1.86801
1.86608
1.86423
1.86248
1.86083
1.85931
1.85791
1.85665
1.85554
1.85457
1.85375
1.85307
1.85254
1.85215
1.85188
1.85174
1.8517
1.85176
1.85188
1.85207
1.85228
1.85252
1.85275
1.85295
1.85312
1.85324
1.8533
1.96332
1.9635
1.96386
1.96441
1.96514
1.96606
1.96715
1.96843
1.96988
1.9715
1.97329
1.97524
1.97735
1.9796
1.982
1.98454
1.9872
1.99
1.99292
1.99597
1.99913
2.00241
2.0058
2.00929
2.01288
2.01653
2.02025
2.024
2.02776
2.03151
2.03522
2.03886
2.04239
2.04579
2.04903
2.05208
2.05491
2.0575
2.05983
2.06187
2.06361
2.06503
2.06611
2.06685
2.06724
2.06726
2.06691
2.06619
2.06509
2.06362
2.06177
2.05955
2.05696
2.05401
2.05071
2.04706
2.04309
2.03881
2.03424
2.02939
2.0243
2.01898
2.01348
2.00782
2.00204
1.99618
1.99027
1.98437
1.9785
1.97272
1.96705
1.96155
1.95623
1.95114
1.94628
1.94168
1.93735
1.93328
1.92946
1.9259
1.92256
1.91943
1.91649
1.91372
1.91108
1.90856
1.90615
1.90381
1.90155
1.89936
1.89722
1.89514
1.89313
1.89118
1.88931
1.88752
1.88583
1.88424
1.88276
1.88141
1.88018
1.87908
1.87811
1.87728
1.87658
1.87602
1.87557
1.87525
1.87503
1.87491
1.87488
1.87491
1.87499
1.87512
1.87526
1.8754
1.87554
1.87566
1.87574
1.87578
1.98609
1.98627
1.98661
1.98713
1.98783
1.98869
1.98973
1.99093
1.9923
1.99384
1.99553
1.99737
1.99936
2.00148
2.00375
2.00614
2.00866
2.0113
2.01406
2.01693
2.01991
2.02299
2.02617
2.02943
2.03277
2.03617
2.03961
2.04308
2.04655
2.04999
2.0534
2.05673
2.05996
2.06306
2.06601
2.06879
2.07136
2.07371
2.07581
2.07765
2.07921
2.08047
2.08142
2.08205
2.08235
2.08231
2.08193
2.08121
2.08013
2.0787
2.07692
2.0748
2.07234
2.06954
2.06642
2.06298
2.05924
2.05522
2.05092
2.04638
2.04161
2.03665
2.03151
2.02622
2.02083
2.01536
2.00985
2.00434
1.99886
1.99345
1.98814
1.98296
1.97795
1.97312
1.9685
1.9641
1.95992
1.95598
1.95226
1.94876
1.94546
1.94235
1.93942
1.93664
1.93399
1.93147
1.92905
1.92672
1.92447
1.92229
1.92018
1.91814
1.91617
1.91427
1.91245
1.91072
1.90908
1.90753
1.9061
1.90478
1.90357
1.90249
1.90152
1.90068
1.89997
1.89937
1.89888
1.89851
1.89823
1.89804
1.89792
1.89788
1.89788
1.89792
1.89799
1.89807
1.89815
1.89822
1.89827
1.8983
2.00869
2.00886
2.00919
2.00968
2.01034
2.01116
2.01214
2.01327
2.01457
2.01601
2.01761
2.01934
2.02122
2.02323
2.02536
2.02762
2.03
2.03249
2.03509
2.03779
2.04059
2.04348
2.04645
2.0495
2.05261
2.05576
2.05895
2.06215
2.06535
2.06852
2.07165
2.0747
2.07765
2.08048
2.08317
2.0857
2.08803
2.09016
2.09205
2.09371
2.0951
2.09622
2.09704
2.09758
2.0978
2.09771
2.0973
2.09657
2.09551
2.09413
2.09242
2.0904
2.08805
2.0854
2.08244
2.0792
2.07568
2.07189
2.06786
2.0636
2.05913
2.05448
2.04967
2.04474
2.0397
2.03459
2.02944
2.02428
2.01915
2.01408
2.00909
2.00421
1.99948
1.9949
1.9905
1.98629
1.98227
1.97845
1.97483
1.97141
1.96817
1.9651
1.96219
1.95942
1.95679
1.95427
1.95186
1.94954
1.94731
1.94515
1.94307
1.94107
1.93913
1.93728
1.93551
1.93382
1.93222
1.93072
1.92932
1.92803
1.92684
1.92577
1.92481
1.92396
1.92323
1.92261
1.92208
1.92166
1.92133
1.92108
1.92091
1.92079
1.92073
1.92071
1.92071
1.92074
1.92077
1.9208
1.92083
1.92084
2.03113
2.03129
2.0316
2.03206
2.03269
2.03346
2.03438
2.03546
2.03668
2.03804
2.03955
2.04118
2.04295
2.04484
2.04686
2.04898
2.05122
2.05357
2.05601
2.05855
2.06118
2.06388
2.06666
2.0695
2.07239
2.07532
2.07827
2.08123
2.08418
2.0871
2.08997
2.09276
2.09546
2.09805
2.1005
2.10279
2.10491
2.10683
2.10854
2.11003
2.11127
2.11225
2.11297
2.11341
2.11356
2.11343
2.11299
2.11226
2.11122
2.10988
2.10824
2.1063
2.10407
2.10156
2.09876
2.0957
2.09237
2.08881
2.08502
2.08102
2.07683
2.07247
2.06797
2.06335
2.05863
2.05385
2.04903
2.0442
2.03939
2.03462
2.02992
2.02532
2.02084
2.0165
2.0123
2.00827
2.00441
2.00073
1.99722
1.99388
1.9907
1.98768
1.98481
1.98208
1.97947
1.97697
1.97457
1.97227
1.97006
1.96794
1.96589
1.96392
1.96202
1.96021
1.95848
1.95683
1.95527
1.95381
1.95244
1.95117
1.95
1.94894
1.94798
1.94713
1.94638
1.94574
1.94519
1.94473
1.94435
1.94405
1.94382
1.94366
1.94354
1.94346
1.94342
1.9434
1.94339
1.94339
1.9434
1.9434
2.05341
2.05356
2.05385
2.05429
2.05488
2.05561
2.05648
2.0575
2.05865
2.05993
2.06135
2.06289
2.06455
2.06634
2.06823
2.07023
2.07234
2.07454
2.07684
2.07922
2.08168
2.08421
2.0868
2.08945
2.09214
2.09486
2.09759
2.10032
2.10304
2.10572
2.10836
2.11092
2.11339
2.11575
2.11798
2.12007
2.12199
2.12372
2.12526
2.12659
2.12769
2.12855
2.12917
2.12952
2.12962
2.12944
2.12898
2.12825
2.12723
2.12593
2.12436
2.1225
2.12038
2.11799
2.11534
2.11245
2.10931
2.10596
2.10239
2.09863
2.0947
2.09061
2.08639
2.08206
2.07764
2.07315
2.06863
2.0641
2.05957
2.05509
2.05066
2.04632
2.04207
2.03795
2.03395
2.03009
2.02638
2.02283
2.01943
2.01618
2.01308
2.01012
2.0073
2.0046
2.00203
1.99956
1.99719
1.99492
1.99274
1.99064
1.98863
1.98669
1.98483
1.98306
1.98136
1.97975
1.97823
1.97679
1.97545
1.97421
1.97306
1.97201
1.97105
1.9702
1.96944
1.96877
1.96819
1.9677
1.96729
1.96695
1.96668
1.96647
1.96631
1.96618
1.9661
1.96604
1.966
1.96598
1.96597
1.96596
2.07554
2.07568
2.07596
2.07638
2.07693
2.07762
2.07844
2.07939
2.08048
2.08169
2.08302
2.08447
2.08604
2.08772
2.0895
2.09138
2.09336
2.09543
2.09758
2.09981
2.10211
2.10448
2.10689
2.10936
2.11186
2.11438
2.1169
2.11943
2.12193
2.1244
2.12682
2.12916
2.13142
2.13358
2.13561
2.1375
2.13924
2.14081
2.14219
2.14338
2.14435
2.1451
2.14562
2.14591
2.14594
2.14572
2.14525
2.14451
2.14352
2.14226
2.14075
2.13898
2.13695
2.13468
2.13217
2.12943
2.12648
2.12331
2.11995
2.11642
2.11272
2.10888
2.10492
2.10085
2.0967
2.09249
2.08824
2.08398
2.07972
2.0755
2.07132
2.06721
2.06319
2.05926
2.05545
2.05176
2.0482
2.04478
2.04149
2.03833
2.03532
2.03243
2.02966
2.02701
2.02448
2.02205
2.01972
2.01748
2.01533
2.01327
2.01128
2.00938
2.00756
2.00582
2.00416
2.00259
2.00109
1.99969
1.99837
1.99715
1.99601
1.99497
1.99402
1.99316
1.9924
1.99171
1.99112
1.9906
1.99016
1.98979
1.98948
1.98923
1.98903
1.98887
1.98875
1.98866
1.9886
1.98855
1.98853
1.98851
2.09753
2.09767
2.09793
2.09832
2.09884
2.09949
2.10026
2.10116
2.10218
2.10332
2.10458
2.10594
2.10741
2.10899
2.11066
2.11243
2.11429
2.11623
2.11824
2.12033
2.12248
2.12469
2.12694
2.12923
2.13155
2.13388
2.13622
2.13855
2.14086
2.14313
2.14535
2.1475
2.14956
2.15153
2.15338
2.15509
2.15667
2.15808
2.15932
2.16037
2.16123
2.16188
2.16232
2.16253
2.16252
2.16227
2.16178
2.16104
2.16007
2.15885
2.1574
2.1557
2.15377
2.15161
2.14923
2.14664
2.14385
2.14086
2.13769
2.13437
2.13089
2.12727
2.12355
2.11972
2.11582
2.11186
2.10787
2.10386
2.09985
2.09586
2.09191
2.08802
2.0842
2.08047
2.07683
2.0733
2.06988
2.06659
2.06341
2.06035
2.05742
2.0546
2.0519
2.04931
2.04682
2.04444
2.04215
2.03995
2.03784
2.03581
2.03386
2.032
2.03021
2.0285
2.02688
2.02533
2.02387
2.02249
2.0212
2.01999
2.01888
2.01784
2.0169
2.01604
2.01527
2.01457
2.01396
2.01342
2.01296
2.01256
2.01222
2.01194
2.01171
2.01152
2.01137
2.01126
2.01117
2.01111
2.01107
2.01105
2.11939
2.11952
2.11976
2.12013
2.12062
2.12124
2.12196
2.12281
2.12377
2.12484
2.12602
2.1273
2.12868
2.13016
2.13174
2.13339
2.13513
2.13695
2.13884
2.14079
2.14279
2.14485
2.14695
2.14907
2.15123
2.15339
2.15555
2.1577
2.15983
2.16191
2.16395
2.16591
2.1678
2.16959
2.17127
2.17283
2.17425
2.17552
2.17663
2.17757
2.17832
2.17888
2.17924
2.17939
2.17933
2.17905
2.17854
2.17782
2.17686
2.17568
2.17428
2.17266
2.17082
2.16876
2.1665
2.16405
2.16141
2.15859
2.1556
2.15246
2.14918
2.14578
2.14227
2.13867
2.135
2.13128
2.12751
2.12373
2.11995
2.11618
2.11244
2.10875
2.10512
2.10157
2.0981
2.09472
2.09145
2.08827
2.08521
2.08225
2.0794
2.07667
2.07403
2.0715
2.06907
2.06673
2.06448
2.06233
2.06025
2.05827
2.05636
2.05453
2.05278
2.0511
2.04951
2.048
2.04656
2.04521
2.04394
2.04275
2.04165
2.04063
2.03969
2.03883
2.03805
2.03735
2.03673
2.03617
2.03569
2.03527
2.03491
2.0346
2.03434
2.03413
2.03396
2.03382
2.03372
2.03364
2.0336
2.03357
2.14113
2.14125
2.14148
2.14183
2.14229
2.14286
2.14355
2.14434
2.14524
2.14625
2.14736
2.14856
2.14986
2.15125
2.15272
2.15427
2.1559
2.1576
2.15936
2.16118
2.16305
2.16497
2.16692
2.1689
2.17089
2.17289
2.17489
2.17687
2.17883
2.18075
2.18261
2.18441
2.18613
2.18777
2.18929
2.1907
2.19198
2.19312
2.19411
2.19494
2.1956
2.19607
2.19636
2.19646
2.19636
2.19605
2.19553
2.19481
2.19388
2.19274
2.19139
2.18983
2.18807
2.18612
2.18397
2.18164
2.17914
2.17648
2.17366
2.17069
2.1676
2.1644
2.16109
2.1577
2.15424
2.15072
2.14717
2.1436
2.14003
2.13646
2.13292
2.12942
2.12598
2.12259
2.11928
2.11605
2.1129
2.10985
2.1069
2.10404
2.10128
2.09862
2.09606
2.09359
2.09122
2.08893
2.08673
2.08462
2.08259
2.08064
2.07877
2.07698
2.07526
2.07363
2.07207
2.07058
2.06918
2.06785
2.0666
2.06543
2.06434
2.06333
2.0624
2.06154
2.06076
2.06006
2.05942
2.05885
2.05835
2.05792
2.05753
2.05721
2.05693
2.0567
2.05651
2.05635
2.05624
2.05615
2.0561
2.05607
2.16275
2.16286
2.16308
2.1634
2.16384
2.16438
2.16502
2.16577
2.16661
2.16756
2.1686
2.16972
2.17094
2.17224
2.17362
2.17507
2.1766
2.17819
2.17983
2.18153
2.18327
2.18505
2.18687
2.1887
2.19055
2.1924
2.19424
2.19607
2.19787
2.19963
2.20134
2.20299
2.20456
2.20604
2.20743
2.2087
2.20986
2.21088
2.21176
2.21249
2.21306
2.21346
2.21368
2.21373
2.21359
2.21326
2.21273
2.21202
2.2111
2.21
2.2087
2.2072
2.20552
2.20366
2.20162
2.19941
2.19704
2.19452
2.19185
2.18905
2.18614
2.18311
2.17999
2.17679
2.17352
2.17021
2.16685
2.16348
2.1601
2.15672
2.15337
2.15004
2.14676
2.14354
2.14038
2.13728
2.13427
2.13134
2.12849
2.12573
2.12306
2.12048
2.11799
2.11559
2.11327
2.11104
2.1089
2.10683
2.10485
2.10294
2.10111
2.09935
2.09767
2.09607
2.09454
2.09309
2.09171
2.09041
2.08918
2.08803
2.08695
2.08595
2.08503
2.08417
2.0834
2.08269
2.08205
2.08147
2.08096
2.08051
2.08011
2.07977
2.07947
2.07922
2.07902
2.07885
2.07872
2.07863
2.07857
2.07854
2.18426
2.18436
2.18457
2.18487
2.18528
2.18579
2.18639
2.18709
2.18788
2.18877
2.18974
2.1908
2.19194
2.19316
2.19445
2.19581
2.19723
2.19871
2.20025
2.20183
2.20345
2.20511
2.20679
2.20849
2.2102
2.21191
2.21361
2.2153
2.21695
2.21857
2.22013
2.22164
2.22307
2.22442
2.22567
2.22682
2.22786
2.22877
2.22955
2.23019
2.23068
2.23101
2.23118
2.23118
2.23101
2.23066
2.23013
2.22942
2.22852
2.22745
2.2262
2.22476
2.22316
2.22138
2.21944
2.21734
2.2151
2.2127
2.21018
2.20753
2.20478
2.20192
2.19897
2.19595
2.19286
2.18973
2.18656
2.18336
2.18016
2.17696
2.17378
2.17062
2.1675
2.16442
2.1614
2.15844
2.15555
2.15273
2.14999
2.14733
2.14475
2.14225
2.13983
2.1375
2.13524
2.13307