/*--------------------------------*- C++ -*----------------------------------*\
| =========                 |                                                 |
| \\      /  F ield         | OpenFOAM: The Open Source CFD Toolbox           |
|  \\    /   O peration     | Version:  2406                                  |
|   \\  /    A nd           | Website:  www.openfoam.com                      |
|    \\/     M anipulation  |                                                 |
\*---------------------------------------------------------------------------*/
FoamFile
{
    version     2.0;
    format      ascii;
    arch        "LSB;label=32;scalar=64";
    class       volScalarField;
    location    "3.95";
    object      C_0;
}
// * * * * * * * * * * * * * * * * * * * * * * * * * * * * * * * * * * * * * //

dimensions      [1 -3 0 0 0 0 0];

internalField   nonuniform List<scalar> 
14400
(
0.456457
0.447846
0.436241
0.424735
0.41503
0.40811
0.404574
0.404776
0.408892
0.416946
0.428805
0.444147
0.462361
0.482307
0.501631
0.51309
0.510697
0.497157
0.479766
0.463905
0.451311
0.44293
0.439409
0.441247
0.448868
0.462658
0.482985
0.510211
0.544677
0.586666
0.636298
0.693241
0.755261
0.803987
0.836042
0.86206
0.884963
0.905124
0.922831
0.938313
0.951746
0.963271
0.973002
0.981026
0.987414
0.992221
0.995486
0.997237
0.997492
0.996257
0.993527
0.989289
0.983517
0.976175
0.967213
0.956567
0.944158
0.929885
0.913623
0.895216
0.874474
0.851152
0.824945
0.79546
0.753808
0.694212
0.630977
0.573686
0.523764
0.481246
0.445834
0.417143
0.394794
0.378442
0.367797
0.362622
0.362739
0.368013
0.378347
0.393666
0.413885
0.438854
0.468223
0.501045
0.53424
0.556692
0.567376
0.572234
0.571547
0.565088
0.548472
0.521994
0.494433
0.469518
0.44831
0.431168
0.418154
0.409121
0.40374
0.401489
0.401626
0.403182
0.405008
0.406007
0.405671
0.404548
0.403771
0.404523
0.407813
0.414419
0.424912
0.439678
0.458925
0.482663
0.510603
0.541738
0.572334
0.592562
0.602399
0.607147
0.473725
0.46293
0.449221
0.436311
0.425676
0.418149
0.414258
0.414327
0.418522
0.42686
0.439212
0.455276
0.474475
0.495617
0.515472
0.524718
0.523265
0.510267
0.491979
0.475196
0.461828
0.452849
0.448903
0.450486
0.458013
0.471864
0.492403
0.519984
0.554943
0.597543
0.647839
0.705178
0.765815
0.809938
0.839619
0.865174
0.887706
0.907576
0.925058
0.940361
0.953653
0.965066
0.974707
0.982662
0.988996
0.993762
0.996999
0.998734
0.998982
0.997751
0.995035
0.990822
0.985087
0.977794
0.968896
0.958331
0.946022
0.931874
0.915766
0.897553
0.877052
0.854036
0.828215
0.79922
0.761452
0.70593
0.641931
0.58386
0.533257
0.49015
0.454242
0.425151
0.402497
0.385937
0.375182
0.369998
0.370204
0.375668
0.386295
0.402009
0.422726
0.448309
0.478439
0.512115
0.543835
0.563179
0.573122
0.577781
0.577304
0.571588
0.558465
0.53409
0.505835
0.480278
0.458575
0.44111
0.427976
0.41905
0.414024
0.412397
0.413432
0.416089
0.41898
0.420483
0.419631
0.417433
0.415547
0.415397
0.418055
0.424299
0.434677
0.449551
0.469106
0.493326
0.521905
0.553748
0.581876
0.598391
0.607462
0.611894
0.500164
0.49042
0.474198
0.459085
0.446834
0.438192
0.433629
0.433447
0.437804
0.446695
0.45998
0.47737
0.498308
0.521295
0.538761
0.544351
0.543967
0.535061
0.516105
0.4977
0.482861
0.472725
0.467951
0.469034
0.476381
0.490357
0.511315
0.539598
0.575521
0.619313
0.670956
0.729436
0.782969
0.819104
0.846753
0.871312
0.893109
0.912418
0.929462
0.94442
0.957438
0.968633
0.9781
0.985917
0.992146
0.996833
1.00001
1.00172
1.00195
1.00073
0.998042
0.993878
0.988215
0.981019
0.972246
0.961839
0.949726
0.935821
0.920015
0.902177
0.882147
0.859724
0.83466
0.806623
0.773898
0.726329
0.663151
0.604109
0.552294
0.508056
0.471173
0.441286
0.418024
0.401047
0.390072
0.384866
0.385251
0.391095
0.402302
0.418792
0.440468
0.467156
0.498432
0.532814
0.560343
0.575258
0.584148
0.588462
0.588299
0.583678
0.574383
0.555893
0.528034
0.501657
0.479073
0.460981
0.447606
0.43888
0.434545
0.434156
0.437026
0.442058
0.447483
0.450356
0.448105
0.443353
0.43908
0.437085
0.438493
0.444032
0.454191
0.46928
0.48943
0.514487
0.543823
0.575135
0.596937
0.609263
0.617162
0.621074
0.529914
0.525201
0.509775
0.492503
0.478306
0.468188
0.46269
0.462157
0.466766
0.476461
0.491024
0.510083
0.532779
0.555083
0.56568
0.569359
0.569526
0.565711
0.551303
0.531153
0.514362
0.502615
0.496654
0.497019
0.504111
0.518282
0.539863
0.56917
0.606464
0.651813
0.704528
0.761019
0.80196
0.831084
0.856977
0.880212
0.900999
0.919525
0.935952
0.950421
0.963046
0.973927
0.983143
0.990762
0.996836
1.00141
1.00451
1.00616
1.00638
1.00517
1.00252
0.998433
0.992875
0.98582
0.977229
0.967051
0.955223
0.941669
0.926296
0.908994
0.889632
0.868054
0.844076
0.817491
0.788093
0.750403
0.694718
0.634525
0.581027
0.535161
0.496848
0.465782
0.44161
0.424007
0.412698
0.407457
0.408108
0.41452
0.426589
0.444223
0.467281
0.495462
0.527877
0.560709
0.580674
0.592097
0.599749
0.603621
0.603754
0.600228
0.593206
0.581777
0.560436
0.533484
0.509728
0.490718
0.476988
0.46853
0.46516
0.466539
0.472125
0.480874
0.490697
0.496449
0.491272
0.482091
0.474085
0.46936
0.468983
0.473535
0.483395
0.498801
0.519816
0.545967
0.575757
0.600127
0.61442
0.624243
0.630851
0.634164
0.561848
0.560451
0.55282
0.535602
0.519797
0.508036
0.501395
0.500411
0.505392
0.516132
0.53218
0.552858
0.576244
0.589505
0.594746
0.597876
0.598656
0.597117
0.590823
0.574229
0.556054
0.542542
0.535113
0.534592
0.541379
0.55582
0.578207
0.608815
0.64781
0.695033
0.748108
0.79012
0.819824
0.845958
0.869859
0.891561
0.91115
0.928729
0.944402
0.958263
0.970399
0.980885
0.989784
0.997151
1.00303
1.00745
1.01045
1.01205
1.01224
1.01104
1.00845
1.00445
0.999032
0.992158
0.9838
0.973913
0.962446
0.949335
0.934506
0.917871
0.899334
0.878784
0.856101
0.83117
0.803897
0.774004
0.732563
0.674404
0.619534
0.571716
0.531576
0.498971
0.473595
0.455154
0.443395
0.438102
0.439104
0.446263
0.459461
0.478583
0.503393
0.533352
0.566501
0.590356
0.603241
0.61268
0.61913
0.622519
0.622866
0.620274
0.614955
0.607284
0.595018
0.574255
0.550108
0.530053
0.515942
0.507796
0.50554
0.508937
0.517651
0.530062
0.538732
0.541524
0.539225
0.531171
0.519483
0.511616
0.509198
0.512603
0.522112
0.537846
0.559831
0.586249
0.609613
0.624423
0.634528
0.642437
0.647836
0.650567
0.595176
0.594344
0.592763
0.584986
0.570356
0.557349
0.549464
0.547888
0.553428
0.565408
0.582586
0.603077
0.615959
0.621597
0.625848
0.628744
0.630106
0.629983
0.628653
0.621956
0.606972
0.592354
0.583294
0.581839
0.588302
0.603097
0.626413
0.658422
0.698939
0.746565
0.785631
0.814315
0.839464
0.863065
0.884939
0.905022
0.923311
0.939841
0.954662
0.967831
0.979402
0.989429
0.997957
1.00503
1.01067
1.01493
1.0178
1.01932
1.01949
1.01832
1.01579
1.0119
1.00664
0.999981
0.991898
0.982356
0.971313
0.958719
0.94452
0.928652
0.911049
0.891644
0.870374
0.847192
0.822086
0.795106
0.765292
0.72317
0.667949
0.617959
0.57569
0.541252
0.514394
0.494903
0.482574
0.477208
0.478637
0.486712
0.501255
0.522122
0.548758
0.579544
0.604698
0.618755
0.628582
0.636251
0.641573
0.644459
0.644917
0.643047
0.639057
0.633281
0.626195
0.615267
0.598465
0.578044
0.563962
0.556164
0.554966
0.559905
0.570642
0.57743
0.579676
0.579544
0.580165
0.578458
0.572327
0.562416
0.55842
0.560727
0.569832
0.585475
0.607732
0.626626
0.639683
0.648868
0.656834
0.66314
0.667488
0.669702
0.629335
0.628917
0.628211
0.627409
0.622227
0.614042
0.605584
0.603294
0.60959
0.622436
0.635674
0.645584
0.65037
0.654632
0.658306
0.661144
0.66304
0.664054
0.664411
0.664466
0.660042
0.650726
0.640528
0.638543
0.644687
0.659939
0.684099
0.716943
0.756752
0.789785
0.815169
0.838297
0.860653
0.881897
0.901812
0.920276
0.937231
0.952661
0.966575
0.978995
0.98995
0.999471
1.00759
1.01433
1.01972
1.02377
1.02651
1.02795
1.02809
1.02694
1.02448
1.02072
1.01564
1.00923
1.00146
0.992301
0.98173
0.96971
0.956201
0.941166
0.924566
0.90637
0.886559
0.865137
0.842148
0.817694
0.791954
0.76335
0.723912
0.673461
0.629325
0.592991
0.564424
0.543683
0.530677
0.525207
0.527118
0.536255
0.552201
0.574833
0.60218
0.625571
0.639328
0.648369
0.65608
0.66217
0.666451
0.668827
0.669296
0.667941
0.664943
0.660587
0.655262
0.649469
0.641808
0.63073
0.619085
0.61171
0.611215
0.614178
0.617023
0.616986
0.616267
0.616178
0.61677
0.618011
0.618626
0.61648
0.614431
0.615983
0.624589
0.637739
0.650452
0.659813
0.667374
0.674532
0.680799
0.685802
0.689274
0.69105
0.663911
0.663776
0.663613
0.663643
0.664218
0.663254
0.661394
0.661738
0.665989
0.672285
0.677687
0.68098
0.684624
0.688256
0.691601
0.694486
0.696856
0.698781
0.700463
0.702234
0.704569
0.704791
0.703302
0.703018
0.70882
0.724642
0.748675
0.776134
0.801481
0.822224
0.842663
0.863049
0.882955
0.902058
0.920136
0.937038
0.952676
0.966998
0.979982
0.991625
1.00193
1.01092
1.01859
1.02498
1.03009
1.03393
1.03653
1.03788
1.03799
1.03685
1.03448
1.03086
1.02598
1.01983
1.0124
1.00366
0.993597
0.982187
0.96941
0.955245
0.93968
0.922712
0.904354
0.884649
0.863676
0.841568
0.818528
0.794845
0.769289
0.735153
0.691695
0.654272
0.62391
0.601789
0.588059
0.582437
0.5848
0.595123
0.611948
0.635254
0.653709
0.665112
0.672502
0.679312
0.685199
0.689899
0.693232
0.695104
0.695497
0.694477
0.69219
0.68886
0.684796
0.680377
0.676043
0.671906
0.666161
0.661224
0.658798
0.657355
0.654707
0.653043
0.652229
0.652128
0.652726
0.654059
0.656285
0.659574
0.661792
0.66518
0.671259
0.678258
0.683768
0.689544
0.695465
0.701086
0.706029
0.709994
0.712757
0.714174
0.698622
0.698664
0.698823
0.699248
0.70015
0.701754
0.704177
0.706497
0.708613
0.710435
0.712803
0.715694
0.71889
0.722168
0.725354
0.728343
0.731116
0.733751
0.736425
0.739425
0.743153
0.748149
0.75404
0.759724
0.76884
0.783164
0.800506
0.818046
0.83465
0.852188
0.870208
0.888283
0.906057
0.923246
0.939634
0.955066
0.969435
0.982671
0.994731
1.00559
1.01524
1.02367
1.03089
1.03691
1.04172
1.04535
1.04779
1.04904
1.04912
1.04801
1.04573
1.04225
1.03759
1.03172
1.02464
1.01634
1.00681
0.996033
0.984005
0.970725
0.956197
0.940442
0.923497
0.905429
0.886338
0.866374
0.845744
0.824725
0.803676
0.782359
0.755196
0.723406
0.692013
0.668905
0.654673
0.648792
0.651148
0.662512
0.677295
0.688851
0.695971
0.701055
0.706255
0.711177
0.715504
0.718993
0.721476
0.722858
0.723112
0.722282
0.720477
0.717869
0.714686
0.711198
0.707685
0.704371
0.701387
0.698408
0.695036
0.692022
0.689748
0.688249
0.687476
0.687379
0.687948
0.689212
0.691242
0.694113
0.697817
0.702003
0.705935
0.709977
0.714424
0.719129
0.723856
0.728317
0.732238
0.735387
0.737586
0.738715
0.733292
0.733434
0.733766
0.734377
0.735375
0.736846
0.738766
0.740859
0.742887
0.744985
0.747381
0.750104
0.753072
0.756171
0.759304
0.762416
0.765516
0.76868
0.772061
0.775889
0.780467
0.786158
0.793327
0.802399
0.813061
0.824711
0.837315
0.851183
0.866058
0.88167
0.897698
0.913819
0.929745
0.945233
0.960088
0.974157
0.987329
0.999522
1.01068
1.02077
1.02975
1.03763
1.04439
1.05003
1.05455
1.05795
1.06023
1.06139
1.06143
1.06036
1.05816
1.05484
1.0504
1.04482
1.03811
1.03026
1.02127
1.01113
0.999854
0.987451
0.973941
0.959361
0.943764
0.927231
0.909874
0.891846
0.873349
0.854637
0.836026
0.817891
0.800638
0.78154
0.761047
0.741994
0.728356
0.722
0.721946
0.725312
0.729444
0.731397
0.733769
0.736878
0.740287
0.743638
0.746647
0.749093
0.750822
0.751739
0.751811
0.751061
0.749566
0.747452
0.744882
0.742045
0.739126
0.73627
0.733545
0.730881
0.728238
0.725877
0.724012
0.722731
0.722049
0.721963
0.722475
0.7236
0.725359
0.727752
0.730712
0.73404
0.737479
0.741055
0.74482
0.748693
0.752514
0.756089
0.759219
0.76173
0.763484
0.764385
0.767819
0.768014
0.76843
0.769118
0.770128
0.771491
0.773173
0.775065
0.777076
0.77924
0.78163
0.784269
0.787123
0.790141
0.793273
0.796503
0.799851
0.803392
0.807251
0.811603
0.816669
0.822689
0.829889
0.838424
0.84819
0.858965
0.870668
0.883304
0.896728
0.910738
0.925094
0.939549
0.953871
0.967855
0.981326
0.994145
1.0062
1.01741
1.0277
1.03704
1.04538
1.05272
1.05902
1.06428
1.0685
1.07167
1.07379
1.07485
1.07486
1.07382
1.07172
1.06856
1.06434
1.05906
1.05272
1.04532
1.03687
1.02736
1.01683
1.00528
0.992756
0.979296
0.964967
0.949856
0.93408
0.917788
0.901167
0.884447
0.867899
0.851834
0.836598
0.822563
0.810036
0.797712
0.787121
0.779887
0.775741
0.772472
0.770366
0.770009
0.770827
0.772403
0.774376
0.776442
0.778351
0.779911
0.780979
0.781466
0.781332
0.780585
0.779275
0.77749
0.775346
0.772975
0.770504
0.768039
0.765642
0.763335
0.761156
0.759235
0.757694
0.756612
0.756025
0.755948
0.756389
0.757354
0.75884
0.760823
0.763238
0.765967
0.768885
0.771943
0.775109
0.778307
0.781419
0.784304
0.786819
0.788831
0.790235
0.790955
0.802153
0.802371
0.802824
0.803535
0.804529
0.805815
0.807371
0.80915
0.811114
0.813267
0.815631
0.818217
0.821012
0.823994
0.827146
0.83047
0.833995
0.837787
0.841945
0.846603
0.851915
0.858041
0.865116
0.873216
0.882307
0.89229
0.903089
0.914636
0.926812
0.939459
0.95239
0.965412
0.978335
0.990988
1.00322
1.0149
1.02592
1.0362
1.04568
1.0543
1.06203
1.06883
1.07468
1.07957
1.0835
1.08644
1.0884
1.08937
1.08935
1.08834
1.08633
1.08333
1.07934
1.07436
1.06839
1.06143
1.05351
1.04463
1.03482
1.02409
1.0125
1.0001
0.986951
0.973147
0.958803
0.944059
0.929086
0.914085
0.899288
0.884949
0.871339
0.858728
0.847344
0.837322
0.828738
0.821455
0.815626
0.811473
0.808792
0.807446
0.807128
0.807532
0.808372
0.809401
0.810406
0.81122
0.811717
0.811814
0.811467
0.810671
0.809458
0.807886
0.806037
0.804003
0.801876
0.799738
0.79765
0.795658
0.793819
0.792212
0.790918
0.789998
0.78949
0.789414
0.78978
0.790587
0.791824
0.793463
0.79545
0.797706
0.800151
0.802723
0.805366
0.808006
0.81055
0.812891
0.814921
0.81654
0.817668
0.818247
0.836267
0.836495
0.836958
0.837669
0.838639
0.839869
0.841347
0.843051
0.844963
0.847081
0.849411
0.851956
0.854714
0.857678
0.860847
0.864234
0.867872
0.871814
0.876141
0.880949
0.886347
0.892442
0.899318
0.907019
0.91553
0.924799
0.934761
0.945338
0.956426
0.967895
0.979596
0.991373
1.00307
1.01454
1.02566
1.0363
1.04638
1.05581
1.06452
1.07246
1.07959
1.08588
1.0913
1.09584
1.09947
1.1022
1.104
1.10488
1.10483
1.10385
1.10194
1.0991
1.09533
1.09064
1.08503
1.07852
1.07111
1.06284
1.05371
1.04377
1.03307
1.02165
1.00959
0.996978
0.983924
0.970558
0.957032
0.94352
0.930218
0.917334
0.905082
0.893664
0.883254
0.873968
0.865875
0.858978
0.853337
0.849001
0.845884
0.843853
0.842707
0.842223
0.842181
0.842382
0.842651
0.842846
0.842856
0.842605
0.842049
0.841175
0.84
0.83856
0.836913
0.835124
0.83326
0.831387
0.82956
0.82783
0.826248
0.824875
0.823768
0.822973
0.822524
0.822439
0.822729
0.823389
0.824407
0.825756
0.827391
0.829256
0.83129
0.833432
0.835626
0.837802
0.839884
0.841789
0.843433
0.844741
0.845651
0.846117
0.870154
0.870383
0.870844
0.871544
0.872488
0.873674
0.875096
0.876744
0.878607
0.880684
0.882975
0.885483
0.88821
0.891157
0.894331
0.897749
0.901443
0.905458
0.909855
0.914704
0.920083
0.926063
0.932696
0.94001
0.947995
0.956617
0.965818
0.975529
0.985659
0.996098
1.00673
1.01741
1.02803
1.03845
1.04857
1.05828
1.06749
1.07613
1.08412
1.09143
1.098
1.10381
1.10881
1.113
1.11636
1.11887
1.12052
1.12131
1.12124
1.12029
1.11848
1.11579
1.11225
1.10784
1.10259
1.0965
1.08959
1.08189
1.07342
1.06422
1.05434
1.04384
1.03278
1.02125
1.00936
0.997217
0.984962
0.972745
0.96073
0.949088
0.937989
0.927594
0.918038
0.909423
0.901814
0.895245
0.889743
0.885311
0.881889
0.879375
0.877624
0.876471
0.875748
0.875295
0.874971
0.874656
0.874255
0.8737
0.872948
0.871982
0.870805
0.869443
0.867931
0.866318
0.864654
0.86299
0.861374
0.859852
0.858469
0.857272
0.856304
0.855602
0.855192
0.855091
0.855306
0.855833
0.85666
0.857762
0.859103
0.860638
0.862319
0.864091
0.865902
0.867691
0.869395
0.870947
0.872282
0.873341
0.874076
0.874452
0.903811
0.904038
0.904492
0.905177
0.906094
0.907243
0.90862
0.91022
0.912037
0.914071
0.916322
0.918792
0.921485
0.924407
0.927569
0.930989
0.934693
0.93872
0.943115
0.94793
0.953219
0.959029
0.965394
0.972328
0.979825
0.987853
0.996366
1.0053
1.01458
1.02411
1.0338
1.04352
1.05318
1.06267
1.07189
1.08075
1.08917
1.09708
1.10442
1.11113
1.11718
1.12252
1.12714
1.131
1.13409
1.1364
1.13791
1.13862
1.13852
1.1376
1.13588
1.13335
1.13002
1.12589
1.12098
1.11529
1.10886
1.10171
1.09386
1.08535
1.07624
1.06658
1.05644
1.04589
1.03504
1.02399
1.01286
1.00177
0.990869
0.980298
0.970193
0.960684
0.951882
0.943872
0.936714
0.930445
0.92508
0.920609
0.916987
0.914134
0.911943
0.91029
0.909044
0.90808
0.907282
0.906552
0.905809
0.904992
0.904062
0.902998
0.901797
0.900473
0.899051
0.897563
0.896048
0.894545
0.893095
0.891735
0.890505
0.88944
0.888575
0.887938
0.887551
0.887427
0.88757
0.887978
0.888637
0.889528
0.890619
0.891876
0.893255
0.894712
0.8962
0.897666
0.899058
0.900322
0.901407
0.902265
0.90286
0.903164
0.937243
0.937464
0.937909
0.938576
0.939468
0.940584
0.941922
0.943478
0.945252
0.947241
0.949449
0.951877
0.954531
0.957418
0.96055
0.963943
0.967621
0.971614
0.975955
0.980683
0.985834
0.99144
0.997521
1.00409
1.01112
1.0186
1.02649
1.03473
1.04325
1.05198
1.06082
1.0697
1.07851
1.08716
1.09558
1.10367
1.11137
1.11861
1.12534
1.1315
1.13706
1.14197
1.14622
1.14977
1.15261
1.15473
1.1561
1.15673
1.15661
1.15573
1.1541
1.15171
1.14858
1.14472
1.14013
1.13484
1.12886
1.12222
1.11495
1.10709
1.09869
1.0898
1.0805
1.07084
1.06093
1.05084
1.0407
1.03061
1.02068
1.01104
1.0018
0.993068
0.984933
0.977468
0.970726
0.96474
0.959521
0.955058
0.951316
0.948232
0.945725
0.943701
0.942058
0.940697
0.939525
0.938461
0.937436
0.936398
0.93531
0.93415
0.932912
0.931602
0.930235
0.928835
0.927429
0.926048
0.924724
0.923489
0.922374
0.921408
0.920618
0.920025
0.919648
0.919495
0.91957
0.91987
0.920384
0.921092
0.921971
0.92299
0.924114
0.925303
0.926518
0.927715
0.928849
0.929877
0.930757
0.931453
0.931934
0.93218
0.970452
0.970669
0.971102
0.971752
0.972619
0.973703
0.975004
0.976519
0.978249
0.980194
0.982355
0.984737
0.987344
0.990184
0.993269
0.996613
1.00023
1.00416
1.00841
1.01301
1.01799
1.02338
1.02917
1.03537
1.04197
1.04895
1.05627
1.06388
1.07172
1.07972
1.08782
1.09593
1.10398
1.11189
1.11958
1.12698
1.13402
1.14066
1.14682
1.15247
1.15758
1.16209
1.16599
1.16925
1.17186
1.17379
1.17504
1.17559
1.17545
1.1746
1.17306
1.17082
1.16789
1.16428
1.16
1.15507
1.14951
1.14335
1.13663
1.12937
1.12162
1.11345
1.1049
1.09605
1.08697
1.07776
1.06849
1.05928
1.05021
1.04138
1.0329
1.02485
1.01731
1.01034
1.00398
0.998268
0.993206
0.988788
0.984986
0.981752
0.979024
0.97673
0.974789
0.973125
0.971661
0.97033
0.969077
0.967854
0.966629
0.965381
0.9641
0.962788
0.961453
0.960112
0.958784
0.957494
0.956265
0.955124
0.954094
0.9532
0.952462
0.951897
0.951519
0.951335
0.951346
0.951549
0.951935
0.952486
0.953184
0.954
0.954906
0.955869
0.956854
0.957825
0.958746
0.959579
0.960292
0.960855
0.961244
0.961443
1.00345
1.00366
1.00408
1.00471
1.00555
1.00661
1.00787
1.00935
1.01103
1.01293
1.01504
1.01737
1.01992
1.02271
1.02573
1.029
1.03255
1.03638
1.04051
1.04496
1.04976
1.0549
1.0604
1.06625
1.07245
1.07896
1.08575
1.09279
1.10002
1.10738
1.1148
1.12224
1.1296
1.13684
1.14387
1.15064
1.15709
1.16317
1.16882
1.174
1.17868
1.18282
1.1864
1.18939
1.19178
1.19354
1.19467
1.19515
1.19499
1.19418
1.19272
1.19061
1.18787
1.1845
1.18051
1.17593
1.17077
1.16506
1.15884
1.15213
1.14499
1.13747
1.12961
1.12149
1.11317
1.10472
1.09624
1.0878
1.07948
1.07138
1.06357
1.05613
1.04912
1.0426
1.0366
1.03114
1.02625
1.0219
1.01809
1.01477
1.01189
1.0094
1.00725
1.00535
1.00366
1.00212
1.00069
0.999311
0.997971
0.996644
0.99532
0.993996
0.992678
0.991375
0.990102
0.988877
0.987718
0.986646
0.985679
0.984836
0.984133
0.983583
0.983196
0.982978
0.98293
0.983046
0.983319
0.983735
0.984276
0.98492
0.985641
0.986413
0.987205
0.987987
0.988729
0.989401
0.989976
0.99043
0.990744
0.990904
1.03623
1.03643
1.03684
1.03746
1.03827
1.0393
1.04053
1.04196
1.0436
1.04545
1.04751
1.04978
1.05227
1.05499
1.05794
1.06113
1.06457
1.06829
1.07228
1.07657
1.08117
1.08607
1.09128
1.0968
1.10261
1.10868
1.115
1.12151
1.12818
1.13496
1.14178
1.1486
1.15536
1.16198
1.16842
1.17463
1.18053
1.1861
1.19128
1.19603
1.20032
1.20412
1.2074
1.21014
1.21232
1.21392
1.21494
1.21536
1.21519
1.21441
1.21303
1.21105
1.20848
1.20533
1.20162
1.19736
1.19257
1.18728
1.18153
1.17533
1.16875
1.16181
1.15458
1.14712
1.13948
1.13173
1.12394
1.11619
1.10855
1.10109
1.09388
1.08698
1.08045
1.07433
1.06866
1.06346
1.05874
1.05449
1.05069
1.04733
1.04437
1.04175
1.03944
1.03737
1.03551
1.03381
1.03223
1.03074
1.0293
1.0279
1.02654
1.0252
1.02389
1.02261
1.02137
1.02019
1.01909
1.01806
1.01714
1.01633
1.01565
1.01511
1.01471
1.01445
1.01435
1.01439
1.01456
1.01486
1.01527
1.01576
1.01633
1.01694
1.01757
1.01819
1.01878
1.01932
1.01978
1.02015
1.0204
1.02053
1.06881
1.069
1.0694
1.07
1.07079
1.07179
1.07298
1.07437
1.07597
1.07776
1.07976
1.08197
1.0844
1.08704
1.0899
1.093
1.09633
1.09992
1.10377
1.10788
1.11227
1.11693
1.12186
1.12705
1.13249
1.13817
1.14404
1.15008
1.15624
1.16249
1.16877
1.17504
1.18124
1.18731
1.19322
1.1989
1.20432
1.20942
1.21417
1.21852
1.22246
1.22594
1.22894
1.23145
1.23343
1.23489
1.23581
1.23617
1.23598
1.23523
1.23393
1.23207
1.22967
1.22674
1.22328
1.21932
1.21488
1.20998
1.20465
1.19893
1.19285
1.18645
1.1798
1.17293
1.1659
1.15877
1.15161
1.14447
1.13743
1.13054
1.12387
1.11746
1.11136
1.10562
1.10026
1.0953
1.09075
1.08661
1.08287
1.07951
1.07649
1.0738
1.07138
1.06919
1.06721
1.06539
1.06369
1.0621
1.06059
1.05913
1.05773
1.05637
1.05506
1.0538
1.05259
1.05144
1.05037
1.04938
1.04849
1.0477
1.04703
1.04648
1.04607
1.04578
1.04562
1.04559
1.04568
1.04587
1.04617
1.04654
1.04697
1.04744
1.04793
1.04842
1.04889
1.04932
1.04968
1.04997
1.05017
1.05028
1.10119
1.10138
1.10176
1.10234
1.10311
1.10407
1.10523
1.10658
1.10813
1.10987
1.11181
1.11395
1.1163
1.11886
1.12163
1.12462
1.12784
1.13129
1.13498
1.13892
1.14309
1.14751
1.15217
1.15706
1.16216
1.16745
1.17291
1.17852
1.18422
1.18999
1.19578
1.20154
1.20724
1.21282
1.21824
1.22345
1.22841
1.23309
1.23744
1.24144
1.24504
1.24823
1.25098
1.25327
1.25508
1.2564
1.25722
1.25753
1.25733
1.25662
1.25538
1.25364
1.2514
1.24866
1.24544
1.24176
1.23764
1.2331
1.22817
1.22288
1.21726
1.21136
1.20522
1.19889
1.19241
1.18585
1.17925
1.17267
1.16616
1.15979
1.15359
1.14762
1.14192
1.13652
1.13145
1.12673
1.12235
1.11834
1.11467
1.11133
1.10831
1.10556
1.10308
1.10081
1.09874
1.09683
1.09505
1.09338
1.09181
1.09031
1.08888
1.08751
1.08619
1.08493
1.08374
1.08261
1.08156
1.0806
1.07973
1.07895
1.07829
1.07773
1.0773
1.07697
1.07677
1.07668
1.07669
1.07679
1.07699
1.07725
1.07757
1.07792
1.0783
1.07868
1.07904
1.07937
1.07966
1.07989
1.08005
1.08013
1.13337
1.13356
1.13393
1.13449
1.13524
1.13617
1.13729
1.13859
1.14009
1.14178
1.14366
1.14573
1.148
1.15047
1.15314
1.15603
1.15912
1.16243
1.16596
1.16971
1.17367
1.17786
1.18225
1.18685
1.19162
1.19657
1.20165
1.20685
1.21213
1.21746
1.2228
1.22811
1.23335
1.23848
1.24346
1.24824
1.2528
1.25709
1.26108
1.26474
1.26804
1.27096
1.27348
1.27557
1.27722
1.27841
1.27915
1.27941
1.2792
1.27851
1.27735
1.27572
1.27362
1.27106
1.26807
1.26465
1.26082
1.25661
1.25204
1.24715
1.24196
1.23651
1.23084
1.225
1.21902
1.21296
1.20687
1.20078
1.19476
1.18885
1.18309
1.17752
1.17218
1.1671
1.1623
1.1578
1.1536
1.14972
1.14614
1.14285
1.13983
1.13708
1.13455
1.13224
1.13011
1.12814
1.1263
1.12458
1.12296
1.12142
1.11997
1.11858
1.11726
1.11601
1.11482
1.11371
1.11268
1.11173
1.11086
1.1101
1.10943
1.10887
1.10841
1.10806
1.10781
1.10766
1.1076
1.10763
1.10774
1.10791
1.10813
1.10838
1.10866
1.10895
1.10922
1.10948
1.1097
1.10988
1.11
1.11006
1.16537
1.16555
1.16591
1.16645
1.16717
1.16807
1.16916
1.17042
1.17186
1.17349
1.17531
1.17731
1.1795
1.18187
1.18445
1.18721
1.19018
1.19335
1.19671
1.20028
1.20404
1.208
1.21214
1.21645
1.22092
1.22554
1.23028
1.2351
1.24
1.24493
1.24986
1.25475
1.25958
1.2643
1.26887
1.27327
1.27745
1.28139
1.28505
1.2884
1.29143
1.2941
1.2964
1.29831
1.29981
1.30089
1.30154
1.30176
1.30154
1.30088
1.29979
1.29825
1.29629
1.29391
1.29112
1.28794
1.28439
1.28048
1.27625
1.27172
1.26691
1.26188
1.25664
1.25124
1.24571
1.24011
1.23447
1.22884
1.22325
1.21776
1.21239
1.20719
1.20218
1.1974
1.19285
1.18857
1.18454
1.18079
1.17731
1.17408
1.1711
1.16836
1.16582
1.16348
1.16132
1.15931
1.15743
1.15567
1.15402
1.15246
1.15098
1.14959
1.14826
1.14701
1.14583
1.14473
1.14371
1.14276
1.14191
1.14114
1.14047
1.1399
1.13942
1.13903
1.13874
1.13854
1.13843
1.13839
1.13842
1.13851
1.13865
1.13882
1.13902
1.13922
1.13943
1.13962
1.13978
1.13991
1.14001
1.14005
1.19719
1.19737
1.19771
1.19824
1.19893
1.1998
1.20084
1.20206
1.20345
1.20502
1.20677
1.2087
1.2108
1.21309
1.21555
1.21821
1.22104
1.22406
1.22726
1.23065
1.23421
1.23795
1.24185
1.2459
1.25009
1.25439
1.2588
1.26329
1.26783
1.27239
1.27695
1.28146
1.28591
1.29026
1.29446
1.2985
1.30235
1.30596
1.30932
1.3124
1.31517
1.31761
1.31971
1.32145
1.32282
1.32379
1.32437
1.32455
1.32433
1.3237
1.32266
1.32122
1.31938
1.31716
1.31456
1.3116
1.3083
1.30468
1.30075
1.29656
1.29211
1.28744
1.28259
1.2776
1.27248
1.2673
1.26207
1.25684
1.25166
1.24654
1.24153
1.23667
1.23196
1.22745
1.22315
1.21907
1.21522
1.2116
1.20822
1.20507
1.20214
1.19942
1.1969
1.19456
1.19238
1.19034
1.18844
1.18666
1.18499
1.18341
1.18192
1.18052
1.17919
1.17794
1.17677
1.17567
1.17465
1.17372
1.17286
1.1721
1.17142
1.17083
1.17033
1.16991
1.16959
1.16934
1.16918
1.16908
1.16905
1.16907
1.16914
1.16924
1.16937
1.1695
1.16964
1.16978
1.1699
1.16999
1.17006
1.1701
1.22884
1.22901
1.22934
1.22984
1.23051
1.23135
1.23235
1.23353
1.23487
1.23638
1.23806
1.23991
1.24193
1.24412
1.24648
1.24901
1.25172
1.25459
1.25764
1.26085
1.26421
1.26774
1.2714
1.2752
1.27912
1.28315
1.28726
1.29143
1.29564
1.29986
1.30408
1.30825
1.31235
1.31635
1.32022
1.32394
1.32747
1.33079
1.33387
1.33669
1.33923
1.34147
1.34339
1.34497
1.34621
1.34709
1.34761
1.34775
1.34752
1.34691
1.34593
1.34458
1.34286
1.34078
1.33836
1.33561
1.33254
1.32918
1.32554
1.32164
1.31752
1.31319
1.3087
1.30407
1.29933
1.29452
1.28967
1.28481
1.27998
1.27522
1.27054
1.26598
1.26156
1.2573
1.25322
1.24933
1.24565
1.24217
1.2389
1.23584
1.23297
1.23029
1.22779
1.22546
1.22328
1.22125
1.21934
1.21755
1.21586
1.21428
1.21278
1.21137
1.21004
1.20879
1.20762
1.20653
1.20552
1.20458
1.20373
1.20296
1.20227
1.20167
1.20115
1.20071
1.20035
1.20007
1.19986
1.19971
1.19962
1.19959
1.19959
1.19963
1.1997
1.19978
1.19987
1.19996
1.20004
1.2001
1.20015
1.20017
1.26032
1.26048
1.2608
1.26128
1.26193
1.26273
1.2637
1.26483
1.26611
1.26756
1.26917
1.27094
1.27288
1.27497
1.27723
1.27965
1.28222
1.28496
1.28784
1.29088
1.29406
1.29738
1.30083
1.30439
1.30806
1.31182
1.31564
1.31952
1.32343
1.32735
1.33124
1.3351
1.33888
1.34257
1.34614
1.34956
1.35281
1.35585
1.35868
1.36127
1.3636
1.36565
1.3674
1.36884
1.36996
1.37076
1.37121
1.37132
1.37109
1.3705
1.36957
1.3683
1.36669
1.36475
1.3625
1.35993
1.35708
1.35395
1.35057
1.34695
1.34313
1.33912
1.33495
1.33065
1.32625
1.32178
1.31727
1.31275
1.30825
1.3038
1.29942
1.29514
1.29098
1.28696
1.2831
1.2794
1.27588
1.27254
1.26938
1.26641
1.26361
1.26099
1.25852
1.25621
1.25405
1.25202
1.25011
1.24832
1.24664
1.24505
1.24355
1.24214
1.24082
1.23957
1.2384
1.23731
1.2363
1.23537
1.23452
1.23374
1.23304
1.23243
1.23189
1.23143
1.23104
1.23072
1.23047
1.23028
1.23014
1.23006
1.23001
1.23
1.23002
1.23005
1.23009
1.23014
1.23019
1.23023
1.23026
1.23027
1.29164
1.29179
1.2921
1.29257
1.29318
1.29396
1.29488
1.29596
1.2972
1.29858
1.30013
1.30182
1.30367
1.30567
1.30782
1.31012
1.31257
1.31517
1.3179
1.32077
1.32377
1.3269
1.33014
1.33348
1.33691
1.34042
1.34398
1.34759
1.35122
1.35485
1.35846
1.36202
1.36551
1.36892
1.3722
1.37535
1.37834
1.38114
1.38374
1.38611
1.38824
1.39012
1.39172
1.39303
1.39405
1.39476
1.39516
1.39524
1.395
1.39444
1.39356
1.39236
1.39085
1.38904
1.38694
1.38455
1.38189
1.37898
1.37584
1.37248
1.36892
1.3652
1.36132
1.35733
1.35324
1.34908
1.34489
1.34067
1.33647
1.33231
1.32821
1.32419
1.32027
1.31647
1.31281
1.30929
1.30593
1.30272
1.29968
1.2968
1.29408
1.29151
1.2891
1.28682
1.28468
1.28267
1.28078
1.27899
1.27731
1.27573
1.27424
1.27283
1.27151
1.27027
1.2691
1.26802
1.26701
1.26608
1.26522
1.26444
1.26374
1.26311
1.26255
1.26207
1.26166
1.26131
1.26102
1.26079
1.26062
1.26049
1.2604
1.26034
1.26031
1.26031
1.26031
1.26033
1.26035
1.26037
1.26038
1.26039
1.3228
1.32295
1.32325
1.32369
1.32428
1.32502
1.32591
1.32694
1.32813
1.32945
1.33093
1.33255
1.33431
1.33622
1.33826
1.34045
1.34278
1.34523
1.34782
1.35053
1.35336
1.3563
1.35934
1.36247
1.36568
1.36895
1.37228
1.37563
1.379
1.38237
1.38571
1.38901
1.39224
1.39538
1.39841
1.40131
1.40405
1.40663
1.40902
1.41119
1.41315
1.41486
1.41632
1.41751
1.41844
1.41907
1.41942
1.41948
1.41924
1.4187
1.41786
1.41674
1.41532
1.41362
1.41166
1.40943
1.40695
1.40424
1.40132
1.39819
1.39489
1.39142
1.38782
1.3841
1.3803
1.37643
1.37251
1.36858
1.36466
1.36076
1.35691
1.35313
1.34944
1.34585
1.34238
1.33903
1.33582
1.33274
1.32982
1.32703
1.32439
1.32189
1.31953
1.3173
1.31519
1.3132
1.31133
1.30956
1.30789
1.30632
1.30483
1.30343
1.30212
1.30088
1.29973
1.29864
1.29764
1.29671
1.29585
1.29507
1.29436
1.29372
1.29315
1.29264
1.29221
1.29183
1.29152
1.29126
1.29104
1.29088
1.29075
1.29066
1.29059
1.29055
1.29053
1.29051
1.29051
1.29051
1.29051
1.29051
1.35382
1.35396
1.35424
1.35467
1.35524
1.35594
1.35679
1.35778
1.35891
1.36018
1.36158
1.36313
1.36481
1.36662
1.36857
1.37064
1.37285
1.37517
1.37762
1.38017
1.38284
1.3856
1.38845
1.39139
1.39439
1.39744
1.40054
1.40366
1.40679
1.40992
1.41301
1.41606
1.41905
1.42195
1.42474
1.42741
1.42994
1.43231
1.4345
1.4365
1.43829
1.43986
1.44119
1.44227
1.44311
1.44368
1.44398
1.44401
1.44377
1.44325
1.44246
1.4414
1.44007
1.43848
1.43664
1.43456
1.43225
1.42973
1.427
1.42409
1.42101
1.41778
1.41443
1.41097
1.40742
1.40381
1.40016
1.39648
1.39281
1.38916
1.38554
1.38199
1.37851
1.37511
1.37182
1.36863
1.36557
1.36262
1.35981
1.35712
1.35456
1.35213
1.34983
1.34764
1.34558
1.34362
1.34177
1.34003
1.33837
1.33682
1.33534
1.33396
1.33265
1.33142
1.33027
1.3292
1.32819
1.32726
1.32641
1.32562
1.3249
1.32425
1.32367
1.32315
1.32269
1.3223
1.32196
1.32167
1.32143
1.32123