/*--------------------------------*- C++ -*----------------------------------*\
| =========                 |                                                 |
| \\      /  F ield         | OpenFOAM: The Open Source CFD Toolbox           |
|  \\    /   O peration     | Version:  2406                                  |
|   \\  /    A nd           | Website:  www.openfoam.com                      |
|    \\/     M anipulation  |                                                 |
\*---------------------------------------------------------------------------*/
FoamFile
{
    version     2.0;
    format      ascii;
    arch        "LSB;label=32;scalar=64";
    class       volScalarField;
    location    "7.9";
    object      C_0;
}
// * * * * * * * * * * * * * * * * * * * * * * * * * * * * * * * * * * * * * //

dimensions      [1 -3 0 0 0 0 0];

internalField   nonuniform List<scalar> 
14400
(
0.226353
0.225371
0.22365
0.221558
0.219473
0.217722
0.216547
0.216102
0.216447
0.217546
0.219266
0.22137
0.223511
0.225239
0.226045
0.225475
0.223346
0.219964
0.215877
0.21167
0.207868
0.204911
0.203165
0.202945
0.204532
0.208194
0.214194
0.222802
0.234299
0.248982
0.267164
0.289183
0.315386
0.346115
0.381648
0.42203
0.466441
0.509878
0.541004
0.562274
0.580585
0.596251
0.609491
0.620471
0.629319
0.636136
0.640992
0.643941
0.645017
0.644235
0.641596
0.637085
0.630668
0.622296
0.611898
0.599381
0.584621
0.567463
0.547706
0.524715
0.490247
0.443793
0.39945
0.35959
0.324607
0.29437
0.26858
0.246889
0.228943
0.214403
0.20295
0.194287
0.188134
0.184247
0.182415
0.182479
0.184329
0.187902
0.19317
0.200131
0.208787
0.219121
0.231064
0.244439
0.258868
0.273512
0.286012
0.292491
0.291482
0.284416
0.274611
0.264433
0.254746
0.245981
0.238367
0.232009
0.22692
0.223042
0.220256
0.218402
0.217288
0.216719
0.21652
0.216575
0.216858
0.217439
0.218477
0.220189
0.222812
0.226583
0.231714
0.238379
0.246705
0.256758
0.26852
0.281854
0.296428
0.311503
0.325246
0.333165
0.232928
0.231693
0.229582
0.227076
0.224628
0.2226
0.22125
0.220737
0.221123
0.222375
0.224361
0.226842
0.229455
0.231702
0.232956
0.232552
0.230103
0.226152
0.221452
0.216695
0.212442
0.209141
0.207153
0.206781
0.208297
0.211959
0.218026
0.22676
0.238439
0.253358
0.27183
0.29419
0.320787
0.351965
0.388006
0.428982
0.474008
0.515517
0.544344
0.565204
0.583229
0.598678
0.61175
0.622602
0.631352
0.638095
0.642899
0.645815
0.646874
0.646092
0.643469
0.63899
0.632624
0.624322
0.614018
0.601622
0.58702
0.570063
0.550563
0.528206
0.495784
0.450659
0.405813
0.36534
0.329809
0.299093
0.272881
0.250816
0.232542
0.217715
0.206016
0.197146
0.190834
0.186834
0.184945
0.185008
0.186915
0.190605
0.196054
0.20326
0.212231
0.222952
0.235361
0.249291
0.264385
0.279804
0.292663
0.298764
0.298492
0.291534
0.281282
0.270622
0.260505
0.251382
0.243491
0.236939
0.231736
0.227822
0.225071
0.223308
0.22232
0.22188
0.22178
0.221872
0.222119
0.222605
0.223522
0.225119
0.227663
0.231412
0.23659
0.243379
0.251909
0.26225
0.274389
0.288198
0.303358
0.319109
0.332858
0.339522
0.246588
0.244741
0.241752
0.238361
0.235157
0.232562
0.230856
0.230203
0.230669
0.232224
0.234741
0.237982
0.241573
0.244944
0.24726
0.247351
0.244061
0.238803
0.232794
0.226901
0.221737
0.217747
0.21527
0.21459
0.215958
0.219616
0.225809
0.23479
0.24683
0.262216
0.281263
0.304303
0.331679
0.363723
0.400684
0.442529
0.487962
0.525549
0.550818
0.570965
0.588449
0.603481
0.616231
0.626833
0.635393
0.641993
0.646695
0.649546
0.650572
0.649789
0.647197
0.642782
0.636514
0.62835
0.618229
0.606071
0.591773
0.575206
0.556213
0.534601
0.505925
0.464232
0.418414
0.376821
0.340261
0.308615
0.281572
0.258771
0.239847
0.224454
0.212271
0.203
0.196375
0.192161
0.190161
0.190225
0.192249
0.196175
0.201983
0.209677
0.219268
0.230751
0.244069
0.259063
0.27536
0.292002
0.305019
0.310522
0.311121
0.305506
0.29465
0.283098
0.27215
0.262332
0.253902
0.246971
0.241554
0.237585
0.234925
0.233372
0.23267
0.232525
0.23265
0.232828
0.232987
0.233251
0.233886
0.235218
0.237576
0.241257
0.24651
0.25353
0.262453
0.273351
0.286214
0.300907
0.317064
0.3337
0.346527
0.351351
0.268326
0.265233
0.260669
0.255813
0.251416
0.247947
0.245698
0.244831
0.245411
0.247411
0.250713
0.255097
0.2602
0.265428
0.269747
0.271137
0.265916
0.258309
0.250177
0.242537
0.236001
0.230979
0.22777
0.226622
0.227759
0.2314
0.237771
0.247112
0.259682
0.275766
0.29567
0.319719
0.348248
0.381555
0.419797
0.46254
0.506696
0.538225
0.560227
0.579391
0.59612
0.610567
0.62286
0.633107
0.641393
0.647788
0.652344
0.6551
0.65608
0.655296
0.652749
0.648426
0.642301
0.634336
0.624478
0.612659
0.598793
0.582776
0.56448
0.543748
0.519026
0.482717
0.436813
0.394022
0.356076
0.323097
0.294837
0.270947
0.251065
0.234841
0.22195
0.212099
0.205026
0.200507
0.198355
0.198428
0.200632
0.204914
0.211257
0.219672
0.230177
0.242773
0.257412
0.273923
0.291843
0.309745
0.321738
0.326711
0.327993
0.325082
0.314671
0.302003
0.2899
0.279092
0.269883
0.262411
0.2567
0.252684
0.250211
0.249041
0.248852
0.249245
0.249793
0.250132
0.250113
0.249953
0.250064
0.25091
0.252919
0.256446
0.261773
0.269107
0.278586
0.29028
0.304169
0.320084
0.337478
0.354517
0.364165
0.36757
0.299422
0.293908
0.286813
0.279826
0.27378
0.269134
0.266158
0.265003
0.265726
0.2683
0.272615
0.278477
0.285569
0.293344
0.300663
0.303285
0.295773
0.284805
0.273788
0.263842
0.255516
0.249146
0.244974
0.243203
0.244023
0.247628
0.254223
0.264033
0.277303
0.294308
0.315345
0.340728
0.370763
0.405702
0.445594
0.489477
0.527124
0.552025
0.57226
0.590253
0.606072
0.619805
0.631536
0.641341
0.649285
0.655422
0.659793
0.662429
0.66335
0.662567
0.660078
0.655872
0.649928
0.642214
0.632688
0.621294
0.607966
0.592625
0.575184
0.555548
0.533623
0.504097
0.461187
0.417173
0.377491
0.342792
0.312944
0.287631
0.266495
0.249185
0.235378
0.224782
0.217142
0.212244
0.209912
0.210015
0.212467
0.217222
0.224271
0.233629
0.24532
0.259353
0.275678
0.294105
0.313989
0.332182
0.341729
0.346456
0.348316
0.347436
0.340608
0.327357
0.313992
0.301974
0.291786
0.283632
0.277571
0.273549
0.271406
0.270868
0.271526
0.272835
0.274131
0.274774
0.274408
0.273479
0.27269
0.272724
0.274147
0.277387
0.282752
0.290455
0.300627
0.313309
0.328458
0.345828
0.364437
0.37865
0.384505
0.387157
0.338696
0.330602
0.32024
0.310598
0.302544
0.296464
0.292603
0.291095
0.291989
0.295247
0.300754
0.308315
0.317608
0.327873
0.336244
0.336774
0.331343
0.31775
0.303589
0.290993
0.280563
0.272587
0.267249
0.264711
0.265133
0.268685
0.275551
0.285938
0.300075
0.318224
0.340667
0.367692
0.399538
0.436283
0.477383
0.518794
0.547177
0.567837
0.586536
0.603288
0.618112
0.631045
0.642138
0.651436
0.658985
0.664821
0.668977
0.671473
0.672326
0.671543
0.669122
0.665055
0.659325
0.651906
0.642765
0.631863
0.61915
0.604575
0.588083
0.569622
0.549156
0.525598
0.491003
0.446358
0.40475
0.368011
0.336241
0.309187
0.286511
0.267872
0.252948
0.241453
0.233139
0.227799
0.22527
0.225431
0.228205
0.233553
0.241471
0.251981
0.265109
0.280861
0.299157
0.319676
0.341194
0.357014
0.364435
0.369068
0.371361
0.371445
0.368848
0.358876
0.344591
0.331283
0.319968
0.311015
0.304567
0.30061
0.298989
0.299411
0.301387
0.30419
0.306786
0.308038
0.306971
0.30469
0.302433
0.3012
0.301727
0.304502
0.309842
0.317951
0.328923
0.342714
0.359176
0.377691
0.394931
0.403383
0.407346
0.409397
0.376019
0.371802
0.360086
0.348003
0.337872
0.330215
0.325353
0.323441
0.32454
0.328578
0.335391
0.344712
0.356043
0.367383
0.370827
0.369343
0.366599
0.355979
0.339379
0.32412
0.31143
0.301666
0.295
0.291571
0.291523
0.29501
0.3022
0.313278
0.328452
0.347964
0.372076
0.401032
0.434948
0.473561
0.514914
0.545723
0.566749
0.585574
0.602758
0.618252
0.63204
0.644127
0.654533
0.663281
0.670396
0.675902
0.679819
0.682161
0.682939
0.682157
0.679814
0.675902
0.67041
0.663319
0.654605
0.644241
0.632197
0.618442
0.602949
0.585701
0.566698
0.545971
0.520038
0.481071
0.438007
0.399094
0.365138
0.336052
0.311564
0.291357
0.275119
0.262572
0.253476
0.247635
0.244896
0.245148
0.248321
0.254381
0.26333
0.275189
0.289987
0.307706
0.328183
0.350738
0.37189
0.383116
0.389531
0.394018
0.396616
0.397449
0.396729
0.392553
0.381116
0.367134
0.354712
0.344887
0.338037
0.334229
0.333345
0.335114
0.338989
0.344086
0.348814
0.35127
0.348846
0.344309
0.339834
0.336768
0.33605
0.338168
0.343409
0.351943
0.363806
0.378706
0.396236
0.414525
0.424627
0.429026
0.432099
0.433687
0.409648
0.409305
0.404001
0.391467
0.379773
0.370557
0.364646
0.362288
0.363644
0.368541
0.376673
0.387524
0.399874
0.405081
0.404439
0.402976
0.400746
0.395563
0.380624
0.363319
0.348421
0.336789
0.328677
0.32425
0.323667
0.327088
0.334665
0.346559
0.36294
0.384017
0.410021
0.441117
0.4771
0.516451
0.547989
0.569414
0.587834
0.604952
0.62067
0.634922
0.647668
0.658891
0.668586
0.676758
0.683417
0.688573
0.692235
0.694412
0.695111
0.694331
0.692073
0.68833
0.683095
0.676354
0.668094
0.6583
0.646955
0.634047
0.619572
0.603536
0.585964
0.566914
0.546442
0.518282
0.476997
0.436356
0.400094
0.368727
0.342168
0.320158
0.302406
0.288649
0.27866
0.272254
0.269291
0.269667
0.273318
0.280211
0.290345
0.303738
0.320404
0.340279
0.362998
0.386924
0.402875
0.410657
0.41655
0.420858
0.423637
0.425005
0.425148
0.424315
0.419658
0.408927
0.396036
0.385383
0.378172
0.374613
0.374632
0.378072
0.384319
0.392267
0.399499
0.401753
0.399435
0.392071
0.384946
0.379532
0.377312
0.378632
0.383698
0.392628
0.405448
0.421015
0.438105
0.448227
0.452584
0.455959
0.458336
0.459564
0.443537
0.443423
0.443123
0.438084
0.427599
0.417333
0.410486
0.407625
0.40933
0.415096
0.424119
0.434891
0.439936
0.439706
0.438736
0.437377
0.435539
0.433193
0.425723
0.40853
0.391825
0.378386
0.368766
0.363247
0.362071
0.365432
0.373476
0.386323
0.40407
0.426859
0.454844
0.487996
0.524709
0.555088
0.576126
0.593638
0.610223
0.62573
0.640048
0.653097
0.66482
0.675182
0.684162
0.69175
0.697941
0.702736
0.706136
0.708144
0.70876
0.707985
0.705816
0.702251
0.697284
0.690909
0.683119
0.673908
0.663275
0.65122
0.637756
0.622905
0.606709
0.589233
0.57057
0.550424
0.521083
0.480097
0.441586
0.407742
0.378883
0.354847
0.33538
0.320248
0.309245
0.302201
0.298993
0.299526
0.303736
0.311582
0.32305
0.338129
0.356792
0.378851
0.403293
0.423367
0.433163
0.439808
0.445157
0.449225
0.452068
0.453787
0.454541
0.454542
0.454052
0.450405
0.442682
0.431949
0.424759
0.421595
0.422469
0.427404
0.435349
0.440872
0.443789
0.444477
0.444207
0.441598
0.436166
0.42871
0.425265
0.425808
0.430614
0.439628
0.453079
0.465954
0.474394
0.478134
0.481301
0.483891
0.485722
0.48667
0.477539
0.477557
0.477655
0.477887
0.47468
0.468772
0.461902
0.458501
0.460656
0.46682
0.472697
0.475949
0.475311
0.474395
0.473421
0.472257
0.470833
0.469134
0.467084
0.458713
0.441641
0.426808
0.415728
0.409038
0.407216
0.41054
0.41914
0.433096
0.452325
0.476804
0.506444
0.540283
0.567545
0.586966
0.603152
0.618789
0.633688
0.647696
0.660697
0.672598
0.683333
0.692855
0.70113
0.708137
0.713861
0.718294
0.72143
0.723266
0.723801
0.723032
0.720957
0.717574
0.712882
0.706878
0.699563
0.69094
0.681016
0.669803
0.657326
0.643619
0.628733
0.612739
0.595729
0.57781
0.558054
0.529029
0.489743
0.453515
0.422256
0.396031
0.374657
0.357983
0.345831
0.338064
0.334582
0.335306
0.340158
0.349075
0.362008
0.378859
0.399463
0.423141
0.445832
0.457698
0.464457
0.470255
0.475044
0.478819
0.481621
0.483535
0.484687
0.485253
0.485455
0.485575
0.48414
0.480323
0.47597
0.473578
0.474647
0.477315
0.479676
0.480299
0.479724
0.479801
0.480607
0.482047
0.481861
0.480119
0.478122
0.478236
0.482647
0.490155
0.497514
0.502909
0.50555
0.508182
0.510594
0.512582
0.513992
0.514723
0.511522
0.511612
0.51184
0.512307
0.513176
0.512704
0.510887
0.509725
0.510332
0.511872
0.512428
0.511062
0.51002
0.509143
0.508297
0.507397
0.506403
0.505322
0.504209
0.502815
0.495618
0.481685
0.469766
0.461906
0.459429
0.462776
0.472006
0.487226
0.50788
0.533355
0.562557
0.58525
0.601825
0.61637
0.630727
0.644679
0.658043
0.670671
0.682443
0.693264
0.70306
0.711775
0.719367
0.725807
0.731072
0.735148
0.738023
0.739691
0.740145
0.739384
0.737405
0.734206
0.72979
0.724158
0.717316
0.709274
0.700045
0.689652
0.678126
0.665511
0.651865
0.637262
0.621797
0.605582
0.588751
0.570046
0.542874
0.505954
0.472672
0.444289
0.420854
0.40249
0.389051
0.380453
0.37666
0.377607
0.383192
0.393286
0.407787
0.426349
0.448436
0.471644
0.484561
0.490976
0.496707
0.501713
0.505943
0.509385
0.512064
0.514043
0.515419
0.516328
0.516936
0.517437
0.518038
0.518764
0.518116
0.517315
0.517148
0.516733
0.515351
0.514481
0.514147
0.514363
0.51516
0.516544
0.518578
0.521068
0.5224
0.524068
0.527026
0.530462
0.532627
0.534402
0.536417
0.53845
0.540312
0.541849
0.542941
0.543508
0.545415
0.54553
0.545788
0.54624
0.546945
0.547917
0.549057
0.549529
0.549026
0.547738
0.546461
0.54541
0.544565
0.543858
0.543228
0.542631
0.542059
0.541541
0.541151
0.541017
0.54107
0.536912
0.52958
0.521227
0.518493
0.522068
0.53178
0.54808
0.569167
0.589907
0.607313
0.620423
0.63312
0.645961
0.658707
0.671155
0.683135
0.694503
0.705142
0.714955
0.723867
0.731817
0.738757
0.744651
0.749474
0.753203
0.755825
0.757328
0.757706
0.756955
0.755071
0.752057
0.747914
0.742648
0.73627
0.728793
0.720238
0.710633
0.700015
0.688434
0.675952
0.662648
0.648615
0.63397
0.618848
0.603411
0.586683
0.562682
0.529761
0.499986
0.474443
0.454364
0.439509
0.429948
0.425789
0.426999
0.433412
0.444708
0.460785
0.480404
0.501604
0.513939
0.519662
0.524892
0.529682
0.533947
0.537631
0.540715
0.543208
0.545153
0.54662
0.547705
0.548523
0.549196
0.549826
0.550439
0.550941
0.550997
0.550318
0.549406
0.548611
0.548123
0.54802
0.548345
0.549126
0.550374
0.552092
0.554238
0.556736
0.559177
0.561035
0.562499
0.564016
0.565609
0.567267
0.568888
0.570356
0.571561
0.572416
0.572859
0.579192
0.579305
0.579542
0.57992
0.580443
0.581072
0.581671
0.581932
0.581666
0.581007
0.580248
0.579553
0.57897
0.578498
0.578124
0.57784
0.577661
0.577633
0.577837
0.578402
0.579521
0.581461
0.581679
0.581049
0.581956
0.586414
0.59543
0.607524
0.620387
0.632115
0.64226
0.653063
0.664271
0.675648
0.686985
0.6981
0.708838
0.719064
0.728665
0.737548
0.745637
0.752868
0.759192
0.764568
0.768967
0.772365
0.774744
0.77609
0.776397
0.775657
0.77387
0.771036
0.76716
0.762251
0.756322
0.749391
0.741481
0.732627
0.722868
0.712258
0.700863
0.68876
0.676047
0.662835
0.64926
0.635478
0.621674
0.607552
0.587777
0.562169
0.53521
0.513943
0.497616
0.486928
0.482338
0.483835
0.491167
0.503296
0.520276
0.536251
0.546227
0.550715
0.555052
0.55925
0.563183
0.56676
0.569921
0.572635
0.5749
0.57674
0.578201
0.579349
0.580257
0.580999
0.58163
0.582157
0.582521
0.582603
0.582347
0.581934
0.581564
0.58138
0.581465
0.581871
0.582625
0.583733
0.58518
0.586915
0.588835
0.590733
0.592411
0.593897
0.59533
0.596751
0.598153
0.599481
0.600662
0.601624
0.602302
0.602653
0.612856
0.612955
0.613155
0.613454
0.613837
0.614257
0.614619
0.614789
0.614691
0.614376
0.613972
0.613582
0.613264
0.613041
0.612929
0.612943
0.613114
0.613493
0.614161
0.615234
0.616867
0.619263
0.622661
0.627112
0.63145
0.636811
0.643674
0.651
0.658368
0.666654
0.675696
0.685297
0.695253
0.705375
0.715484
0.725424
0.735052
0.744248
0.752906
0.760937
0.768264
0.774827
0.780573
0.785463
0.789462
0.792546
0.794695
0.795893
0.796133
0.795407
0.793714
0.791056
0.78744
0.782875
0.777377
0.770966
0.76367
0.755524
0.746572
0.736869
0.72648
0.715484
0.703975
0.692064
0.679878
0.667567
0.655304
0.643285
0.631712
0.617269
0.599704
0.580166
0.562766
0.551041
0.54602
0.547573
0.555635
0.566468
0.575461
0.581465
0.584191
0.587295
0.59058
0.593872
0.59704
0.59999
0.602657
0.605004
0.607017
0.608706
0.610097
0.611231
0.612155
0.612914
0.613539
0.614037
0.614385
0.614548
0.61453
0.61442
0.614333
0.614366
0.61459
0.61505
0.61577
0.616753
0.617981
0.619407
0.620954
0.62251
0.623979
0.625349
0.626655
0.627912
0.629112
0.63022
0.631189
0.631969
0.632516
0.632797
0.646421
0.646505
0.646669
0.646905
0.647194
0.647498
0.64776
0.647915
0.647931
0.647832
0.647681
0.647541
0.647461
0.647475
0.647608
0.647889
0.648357
0.649064
0.650081
0.651505
0.653451
0.656047
0.659413
0.663583
0.668472
0.673867
0.679609
0.685918
0.692841
0.700419
0.708573
0.717174
0.726071
0.735114
0.744154
0.753057
0.7617
0.769971
0.777775
0.785027
0.791656
0.797601
0.802812
0.807248
0.810873
0.813663
0.815595
0.816656
0.816834
0.816124
0.814523
0.812036
0.808668
0.804432
0.799343
0.793426
0.786708
0.779227
0.771028
0.762165
0.752704
0.742721
0.732307
0.721568
0.710622
0.69961
0.688687
0.678032
0.667849
0.658374
0.649103
0.63818
0.627474
0.618886
0.613969
0.613058
0.614927
0.617698
0.618991
0.619896
0.621555
0.623694
0.626103
0.628618
0.631115
0.633502
0.635713
0.637706
0.639459
0.64097
0.64225
0.643324
0.644219
0.644962
0.645576
0.646067
0.646433
0.646673
0.646805
0.646885
0.646981
0.647161
0.647478
0.647968
0.648651
0.649528
0.650582
0.65178
0.653065
0.654372
0.655647
0.656866
0.658028
0.659132
0.660164
0.661099
0.661905
0.662547
0.662994
0.663224
0.679904
0.679974
0.68011
0.680303
0.680536
0.680782
0.681007
0.681181
0.681287
0.681341
0.681379
0.68144
0.681566
0.681788
0.682139
0.68265
0.683361
0.684322
0.685596
0.687255
0.689383
0.692063
0.695359
0.699288
0.703803
0.708818
0.714272
0.720212
0.726659
0.733608
0.741005
0.748755
0.756744
0.764854
0.772961
0.780952
0.788718
0.796162
0.803195
0.809741
0.815732
0.82111
0.825827
0.829842
0.83312
0.835636
0.837368
0.838301
0.838423
0.83773
0.83622
0.833896
0.830765
0.82684
0.822139
0.816686
0.81051
0.803649
0.796148
0.788059
0.779448
0.770388
0.760965
0.751276
0.741434
0.731562
0.721802
0.712308
0.703251
0.694811
0.687166
0.680605
0.674954
0.669764
0.665504
0.662442
0.659836
0.65797
0.657312
0.657538
0.658441
0.659825
0.661518
0.663381
0.665301
0.667191
0.668988
0.670647
0.672143
0.673463
0.67461
0.675595
0.676433
0.677141
0.677734
0.678221
0.678608
0.678905
0.679134
0.679332
0.679545
0.679819
0.680193
0.680695
0.681338
0.682125
0.683042
0.684064
0.685153
0.686268
0.687371
0.688439
0.68946
0.690422
0.691311
0.692107
0.692785
0.69332
0.69369
0.69388
0.713316
0.713376
0.713494
0.713661
0.713864
0.714086
0.714307
0.714512
0.714696
0.714868
0.715051
0.715276
0.715573
0.715974
0.716508
0.717209
0.718115
0.719269
0.720724
0.722535
0.724763
0.727463
0.730674
0.734405
0.738637
0.743328
0.748449
0.753999
0.759974
0.766351
0.773083
0.780095
0.787298
0.794595
0.801885
0.809071
0.816059
0.822762
0.829103
0.83501
0.84042
0.845281
0.849544
0.853171
0.85613
0.858393
0.85994
0.860755
0.860829
0.860154
0.858731
0.856562
0.853655
0.850025
0.845688
0.840669
0.834998
0.828711
0.821854
0.814477
0.806642
0.798419
0.789888
0.781139
0.772273
0.763403
0.75465
0.746148
0.738034
0.730452
0.723536
0.717409
0.712062
0.707456
0.703518
0.700177
0.697567
0.695735
0.694751
0.694501
0.694847
0.695646
0.696764
0.698086
0.699516
0.700974
0.702401
0.703753
0.705001
0.70613
0.707133
0.708013
0.708778
0.709436
0.709999
0.710475
0.710873
0.711206
0.711494
0.711763
0.712047
0.712377
0.712781
0.713279
0.713882
0.714591
0.715397
0.71628
0.717216
0.718174
0.71913
0.72006
0.720951
0.721786
0.722553
0.723232
0.723807
0.724257
0.724567
0.724726
0.746667
0.746722
0.746829
0.746983
0.747173
0.747391
0.747624
0.747866
0.748116
0.748382
0.748682
0.749039
0.749478
0.750026
0.750711
0.751565
0.75262
0.753916
0.755494
0.757399
0.759672
0.762354
0.765468
0.769023
0.77301
0.777408
0.782196
0.787362
0.792886
0.79874
0.80488
0.811244
0.817758
0.824343
0.830914
0.837388
0.843684
0.849726
0.855444
0.860774
0.865659
0.870048
0.873897
0.87717
0.879835
0.881866
0.883243
0.883952
0.883982
0.883327
0.881987
0.879966
0.87727
0.873915
0.869918
0.865303
0.8601
0.854344
0.848079
0.841353
0.834224
0.826758
0.819029
0.811119
0.803118
0.795126
0.787249
0.779598
0.772287
0.765427
0.759117
0.753434
0.748399
0.744005
0.740228
0.737053
0.73452
0.732652
0.731456
0.730869
0.7308
0.731147
0.731806
0.732685
0.733701
0.734787
0.735888
0.736962
0.737979
0.738922
0.739779
0.740547
0.741228
0.741827
0.74235
0.742806
0.743203
0.743553
0.743872
0.744181
0.744503
0.744861
0.745275
0.745759
0.746321
0.746961
0.747674
0.748444
0.749255
0.750085
0.750913
0.751722
0.752495
0.75322
0.753881
0.754464
0.754953
0.755335
0.755597
0.75573
0.779963
0.780016
0.780118
0.780267
0.780456
0.78068
0.780932
0.781211
0.781519
0.781863
0.782257
0.78272
0.783273
0.78394
0.784746
0.785718
0.786885
0.788281
0.789939
0.791892
0.794174
0.796811
0.79982
0.803209
0.806972
0.811097
0.815568
0.820365
0.825468
0.830845
0.836453
0.842242
0.848148
0.854104
0.86004
0.865883
0.871563
0.877014
0.882174
0.886984
0.891393
0.895354
0.898827
0.901776
0.904173
0.905992
0.907215
0.907828
0.907819
0.907185
0.905925
0.904042
0.901546
0.898448
0.894767
0.890527
0.885755
0.880487
0.874764
0.868631
0.862143
0.855361
0.848351
0.841189
0.833954
0.826735
0.819621
0.812708
0.806088
0.79985
0.794072
0.78881
0.784095
0.779938
0.776335
0.773287
0.770807
0.768899
0.76755
0.766718
0.766339
0.766335
0.766629
0.767146
0.767818
0.768586
0.769402
0.770227
0.771033
0.771799
0.772513
0.773167
0.77376
0.774293
0.77477
0.775196
0.775579
0.775929
0.77626
0.776585
0.776923
0.777289
0.777698
0.77816
0.77868
0.77926
0.779892
0.780569
0.781275
0.781996
0.782716
0.783418
0.78409
0.784717
0.785287
0.785788
0.786206
0.786532
0.786754
0.786867
0.813208
0.813259
0.813361
0.81351
0.813704
0.81394
0.814214
0.814529
0.814885
0.815293
0.815763
0.816311
0.816955
0.817715
0.818614
0.819674
0.820922
0.822384
0.824087
0.826058
0.828321
0.830895
0.833793
0.83702
0.840573
0.844441
0.848611
0.853064
0.857776
0.862716
0.867847
0.873122
0.878487
0.883886
0.889258
0.89454
0.899671
0.904595
0.909253
0.913596
0.917575
0.921149
0.92428
0.926936
0.929088
0.930715
0.931798
0.932324
0.932283
0.93167
0.930486
0.928733
0.926422
0.923563
0.920175
0.916281
0.911907
0.907086
0.901858
0.896265
0.890357
0.88419
0.877826
0.87133
0.864776
0.858237
0.851794
0.845525
0.839508
0.833815
0.828509
0.823638
0.819235
0.815315
0.811887
0.808955
0.806522
0.804585
0.803128
0.802116
0.801501
0.801226
0.801229
0.801452
0.801838
0.802336
0.802906
0.803512
0.804126
0.804729
0.805307
0.805849
0.806353
0.806816
0.80724
0.807629
0.807988
0.808326
0.808652
0.808978
0.809315
0.809675
0.810068
0.810503
0.810981
0.811504
0.812068
0.812663
0.813281
0.81391
0.814535
0.815145
0.815728
0.816271
0.816763
0.817194
0.817553
0.817832
0.818022
0.818118
0.8464
0.846452
0.846556
0.846709
0.846911
0.84716
0.847457
0.847803
0.848201
0.848661
0.849191
0.849806
0.850521
0.851352
0.85232
0.853444
0.854745
0.856246
0.857968
0.859932
0.862156
0.864654
0.867436
0.870505
0.873857
0.877484
0.881373
0.885504
0.889855
0.894398
0.899097
0.90391
0.908794
0.913696
0.918565
0.923347
0.927989
0.932439
0.936648
0.94057
0.944162
0.947387
0.950208
0.952598
0.954529
0.955982
0.956938
0.957386
0.957317
0.956727
0.955614
0.953984
0.951844
0.949207
0.94609
0.942514
0.938505
0.934094
0.929316
0.924213
0.91883
0.913218
0.907432
0.901531
0.89558
0.889644
0.883792
0.87809
0.872603
0.867393
0.862512
0.858
0.85389
0.8502
0.846943
0.844123
0.841742
0.839793
0.83826
0.837116
0.836323
0.835837
0.835611
0.835595
0.835744
0.836016
0.836374
0.836788
0.837231
0.837685
0.838135
0.83857
0.838985
0.839377
0.839745
0.840091
0.840419
0.840735
0.841045
0.841358
0.841683
0.842027
0.842398
0.842801
0.843238
0.843709
0.84421
0.844735
0.845277
0.845825
0.84637
0.8469
0.847405
0.847876
0.848301
0.848672
0.848981
0.84922
0.849382
0.849465
0.879541
0.879594
0.879701
0.879859
0.88007
0.880334
0.880651
0.881024
0.881457
0.881958
0.882536
0.883202
0.883969
0.884853
0.88587
0.887035
0.888368
0.889886
0.891607
0.893546
0.895717
0.898131
0.900794
0.903707
0.906867
0.910266
0.913891
0.917724
0.921744
0.925923
0.930231
0.93463
0.939081
0.943539
0.947959
0.952294
0.956498
0.960524
0.96433
0.967874
0.971118
0.974026
0.976569
0.978718
0.980449
0.981744
0.982587
0.982966
0.982873
0.982305
0.98126
0.979744
0.977764
0.975332
0.972464
0.96918
0.965505
0.961467
0.9571
0.952441
0.947532
0.942419
0.937152
0.931783
0.926369
0.920969
0.915639
0.910439
0.905423
0.900643
0.896143
0.891961
0.888124
0.884654
0.881561
0.878853
0.876529
0.874584
0.873003
0.871764
0.870838
0.87019
0.869781
0.869573
0.869527
0.86961
0.869788
0.870034
0.870326
0.870645
0.870977
0.871312
0.871641
0.871962
0.872272
0.872571
0.872862
0.873149
0.873435
0.873727
0.874031
0.874352
0.874696
0.875065
0.875461
0.875883
0.876328
0.876791
0.877266
0.877745
0.878219
0.87868
0.879118
0.879525
0.879893
0.880213
0.880479
0.880684
0.880823
0.880894
0.912629
0.912683
0.912793
0.912958
0.913178
0.913454
0.913788
0.914184
0.914645
0.915178
0.915792
0.916496
0.917302
0.918222
0.91927
0.92046
0.921806
0.923324
0.925027
0.926927
0.929035
0.931358
0.9339
0.936661
0.939638
0.942822
0.9462
0.949757
0.953472
0.957321
0.961273
0.965299
0.96936
0.97342
0.977438
0.981373
0.985184
0.988831
0.992274
0.995478
0.998408
1.00103
1.00332
1.00525
1.00681
1.00796
1.0087
1.00902
1.00891
1.00836
1.00738
1.00597
1.00414
1.00189
0.999254
0.996238
0.992867
0.98917
0.985176
0.980919
0.976438
0.971774
0.966973
0.96208
0.957146
0.952221
0.947357
0.942603
0.938006
0.933611
0.929457
0.925576
0.921994
0.918729
0.915795
0.913198
0.910938
0.909011
0.907404
0.9061
0.905076
0.904303
0.903751
0.903388
0.903183
0.903107
0.903132
0.903234
0.903393
0.903592
0.903817
0.904058
0.904306
0.904558
0.904809
0.90506
0.90531
0.905562
0.905819
0.906084
0.906362
0.906656
0.906969
0.907302
0.907658
0.908034
0.908428
0.908835
0.909251
0.909669
0.910082
0.910482
0.910862
0.911214
0.911532
0.911808
0.912037
0.912213
0.912333
0.912394
0.945661
0.945717
0.94583
0.946
0.946229
0.946516
0.946865
0.947278
0.94776
0.948318
0.948958
0.949688
0.95052
0.951462
0.952528
0.953727
0.955073
0.956577
0.95825
0.960101
0.962138
0.964366
0.966787
0.969401
0.972202
0.975183
0.978332
0.981633
0.985068
0.988613
0.992244
0.99593
0.999641
1.00334
1.007
1.01058
1.01403
1.01734
1.02046
1.02336
1.026
1.02837
1.03044
1.03217
1.03356
1.03459
1.03524
1.0355
1.03537
1.03485
1.03393
1.03261
1.03092
1.02885
1.02642
1.02365
1.02056
1.01717
1.01351
1.00962
1.00553
1.00127
0.996884
0.992418
0.987913
0.983414
0.978965
0.974609
0.970388
0.96634
0.962498
0.958892
0.955545
0.952474
0.949692
0.947205
0.945015
0.943117
0.941502
0.940157
0.939062
0.938195
0.937531
0.937045
0.936711
0.936503
0.936399
0.936378
0.936421
0.936513
0.936642
0.936796
0.936968
0.937154
0.937348
0.937549
0.937757
0.937971
0.938195
0.938429
0.938677
0.93894
0.93922
0.939518
0.939834
0.940167
0.940514
0.940871
0.941235
0.941599
0.941957
0.942305
0.942634
0.942938
0.943212
0.943451
0.943648
0.9438
0.943903
0.943955
0.978637
0.978695
0.978811
0.978985
0.97922
0.979516
0.979876
0.980303
0.980801
0.981375
0.982033
0.98278
0.983627
0.98458
0.985651
0.986848
0.988182
0.989661
0.991295
0.993089
0.99505
0.997181
0.999482
1.00195
1.00459
1.00738
1.01031
1.01338
1.01655
1.01982
1.02316
1.02654
1.02993
1.03331
1.03664
1.0399
1.04304
1.04604
1.04886
1.05149
1.05388
1.05602
1.05788
1.05944
1.06068
1.06159
1.06216
1.06237
1.06223
1.06173
1.06087
1.05965
1.05808
1.05617
1.05393
1.05138
1.04854
1.04544
1.04209
1.03853
1.03478
1.03089
1.02688
1.0228
1.01868
1.01456
1.01048
1.00648
1.0026
0.998862
0.995304
0.991949
0.98882
0.985931
0.983294
0.980916
0.978798
0.976939
0.975332
0.973963
0.97282
0.971884
0.971134
0.970551
0.970111
0.969795
0.969583
0.969457
0.9694
0.969398
0.96944
0.969516
0.969618
0.96974
0.969879
0.970031
0.970196
0.970372
0.97056
0.970761
0.970976
0.971207
0.971453
0.971716
0.971994
0.972286
0.972589
0.972901
0.973217
0.973534
0.973845
0.974145
0.974429
0.974692
0.974929
0.975134
0.975304
0.975434
0.975523
0.975568
1.01156
1.01161
1.01173
1.01191
1.01215
1.01245
1.01282
1.01326
1.01376
1.01435
1.01502
1.01577
1.01663
1.01758
1.01865
1.01983
1.02115
1.02259
1.02418
1.02591
1.02779
1.02982
1.03201
1.03434
1.03682
1.03943
1.04216
1.045
1.04794
1.05096
1.05403
1.05713
1.06024
1.06333
1.06636
1.06933
1.07218
1.07491
1.07747
1.07984
1.08201
1.08394
1.08561
1.08702
1.08813
1.08894
1.08943
1.08961
1.08945
1.08897
1.08816
1.08703
1.08557
1.08381
1.08175
1.0794
1.0768
1.07395
1.07088
1.06761
1.06418
1.06062
1.05695
1.05321
1.04943
1.04566
1.04192
1.03824
1.03466
1.03121
1.02791
1.02478
1.02185
1.01913
1.01664
1.01437
1.01232
1.01051
1.00892
1.00755
1.00637
1.00539
1.00457
1.00391
1.00339
1.00298
1.00268
1.00247
1.00232
1.00224
1.0022
1.00221
1.00225
1.00231
1.0024
1.0025
1.00262
1.00276
1.00291
1.00308
1.00326
1.00346
1.00367
1.0039
1.00414
1.00439
1.00466
1.00493
1.0052
1.00547
1.00574
1.006
1.00625
1.00647
1.00668
1.00685
1.007
1.00711
1.00719
1.00723
1.04441
1.04447
1.04459
1.04477
1.04502
1.04532
1.0457
1.04614
1.04665
1.04724
1.04791
1.04867
1.04952
1.05047
1.05153
1.05269
1.05397
1.05538
1.05692
1.05858
1.06038
1.06232
1.06439
1.06659
1.06891
1.07135
1.0739
1.07654
1.07926
1.08204
1.08487
1.08772
1.09057
1.09339
1.09616
1.09886
1.10146
1.10394
1.10626
1.10842
1.11037
1.11212
1.11363
1.11489
1.11588
1.1166
1.11703
1.11717
1.117
1.11654
1.11578
1.11472
1.11338
1.11175
1.10985
1.10769
1.10529
1.10268
1.09986
1.09687
1.09372
1.09045
1.08709
1.08366
1.0802
1.07673
1.07328
1.0699
1.06659
1.0634
1.06033
1.05742
1.05468
1.05212
1.04975
1.04759
1.04562
1.04386
1.0423
1.04092
1.03973
1.03872
1.03785
1.03714
1.03655
1.03607
1.03569
1.0354
1.03519
1.03503
1.03493
1.03487
1.03485
1.03486
1.0349
1.03495
1.03503
1.03513
1.03525
1.03538
1.03553
1.03569
1.03587
1.03607
1.03627
1.03649
1.03672
1.03695
1.03718
1.03742
1.03765
1.03787
1.03808
1.03828
1.03845
1.0386
1.03873
1.03882
1.03889
1.03892
1.07721
1.07727
1.07739
1.07758
1.07782
1.07813
1.0785
1.07895
1.07946
1.08005
1.08072
1.08148
1.08232
1.08326
1.08429
1.08543
1.08668
1.08804
1.08952
1.09112
1.09284
1.09468
1.09663
1.09871
1.10089
1.10317
1.10554
1.10799
1.11051
1.11308
1.11569
1.11831
1.12092
1.1235
1.12604
1.1285
1.13087
1.13312
1.13523
1.13718
1.13895
1.14053
1.14189
1.14302
1.14391
1.14454
1.14492
1.14502
1.14486
1.14441
1.1437
1.14271
1.14146
1.13996
1.13821
1.13622
1.13401
1.13161
1.12902
1.12627
1.12338
1.12038
1.11729
1.11414
1.11096
1.10777
1.1046
1.10147
1.09842
1.09545
1.09261
1.08989
1.08732
1.08491
1.08267
1.0806
1.07872
1.07701
1.07548
1.07412
1.07293