/*--------------------------------*- C++ -*----------------------------------*\
| =========                 |                                                 |
| \\      /  F ield         | OpenFOAM: The Open Source CFD Toolbox           |
|  \\    /   O peration     | Version:  2406                                  |
|   \\  /    A nd           | Website:  www.openfoam.com                      |
|    \\/     M anipulation  |                                                 |
\*---------------------------------------------------------------------------*/
FoamFile
{
    version     2.0;
    format      ascii;
    arch        "LSB;label=32;scalar=64";
    class       volScalarField;
    location    "7.9";
    object      D;
}
// * * * * * * * * * * * * * * * * * * * * * * * * * * * * * * * * * * * * * //

dimensions      [0 2 -1 0 0 0 0];

internalField   nonuniform List<scalar> 
14400
(
7.03763e-05
7.03133e-05
7.02206e-05
7.01311e-05
7.0062e-05
7.00163e-05
6.99906e-05
6.99811e-05
6.99886e-05
7.00192e-05
7.00837e-05
7.01927e-05
7.03472e-05
7.05227e-05
7.06509e-05
7.0625e-05
7.03767e-05
6.99848e-05
6.95317e-05
6.90476e-05
6.85234e-05
6.79371e-05
6.72729e-05
6.65318e-05
6.57345e-05
6.49161e-05
6.41169e-05
6.33735e-05
6.27142e-05
6.21583e-05
6.17203e-05
6.14153e-05
6.12678e-05
6.13269e-05
6.1707e-05
6.27316e-05
6.57336e-05
7.9902e-05
0.000137838
0.00013824
0.00013824
0.00013824
0.00013824
0.00013824
0.00013824
0.00013824
0.00013824
0.00013824
0.00013824
0.00013824
0.00013824
0.00013824
0.00013824
0.00013824
0.00013824
0.00013824
0.00013824
0.00013824
0.00013824
0.00013359
7.18102e-05
6.47658e-05
6.28571e-05
6.21866e-05
6.20395e-05
6.22079e-05
6.26178e-05
6.3244e-05
6.40804e-05
6.51234e-05
6.63541e-05
6.77199e-05
6.91227e-05
7.04288e-05
7.15049e-05
7.22559e-05
7.26402e-05
7.26678e-05
7.23912e-05
7.18983e-05
7.13043e-05
7.07443e-05
7.0375e-05
7.04129e-05
7.13038e-05
7.46692e-05
9.11455e-05
0.000137938
0.000102831
7.48819e-05
6.99888e-05
6.83831e-05
6.77314e-05
6.75158e-05
6.7546e-05
6.77264e-05
6.7997e-05
6.83135e-05
6.86399e-05
6.8945e-05
6.91999e-05
6.9377e-05
6.94506e-05
6.94016e-05
6.92238e-05
6.89277e-05
6.85356e-05
6.80764e-05
6.75812e-05
6.7082e-05
6.66112e-05
6.62025e-05
6.58931e-05
6.57293e-05
6.57813e-05
6.61802e-05
6.72388e-05
6.99941e-05
7.98409e-05
0.000136261
7.00208e-05
6.98957e-05
6.97189e-05
6.9551e-05
6.94198e-05
6.93304e-05
6.92793e-05
6.92623e-05
6.92796e-05
6.93377e-05
6.94486e-05
6.96265e-05
6.98787e-05
7.01849e-05
7.04598e-05
7.05195e-05
7.01805e-05
6.96555e-05
6.90978e-05
6.855e-05
6.79983e-05
6.74144e-05
6.67773e-05
6.60824e-05
6.5344e-05
6.45897e-05
6.38537e-05
6.3168e-05
6.25589e-05
6.20458e-05
6.16448e-05
6.13733e-05
6.12594e-05
6.13585e-05
6.18015e-05
6.29848e-05
6.68502e-05
9.16309e-05
0.000138208
0.00013824
0.00013824
0.00013824
0.00013824
0.00013824
0.00013824
0.00013824
0.00013824
0.00013824
0.00013824
0.00013824
0.00013824
0.00013824
0.00013824
0.00013824
0.00013824
0.00013824
0.00013824
0.00013824
0.00013824
0.000137405
7.70324e-05
6.56199e-05
6.30865e-05
6.22601e-05
6.20442e-05
6.2165e-05
6.25298e-05
6.31047e-05
6.38775e-05
6.48399e-05
6.59713e-05
6.7223e-05
6.85088e-05
6.97118e-05
7.07118e-05
7.14185e-05
7.17898e-05
7.18329e-05
7.1598e-05
7.11696e-05
7.0658e-05
7.01921e-05
6.99241e-05
7.00758e-05
7.11443e-05
7.52175e-05
9.92043e-05
0.000138195
0.000115543
7.58299e-05
7.0083e-05
6.82623e-05
6.74977e-05
6.72011e-05
6.71636e-05
6.72842e-05
6.75028e-05
6.77772e-05
6.80741e-05
6.8364e-05
6.86178e-05
6.88046e-05
6.88919e-05
6.88527e-05
6.86776e-05
6.83823e-05
6.79973e-05
6.7557e-05
6.70943e-05
6.66392e-05
6.62209e-05
6.58695e-05
6.56199e-05
6.55186e-05
6.5641e-05
6.61382e-05
6.74123e-05
7.1151e-05
9.01994e-05
0.000138084
6.95732e-05
6.92902e-05
6.89286e-05
6.86073e-05
6.83638e-05
6.81994e-05
6.81057e-05
6.80754e-05
6.81073e-05
6.82086e-05
6.83954e-05
6.8692e-05
6.91261e-05
6.97083e-05
7.03594e-05
7.07181e-05
7.0047e-05
6.91702e-05
6.83834e-05
6.77116e-05
6.71092e-05
6.65279e-05
6.59344e-05
6.53144e-05
6.46716e-05
6.40227e-05
6.33917e-05
6.28038e-05
6.22818e-05
6.1845e-05
6.15118e-05
6.13041e-05
6.12568e-05
6.14388e-05
6.20127e-05
6.34953e-05
6.87348e-05
0.000114082
0.00013824
0.00013824
0.00013824
0.00013824
0.00013824
0.00013824
0.00013824
0.00013824
0.00013824
0.00013824
0.00013824
0.00013824
0.00013824
0.00013824
0.00013824
0.00013824
0.00013824
0.00013824
0.00013824
0.00013824
0.00013824
0.000138228
9.65724e-05
6.75831e-05
6.35484e-05
6.24141e-05
6.20649e-05
6.20938e-05
6.23733e-05
6.28538e-05
6.35129e-05
6.43343e-05
6.52945e-05
6.63504e-05
6.74327e-05
6.84504e-05
6.93074e-05
6.99272e-05
7.02708e-05
7.03424e-05
7.01864e-05
6.98788e-05
6.9519e-05
6.92251e-05
6.91444e-05
6.95111e-05
7.09023e-05
7.60971e-05
0.000114008
0.000138239
0.0001325
7.81884e-05
7.05504e-05
6.81593e-05
6.7142e-05
6.66878e-05
6.6529e-05
6.65478e-05
6.66804e-05
6.68865e-05
6.71367e-05
6.74046e-05
6.76613e-05
6.78706e-05
6.7987e-05
6.79672e-05
6.77929e-05
6.74926e-05
6.71134e-05
6.66997e-05
6.62865e-05
6.59011e-05
6.55675e-05
6.53108e-05
6.51634e-05
6.51738e-05
6.54288e-05
6.61161e-05
6.77847e-05
7.32412e-05
0.000113621
0.000138239
6.9562e-05
6.88762e-05
6.81617e-05
6.76026e-05
6.72074e-05
6.69497e-05
6.68051e-05
6.67581e-05
6.68044e-05
6.69526e-05
6.72266e-05
6.76715e-05
6.83653e-05
6.94321e-05
7.10233e-05
7.28548e-05
7.05642e-05
6.88117e-05
6.76172e-05
6.67603e-05
6.6086e-05
6.5501e-05
6.49515e-05
6.44109e-05
6.38713e-05
6.33386e-05
6.28266e-05
6.23529e-05
6.19363e-05
6.15958e-05
6.13524e-05
6.12345e-05
6.12893e-05
6.16125e-05
6.24434e-05
6.45966e-05
7.26137e-05
0.000135438
0.00013824
0.00013824
0.00013824
0.00013824
0.00013824
0.00013824
0.00013824
0.00013824
0.00013824
0.00013824
0.00013824
0.00013824
0.00013824
0.00013824
0.00013824
0.00013824
0.00013824
0.00013824
0.00013824
0.00013824
0.00013824
0.00013824
0.000123091
7.01981e-05
6.43038e-05
6.26942e-05
6.21334e-05
6.20232e-05
6.21821e-05
6.2537e-05
6.3052e-05
6.37018e-05
6.44593e-05
6.52866e-05
6.61308e-05
6.69263e-05
6.7605e-05
6.81112e-05
6.84156e-05
6.85215e-05
6.84651e-05
6.83096e-05
6.814e-05
6.80644e-05
6.82347e-05
6.89287e-05
7.09012e-05
7.77369e-05
0.000130685
0.00013824
0.000138224
0.000100703
7.28095e-05
6.8364e-05
6.68484e-05
6.61528e-05
6.58313e-05
6.5725e-05
6.57583e-05
6.58901e-05
6.60935e-05
6.63455e-05
6.66184e-05
6.68707e-05
6.70391e-05
6.7051e-05
6.68652e-05
6.65398e-05
6.61492e-05
6.57517e-05
6.53841e-05
6.50699e-05
6.48279e-05
6.46798e-05
6.46575e-05
6.48175e-05
6.52734e-05
6.62975e-05
6.87613e-05
7.73447e-05
0.000135345
0.00013824
7.1444e-05
6.92216e-05
6.77387e-05
6.6802e-05
6.62068e-05
6.58386e-05
6.56369e-05
6.55706e-05
6.56298e-05
6.58253e-05
6.61936e-05
6.68156e-05
6.78776e-05
6.98658e-05
7.46025e-05
9.06583e-05
7.32927e-05
6.89379e-05
6.70208e-05
6.59008e-05
6.51267e-05
6.45216e-05
6.40022e-05
6.35268e-05
6.30772e-05
6.26497e-05
6.22496e-05
6.18881e-05
6.15802e-05
6.13448e-05
6.12065e-05
6.12031e-05
6.14033e-05
6.19631e-05
6.33665e-05
6.82185e-05
0.000109936
0.00013824
0.00013824
0.00013824
0.00013824
0.00013824
0.00013824
0.00013824
0.00013824
0.00013824
0.00013824
0.00013824
0.00013824
0.00013824
0.00013824
0.00013824
0.00013824
0.00013824
0.00013824
0.00013824
0.00013824
0.00013824
0.00013824
0.00013824
0.00013806
8.28401e-05
6.62469e-05
6.32701e-05
6.23148e-05
6.19966e-05
6.19986e-05
6.22063e-05
6.25643e-05
6.30376e-05
6.35954e-05
6.42041e-05
6.48238e-05
6.54095e-05
6.5917e-05
6.63113e-05
6.65749e-05
6.6713e-05
6.67546e-05
6.67505e-05
6.67738e-05
6.69298e-05
6.73975e-05
6.85978e-05
7.22519e-05
9.28603e-05
0.000138149
0.00013824
0.00013824
0.000132799
7.68258e-05
6.92074e-05
6.6854e-05
6.5788e-05
6.52505e-05
6.49989e-05
6.49294e-05
6.49926e-05
6.51618e-05
6.54176e-05
6.57349e-05
6.6071e-05
6.63372e-05
6.641e-05
6.61752e-05
6.57754e-05
6.53315e-05
6.49192e-05
6.45747e-05
6.43159e-05
6.41568e-05
6.41177e-05
6.42359e-05
6.45878e-05
6.53577e-05
6.71107e-05
7.26785e-05
0.000114878
0.00013824
0.00013824
8.54243e-05
7.18118e-05
6.8062e-05
6.64242e-05
6.55326e-05
6.50179e-05
6.47457e-05
6.46554e-05
6.47285e-05
6.49786e-05
6.54621e-05
6.63205e-05
6.79832e-05
7.23343e-05
9.63579e-05
0.000137604
8.37236e-05
7.01367e-05
6.68055e-05
6.5285e-05
6.43605e-05
6.37061e-05
6.31925e-05
6.2759e-05
6.23766e-05
6.20338e-05
6.17293e-05
6.14692e-05
6.12661e-05
6.11396e-05
6.1121e-05
6.12637e-05
6.16755e-05
6.26359e-05
6.5252e-05
7.75273e-05
0.000137709
0.00013824
0.00013824
0.00013824
0.00013824
0.00013824
0.00013824
0.00013824
0.00013824
0.00013824
0.00013824
0.00013824
0.00013824
0.00013824
0.00013824
0.00013824
0.00013824
0.00013824
0.00013824
0.00013824
0.00013824
0.00013824
0.00013824
0.00013824
0.00013824
0.000125486
7.05628e-05
6.44126e-05
6.27113e-05
6.20716e-05
6.18706e-05
6.19122e-05
6.21103e-05
6.24167e-05
6.27963e-05
6.32183e-05
6.36521e-05
6.40673e-05
6.44368e-05
6.47407e-05
6.49717e-05
6.51377e-05
6.52639e-05
6.53938e-05
6.55959e-05
6.59848e-05
6.67932e-05
6.86808e-05
7.486e-05
0.000123593
0.00013824
0.00013824
0.00013824
0.00013824
0.000115172
7.35086e-05
6.77388e-05
6.58407e-05
6.4951e-05
6.45093e-05
6.43256e-05
6.43273e-05
6.44832e-05
6.47787e-05
6.51975e-05
6.57113e-05
6.61953e-05
6.64425e-05
6.60248e-05
6.54242e-05
6.48333e-05
6.43459e-05
6.39853e-05
6.37571e-05
6.36679e-05
6.37404e-05
6.40278e-05
6.46497e-05
6.59657e-05
6.95792e-05
8.88247e-05
0.00013813
0.00013824
0.00013824
0.000137563
8.45382e-05
7.01907e-05
6.67874e-05
6.53484e-05
6.45945e-05
6.42169e-05
6.40921e-05
6.41858e-05
6.45171e-05
6.51805e-05
6.64275e-05
6.92761e-05
7.98475e-05
0.000137005
0.00013824
0.000125344
7.39974e-05
6.73272e-05
6.50581e-05
6.38732e-05
6.31191e-05
6.25779e-05
6.21585e-05
6.18185e-05
6.15386e-05
6.13126e-05
6.11429e-05
6.10411e-05
6.10311e-05
6.11571e-05
6.15074e-05
6.22831e-05
6.41295e-05
7.06376e-05
0.000129463
0.00013824
0.00013824
0.00013824
0.00013824
0.00013824
0.00013824
0.00013824
0.00013824
0.00013824
0.00013824
0.00013824
0.00013824
0.00013824
0.00013824
0.00013824
0.00013824
0.00013824
0.00013824
0.00013824
0.00013824
0.00013824
0.00013824
0.00013824
0.00013824
0.00013824
0.000138234
9.83566e-05
6.77324e-05
6.35907e-05
6.23424e-05
6.18558e-05
6.17039e-05
6.17391e-05
6.1891e-05
6.21172e-05
6.23874e-05
6.26766e-05
6.29636e-05
6.32318e-05
6.34715e-05
6.3682e-05
6.38745e-05
6.40742e-05
6.43247e-05
6.47013e-05
6.5351e-05
6.66462e-05
7.01431e-05
8.8768e-05
0.000138102
0.00013824
0.00013824
0.00013824
0.00013824
0.000138223
9.81012e-05
7.14692e-05
6.68077e-05
6.51542e-05
6.43987e-05
6.40583e-05
6.39978e-05
6.41709e-05
6.45777e-05
6.52296e-05
6.62057e-05
6.73272e-05
6.85067e-05
6.70871e-05
6.58584e-05
6.48615e-05
6.41673e-05
6.37226e-05
6.34919e-05
6.34642e-05
6.36722e-05
6.42163e-05
6.53229e-05
6.78546e-05
7.722e-05
0.000136579
0.00013824
0.00013824
0.00013824
0.00013824
0.000136833
7.91712e-05
6.89513e-05
6.60383e-05
6.4748e-05
6.4172e-05
6.39842e-05
6.41202e-05
6.46107e-05
6.56719e-05
6.78862e-05
7.5302e-05
0.000132724
0.00013824
0.00013824
0.00013823
9.94274e-05
7.01619e-05
6.54982e-05
6.37628e-05
6.28143e-05
6.21961e-05
6.1757e-05
6.14333e-05
6.11969e-05
6.10364e-05
6.0952e-05
6.09567e-05
6.10853e-05
6.14133e-05
6.21273e-05
6.3784e-05
6.93471e-05
0.000115463
0.00013824
0.00013824
0.00013824
0.00013824
0.00013824
0.00013824
0.00013824
0.00013824
0.00013824
0.00013824
0.00013824
0.00013824
0.00013824
0.00013824
0.00013824
0.00013824
0.00013824
0.00013824
0.00013824
0.00013824
0.00013824
0.00013824
0.00013824
0.00013824
0.00013824
0.00013824
0.00013824
0.00013757
7.69257e-05
6.55013e-05
6.29762e-05
6.20399e-05
6.16394e-05
6.14964e-05
6.14984e-05
6.15888e-05
6.1734e-05
6.19111e-05
6.21034e-05
6.23003e-05
6.2498e-05
6.27007e-05
6.29235e-05
6.31959e-05
6.35703e-05
6.41477e-05
6.51556e-05
6.72737e-05
7.40661e-05
0.000128814
0.00013824
0.00013824
0.00013824
0.00013824
0.00013824
0.00013824
0.000138177
9.26386e-05
7.09368e-05
6.64568e-05
6.49593e-05
6.43144e-05
6.41685e-05
6.44161e-05
6.51309e-05
6.6434e-05
6.93755e-05
7.34586e-05
8.40898e-05
7.28577e-05
6.85658e-05
6.59603e-05
6.46503e-05
6.39642e-05
6.36782e-05
6.37164e-05
6.41465e-05
6.52807e-05
6.78342e-05
7.55805e-05
0.000134469
0.00013824
0.00013824
0.00013824
0.00013824
0.00013824
0.00013824
0.00013651
8.00959e-05
6.95007e-05
6.60713e-05
6.49804e-05
6.46231e-05
6.48828e-05
6.58069e-05
6.83581e-05
7.50464e-05
0.000130671
0.00013824
0.00013824
0.00013824
0.00013824
0.000137597
7.95682e-05
6.72621e-05
6.42337e-05
6.28927e-05
6.21063e-05
6.15961e-05
6.12564e-05
6.10452e-05
6.09447e-05
6.09542e-05
6.10919e-05
6.14215e-05
6.20984e-05
6.36864e-05
6.8886e-05
0.000106905
0.000138239
0.00013824
0.00013824
0.00013824
0.00013824
0.00013824
0.00013824
0.00013824
0.00013824
0.00013824
0.00013824
0.00013824
0.00013824
0.00013824
0.00013824
0.00013824
0.00013824
0.00013824
0.00013824
0.00013824
0.00013824
0.00013824
0.00013824
0.00013824
0.00013824
0.00013824
0.00013824
0.00013824
0.00013824
0.000132606
7.14119e-05
6.454e-05
6.26183e-05
6.18153e-05
6.14413e-05
6.12774e-05
6.12344e-05
6.12686e-05
6.13537e-05
6.14735e-05
6.16202e-05
6.17934e-05
6.20016e-05
6.22653e-05
6.26243e-05
6.3154e-05
6.40249e-05
6.57429e-05
7.07829e-05
0.000106443
0.000138238
0.00013824
0.00013824
0.00013824
0.00013824
0.00013824
0.00013824
0.00013824
0.000138186
0.000100501
7.20907e-05
6.73195e-05
6.56721e-05
6.53439e-05
6.5825e-05
6.77973e-05
7.20806e-05
9.31003e-05
0.000131529
0.000137989
0.000128915
8.63151e-05
7.10664e-05
6.67652e-05
6.52569e-05
6.47841e-05
6.49305e-05
6.58949e-05
6.96675e-05
8.11074e-05
0.000135567
0.00013824
0.00013824
0.00013824
0.00013824
0.00013824
0.00013824
0.00013824
0.00013824
0.000137542
9.46378e-05
7.18731e-05
6.85279e-05
6.72245e-05
6.81821e-05
7.11403e-05
8.52454e-05
0.000134687
0.00013824
0.00013824
0.00013824
0.00013824
0.00013824
0.00013824
0.000134853
7.39832e-05
6.60658e-05
6.36694e-05
6.24636e-05
6.17713e-05
6.13585e-05
6.11513e-05
6.1119e-05
6.12656e-05
6.16213e-05
6.23534e-05
6.38782e-05
6.92032e-05
0.000107396
0.000138239
0.00013824
0.00013824
0.00013824
0.00013824
0.00013824
0.00013824
0.00013824
0.00013824
0.00013824
0.00013824
0.00013824
0.00013824
0.00013824
0.00013824
0.00013824
0.00013824
0.00013824
0.00013824
0.00013824
0.00013824
0.00013824
0.00013824
0.00013824
0.00013824
0.00013824
0.00013824
0.00013824
0.00013824
0.00013824
0.00013824
0.000125191
7.04262e-05
6.42285e-05
6.24507e-05
6.16853e-05
6.12912e-05
6.10891e-05
6.10082e-05
6.10077e-05
6.10663e-05
6.11765e-05
6.13404e-05
6.15706e-05
6.18969e-05
6.23818e-05
6.31503e-05
6.45486e-05
6.80757e-05
8.5874e-05
0.000138096
0.00013824
0.00013824
0.00013824
0.00013824
0.00013824
0.00013824
0.00013824
0.00013824
0.00013824
0.000138233
0.000121881
7.95379e-05
7.13412e-05
7.03821e-05
7.17367e-05
8.37547e-05
0.00012335
0.000138206
0.00013824
0.00013824
0.00013824
0.0001381
0.000117312
7.67336e-05
7.06525e-05
6.93446e-05
6.99223e-05
7.28824e-05
0.000105941
0.000137827
0.00013824
0.00013824
0.00013824
0.00013824
0.00013824
0.00013824
0.00013824
0.00013824
0.00013824
0.00013824
0.000138217
0.000123259
9.2939e-05
7.96368e-05
8.91373e-05
0.000118169
0.00013807
0.00013824
0.00013824
0.00013824
0.00013824
0.00013824
0.00013824
0.00013824
0.00013824
0.000133512
7.41146e-05
6.66456e-05
6.37997e-05
6.25632e-05
6.19212e-05
6.16817e-05
6.17602e-05
6.2215e-05
6.31032e-05
6.5276e-05
7.04821e-05
0.000117222
0.000138239
0.00013824
0.00013824
0.00013824
0.00013824
0.00013824
0.00013824
0.00013824
0.00013824
0.00013824
0.00013824
0.00013824
0.00013824
0.00013824
0.00013824
0.00013824
0.00013824
0.00013824
0.00013824
0.00013824
0.00013824
0.00013824
0.00013824
0.00013824
0.00013824
0.00013824
0.00013824
0.00013824
0.00013824
0.00013824
0.00013824
0.00013824
0.00013824
0.000122256
7.02991e-05
6.42496e-05
6.25228e-05
6.1686e-05
6.12307e-05
6.09993e-05
6.09012e-05
6.08972e-05
6.09786e-05
6.11502e-05
6.14295e-05
6.18651e-05
6.25791e-05
6.38284e-05
6.65305e-05
7.64823e-05
0.00013698
0.00013824
0.00013824
0.00013824
0.00013824
0.00013824
0.00013824
0.00013824
0.00013824
0.00013824
0.00013824
0.00013824
0.00013824
0.000137634
0.000123863
0.000114988
0.000126635
0.000138013
0.00013824
0.00013824
0.00013824
0.00013824
0.00013824
0.00013824
0.00013824
0.000137032
0.000119588
0.00010549
0.00011345
0.000133084
0.000138238
0.00013824
0.00013824
0.00013824
0.00013824
0.00013824
0.00013824
0.00013824
0.00013824
0.00013824
0.00013824
0.00013824
0.00013824
0.00013824
0.000138204
0.0001376
0.000138161
0.00013824
0.00013824
0.00013824
0.00013824
0.00013824
0.00013824
0.00013824
0.00013824
0.00013824
0.00013824
0.00013824
0.000136113
8.52223e-05
6.9071e-05
6.51704e-05
6.35552e-05
6.31845e-05
6.35404e-05
6.53346e-05
6.85926e-05
8.24374e-05
0.000131303
0.00013824
0.00013824
0.00013824
0.00013824
0.00013824
0.00013824
0.00013824
0.00013824
0.00013824
0.00013824
0.00013824
0.00013824
0.00013824
0.00013824
0.00013824
0.00013824
0.00013824
0.00013824
0.00013824
0.00013824
0.00013824
0.00013824
0.00013824
0.00013824
0.00013824
0.00013824
0.00013824
0.00013824
0.00013824
0.00013824
0.00013824
0.00013824
0.00013824
0.00013824
0.00013824
0.000126291
7.1209e-05
6.52178e-05
6.29292e-05
6.18655e-05
6.1373e-05
6.11255e-05
6.10323e-05
6.1086e-05
6.12948e-05
6.16842e-05
6.23443e-05
6.36364e-05
6.64484e-05
7.50749e-05
0.000135729
0.00013824
0.00013824
0.00013824
0.00013824
0.00013824
0.00013824
0.00013824
0.00013824
0.00013824
0.00013824
0.00013824
0.00013824
0.00013824
0.00013824
0.00013824
0.00013824
0.00013824
0.00013824
0.00013824
0.00013824
0.00013824
0.00013824
0.00013824
0.00013824
0.00013824
0.00013824
0.00013824
0.000138238
0.00013824
0.00013824
0.00013824
0.00013824
0.00013824
0.00013824
0.00013824
0.00013824
0.00013824
0.00013824
0.00013824
0.00013824
0.00013824
0.00013824
0.00013824
0.00013824
0.00013824
0.00013824
0.00013824
0.00013824
0.00013824
0.00013824
0.00013824
0.00013824
0.00013824
0.00013824
0.00013824
0.00013824
0.00013824
0.00013824
0.00013824
0.000138138
0.000116493
7.87257e-05
6.96393e-05
6.88273e-05
7.01108e-05
8.45676e-05
0.000119098
0.000138103
0.00013824
0.00013824
0.00013824
0.00013824
0.00013824
0.00013824
0.00013824
0.00013824
0.00013824
0.00013824
0.00013824
0.00013824
0.00013824
0.00013824
0.00013824
0.00013824
0.00013824
0.00013824
0.00013824
0.00013824
0.00013824
0.00013824
0.00013824
0.00013824
0.00013824
0.00013824
0.00013824
0.00013824
0.00013824
0.00013824
0.00013824
0.00013824
0.00013824
0.00013824
0.00013824
0.00013824
0.00013824
0.000133945
8.02038e-05
6.75756e-05
6.37047e-05
6.25721e-05
6.19748e-05
6.16732e-05
6.1685e-05
6.20169e-05
6.27217e-05
6.39777e-05
6.78662e-05
8.10374e-05
0.000136577
0.00013824
0.00013824
0.00013824
0.00013824
0.00013824
0.00013824
0.00013824
0.00013824
0.00013824
0.00013824
0.00013824
0.00013824
0.00013824
0.00013824
0.00013824
0.00013824
0.00013824
0.00013824
0.00013824
0.00013824
0.00013824
0.00013824
0.00013824
0.00013824
0.00013824
0.00013824
0.00013824
0.00013824
0.00013824
0.00013824
0.00013824
0.00013824
0.00013824
0.00013824
0.00013824
0.00013824
0.00013824
0.00013824
0.00013824
0.00013824
0.00013824
0.00013824
0.00013824
0.00013824
0.00013824
0.00013824
0.00013824
0.00013824
0.00013824
0.00013824
0.00013824
0.00013824
0.00013824
0.00013824
0.00013824
0.00013824
0.00013824
0.00013824
0.00013824
0.00013824
0.00013824
0.00013824
0.000137855
0.000129161
0.000124832
0.000132597
0.000138148
0.00013824
0.00013824
0.00013824
0.00013824
0.00013824
0.00013824
0.00013824
0.00013824
0.00013824
0.00013824
0.00013824
0.00013824
0.00013824
0.00013824
0.00013824
0.00013824
0.00013824
0.00013824
0.00013824
0.00013824
0.00013824
0.00013824
0.00013824
0.00013824
0.00013824
0.00013824
0.00013824
0.00013824
0.00013824
0.00013824
0.00013824
0.00013824
0.00013824
0.00013824
0.00013824
0.00013824
0.00013824
0.00013824
0.00013824
0.00013824
0.000138012
0.000108779
7.07285e-05
6.71377e-05
6.47992e-05
6.35428e-05
6.34325e-05
6.43094e-05
6.66976e-05
7.0384e-05
0.000102591
0.000137985
0.00013824
0.00013824
0.00013824
0.00013824
0.00013824
0.00013824
0.00013824
0.00013824
0.00013824
0.00013824
0.00013824
0.00013824
0.00013824
0.00013824
0.00013824
0.00013824
0.00013824
0.00013824
0.00013824
0.00013824
0.00013824
0.00013824
0.00013824
0.00013824
0.00013824
0.00013824
0.00013824
0.00013824
0.00013824
0.00013824
0.00013824
0.00013824
0.00013824
0.00013824
0.00013824
0.00013824
0.00013824
0.00013824
0.00013824
0.00013824
0.00013824
0.00013824
0.00013824
0.00013824
0.00013824
0.00013824
0.00013824
0.00013824
0.00013824
0.00013824
0.00013824
0.00013824
0.00013824
0.00013824
0.00013824
0.00013824
0.00013824
0.00013824
0.00013824
0.00013824
0.00013824
0.00013824
0.00013824
0.00013824
0.00013824
0.00013824
0.00013824
0.00013824
0.00013824
0.00013824
0.00013824
0.00013824
0.00013824
0.00013824
0.00013824
0.00013824
0.00013824
0.00013824
0.00013824
0.00013824
0.00013824
0.00013824
0.00013824
0.00013824
0.00013824
0.00013824
0.00013824
0.00013824
0.00013824
0.00013824
0.00013824
0.00013824
0.00013824
0.00013824
0.00013824
0.00013824
0.00013824
0.00013824
0.00013824
0.00013824
0.00013824
0.00013824
0.00013824
0.00013824
0.00013824
0.00013824
0.00013824
0.00013824
0.00013824
0.00013824
0.000133627
0.000107196
8.04526e-05
7.06484e-05
6.99762e-05
7.46268e-05
9.81801e-05
0.000129136
0.000138238
0.00013824
0.00013824
0.00013824
0.00013824
0.00013824
0.00013824
0.00013824
0.00013824
0.00013824
0.00013824
0.00013824
0.00013824
0.00013824
0.00013824
0.00013824
0.00013824
0.00013824
0.00013824
0.00013824
0.00013824
0.00013824
0.00013824
0.00013824
0.00013824
0.00013824
0.00013824
0.00013824
0.00013824
0.00013824
0.00013824
0.00013824
0.00013824
0.00013824
0.00013824
0.00013824
0.00013824
0.00013824
0.00013824
0.00013824
0.00013824
0.00013824
0.00013824
0.00013824
0.00013824
0.00013824
0.00013824
0.00013824
0.00013824
0.00013824
0.00013824
0.00013824
0.00013824
0.00013824
0.00013824
0.00013824
0.00013824
0.00013824
0.00013824
0.00013824
0.00013824
0.00013824
0.00013824
0.00013824
0.00013824
0.00013824
0.00013824
0.00013824
0.00013824
0.00013824
0.00013824
0.00013824
0.00013824
0.00013824
0.00013824
0.00013824
0.00013824
0.00013824
0.00013824
0.00013824
0.00013824
0.00013824
0.00013824
0.00013824
0.00013824
0.00013824
0.00013824
0.00013824
0.00013824
0.00013824
0.00013824
0.00013824
0.00013824
0.00013824
0.00013824
0.00013824
0.00013824
0.00013824
0.00013824
0.00013824
0.00013824
0.00013824
0.00013824
0.00013824
0.00013824
0.00013824
0.00013824
0.00013824
0.00013824
0.00013824
0.00013824
0.00013824
0.00013824
0.000138239
0.000138013
0.000134559
0.000132893
0.00013723
0.000138234
0.00013824
0.00013824
0.00013824
0.00013824
0.00013824
0.00013824
0.00013824
0.00013824
0.00013824
0.00013824
0.00013824
0.00013824
0.00013824
0.00013824
0.00013824
0.00013824
0.00013824
0.00013824
0.00013824
0.00013824
0.00013824
0.00013824
0.00013824
0.00013824
0.00013824
0.00013824
0.00013824
0.00013824
0.00013824
0.00013824
0.00013824
0.00013824
0.00013824
0.00013824
0.00013824
0.00013824
0.00013824
0.00013824
0.00013824
0.00013824
0.00013824
0.00013824
0.00013824
0.00013824
0.00013824
0.00013824
0.00013824
0.00013824
0.00013824
0.00013824
0.00013824
0.00013824
0.00013824
0.00013824
0.00013824
0.00013824
0.00013824
0.00013824
0.00013824
0.00013824
0.00013824
0.00013824
0.00013824
0.00013824
0.00013824
0.00013824
0.00013824
0.00013824
0.00013824
0.00013824
0.00013824
0.00013824
0.00013824
0.00013824
0.00013824
0.00013824
0.00013824
0.00013824
0.00013824
0.00013824
0.00013824
0.00013824
0.00013824
0.00013824
0.00013824
0.00013824
0.00013824
0.00013824
0.00013824
0.00013824
0.00013824
0.00013824
0.00013824
0.00013824
0.00013824
0.00013824
0.00013824
0.00013824
0.00013824
0.00013824
0.00013824
0.00013824
0.00013824
0.00013824
0.00013824
0.00013824
0.00013824
0.00013824
0.00013824
0.00013824
0.00013824
0.00013824
0.00013824
0.00013824
0.00013824
0.00013824
0.00013824
0.00013824
0.00013824
0.00013824
0.00013824
0.00013824
0.00013824
0.00013824
0.00013824
0.00013824
0.00013824
0.00013824
0.00013824
0.00013824
0.00013824
0.00013824
0.00013824
0.00013824
0.00013824
0.00013824
0.00013824
0.00013824
0.00013824
0.00013824
0.00013824
0.00013824
0.00013824
0.00013824
0.00013824
0.00013824
0.00013824
0.00013824
0.00013824
0.00013824
0.00013824
0.00013824
0.00013824
0.00013824
0.00013824
0.00013824
0.00013824
0.00013824
0.00013824
0.00013824
0.00013824
0.00013824
0.00013824
0.00013824
0.00013824
0.00013824
0.00013824
0.00013824
0.00013824
0.00013824
0.00013824
0.00013824
0.00013824
0.00013824
0.00013824
0.00013824
0.00013824
0.00013824
0.00013824
0.00013824
0.00013824
0.00013824
0.00013824
0.00013824
0.00013824
0.00013824
0.00013824
0.00013824
0.00013824
0.00013824
0.00013824
0.00013824
0.00013824
0.00013824
0.00013824
0.00013824
0.00013824
0.00013824
0.00013824
0.00013824
0.00013824
0.00013824
0.00013824
0.00013824
0.00013824
0.00013824
0.00013824
0.00013824
0.00013824
0.00013824
0.00013824
0.00013824
0.00013824
0.00013824
0.00013824
0.00013824
0.00013824
0.00013824
0.00013824
0.00013824
0.00013824
0.00013824
0.00013824
0.00013824
0.00013824
0.00013824
0.00013824
0.00013824
0.00013824
0.00013824
0.00013824
0.00013824
0.00013824
0.00013824
0.00013824
0.00013824
0.00013824
0.00013824
0.00013824
0.00013824
0.00013824
0.00013824
0.00013824
0.00013824
0.00013824
0.00013824
0.00013824
0.00013824
0.00013824
0.00013824
0.00013824
0.00013824
0.00013824
0.00013824
0.00013824
0.00013824
0.00013824
0.00013824
0.00013824
0.00013824
0.00013824
0.00013824
0.00013824
0.00013824
0.00013824
0.00013824
0.00013824
0.00013824
0.00013824
0.00013824
0.00013824
0.00013824
0.00013824
0.00013824
0.00013824
0.00013824
0.00013824
0.00013824
0.00013824
0.00013824
0.00013824
0.00013824
0.00013824
0.00013824
0.00013824
0.00013824
0.00013824
0.00013824
0.00013824
0.00013824
0.00013824
0.00013824
0.00013824
0.00013824
0.00013824
0.00013824
0.00013824
0.00013824
0.00013824
0.00013824
0.00013824
0.00013824
0.00013824
0.00013824
0.00013824
0.00013824
0.00013824
0.00013824
0.00013824
0.00013824
0.00013824
0.00013824
0.00013824
0.00013824
0.00013824
0.00013824
0.00013824
0.00013824
0.00013824
0.00013824
0.00013824
0.00013824
0.00013824
0.00013824
0.00013824
0.00013824
0.00013824
0.00013824
0.00013824
0.00013824
0.00013824
0.00013824
0.00013824
0.00013824
0.00013824
0.00013824
0.00013824
0.00013824
0.00013824
0.00013824
0.00013824
0.00013824
0.00013824
0.00013824
0.00013824
0.00013824
0.00013824
0.00013824
0.00013824
0.00013824
0.00013824
0.00013824
0.00013824
0.00013824
0.00013824
0.00013824
0.00013824
0.00013824
0.00013824
0.00013824
0.00013824
0.00013824
0.00013824
0.00013824
0.00013824
0.00013824
0.00013824
0.00013824
0.00013824
0.00013824
0.00013824
0.00013824
0.00013824
0.00013824
0.00013824
0.00013824
0.00013824
0.00013824
0.00013824
0.00013824
0.00013824
0.00013824
0.00013824
0.00013824
0.00013824
0.00013824
0.00013824
0.00013824
0.00013824
0.00013824
0.00013824
0.00013824
0.00013824
0.00013824
0.00013824
0.00013824
0.00013824
0.00013824
0.00013824
0.00013824
0.00013824
0.00013824
0.00013824
0.00013824
0.00013824
0.00013824
0.00013824
0.00013824
0.00013824
0.00013824
0.00013824
0.00013824
0.00013824
0.00013824
0.00013824
0.00013824
0.00013824
0.00013824
0.00013824
0.00013824
0.00013824
0.00013824
0.00013824
0.00013824
0.00013824
0.00013824
0.00013824
0.00013824
0.00013824
0.00013824
0.00013824
0.00013824
0.00013824
0.00013824
0.00013824
0.00013824
0.00013824
0.00013824
0.00013824
0.00013824
0.00013824
0.00013824
0.00013824
0.00013824
0.00013824
0.00013824
0.00013824
0.00013824
0.00013824
0.00013824
0.00013824
0.00013824
0.00013824
0.00013824
0.00013824
0.00013824
0.00013824
0.00013824
0.00013824
0.00013824
0.00013824
0.00013824
0.00013824
0.00013824
0.00013824
0.00013824
0.00013824
0.00013824
0.00013824
0.00013824
0.00013824
0.00013824
0.00013824
0.00013824
0.00013824
0.00013824
0.00013824
0.00013824
0.00013824
0.00013824
0.00013824
0.00013824
0.00013824
0.00013824
0.00013824
0.00013824
0.00013824
0.00013824
0.00013824
0.00013824
0.00013824
0.00013824
0.00013824
0.00013824
0.00013824
0.00013824
0.00013824
0.00013824
0.00013824
0.00013824
0.00013824
0.00013824
0.00013824
0.00013824
0.00013824
0.00013824
0.00013824
0.00013824
0.00013824
0.00013824
0.00013824
0.00013824
0.00013824
0.00013824
0.00013824
0.00013824
0.00013824
0.00013824
0.00013824
0.00013824
0.00013824
0.00013824
0.00013824
0.00013824
0.00013824
0.00013824
0.00013824
0.00013824
0.00013824
0.00013824
0.00013824
0.00013824
0.00013824
0.00013824
0.00013824
0.00013824
0.00013824
0.00013824
0.00013824
0.00013824
0.00013824
0.00013824
0.00013824
0.00013824
0.00013824
0.00013824
0.00013824
0.00013824
0.00013824
0.00013824
0.00013824
0.00013824
0.00013824
0.00013824
0.00013824
0.00013824
0.00013824
0.00013824
0.00013824
0.00013824
0.00013824
0.00013824
0.00013824
0.00013824
0.00013824
0.00013824
0.00013824
0.00013824
0.00013824
0.00013824
0.00013824
0.00013824
0.00013824
0.00013824
0.00013824
0.00013824
0.00013824
0.00013824
0.00013824
0.00013824
0.00013824
0.00013824
0.00013824
0.00013824
0.00013824
0.00013824
0.00013824
0.00013824
0.00013824
0.00013824
0.00013824
0.00013824
0.00013824
0.00013824
0.00013824
0.00013824
0.00013824
0.00013824
0.00013824
0.00013824
0.00013824
0.00013824
0.00013824
0.00013824
0.00013824
0.00013824
0.00013824
0.00013824
0.00013824
0.00013824
0.00013824
0.00013824
0.00013824
0.00013824
0.00013824
0.00013824
0.00013824
0.00013824
0.00013824
0.00013824
0.00013824
0.00013824
0.00013824
0.00013824
0.00013824
0.00013824
0.00013824
0.00013824
0.00013824
0.00013824
0.00013824
0.00013824
0.00013824
0.00013824
0.00013824
0.00013824
0.00013824
0.00013824
0.00013824
0.00013824
0.00013824
0.00013824
0.00013824
0.00013824
0.00013824
0.00013824
0.00013824
0.00013824
0.00013824
0.00013824
0.00013824
0.00013824
0.00013824
0.00013824
0.00013824
0.00013824
0.00013824
0.00013824
0.00013824
0.00013824
0.00013824
0.00013824
0.00013824
0.00013824
0.00013824
0.00013824
0.00013824
0.00013824
0.00013824
0.00013824
0.00013824
0.00013824
0.00013824
0.00013824
0.00013824
0.00013824
0.00013824
0.00013824
0.00013824
0.00013824
0.00013824
0.00013824
0.00013824
0.00013824
0.00013824
0.00013824