/*--------------------------------*- C++ -*----------------------------------*\
| =========                 |                                                 |
| \\      /  F ield         | OpenFOAM: The Open Source CFD Toolbox           |
|  \\    /   O peration     | Version:  2406                                  |
|   \\  /    A nd           | Website:  www.openfoam.com                      |
|    \\/     M anipulation  |                                                 |
\*---------------------------------------------------------------------------*/
FoamFile
{
    version     2.0;
    format      ascii;
    arch        "LSB;label=32;scalar=64";
    class       volScalarField;
    location    "7.9";
    object      Da;
}
// * * * * * * * * * * * * * * * * * * * * * * * * * * * * * * * * * * * * * //

dimensions      [0 2 -1 0 0 0 0];

internalField   nonuniform List<scalar> 
14400
(
4.80165e-05
4.79887e-05
4.79479e-05
4.79085e-05
4.78782e-05
4.78582e-05
4.78469e-05
4.78428e-05
4.78461e-05
4.78595e-05
4.78879e-05
4.79359e-05
4.8004e-05
4.80815e-05
4.81381e-05
4.81268e-05
4.80174e-05
4.78446e-05
4.76448e-05
4.74312e-05
4.71997e-05
4.69406e-05
4.66467e-05
4.63185e-05
4.59652e-05
4.56023e-05
4.52478e-05
4.4918e-05
4.46255e-05
4.43788e-05
4.41843e-05
4.40487e-05
4.39828e-05
4.40083e-05
4.41753e-05
4.4626e-05
4.59435e-05
5.21191e-05
7.78129e-05
7.8e-05
7.8e-05
7.8e-05
7.8e-05
7.8e-05
7.8e-05
7.8e-05
7.8e-05
7.8e-05
7.8e-05
7.8e-05
7.8e-05
7.8e-05
7.8e-05
7.8e-05
7.8e-05
7.8e-05
7.8e-05
7.8e-05
7.8e-05
7.58833e-05
4.86127e-05
4.55203e-05
4.4682e-05
4.43876e-05
4.43237e-05
4.43991e-05
4.45814e-05
4.48593e-05
4.52305e-05
4.56932e-05
4.62392e-05
4.68449e-05
4.74668e-05
4.80456e-05
4.85221e-05
4.88543e-05
4.9024e-05
4.90357e-05
4.89125e-05
4.86934e-05
4.84295e-05
4.81805e-05
4.80159e-05
4.80313e-05
4.84238e-05
4.9909e-05
5.7178e-05
7.78655e-05
6.23366e-05
5.00017e-05
4.78406e-05
4.71315e-05
4.68439e-05
4.67492e-05
4.67632e-05
4.68435e-05
4.69637e-05
4.71041e-05
4.72489e-05
4.73841e-05
4.74971e-05
4.75755e-05
4.76081e-05
4.75865e-05
4.75078e-05
4.73766e-05
4.72029e-05
4.69995e-05
4.678e-05
4.65587e-05
4.63499e-05
4.61686e-05
4.60311e-05
4.5958e-05
4.59803e-05
4.6156e-05
4.6623e-05
4.78384e-05
5.21771e-05
7.71161e-05
4.78585e-05
4.78032e-05
4.77252e-05
4.76512e-05
4.75933e-05
4.7554e-05
4.75315e-05
4.7524e-05
4.75317e-05
4.75573e-05
4.76062e-05
4.76847e-05
4.7796e-05
4.79313e-05
4.80529e-05
4.80793e-05
4.79298e-05
4.76982e-05
4.74521e-05
4.72103e-05
4.69666e-05
4.67085e-05
4.64266e-05
4.61189e-05
4.57917e-05
4.54573e-05
4.51309e-05
4.48267e-05
4.45565e-05
4.43288e-05
4.41507e-05
4.403e-05
4.3979e-05
4.40221e-05
4.42169e-05
4.4738e-05
4.64376e-05
5.72817e-05
7.79851e-05
7.8e-05
7.8e-05
7.8e-05
7.8e-05
7.8e-05
7.8e-05
7.8e-05
7.8e-05
7.8e-05
7.8e-05
7.8e-05
7.8e-05
7.8e-05
7.8e-05
7.8e-05
7.8e-05
7.8e-05
7.8e-05
7.8e-05
7.8e-05
7.76133e-05
5.08673e-05
4.58942e-05
4.47831e-05
4.442e-05
4.43257e-05
4.43801e-05
4.45423e-05
4.47975e-05
4.51404e-05
4.55674e-05
4.60693e-05
4.66244e-05
4.71945e-05
4.77276e-05
4.81705e-05
4.84832e-05
4.86472e-05
4.86657e-05
4.8561e-05
4.83705e-05
4.8143e-05
4.79357e-05
4.78159e-05
4.78817e-05
4.83528e-05
5.01509e-05
6.0736e-05
7.79799e-05
6.79527e-05
5.04202e-05
4.78817e-05
4.70776e-05
4.67401e-05
4.66095e-05
4.65935e-05
4.66473e-05
4.67444e-05
4.68662e-05
4.69978e-05
4.71263e-05
4.72388e-05
4.73215e-05
4.73602e-05
4.73428e-05
4.72653e-05
4.71346e-05
4.6964e-05
4.6769e-05
4.65639e-05
4.63622e-05
4.61767e-05
4.60208e-05
4.59098e-05
4.58644e-05
4.5918e-05
4.61371e-05
4.66993e-05
4.83488e-05
5.67387e-05
7.793e-05
4.76591e-05
4.75341e-05
4.73744e-05
4.72325e-05
4.71249e-05
4.70523e-05
4.7011e-05
4.69976e-05
4.70117e-05
4.70565e-05
4.7139e-05
4.727e-05
4.74619e-05
4.77192e-05
4.80069e-05
4.81654e-05
4.78693e-05
4.74822e-05
4.71348e-05
4.68381e-05
4.65719e-05
4.63149e-05
4.60524e-05
4.57779e-05
4.54931e-05
4.52055e-05
4.49257e-05
4.4665e-05
4.44334e-05
4.42396e-05
4.40916e-05
4.39991e-05
4.39776e-05
4.40572e-05
4.43098e-05
4.4963e-05
4.72712e-05
6.72119e-05
7.79999e-05
7.8e-05
7.8e-05
7.8e-05
7.8e-05
7.8e-05
7.8e-05
7.8e-05
7.8e-05
7.8e-05
7.8e-05
7.8e-05
7.8e-05
7.8e-05
7.8e-05
7.8e-05
7.8e-05
7.8e-05
7.8e-05
7.8e-05
7.8e-05
7.79944e-05
5.94703e-05
4.67624e-05
4.49874e-05
4.4488e-05
4.43347e-05
4.43484e-05
4.44727e-05
4.46861e-05
4.49786e-05
4.5343e-05
4.57689e-05
4.62372e-05
4.67171e-05
4.71681e-05
4.75478e-05
4.78221e-05
4.79739e-05
4.80051e-05
4.79353e-05
4.77983e-05
4.76381e-05
4.7507e-05
4.74702e-05
4.76311e-05
4.82449e-05
5.05389e-05
6.7275e-05
7.79996e-05
7.54501e-05
5.14596e-05
4.80871e-05
4.70311e-05
4.6582e-05
4.63817e-05
4.63119e-05
4.63206e-05
4.63795e-05
4.6471e-05
4.65819e-05
4.67006e-05
4.68143e-05
4.6907e-05
4.69585e-05
4.69498e-05
4.68726e-05
4.67397e-05
4.65717e-05
4.63885e-05
4.62054e-05
4.60347e-05
4.58867e-05
4.57728e-05
4.57072e-05
4.57113e-05
4.58235e-05
4.61267e-05
4.68632e-05
4.9272e-05
6.70868e-05
7.79997e-05
4.7652e-05
4.73492e-05
4.70336e-05
4.67865e-05
4.66119e-05
4.64981e-05
4.64342e-05
4.64134e-05
4.64339e-05
4.64994e-05
4.66205e-05
4.68171e-05
4.71238e-05
4.75952e-05
4.8298e-05
4.91052e-05
4.80955e-05
4.73218e-05
4.67942e-05
4.64157e-05
4.61177e-05
4.58591e-05
4.5616e-05
4.53767e-05
4.51378e-05
4.49017e-05
4.46748e-05
4.44647e-05
4.42799e-05
4.41288e-05
4.40207e-05
4.3968e-05
4.39915e-05
4.41335e-05
4.44991e-05
4.54458e-05
4.89583e-05
7.6711e-05
7.8e-05
7.8e-05
7.8e-05
7.8e-05
7.8e-05
7.8e-05
7.8e-05
7.8e-05
7.8e-05
7.8e-05
7.8e-05
7.8e-05
7.8e-05
7.8e-05
7.8e-05
7.8e-05
7.8e-05
7.8e-05
7.8e-05
7.8e-05
7.8e-05
7.8e-05
7.12198e-05
4.79179e-05
4.53204e-05
4.46114e-05
4.43646e-05
4.43167e-05
4.43877e-05
4.45454e-05
4.47739e-05
4.50623e-05
4.53983e-05
4.57652e-05
4.61394e-05
4.6492e-05
4.67927e-05
4.70168e-05
4.71513e-05
4.71977e-05
4.71721e-05
4.71026e-05
4.70267e-05
4.69923e-05
4.70666e-05
4.73724e-05
4.8243e-05
5.12613e-05
7.46467e-05
7.8e-05
7.79928e-05
6.13793e-05
4.90828e-05
4.71204e-05
4.64512e-05
4.61441e-05
4.60023e-05
4.59555e-05
4.59705e-05
4.60289e-05
4.61191e-05
4.62307e-05
4.63515e-05
4.64631e-05
4.65376e-05
4.65428e-05
4.64606e-05
4.63166e-05
4.61438e-05
4.59678e-05
4.5805e-05
4.56658e-05
4.55586e-05
4.54927e-05
4.54825e-05
4.55528e-05
4.57539e-05
4.62058e-05
4.7293e-05
5.10757e-05
7.6704e-05
7.8e-05
4.84789e-05
4.74993e-05
4.68446e-05
4.64308e-05
4.61679e-05
4.60052e-05
4.59162e-05
4.58868e-05
4.5913e-05
4.59994e-05
4.61621e-05
4.6437e-05
4.69062e-05
4.77845e-05
4.98746e-05
5.69349e-05
4.92957e-05
4.73751e-05
4.65287e-05
4.60339e-05
4.56918e-05
4.54244e-05
4.51947e-05
4.49843e-05
4.47853e-05
4.45959e-05
4.44186e-05
4.42583e-05
4.41218e-05
4.40172e-05
4.39556e-05
4.39536e-05
4.40414e-05
4.42876e-05
4.4905e-05
4.70384e-05
6.53431e-05
7.79998e-05
7.8e-05
7.8e-05
7.8e-05
7.8e-05
7.8e-05
7.8e-05
7.8e-05
7.8e-05
7.8e-05
7.8e-05
7.8e-05
7.8e-05
7.8e-05
7.8e-05
7.8e-05
7.8e-05
7.8e-05
7.8e-05
7.8e-05
7.8e-05
7.8e-05
7.8e-05
7.79153e-05
5.33995e-05
4.61716e-05
4.48646e-05
4.44441e-05
4.43043e-05
4.43059e-05
4.43984e-05
4.45575e-05
4.47675e-05
4.50149e-05
4.52849e-05
4.55596e-05
4.58192e-05
4.6044e-05
4.62185e-05
4.6335e-05
4.63958e-05
4.64137e-05
4.64113e-05
4.64209e-05
4.64891e-05
4.66951e-05
4.72247e-05
4.8837e-05
5.79164e-05
7.7959e-05
7.8e-05
7.8e-05
7.55772e-05
5.08548e-05
4.74918e-05
4.64525e-05
4.59817e-05
4.57443e-05
4.56333e-05
4.56027e-05
4.56307e-05
4.57057e-05
4.58189e-05
4.59592e-05
4.61078e-05
4.62255e-05
4.62576e-05
4.61538e-05
4.5977e-05
4.57807e-05
4.55983e-05
4.54459e-05
4.53313e-05
4.52607e-05
4.52432e-05
4.52951e-05
4.54502e-05
4.57899e-05
4.65635e-05
4.90203e-05
6.76256e-05
7.79999e-05
7.8e-05
5.46227e-05
4.86381e-05
4.6985e-05
4.62621e-05
4.58684e-05
4.56411e-05
4.55209e-05
4.5481e-05
4.55133e-05
4.56237e-05
4.58372e-05
4.62163e-05
4.69505e-05
4.88703e-05
5.94525e-05
7.77137e-05
5.38768e-05
4.79012e-05
4.64316e-05
4.576e-05
4.53515e-05
4.50623e-05
4.48353e-05
4.46435e-05
4.44743e-05
4.43225e-05
4.41876e-05
4.40723e-05
4.39822e-05
4.39259e-05
4.39173e-05
4.39799e-05
4.41611e-05
4.45836e-05
4.57305e-05
5.10585e-05
7.77494e-05
7.8e-05
7.8e-05
7.8e-05
7.8e-05
7.8e-05
7.8e-05
7.8e-05
7.8e-05
7.8e-05
7.8e-05
7.8e-05
7.8e-05
7.8e-05
7.8e-05
7.8e-05
7.8e-05
7.8e-05
7.8e-05
7.8e-05
7.8e-05
7.8e-05
7.8e-05
7.8e-05
7.8e-05
7.22799e-05
4.80783e-05
4.53681e-05
4.46183e-05
4.43366e-05
4.42486e-05
4.42676e-05
4.43558e-05
4.44919e-05
4.46604e-05
4.48475e-05
4.50399e-05
4.52239e-05
4.53875e-05
4.5522e-05
4.56241e-05
4.56973e-05
4.57527e-05
4.58097e-05
4.58986e-05
4.60699e-05
4.64266e-05
4.72598e-05
4.99877e-05
7.15005e-05
7.8e-05
7.8e-05
7.8e-05
7.79999e-05
6.77612e-05
4.93887e-05
4.68421e-05
4.60039e-05
4.56109e-05
4.54157e-05
4.53346e-05
4.53355e-05
4.54045e-05
4.55351e-05
4.57202e-05
4.59471e-05
4.61607e-05
4.62696e-05
4.60855e-05
4.58202e-05
4.55591e-05
4.53436e-05
4.51842e-05
4.50832e-05
4.50436e-05
4.50754e-05
4.5202e-05
4.54761e-05
4.60563e-05
4.76481e-05
5.61017e-05
7.79497e-05
7.8e-05
7.8e-05
7.76942e-05
5.42246e-05
4.79196e-05
4.64202e-05
4.57855e-05
4.54528e-05
4.5286e-05
4.52309e-05
4.52723e-05
4.54185e-05
4.57113e-05
4.62616e-05
4.75177e-05
5.21678e-05
7.74445e-05
7.8e-05
7.22653e-05
4.96048e-05
4.66601e-05
4.56579e-05
4.51346e-05
4.48014e-05
4.45623e-05
4.43769e-05
4.42265e-05
4.41026e-05
4.40025e-05
4.39273e-05
4.3882e-05
4.38773e-05
4.39327e-05
4.40871e-05
4.44291e-05
4.52429e-05
4.81096e-05
7.40266e-05
7.8e-05
7.8e-05
7.8e-05
7.8e-05
7.8e-05
7.8e-05
7.8e-05
7.8e-05
7.8e-05
7.8e-05
7.8e-05
7.8e-05
7.8e-05
7.8e-05
7.8e-05
7.8e-05
7.8e-05
7.8e-05
7.8e-05
7.8e-05
7.8e-05
7.8e-05
7.8e-05
7.8e-05
7.8e-05
7.79971e-05
6.02274e-05
4.68238e-05
4.50041e-05
4.4455e-05
4.42411e-05
4.41747e-05
4.41909e-05
4.42585e-05
4.4359e-05
4.44789e-05
4.46072e-05
4.47344e-05
4.48532e-05
4.49592e-05
4.50522e-05
4.51372e-05
4.52252e-05
4.53356e-05
4.55017e-05
4.57884e-05
4.63601e-05
4.79019e-05
5.60909e-05
7.79373e-05
7.8e-05
7.8e-05
7.8e-05
7.8e-05
7.79922e-05
6.02047e-05
4.84849e-05
4.64295e-05
4.56995e-05
4.53658e-05
4.52154e-05
4.51888e-05
4.52653e-05
4.5445e-05
4.57329e-05
4.61636e-05
4.6658e-05
4.71752e-05
4.65522e-05
4.601e-05
4.55701e-05
4.52634e-05
4.5067e-05
4.4965e-05
4.49526e-05
4.50442e-05
4.5284e-05
4.57714e-05
4.68857e-05
5.09986e-05
7.72474e-05
7.8e-05
7.8e-05
7.8e-05
7.8e-05
7.73637e-05
5.18582e-05
4.73699e-05
4.60882e-05
4.55194e-05
4.52651e-05
4.51821e-05
4.52422e-05
4.54587e-05
4.59265e-05
4.69031e-05
5.01741e-05
7.55276e-05
7.8e-05
7.8e-05
7.79953e-05
6.07776e-05
4.79053e-05
4.58497e-05
4.5084e-05
4.46654e-05
4.43924e-05
4.41984e-05
4.40553e-05
4.39507e-05
4.38796e-05
4.38421e-05
4.3844e-05
4.39006e-05
4.40452e-05
4.43602e-05
4.50907e-05
4.75403e-05
6.77788e-05
7.8e-05
7.8e-05
7.8e-05
7.8e-05
7.8e-05
7.8e-05
7.8e-05
7.8e-05
7.8e-05
7.8e-05
7.8e-05
7.8e-05
7.8e-05
7.8e-05
7.8e-05
7.8e-05
7.8e-05
7.8e-05
7.8e-05
7.8e-05
7.8e-05
7.8e-05
7.8e-05
7.8e-05
7.8e-05
7.8e-05
7.8e-05
7.76856e-05
5.08038e-05
4.58401e-05
4.47332e-05
4.43215e-05
4.41453e-05
4.40827e-05
4.40841e-05
4.41245e-05
4.41891e-05
4.42677e-05
4.43529e-05
4.44401e-05
4.45275e-05
4.46171e-05
4.47155e-05
4.48357e-05
4.50009e-05
4.52557e-05
4.57007e-05
4.66358e-05
4.96339e-05
7.37993e-05
7.8e-05
7.8e-05
7.8e-05
7.8e-05
7.8e-05
7.8e-05
7.79711e-05
5.77816e-05
4.8248e-05
4.62734e-05
4.56119e-05
4.53275e-05
4.52632e-05
4.53725e-05
4.56877e-05
4.62632e-05
4.75584e-05
4.93594e-05
5.40009e-05
4.90961e-05
4.72002e-05
4.60535e-05
4.54752e-05
4.51727e-05
4.50464e-05
4.50631e-05
4.52526e-05
4.57522e-05
4.6874e-05
5.0279e-05
7.62924e-05
7.8e-05
7.8e-05
7.8e-05
7.8e-05
7.8e-05
7.8e-05
7.72154e-05
5.22512e-05
4.76113e-05
4.61025e-05
4.56208e-05
4.54628e-05
4.55775e-05
4.59854e-05
4.7107e-05
5.00545e-05
7.46031e-05
7.8e-05
7.8e-05
7.8e-05
7.8e-05
7.77058e-05
5.2009e-05
4.66217e-05
4.52894e-05
4.46985e-05
4.43516e-05
4.41263e-05
4.39762e-05
4.38828e-05
4.38382e-05
4.38423e-05
4.39029e-05
4.40482e-05
4.4347e-05
4.50473e-05
4.73356e-05
6.39855e-05
7.79996e-05
7.8e-05
7.8e-05
7.8e-05
7.8e-05
7.8e-05
7.8e-05
7.8e-05
7.8e-05
7.8e-05
7.8e-05
7.8e-05
7.8e-05
7.8e-05
7.8e-05
7.8e-05
7.8e-05
7.8e-05
7.8e-05
7.8e-05
7.8e-05
7.8e-05
7.8e-05
7.8e-05
7.8e-05
7.8e-05
7.8e-05
7.8e-05
7.8e-05
7.54257e-05
4.84455e-05
4.54223e-05
4.4576e-05
4.42221e-05
4.40575e-05
4.39856e-05
4.3967e-05
4.39825e-05
4.40203e-05
4.40734e-05
4.41384e-05
4.4215e-05
4.4307e-05
4.44235e-05
4.45819e-05
4.48156e-05
4.51998e-05
4.59576e-05
4.81795e-05
6.38724e-05
7.79991e-05
7.8e-05
7.8e-05
7.8e-05
7.8e-05
7.8e-05
7.8e-05
7.8e-05
7.79753e-05
6.12433e-05
4.87575e-05
4.66489e-05
4.59257e-05
4.57813e-05
4.59932e-05
4.68596e-05
4.87528e-05
5.79701e-05
7.49933e-05
7.78853e-05
7.38309e-05
5.49747e-05
4.83032e-05
4.64043e-05
4.57421e-05
4.55338e-05
4.55982e-05
4.60227e-05
4.76833e-05
5.2677e-05
7.67867e-05
7.8e-05
7.8e-05
7.8e-05
7.8e-05
7.8e-05
7.8e-05
7.8e-05
7.8e-05
7.76819e-05
5.86426e-05
4.86612e-05
4.71822e-05
4.66059e-05
4.7029e-05
4.83365e-05
5.44995e-05
7.63985e-05
7.8e-05
7.8e-05
7.8e-05
7.8e-05
7.8e-05
7.8e-05
7.64576e-05
4.95724e-05
4.60926e-05
4.50389e-05
4.4508e-05
4.42025e-05
4.40203e-05
4.39287e-05
4.39142e-05
4.39787e-05
4.41355e-05
4.44577e-05
4.51308e-05
4.74757e-05
6.41973e-05
7.79993e-05
7.8e-05
7.8e-05
7.8e-05
7.8e-05
7.8e-05
7.8e-05
7.8e-05
7.8e-05
7.8e-05
7.8e-05
7.8e-05
7.8e-05
7.8e-05
7.8e-05
7.8e-05
7.8e-05
7.8e-05
7.8e-05
7.8e-05
7.8e-05
7.8e-05
7.8e-05
7.8e-05
7.8e-05
7.8e-05
7.8e-05
7.8e-05
7.8e-05
7.8e-05
7.8e-05
7.20939e-05
4.80161e-05
4.52855e-05
4.45014e-05
4.41641e-05
4.39907e-05
4.39019e-05
4.38665e-05
4.38665e-05
4.38926e-05
4.39413e-05
4.40138e-05
4.41156e-05
4.42597e-05
4.44736e-05
4.48122e-05
4.54281e-05
4.69791e-05
5.47729e-05
7.79337e-05
7.8e-05
7.8e-05
7.8e-05
7.8e-05
7.8e-05
7.8e-05
7.8e-05
7.8e-05
7.8e-05
7.79966e-05
7.07095e-05
5.19908e-05
4.84259e-05
4.80038e-05
4.86003e-05
5.38403e-05
7.13626e-05
7.79842e-05
7.8e-05
7.8e-05
7.8e-05
7.79357e-05
6.86737e-05
5.07648e-05
4.81213e-05
4.75444e-05
4.77995e-05
4.91001e-05
6.36227e-05
7.781e-05
7.8e-05
7.8e-05
7.8e-05
7.8e-05
7.8e-05
7.8e-05
7.8e-05
7.8e-05
7.8e-05
7.8e-05
7.79892e-05
7.1321e-05
5.78945e-05
5.20352e-05
5.62164e-05
6.90635e-05
7.79218e-05
7.8e-05
7.8e-05
7.8e-05
7.8e-05
7.8e-05
7.8e-05
7.8e-05
7.8e-05
7.58415e-05
4.9615e-05
4.63434e-05
4.50955e-05
4.45501e-05
4.42674e-05
4.41617e-05
4.41959e-05
4.43957e-05
4.47871e-05
4.57373e-05
4.80379e-05
6.85441e-05
7.79997e-05
7.8e-05
7.8e-05
7.8e-05
7.8e-05
7.8e-05
7.8e-05
7.8e-05
7.8e-05
7.8e-05
7.8e-05
7.8e-05
7.8e-05
7.8e-05
7.8e-05
7.8e-05
7.8e-05
7.8e-05
7.8e-05
7.8e-05
7.8e-05
7.8e-05
7.8e-05
7.8e-05
7.8e-05
7.8e-05
7.8e-05
7.8e-05
7.8e-05
7.8e-05
7.8e-05
7.8e-05
7.8e-05
7.07822e-05
4.79588e-05
4.52924e-05
4.45315e-05
4.41637e-05
4.39635e-05
4.38617e-05
4.38185e-05
4.38168e-05
4.38529e-05
4.39288e-05
4.40523e-05
4.42446e-05
4.45593e-05
4.51088e-05
4.62948e-05
5.0646e-05
7.74202e-05
7.8e-05
7.8e-05
7.8e-05
7.8e-05
7.8e-05
7.8e-05
7.8e-05
7.8e-05
7.8e-05
7.8e-05
7.8e-05
7.8e-05
7.77219e-05
7.15809e-05
6.76482e-05
7.28105e-05
7.78954e-05
7.8e-05
7.8e-05
7.8e-05
7.8e-05
7.8e-05
7.8e-05
7.8e-05
7.74469e-05
6.96822e-05
6.34398e-05
6.69605e-05
7.56736e-05
7.79992e-05
7.8e-05
7.8e-05
7.8e-05
7.8e-05
7.8e-05
7.8e-05
7.8e-05
7.8e-05
7.8e-05
7.8e-05
7.8e-05
7.8e-05
7.8e-05
7.79837e-05
7.77068e-05
7.79637e-05
7.8e-05
7.8e-05
7.8e-05
7.8e-05
7.8e-05
7.8e-05
7.8e-05
7.8e-05
7.8e-05
7.8e-05
7.8e-05
7.70217e-05
5.4435e-05
4.74147e-05
4.56916e-05
4.49862e-05
4.48233e-05
4.49781e-05
4.57619e-05
4.72015e-05
5.31708e-05
7.48435e-05
7.8e-05
7.8e-05
7.8e-05
7.8e-05
7.8e-05
7.8e-05
7.8e-05
7.8e-05
7.8e-05
7.8e-05
7.8e-05
7.8e-05
7.8e-05
7.8e-05
7.8e-05
7.8e-05
7.8e-05
7.8e-05
7.8e-05
7.8e-05
7.8e-05
7.8e-05
7.8e-05
7.8e-05
7.8e-05
7.8e-05
7.8e-05
7.8e-05
7.8e-05
7.8e-05
7.8e-05
7.8e-05
7.8e-05
7.8e-05
7.8e-05
7.25718e-05
4.83476e-05
4.57098e-05
4.47099e-05
4.42424e-05
4.40256e-05
4.39164e-05
4.38753e-05
4.38991e-05
4.39914e-05
4.41636e-05
4.44551e-05
4.50237e-05
4.62554e-05
5.00238e-05
7.6843e-05
7.8e-05
7.8e-05
7.8e-05
7.8e-05
7.8e-05
7.8e-05
7.8e-05
7.8e-05
7.8e-05
7.8e-05
7.8e-05
7.8e-05
7.8e-05
7.8e-05
7.8e-05
7.79999e-05
7.8e-05
7.8e-05
7.8e-05
7.8e-05
7.8e-05
7.8e-05
7.8e-05
7.8e-05
7.8e-05
7.8e-05
7.8e-05
7.7999e-05
7.79999e-05
7.8e-05
7.8e-05
7.8e-05
7.8e-05
7.8e-05
7.8e-05
7.8e-05
7.8e-05
7.8e-05
7.8e-05
7.8e-05
7.8e-05
7.8e-05
7.8e-05
7.8e-05
7.8e-05
7.8e-05
7.8e-05
7.8e-05
7.8e-05
7.8e-05
7.8e-05
7.8e-05
7.8e-05
7.8e-05
7.8e-05
7.8e-05
7.8e-05
7.8e-05
7.8e-05
7.79521e-05
6.82732e-05
5.15691e-05
4.76643e-05
4.73092e-05
4.78626e-05
5.41073e-05
6.9411e-05
7.79341e-05
7.8e-05
7.8e-05
7.8e-05
7.8e-05
7.8e-05
7.8e-05
7.8e-05
7.8e-05
7.8e-05
7.8e-05
7.8e-05
7.8e-05
7.8e-05
7.8e-05
7.8e-05
7.8e-05
7.8e-05
7.8e-05
7.8e-05
7.8e-05
7.8e-05
7.8e-05
7.8e-05
7.8e-05
7.8e-05
7.8e-05
7.8e-05
7.8e-05
7.8e-05
7.8e-05
7.8e-05
7.8e-05
7.8e-05
7.8e-05
7.8e-05
7.8e-05
7.8e-05
7.60216e-05
5.21921e-05
4.675e-05
4.50512e-05
4.45529e-05
4.42888e-05
4.4156e-05
4.41614e-05
4.43078e-05
4.46197e-05
4.51744e-05
4.68818e-05
5.25969e-05
7.723e-05
7.8e-05
7.8e-05
7.8e-05
7.8e-05
7.8e-05
7.8e-05
7.8e-05
7.8e-05
7.8e-05
7.8e-05
7.8e-05
7.8e-05
7.8e-05
7.8e-05
7.8e-05
7.8e-05
7.8e-05
7.8e-05
7.8e-05
7.8e-05
7.8e-05
7.8e-05
7.8e-05
7.8e-05
7.8e-05
7.8e-05
7.8e-05
7.8e-05
7.8e-05
7.8e-05
7.8e-05
7.8e-05
7.8e-05
7.8e-05
7.8e-05
7.8e-05
7.8e-05
7.8e-05
7.8e-05
7.8e-05
7.8e-05
7.8e-05
7.8e-05
7.8e-05
7.8e-05
7.8e-05
7.8e-05
7.8e-05
7.8e-05
7.8e-05
7.8e-05
7.8e-05
7.8e-05
7.8e-05
7.8e-05
7.8e-05
7.8e-05
7.8e-05
7.8e-05
7.8e-05
7.8e-05
7.8e-05
7.78179e-05
7.38816e-05
7.19474e-05
7.54106e-05
7.79559e-05
7.8e-05
7.8e-05
7.8e-05
7.8e-05
7.8e-05
7.8e-05
7.8e-05
7.8e-05
7.8e-05
7.8e-05
7.8e-05
7.8e-05
7.8e-05
7.8e-05
7.8e-05
7.8e-05
7.8e-05
7.8e-05
7.8e-05
7.8e-05
7.8e-05
7.8e-05
7.8e-05
7.8e-05
7.8e-05
7.8e-05
7.8e-05
7.8e-05
7.8e-05
7.8e-05
7.8e-05
7.8e-05
7.8e-05
7.8e-05
7.8e-05
7.8e-05
7.8e-05
7.8e-05
7.8e-05
7.8e-05
7.78907e-05
6.4788e-05
4.81365e-05
4.656e-05
4.55235e-05
4.49744e-05
4.49271e-05
4.53096e-05
4.63659e-05
4.79968e-05
6.20813e-05
7.78798e-05
7.8e-05
7.8e-05
7.8e-05
7.8e-05
7.8e-05
7.8e-05
7.8e-05
7.8e-05
7.8e-05
7.8e-05
7.8e-05
7.8e-05
7.8e-05
7.8e-05
7.8e-05
7.8e-05
7.8e-05
7.8e-05
7.8e-05
7.8e-05
7.8e-05
7.8e-05
7.8e-05
7.8e-05
7.8e-05
7.8e-05
7.8e-05
7.8e-05
7.8e-05
7.8e-05
7.8e-05
7.8e-05
7.8e-05
7.8e-05
7.8e-05
7.8e-05
7.8e-05
7.8e-05
7.8e-05
7.8e-05
7.8e-05
7.8e-05
7.8e-05
7.8e-05
7.8e-05
7.8e-05
7.8e-05
7.8e-05
7.8e-05
7.8e-05
7.8e-05
7.8e-05
7.8e-05
7.8e-05
7.8e-05
7.8e-05
7.8e-05
7.8e-05
7.8e-05
7.8e-05
7.8e-05
7.8e-05
7.8e-05
7.8e-05
7.8e-05
7.8e-05
7.8e-05
7.8e-05
7.8e-05
7.8e-05
7.8e-05
7.8e-05
7.8e-05
7.8e-05
7.8e-05
7.8e-05
7.8e-05
7.8e-05
7.8e-05
7.8e-05
7.8e-05
7.8e-05
7.8e-05
7.8e-05
7.8e-05
7.8e-05
7.8e-05
7.8e-05
7.8e-05
7.8e-05
7.8e-05
7.8e-05
7.8e-05
7.8e-05
7.8e-05
7.8e-05
7.8e-05
7.8e-05
7.8e-05
7.8e-05
7.8e-05
7.8e-05
7.8e-05
7.8e-05
7.8e-05
7.8e-05
7.8e-05
7.8e-05
7.8e-05
7.79998e-05
7.58792e-05
6.41164e-05
5.22994e-05
4.80765e-05
4.77947e-05
4.97761e-05
6.01317e-05
7.38886e-05
7.7999e-05
7.8e-05
7.8e-05
7.8e-05
7.8e-05
7.8e-05
7.8e-05
7.8e-05
7.8e-05
7.8e-05
7.8e-05
7.8e-05
7.8e-05
7.8e-05
7.8e-05
7.8e-05
7.8e-05
7.8e-05
7.8e-05
7.8e-05
7.8e-05
7.8e-05
7.8e-05
7.8e-05
7.8e-05
7.8e-05
7.8e-05
7.8e-05
7.8e-05
7.8e-05
7.8e-05
7.8e-05
7.8e-05
7.8e-05
7.8e-05
7.8e-05
7.8e-05
7.8e-05
7.8e-05
7.8e-05
7.8e-05
7.8e-05
7.8e-05
7.8e-05
7.8e-05
7.8e-05
7.8e-05
7.8e-05
7.8e-05
7.8e-05
7.8e-05
7.8e-05
7.8e-05
7.8e-05
7.8e-05
7.8e-05
7.8e-05
7.8e-05
7.8e-05
7.8e-05
7.8e-05
7.8e-05
7.8e-05
7.8e-05
7.8e-05
7.8e-05
7.8e-05
7.8e-05
7.8e-05
7.8e-05
7.8e-05
7.8e-05
7.8e-05
7.8e-05
7.8e-05
7.8e-05
7.8e-05
7.8e-05
7.8e-05
7.8e-05
7.8e-05
7.8e-05
7.8e-05
7.8e-05
7.8e-05
7.8e-05
7.8e-05
7.8e-05
7.8e-05
7.8e-05
7.8e-05
7.8e-05
7.8e-05
7.8e-05
7.8e-05
7.8e-05
7.8e-05
7.8e-05
7.8e-05
7.8e-05
7.8e-05
7.8e-05
7.8e-05
7.8e-05
7.8e-05
7.8e-05
7.8e-05
7.8e-05
7.8e-05
7.8e-05
7.8e-05
7.8e-05
7.8e-05
7.79996e-05
7.78913e-05
7.62896e-05
7.55375e-05
7.75228e-05
7.79971e-05
7.8e-05
7.8e-05
7.8e-05
7.8e-05
7.8e-05
7.8e-05
7.8e-05
7.8e-05
7.8e-05
7.8e-05
7.8e-05
7.8e-05
7.8e-05
7.8e-05
7.8e-05
7.8e-05
7.8e-05
7.8e-05
7.8e-05
7.8e-05
7.8e-05
7.8e-05
7.8e-05
7.8e-05
7.8e-05
7.8e-05
7.8e-05
7.8e-05
7.8e-05
7.8e-05
7.8e-05
7.8e-05
7.8e-05
7.8e-05
7.8e-05
7.8e-05
7.8e-05
7.8e-05
7.8e-05
7.8e-05
7.8e-05
7.8e-05
7.8e-05
7.8e-05
7.8e-05
7.8e-05
7.8e-05
7.8e-05
7.8e-05
7.8e-05
7.8e-05
7.8e-05
7.8e-05
7.8e-05
7.8e-05
7.8e-05
7.8e-05
7.8e-05
7.8e-05
7.8e-05
7.8e-05
7.8e-05
7.8e-05
7.8e-05
7.8e-05
7.8e-05
7.8e-05
7.8e-05
7.8e-05
7.8e-05
7.8e-05
7.8e-05
7.8e-05
7.8e-05
7.8e-05
7.8e-05
7.8e-05
7.8e-05
7.8e-05
7.8e-05
7.8e-05
7.8e-05
7.8e-05
7.8e-05
7.8e-05
7.8e-05
7.8e-05
7.8e-05
7.8e-05
7.8e-05
7.8e-05
7.8e-05
7.8e-05
7.8e-05
7.8e-05
7.8e-05
7.8e-05
7.8e-05
7.8e-05
7.8e-05
7.8e-05
7.8e-05
7.8e-05
7.8e-05
7.8e-05
7.8e-05
7.8e-05
7.8e-05
7.8e-05
7.8e-05
7.8e-05
7.8e-05
7.8e-05
7.8e-05
7.8e-05
7.8e-05
7.8e-05
7.8e-05
7.8e-05
7.8e-05
7.8e-05
7.8e-05
7.8e-05
7.8e-05
7.8e-05
7.8e-05
7.8e-05
7.8e-05
7.8e-05
7.8e-05
7.8e-05
7.8e-05
7.8e-05
7.8e-05
7.8e-05
7.8e-05
7.8e-05
7.8e-05
7.8e-05
7.8e-05
7.8e-05
7.8e-05
7.8e-05
7.8e-05
7.8e-05
7.8e-05
7.8e-05
7.8e-05
7.8e-05
7.8e-05
7.8e-05
7.8e-05
7.8e-05
7.8e-05
7.8e-05
7.8e-05
7.8e-05
7.8e-05
7.8e-05
7.8e-05
7.8e-05
7.8e-05
7.8e-05
7.8e-05
7.8e-05
7.8e-05
7.8e-05
7.8e-05
7.8e-05
7.8e-05
7.8e-05
7.8e-05
7.8e-05
7.8e-05
7.8e-05
7.8e-05
7.8e-05
7.8e-05
7.8e-05
7.8e-05
7.8e-05
7.8e-05
7.8e-05
7.8e-05
7.8e-05
7.8e-05
7.8e-05
7.8e-05
7.8e-05
7.8e-05
7.8e-05
7.8e-05
7.8e-05
7.8e-05
7.8e-05
7.8e-05
7.8e-05
7.8e-05
7.8e-05
7.8e-05
7.8e-05
7.8e-05
7.8e-05
7.8e-05
7.8e-05
7.8e-05
7.8e-05
7.8e-05
7.8e-05
7.8e-05
7.8e-05
7.8e-05
7.8e-05
7.8e-05
7.8e-05
7.8e-05
7.8e-05
7.8e-05
7.8e-05
7.8e-05
7.8e-05
7.8e-05
7.8e-05
7.8e-05
7.8e-05
7.8e-05
7.8e-05
7.8e-05
7.8e-05
7.8e-05
7.8e-05
7.8e-05
7.8e-05
7.8e-05
7.8e-05
7.8e-05
7.8e-05
7.8e-05
7.8e-05
7.8e-05
7.8e-05
7.8e-05
7.8e-05
7.8e-05
7.8e-05
7.8e-05
7.8e-05
7.8e-05
7.8e-05
7.8e-05
7.8e-05
7.8e-05
7.8e-05
7.8e-05
7.8e-05
7.8e-05
7.8e-05
7.8e-05
7.8e-05
7.8e-05
7.8e-05
7.8e-05
7.8e-05
7.8e-05
7.8e-05
7.8e-05
7.8e-05
7.8e-05
7.8e-05
7.8e-05
7.8e-05
7.8e-05
7.8e-05
7.8e-05
7.8e-05
7.8e-05
7.8e-05
7.8e-05
7.8e-05
7.8e-05
7.8e-05
7.8e-05
7.8e-05
7.8e-05
7.8e-05
7.8e-05
7.8e-05
7.8e-05
7.8e-05
7.8e-05
7.8e-05
7.8e-05
7.8e-05
7.8e-05
7.8e-05
7.8e-05
7.8e-05
7.8e-05
7.8e-05
7.8e-05
7.8e-05
7.8e-05
7.8e-05
7.8e-05
7.8e-05
7.8e-05
7.8e-05
7.8e-05
7.8e-05
7.8e-05
7.8e-05
7.8e-05
7.8e-05
7.8e-05
7.8e-05
7.8e-05
7.8e-05
7.8e-05
7.8e-05
7.8e-05
7.8e-05
7.8e-05
7.8e-05
7.8e-05
7.8e-05
7.8e-05
7.8e-05
7.8e-05
7.8e-05
7.8e-05
7.8e-05
7.8e-05
7.8e-05
7.8e-05
7.8e-05
7.8e-05
7.8e-05
7.8e-05
7.8e-05
7.8e-05
7.8e-05
7.8e-05
7.8e-05
7.8e-05
7.8e-05
7.8e-05
7.8e-05
7.8e-05
7.8e-05
7.8e-05
7.8e-05
7.8e-05
7.8e-05
7.8e-05
7.8e-05
7.8e-05
7.8e-05
7.8e-05
7.8e-05
7.8e-05
7.8e-05
7.8e-05
7.8e-05
7.8e-05
7.8e-05
7.8e-05
7.8e-05
7.8e-05
7.8e-05
7.8e-05
7.8e-05
7.8e-05
7.8e-05
7.8e-05
7.8e-05
7.8e-05
7.8e-05
7.8e-05
7.8e-05
7.8e-05
7.8e-05
7.8e-05
7.8e-05
7.8e-05
7.8e-05
7.8e-05
7.8e-05
7.8e-05
7.8e-05
7.8e-05
7.8e-05
7.8e-05
7.8e-05
7.8e-05
7.8e-05
7.8e-05
7.8e-05
7.8e-05
7.8e-05
7.8e-05
7.8e-05
7.8e-05
7.8e-05
7.8e-05
7.8e-05
7.8e-05
7.8e-05
7.8e-05
7.8e-05
7.8e-05
7.8e-05
7.8e-05
7.8e-05
7.8e-05
7.8e-05
7.8e-05
7.8e-05
7.8e-05
7.8e-05
7.8e-05
7.8e-05
7.8e-05
7.8e-05
7.8e-05
7.8e-05
7.8e-05
7.8e-05
7.8e-05
7.8e-05
7.8e-05
7.8e-05
7.8e-05
7.8e-05
7.8e-05
7.8e-05
7.8e-05
7.8e-05
7.8e-05
7.8e-05
7.8e-05
7.8e-05
7.8e-05
7.8e-05
7.8e-05
7.8e-05
7.8e-05
7.8e-05
7.8e-05
7.8e-05
7.8e-05
7.8e-05
7.8e-05
7.8e-05
7.8e-05
7.8e-05
7.8e-05
7.8e-05
7.8e-05
7.8e-05
7.8e-05
7.8e-05
7.8e-05
7.8e-05
7.8e-05
7.8e-05
7.8e-05
7.8e-05
7.8e-05
7.8e-05
7.8e-05
7.8e-05
7.8e-05
7.8e-05
7.8e-05
7.8e-05
7.8e-05
7.8e-05
7.8e-05
7.8e-05
7.8e-05
7.8e-05
7.8e-05
7.8e-05
7.8e-05
7.8e-05
7.8e-05
7.8e-05
7.8e-05
7.8e-05
7.8e-05
7.8e-05
7.8e-05
7.8e-05
7.8e-05
7.8e-05
7.8e-05
7.8e-05
7.8e-05
7.8e-05
7.8e-05
7.8e-05
7.8e-05
7.8e-05
7.8e-05
7.8e-05
7.8e-05
7.8e-05
7.8e-05
7.8e-05
7.8e-05
7.8e-05
7.8e-05
7.8e-05
7.8e-05
7.8e-05
7.8e-05
7.8e-05
7.8e-05
7.8e-05
7.8e-05
7.8e-05
7.8e-05
7.8e-05
7.8e-05
7.8e-05
7.8e-05
7.8e-05
7.8e-05
7.8e-05
7.8e-05
7.8e-05
7.8e-05
7.8e-05
7.8e-05
7.8e-05
7.8e-05
7.8e-05
7.8e-05
7.8e-05
7.8e-05
7.8e-05
7.8e-05
7.8e-05
7.8e-05
7.8e-05
7.8e-05
7.8e-05
7.8e-05
7.8e-05
7.8e-05
7.8e-05
7.8e-05
7.8e-05
7.8e-05
7.8e-05
7.8e-05
7.8e-05
7.8e-05
7.8e-05
7.8e-05
7.8e-05
7.8e-05
7.8e-05
7.8e-05
7.8e-05
7.8e-05
7.8e-05
7.8e-05
7.8e-05
7.8e-05
7.8e-05
7.8e-05
7.8e-05
7.8e-05
7.8e-05
7.8e-05
7.8e-05
7.8e-05
7.8e-05
7.8e-05
7.8e-05
7.8e-05
7.8e-05
7.8e-05
7.8e-05
7.8e-05
7.8e-05
7.8e-05
7.8e-05
7.8e-05
7.8e-05
7.8e-05
7.8e-05
7.8e-05
7.8e-05
7.8e-05
7.8e-05
7.8e-05
7.8e-05
7.8e-05
7.8e-05
7.8e-05
7.8e-05
7.8e-05
7.8e-05
7.8e-05
7.8e-05
7.8e-05
7.8e-05
7.8e-05
7.8e-05
7.8e-05
7.8e-05
7.8e-05
7.8e-05
7.8e-05
7.8e-05
7.8e-05
7.8e-05
7.8e-05
7.8e-05
7.8e-05
7.8e-05
7.8e-05
7.8e-05
7.8e-05
7.8e-05
7.8e-05
7.8e-05
7.8e-05
7.8e-05
7.8e-05
7.8e-05
7.8e-05
7.8e-05
7.8e-05
7.8e-05
7.8e-05
7.8e-05
7.8e-05
7.8e-05
7.8e-05
7.8e-05
7.8e-05
7.8e-05
7.8e-05
7.8e-05
7.8e-05
7.8e-05
7.8e-05
7.8e-05
7.8e-05
7.8e-05
7.8e-05
7.8e-05
7.8e-05
7.8e-05
7.8e-05
7.8e-05
7.8e-05
7.8e-05
7.8e-05
7.8e-05
7.8e-05
7.8e-05
7.8e-05
7.8e-05
7.8e-05
7.8e-05
7.8e-05
7.8e-05
7.8e-05
7.8e-05
7.8e-05
7.8e-05
7.8e-05
7.8e-05
7.8e-05
7.8e-05
7.8e-05
7.8e-05
7.8e-05
7.8e-05
7.8e-05
7.8e-05
7.8e-05
7.8e-05
7.8e-05
7.8e-05
7.8e-05
7.8e-05
7.8e-05
7.8e-05
7.8e-05
7.8e-05
7.8e-05
7.8e-05
7.8e-05
7.8e-05
7.8e-05
7.8e-05
7.8e-05
7.8e-05
7.8e-05
7.8e-05
7.8e-05
7.8e-05
7.8e-05
7.8e-05
7.8e-05
7.8e-05
7.8e-05
7.8e-05
7.8e-05
7.8e-05
7.8e-05
7.8e-05
7.8e-05
7.8e-05
7.8e-05
7.8e-05
7.8e-05
7.8e-05
7.8e-05
7.8e-05
7.8e-05
7.8e-05
7.8e-05
7.8e-05
7.8e-05
7.8e-05
7.8e-05
7.8e-05
7.8e-05
7.8e-05
7.8e-05
7.8e-05
7.8e-05
7.8e-05
7.8e-05
7.8e-05
7.8e-05
7.8e-05
7.8e-05
7.8e-05
7.8e-05
7.8e-05
7.8e-05
7.8e-05
7.8e-05
7.8e-05
7.8e-05
7.8e-05
7.8e-05
7.8e-05
7.8e-05
7.8e-05
7.8e-05
7.8e-05
7.8e-05
7.8e-05
7.8e-05
7.8e-05
7.8e-05
7.8e-05
7.8e-05
7.8e-05
7.8e-05
7.8e-05
7.8e-05
7.8e-05
7.8e-05
7.8e-05
7.8e-05
7.8e-05
7.8e-05
7.8e-05
7.8e-05
7.8e-05
7.8e-05
7.8e-05
7.8e-05
7.8e-05
7.8e-05
7.8e-05
7.8e-05
7.8e-05
7.8e-05
7.8e-05
7.8e-05
7.8e-05
7.8e-05
7.8e-05
7.8e-05
7.8e-05
7.8e-05
7.8e-05
7.8e-05
7.8e-05
7.8e-05
7.8e-05
7.8e-05
7.8e-05
7.8e-05
7.8e-05
7.8e-05
7.8e-05
7.8e-05
7.8e-05
7.8e-05
7.8e-05
7.8e-05
7.8e-05
7.8e-05
7.8e-05
7.8e-05
7.8e-05
7.8e-05
7.8e-05
7.8e-05
7.8e-05
7.8e-05
7.8e-05
7.8e-05
7.8e-05
7.8e-05
7.8e-05
7.8e-05
7.8e-05
7.8e-05
7.8e-05
7.8e-05
7.8e-05
7.8e-05
7.8e-05
7.8e-05
7.8e-05
7.8e-05
7.8e-05
7.8e-05
7.8e-05
7.8e-05
7.8e-05
7.8e-05
7.8e-05
7.8e-05
7.8e-05
7.8e-05
7.8e-05
7.8e-05
7.8e-05
7.8e-05
7.8e-05
7.8e-05
7.8e-05
7.8e-05
7.8e-05
7.8e-05
7.8e-05
7.8e-05
7.8e-05
7.8e-05
7.8e-05
7.8e-05
7.8e-05
7.8e-05
7.8e-05
7.8e-05
7.8e-05
7.8e-05
7.8e-05
7.8e-05
7.8e-05
7.8e-05
7.8e-05
7.8e-05
7.8e-05
7.8e-05
7.8e-05
7.8e-05
7.8e-05
7.8e-05
7.8e-05
7.8e-05
7.8e-05
7.8e-05
7.8e-05
7.8e-05
7.8e-05
7.8e-05
7.8e-05
7.8e-05
7.8e-05
7.8e-05
7.8e-05
7.8e-05
7.8e-05
7.8e-05
7.8e-05
7.8e-05
7.8e-05
7.8e-05
7.8e-05
7.8e-05
7.8e-05
7.8e-05
7.8e-05
7.8e-05
7.8e-05
7.8e-05
7.8e-05
7.8e-05
7.8e-05
7.8e-05
7.8e-05
7.8e-05
7.8e-05
7.8e-05
7.8e-05
7.8e-05
7.8e-05
7.8e-05
7.8e-05
7.8e-05
7.8e-05
7.8e-05
7.8e-05
7.8e-05
7.8e-05
7.8e-05
7.8e-05
7.8e-05
7.8e-05
7.8e-05
7.8e-05
7.8e-05
7.8e-05
7.8e-05
7.8e-05
7.8e-05
7.8e-05
7.8e-05
7.8e-05
7.8e-05
7.8e-05
7.8e-05
7.8e-05
7.8e-05
7.8e-05
7.8e-05
7.8e-05
7.8e-05
7.8e-05
7.8e-05
7.8e-05
7.8e-05
7.8e-05
7.8e-05
7.8e-05
7.8e-05
7.8e-05
7.8e-05
7.8e-05
7.8e-05
7.8e-05
7.8e-05
7.8e-05
7.8e-05
7.8e-05
7.8e-05
7.8e-05
7.8e-05
7.8e-05
7.8e-05
7.8e-05
7.8e-05
7.8e-05
7.8e-05
7.8e-05
7.8e-05
7.8e-05
7.8e-05
7.8e-05
7.8e-05
7.8e-05
7.8e-05
7.8e-05
7.8e-05
7.8e-05
7.8e-05
7.8e-05
7.8e-05
7.8e-05
7.8e-05
7.8e-05
7.8e-05
7.8e-05
7.8e-05
7.8e-05
7.8e-05
7.8e-05
7.8e-05
7.8e-05
7.8e-05
7.8e-05
7.8e-05
7.8e-05
7.8e-05
7.8e-05
7.8e-05
7.8e-05
7.8e-05
7.8e-05
7.8e-05
7.8e-05
7.8e-05
7.8e-05
7.8e-05
7.8e-05
7.8e-05
7.8e-05
7.8e-05
7.8e-05
7.8e-05
7.8e-05
7.8e-05
7.8e-05
7.8e-05
7.8e-05
7.8e-05
7.8e-05
7.8e-05
7.8e-05
7.8e-05
7.8e-05
7.8e-05
7.8e-05
7.8e-05
7.8e-05
7.8e-05
7.8e-05
7.8e-05
7.8e-05
7.8e-05
7.8e-05
7.8e-05
7.8e-05
7.8e-05
7.8e-05
7.8e-05
7.8e-05
7.8e-05
7.8e-05
7.8e-05
7.8e-05
7.8e-05
7.8e-05
7.8e-05
7.8e-05
7.8e-05
7.8e-05
7.8e-05
7.8e-05
7.8e-05
7.8e-05
7.8e-05
7.8e-05
7.8e-05
7.8e-05
7.8e-05
7.8e-05
7.8e-05
7.8e-05
7.8e-05
7.8e-05
7.8e-05
7.8e-05
7.8e-05
7.8e-05
7.8e-05
7.8e-05
7.8e-05
7.8e-05
7.8e-05
7.8e-05
7.8e-05
7.8e-05
7.8e-05
7.8e-05
7.8e-05
7.8e-05
7.8e-05
7.8e-05
7.8e-05
7.8e-05
7.8e-05
7.8e-05
7.8e-05
7.8e-05
7.8e-05
7.8e-05
7.8e-05
7.8e-05
7.8e-05
7.8e-05
7.8e-05
7.8e-05
7.8e-05
7.8e-05
7.8e-05
7.8e-05
7.8e-05
7.8e-05
7.8e-05
7.8e-05
7.8e-05
7.8e-05
7.8e-05
7.8e-05
7.8e-05
7.8e-05
7.8e-05
7.8e-05
7.8e-05
7.8e-05
7.8e-05
7.8e-05
7.8e-05
7.8e-05
7.8e-05
7.8e-05
7.8e-05
7.8e-05
7.8e-05
7.8e-05
7.8e-05
7.8e-05
7.8e-05
7.8e-05
7.8e-05
7.8e-05
7.8e-05
7.8e-05
7.8e-05
7.8e-05
7.8e-05
7.8e-05
7.8e-05
7.8e-05
7.8e-05
7.8e-05
7.8e-05
7.8e-05
7.8e-05
7.8e-05
7.8e-05
7.8e-05
7.8e-05
7.8e-05
7.8e-05
7.8e-05
7.8e-05
7.8e-05
7.8e-05
7.8e-05
7.8e-05
7.8e-05
7.8e-05
7.8e-05
7.8e-05
7.8e-05
7.8e-05
7.8e-05
7.8e-05
7.8e-05
7.8e-05
7.8e-05
7.8e-05
7.8e-05
7.8e-05
7.8e-05
7.8e-05
7.8e-05
7.8e-05
7.8e-05
7.8e-05
7.8e-05
7.8e-05
7.8e-05
7.8e-05
7.8e-05
7.8e-05
7.8e-05
7.8e-05
7.8e-05
7.8e-05
7.8e-05
7.8e-05
7.8e-05
7.8e-05
7.8e-05
7.8e-05
7.8e-05
7.8e-05
7.8e-05
7.8e-05
7.8e-05
7.8e-05
7.8e-05
7.8e-05
7.8e-05
7.8e-05
7.8e-05
7.8e-05
7.8e-05
7.8e-05
7.8e-05
7.8e-05
7.8e-05
7.8e-05
7.8e-05
7.8e-05
7.8e-05
7.8e-05
7.8e-05
7.8e-05
7.8e-05
7.8e-05
7.8e-05
7.8e-05
7.8e-05
7.8e-05
7.8e-05
7.8e-05
7.8e-05
7.8e-05
7.8e-05
7.8e-05
7.8e-05
7.8e-05
7.8e-05
7.8e-05
7.8e-05
7.8e-05
7.8e-05
7.8e-05
7.8e-05
7.8e-05
7.8e-05
7.8e-05
7.8e-05
7.8e-05
7.8e-05
7.8e-05
7.8e-05
7.8e-05
7.8e-05
7.8e-05
7.8e-05
7.8e-05
7.8e-05
7.8e-05