/*--------------------------------*- C++ -*----------------------------------*\
| =========                 |                                                 |
| \\      /  F ield         | OpenFOAM: The Open Source CFD Toolbox           |
|  \\    /   O peration     | Version:  2406                                  |
|   \\  /    A nd           | Website:  www.openfoam.com                      |
|    \\/     M anipulation  |                                                 |
\*---------------------------------------------------------------------------*/
FoamFile
{
    version     2.0;
    format      ascii;
    arch        "LSB;label=32;scalar=64";
    class       volScalarField;
    location    "2.5";
    object      C;
}
// * * * * * * * * * * * * * * * * * * * * * * * * * * * * * * * * * * * * * //

dimensions      [1 -3 0 0 0 0 0];

internalField   nonuniform List<scalar> 
14400
(
1.04602
1.03785
1.01482
0.980021
0.94847
0.925344
0.912556
0.910989
0.920973
0.942369
0.97448
1.01552
1.0603
1.09148
1.1071
1.1159
1.11842
1.11448
1.10285
1.07569
1.03931
1.00958
0.990535
0.983922
0.990645
1.01116
1.04553
1.09334
1.15324
1.22123
1.27428
1.30832
1.33631
1.36077
1.38227
1.40121
1.41791
1.4326
1.44547
1.45667
1.46631
1.47448
1.48127
1.48672
1.4909
1.49382
1.49553
1.49604
1.49535
1.49347
1.4904
1.48612
1.48061
1.47385
1.46579
1.45639
1.44558
1.4333
1.41945
1.40393
1.38658
1.36726
1.34574
1.32176
1.29498
1.26497
1.23118
1.18634
1.11979
1.04307
0.974922
0.918134
0.873356
0.840701
0.820101
0.811409
0.814421
0.828869
0.854399
0.89048
0.936136
0.988712
1.03186
1.05733
1.07396
1.08531
1.09199
1.09433
1.09245
1.08627
1.07551
1.05954
1.03157
0.989521
0.947108
0.912646
0.888195
0.874488
0.871534
0.878706
0.894628
0.916725
0.937667
0.945704
0.937689
0.916683
0.894431
0.878358
0.871068
0.873963
0.887695
0.912277
0.946995
0.989803
1.03218
1.06053
1.07721
1.08901
1.09658
1.10028
1.05414
1.04721
1.03084
1
0.966909
0.942668
0.929223
0.927434
0.937646
0.959703
0.992951
1.03559
1.07547
1.09949
1.1138
1.12218
1.12489
1.12182
1.1125
1.09246
1.05893
1.02796
1.00786
1.00066
1.00722
1.02801
1.06307
1.11193
1.1727
1.23635
1.28136
1.31262
1.33983
1.36374
1.38482
1.40345
1.41991
1.43442
1.44714
1.45822
1.46777
1.47587
1.4826
1.48801
1.49214
1.49504
1.49673
1.49723
1.49654
1.49466
1.49161
1.48735
1.48187
1.47514
1.46713
1.45779
1.44706
1.43487
1.42113
1.40574
1.38857
1.36945
1.3482
1.32455
1.29821
1.26875
1.2356
1.1959
1.13715
1.06099
0.992004
0.93434
0.888849
0.855677
0.834788
0.826061
0.829297
0.84421
0.870419
0.907324
0.953631
1.00507
1.04186
1.0636
1.07924
1.08998
1.09633
1.09854
1.09674
1.09087
1.0807
1.06579
1.04375
1.00786
0.96486
0.929498
0.904409
0.890553
0.888002
0.896135
0.913394
0.936712
0.954188
0.958781
0.954146
0.936635
0.913165
0.895734
0.887457
0.889926
0.903782
0.928976
0.964553
1.00786
1.04398
1.06646
1.08208
1.09324
1.10044
1.10398
1.0692
1.06395
1.05357
1.03339
1.00192
0.976611
0.962127
0.959933
0.970558
0.993627
1.02787
1.06867
1.09673
1.11396
1.12641
1.13412
1.13713
1.13541
1.12884
1.1172
1.09466
1.06359
1.04194
1.03377
1.04
1.06132
1.09758
1.14821
1.20909
1.25769
1.29182
1.32093
1.34668
1.36952
1.38983
1.40787
1.42387
1.43802
1.45046
1.46131
1.47068
1.47863
1.48524
1.49056
1.49463
1.49747
1.49913
1.4996
1.49891
1.49705
1.49401
1.48979
1.48437
1.47772
1.4698
1.46058
1.45
1.43798
1.42446
1.40934
1.39249
1.37378
1.35304
1.33005
1.30456
1.27622
1.24464
1.20929
1.16306
1.09601
1.02582
0.966617
0.919808
0.885628
0.864156
0.855355
0.859035
0.874852
0.902345
0.940793
0.988338
1.03077
1.05707
1.07552
1.0894
1.09906
1.10479
1.10678
1.1051
1.09976
1.09065
1.07759
1.06039
1.0353
0.998472
0.962481
0.936281
0.922156
0.920339
0.930238
0.94917
0.968696
0.978083
0.980547
0.977958
0.96849
0.948884
0.929731
0.919634
0.92132
0.935398
0.961662
0.997816
1.03469
1.06002
1.07769
1.09141
1.10143
1.10798
1.11121
1.08952
1.0858
1.07866
1.06882
1.05037
1.02576
1.01027
1.0075
1.01873
1.04276
1.07645
1.10267
1.11932
1.13319
1.14375
1.15076
1.15412
1.15384
1.15003
1.14303
1.13293
1.11426
1.09145
1.08243
1.08806
1.11019
1.14757
1.19917
1.24385
1.27716
1.3062
1.33259
1.35642
1.37785
1.39709
1.41432
1.42968
1.44333
1.45537
1.4659
1.475
1.48274
1.48918
1.49436
1.49833
1.5011
1.5027
1.50315
1.50245
1.5006
1.4976
1.49344
1.4881
1.48156
1.47378
1.46473
1.45436
1.4426
1.4294
1.41466
1.39828
1.38015
1.36013
1.33806
1.31374
1.28695
1.25745
1.22501
1.1894
1.14104
1.07458
1.0145
0.966123
0.930499
0.908131
0.899207
0.903553
0.920619
0.949623
0.988755
1.0303
1.05797
1.07673
1.09203
1.10378
1.11207
1.117
1.11867
1.11713
1.11242
1.10454
1.09352
1.0795
1.06294
1.03959
1.00946
0.982378
0.96803
0.967005
0.978732
0.993241
1.0024
1.00607
1.00736
1.00587
1.00199
0.992693
0.97804
0.966043
0.966872
0.981095
1.00817
1.03818
1.06158
1.07844
1.09286
1.10444
1.1131
1.11883
1.12168
1.11355
1.11105
1.10638
1.10019
1.0934
1.08166
1.07046
1.06722
1.07898
1.09876
1.1181
1.13172
1.14452
1.15571
1.16466
1.17104
1.17474
1.17579
1.17441
1.17106
1.16657
1.16121
1.15139
1.14429
1.14875
1.17211
1.20783
1.24307
1.27143
1.29794
1.32324
1.34683
1.36855
1.38838
1.40637
1.42262
1.43722
1.45024
1.46178
1.4719
1.48067
1.48815
1.49438
1.49939
1.50322
1.50589
1.50743
1.50784
1.50713
1.5053
1.50235
1.49827
1.49304
1.48664
1.47904
1.47021
1.4601
1.44868
1.43587
1.42161
1.40582
1.38841
1.36928
1.34831
1.32538
1.30039
1.27321
1.24383
1.21233
1.17896
1.1341
1.07678
1.0274
0.989973
0.966371
0.957263
0.962513
0.980968
1.01077
1.04439
1.0689
1.08529
1.09987
1.11207
1.12163
1.12843
1.13247
1.13376
1.13234
1.12825
1.12157
1.11245
1.10115
1.0882
1.07444
1.05736
1.03847
1.025
1.02368
1.02863
1.03298
1.03485
1.03644
1.03697
1.03616
1.03428
1.03212
1.02756
1.02234
1.02341
1.03663
1.05532
1.07229
1.08615
1.09928
1.11086
1.12041
1.12768
1.13256
1.135
1.14007
1.13849
1.1356
1.13195
1.12839
1.12608
1.12351
1.12404
1.13172
1.14178
1.15106
1.16126
1.17133
1.18046
1.18813
1.19402
1.19802
1.20018
1.20076
1.20022
1.19932
1.19917
1.20091
1.2027
1.21115
1.23048
1.25348
1.27499
1.29735
1.31994
1.34197
1.36293
1.38256
1.40073
1.41741
1.43259
1.44632
1.45864
1.46961
1.47926
1.48765
1.49481
1.50078
1.50559
1.50927
1.51183
1.51329
1.51365
1.51293
1.51113
1.50824
1.50424
1.49914
1.49291
1.48552
1.47696
1.46717
1.45613
1.44379
1.43009
1.41498
1.39839
1.38025
1.36051
1.33911
1.316
1.29119
1.26476
1.23695
1.20815
1.17898
1.14249
1.10098
1.06247
1.03766
1.02828
1.03436
1.05303
1.07336
1.09034
1.10249
1.11443
1.12538
1.13476
1.14222
1.14757
1.15069
1.15157
1.15021
1.14667
1.14105
1.13354
1.12445
1.11425
1.10366
1.09362
1.08401
1.07522
1.07117
1.06877
1.06755
1.06756
1.06787
1.06792
1.06751
1.06683
1.06646
1.0673
1.06938
1.0731
1.08156
1.09092
1.10087
1.11143
1.12168
1.13091
1.13866
1.14465
1.14871
1.15077
1.16818
1.16725
1.16559
1.16362
1.16195
1.16129
1.16239
1.16551
1.16967
1.17556
1.18287
1.19094
1.19906
1.20668
1.21337
1.21888
1.22312
1.22616
1.22823
1.22974
1.23133
1.23383
1.23827
1.24587
1.25692
1.27035
1.28614
1.304
1.32304
1.34251
1.36177
1.38038
1.39804
1.41459
1.42992
1.44401
1.45683
1.4684
1.47874
1.48788
1.49585
1.50266
1.50835
1.51293
1.51643
1.51886
1.52023
1.52055
1.51982
1.51804
1.51522
1.51133
1.50637
1.50033
1.49319
1.48492
1.4755
1.46489
1.45306
1.43998
1.42561
1.40991
1.39284
1.37439
1.35453
1.3333
1.31077
1.2871
1.26254
1.23753
1.21268
1.18881
1.16364
1.13799
1.11753
1.10765
1.10809
1.11469
1.12158
1.12826
1.13625
1.14457
1.15245
1.15937
1.16494
1.16891
1.17116
1.17162
1.17027
1.16717
1.16242
1.15622
1.14885
1.14071
1.13232
1.1243
1.11721
1.11135
1.10625
1.10283
1.10089
1.09997
1.09957
1.09932
1.09912
1.09909
1.09957
1.10106
1.10405
1.10872
1.11423
1.12103
1.12882
1.13705
1.14509
1.15242
1.15867
1.16355
1.16689
1.16858
1.19721
1.19672
1.19589
1.19501
1.19448
1.19474
1.19619
1.19896
1.20284
1.2079
1.21393
1.22055
1.22731
1.23383
1.23979
1.24501
1.24943
1.25311
1.25625
1.2592
1.26242
1.26653
1.27219
1.28
1.29013
1.3023
1.3163
1.33181
1.34831
1.36527
1.38221
1.39876
1.41463
1.42965
1.44369
1.45668
1.46859
1.47939
1.48908
1.49768
1.50519
1.51163
1.51702
1.52136
1.52467
1.52695
1.52823
1.52849
1.52775
1.52601
1.52325
1.51948
1.51469
1.50886
1.50198
1.49404
1.485
1.47486
1.46359
1.45117
1.43758
1.4228
1.40682
1.38965
1.37133
1.35191
1.33151
1.3103
1.28858
1.26674
1.24531
1.22496
1.20651
1.19079
1.17726
1.16784
1.16263
1.16029
1.16139
1.16485
1.1697
1.17513
1.1805
1.18532
1.18924
1.19199
1.19343
1.19346
1.19208
1.18931
1.18525
1.18008
1.17402
1.1674
1.16061
1.15404
1.14808
1.14293
1.13862
1.13539
1.13322
1.13187
1.13109
1.13069
1.13058
1.13084
1.13166
1.13333
1.13605
1.13987
1.14458
1.15015
1.15635
1.16284
1.16919
1.17503
1.18004
1.18399
1.1867
1.18809
1.22673
1.22653
1.22624
1.22604
1.22621
1.22701
1.22868
1.2313
1.23484
1.23926
1.2444
1.25001
1.25581
1.26153
1.26695
1.27195
1.27647
1.28059
1.28447
1.28837
1.29264
1.2977
1.30397
1.31179
1.3213
1.33241
1.34494
1.35863
1.37313
1.38806
1.40306
1.41781
1.43208
1.44569
1.45851
1.47045
1.48145
1.49148
1.50052
1.50856
1.51561
1.52166
1.52673
1.53081
1.53392
1.53606
1.53723
1.53744
1.53669
1.53498
1.53231
1.52866
1.52404
1.51844
1.51184
1.50424
1.49562
1.48597
1.47527
1.46353
1.45073
1.43688
1.42198
1.40608
1.38922
1.3715
1.35304
1.33403
1.31475
1.29555
1.27686
1.2592
1.24314
1.22921
1.21771
1.20886
1.20282
1.19956
1.19883
1.20005
1.20256
1.20575
1.2091
1.21219
1.21469
1.21638
1.21709
1.21673
1.21527
1.21273
1.2092
1.20481
1.19975
1.19428
1.18866
1.18319
1.17814
1.17367
1.16989
1.16691
1.16471
1.1632
1.16225
1.16175
1.16166
1.16201
1.16293
1.16453
1.16694
1.17015
1.17408
1.17862
1.1836
1.18877
1.19382
1.19847
1.20248
1.20566
1.20785
1.20897
1.25645
1.25644
1.25649
1.25672
1.25731
1.25842
1.2602
1.26272
1.26597
1.2699
1.27439
1.27929
1.28439
1.28953
1.29454
1.29935
1.30392
1.30832
1.31267
1.31716
1.32206
1.32764
1.33419
1.3419
1.35088
1.36109
1.37241
1.38464
1.39752
1.41078
1.42414
1.43735
1.4502
1.46253
1.47421
1.48515
1.49528
1.50456
1.51295
1.52044
1.52702
1.53268
1.53742
1.54124
1.54414
1.54613
1.5472
1.54735
1.54659
1.54492
1.54233
1.53882
1.53438
1.52901
1.52271
1.51546
1.50726
1.49811
1.488
1.47694
1.46494
1.452
1.43816
1.42346
1.40799
1.39182
1.37511
1.35804
1.34085
1.32384
1.30737
1.29183
1.27765
1.26518
1.25468
1.24633
1.24022
1.23629
1.23433
1.23396
1.23474
1.23621
1.23795
1.23964
1.24097
1.24175
1.24182
1.2411
1.23954
1.23715
1.23401
1.23021
1.22591
1.22129
1.21656
1.21194
1.20761
1.20372
1.20037
1.19763
1.19552
1.19398
1.19296
1.1924
1.19229
1.19263
1.1935
1.19494
1.19702
1.19971
1.20296
1.20666
1.21067
1.2148
1.21883
1.22255
1.22576
1.22831
1.23008
1.23098
1.28618
1.28629
1.28655
1.28704
1.28788
1.28916
1.29099
1.29341
1.29641
1.29997
1.30398
1.30835
1.31295
1.31764
1.32234
1.32698
1.33155
1.3361
1.34072
1.34556
1.3508
1.35663
1.36323
1.37075
1.37923
1.38867
1.39897
1.40999
1.42154
1.4334
1.44537
1.45724
1.46883
1.48001
1.49065
1.50066
1.50997
1.51852
1.52629
1.53324
1.53935
1.54462
1.54904
1.55259
1.55528
1.55711
1.55808
1.55818
1.55741
1.55578
1.55327
1.5499
1.54565
1.54052
1.53451
1.52762
1.51986
1.51121
1.50169
1.4913
1.48007
1.46802
1.45519
1.44163
1.42743
1.41269
1.39754
1.38216
1.36676
1.35159
1.33694
1.32312
1.31044
1.29917
1.2895
1.28158
1.27544
1.27105
1.26824
1.26674
1.26623
1.26638
1.26687
1.26743
1.26781
1.26783
1.26735
1.2663
1.26462
1.26233
1.25947
1.25611
1.25238
1.24841
1.24436
1.24038
1.23663
1.23322
1.23024
1.22774
1.22574
1.22424
1.22321
1.22261
1.22245
1.22274
1.22349
1.22473
1.22648
1.22871
1.23138
1.23439
1.23763
1.24094
1.24416
1.24713
1.2497
1.25175
1.25316
1.25389
1.31581
1.31599
1.31637
1.31702
1.31799
1.31937
1.3212
1.32351
1.32631
1.32957
1.33322
1.33719
1.3414
1.34576
1.35019
1.35468
1.3592
1.3638
1.36855
1.37356
1.37894
1.38484
1.39137
1.39862
1.40663
1.41539
1.42482
1.43482
1.44524
1.45592
1.46669
1.4774
1.48789
1.49803
1.50772
1.51687
1.5254
1.53328
1.54044
1.54687
1.55253
1.55741
1.56151
1.5648
1.56728
1.56896
1.56982
1.56987
1.56909
1.5675
1.56508
1.56185
1.55779
1.5529
1.5472
1.54067
1.53333
1.52518
1.51623
1.50651
1.49602
1.48482
1.47294
1.46045
1.44742
1.43396
1.4202
1.4063
1.39243
1.37882
1.36568
1.35328
1.34183
1.33154
1.32258
1.31503
1.30893
1.30424
1.30083
1.29851
1.29706
1.29621
1.29574
1.2954
1.295
1.29439
1.29346
1.29212
1.29033
1.28809
1.28542
1.28239
1.27909
1.27561
1.27208
1.26861
1.26532
1.2623
1.25962
1.25734
1.25548
1.25403
1.25301
1.25239
1.25218
1.25237
1.25298
1.25401
1.25545
1.25729
1.25946
1.2619
1.2645
1.26716
1.26974
1.27211
1.27417
1.27581
1.27694
1.27752
1.34526
1.34548
1.34593
1.34666
1.34771
1.34911
1.35091
1.35313
1.35575
1.35877
1.36214
1.3658
1.3697
1.37378
1.378
1.38233
1.38677
1.39135
1.39613
1.40117
1.40657
1.41241
1.41878
1.42573
1.43328
1.44142
1.4501
1.45922
1.46868
1.47835
1.48809
1.49778
1.50728
1.5165
1.52533
1.53368
1.54151
1.54874
1.55533
1.56126
1.56649
1.571
1.57478
1.57781
1.5801
1.58162
1.58238
1.58237
1.58159
1.58004
1.57772
1.57462
1.57075
1.56611
1.56071
1.55454
1.54762
1.53995
1.53156
1.52247
1.5127
1.5023
1.49131
1.47979
1.46784
1.45554
1.44301
1.4304
1.41786
1.40556
1.3937
1.38247
1.37205
1.3626
1.35423
1.34703
1.34101
1.33613
1.33232
1.32942
1.32728
1.32568
1.32446
1.32342
1.3224
1.32129
1.31998
1.31839
1.31649
1.31426
1.31174
1.30895
1.30597
1.30286
1.29973
1.29666
1.29374
1.29103
1.28862
1.28652
1.28478
1.28341
1.2824
1.28177
1.28149
1.28159
1.28205
1.28287
1.28403
1.28552
1.28728
1.28924
1.29133
1.29346
1.29552
1.29742
1.29906
1.30037
1.30127
1.30174
1.37449
1.37473
1.37522
1.37599
1.37706
1.37846
1.38021
1.38233
1.38481
1.38763
1.39076
1.39418
1.39783
1.40168
1.4057
1.40987
1.4142
1.41871
1.42344
1.42843
1.43375
1.43946
1.44561
1.45224
1.45935
1.46693
1.47493
1.48329
1.49191
1.5007
1.50954
1.51833
1.52697
1.53536
1.5434
1.55104
1.5582
1.56483
1.57089
1.57634
1.58116
1.58531
1.58879
1.59158
1.59367
1.59505
1.59571
1.59565
1.59487
1.59336
1.59113
1.58817
1.58449
1.58009
1.57497
1.56915
1.56264
1.55545
1.54759
1.5391
1.53001
1.52036
1.5102
1.49958
1.4886
1.47734
1.46591
1.45443
1.44303
1.43187
1.42109
1.41086
1.40131
1.39257
1.38473
1.37784
1.37193
1.36697
1.36289
1.35959
1.35694
1.35479
1.35299
1.35141
1.34991
1.34839
1.34676
1.34497
1.34296
1.34074
1.33831
1.3357
1.33296
1.33014
1.32732
1.32456
1.32193
1.31949
1.31728
1.31535
1.31372
1.31242
1.31143
1.31077
1.31044
1.31044
1.31076
1.31138
1.3123
1.31348
1.31488
1.31645
1.31812
1.31982
1.32146
1.32297
1.32428
1.32533
1.32605
1.32642
1.40348
1.40373
1.40423
1.40501
1.40608
1.40746
1.40915
1.41117
1.41351
1.41616
1.4191
1.42231
1.42575
1.4294
1.43324
1.43726
1.44146
1.44586
1.45048
1.45537
1.46055
1.46607
1.47197
1.47826
1.48495
1.49201
1.4994
1.50708
1.51497
1.52299
1.53105
1.53905
1.54691
1.55455
1.56189
1.56887
1.57542
1.5815
1.58706
1.59206
1.59649
1.60031
1.6035
1.60605
1.60795
1.60919
1.60976
1.60965
1.60887
1.6074
1.60526
1.60244
1.59894
1.59478
1.58995
1.58447
1.57834
1.5716
1.56426
1.55634
1.54788
1.53893
1.52953
1.51974
1.50965
1.49932
1.48886
1.47837
1.46797
1.45779
1.44794
1.43857
1.42976
1.42164
1.41426
1.40768
1.40191
1.39693
1.39269
1.38911
1.3861
1.38353
1.38131
1.37931
1.37744
1.3756
1.37372
1.37175
1.36966
1.36743
1.36507
1.36259
1.36003
1.35743
1.35485
1.35233
1.34993
1.3477
1.34567
1.34388
1.34235
1.3411
1.34013
1.33946
1.33907
1.33897
1.33915
1.3396
1.3403
1.34122
1.34232
1.34356
1.34488
1.34623
1.34753
1.34873
1.34977
1.3506
1.35118
1.35147
1.43222
1.43247
1.43298
1.43375
1.4348
1.43613
1.43776
1.43969
1.44191
1.44441
1.44718
1.45021
1.45346
1.45693
1.4606
1.46446
1.46851
1.47278
1.47726
1.482
1.487
1.49231
1.49794
1.50389
1.51016
1.51675
1.5236
1.53067
1.53791
1.54524
1.5526
1.5599
1.56707
1.57404
1.58075
1.58712
1.59312
1.59868
1.60377
1.60837
1.61242
1.61592
1.61884
1.62117
1.62289
1.624
1.62448
1.62433
1.62355
1.62213
1.62007
1.61738
1.61407
1.61013
1.60557
1.60042
1.59467
1.58836
1.58149
1.57411
1.56625
1.55795
1.54925
1.54022
1.53092
1.52143
1.51183
1.50222
1.49269
1.48336
1.47433
1.46569
1.45754
1.44996
1.44301
1.43672
1.4311
1.42615
1.42182
1.41807
1.4148
1.41194
1.4094
1.40709
1.40493
1.40284
1.40077
1.39866
1.3965
1.39425
1.39194
1.38956
1.38714
1.38471
1.38231
1.37999
1.37777
1.3757
1.37382
1.37214
1.37069
1.36949
1.36854
1.36784
1.36741
1.36722
1.36728
1.36758
1.36808
1.36878
1.36962
1.37059
1.37162
1.37268
1.37371
1.37465
1.37548
1.37613
1.37658
1.37682
1.4607
1.46095
1.46145
1.46221
1.46323
1.46452
1.46608
1.46791
1.47002
1.47239
1.47501
1.47787
1.48096
1.48426
1.48776
1.49146
1.49536
1.49947
1.5038
1.50835
1.51316
1.51823
1.52357
1.52919
1.53508
1.54121
1.54757
1.5541
1.56075
1.56748
1.57421
1.58088
1.58744
1.5938
1.59993
1.60576
1.61124
1.61633
1.621
1.6252
1.62892
1.63212
1.63478
1.6369
1.63845
1.63943
1.63983
1.63964
1.63886
1.63748
1.63552
1.63296
1.62982
1.62609
1.6218
1.61695
1.61157
1.60566
1.59925
1.59237
1.58506
1.57736
1.5693
1.56096
1.55238
1.54364
1.53481
1.52598
1.51723
1.50864
1.50031
1.49232
1.48475
1.47765
1.47108
1.46507
1.45963
1.45474
1.45039
1.44653
1.4431
1.44004
1.43727
1.43473
1.43235
1.43007
1.42784
1.42563
1.4234
1.42115
1.41887
1.41656
1.41425
1.41195
1.4097
1.40753
1.40546
1.40353
1.40176
1.40018
1.3988
1.39763
1.39669
1.39598
1.39549
1.39523
1.39518
1.39534
1.39567
1.39618
1.39681
1.39755
1.39834
1.39916
1.39996
1.4007
1.40134
1.40186
1.40221
1.4024
1.48894
1.48918
1.48967
1.4904
1.49139
1.49262
1.49412
1.49587
1.49787
1.50011
1.5026
1.50531
1.50825
1.51139
1.51473
1.51827
1.52201
1.52595
1.5301
1.53446
1.53905
1.54388
1.54894
1.55423
1.55974
1.56546
1.57136
1.57739
1.58352
1.5897
1.59587
1.60199
1.60798
1.61381
1.61941
1.62474
1.62975
1.63441
1.63868
1.64253
1.64592
1.64884
1.65127
1.65319
1.65459
1.65545
1.65577
1.65554
1.65476
1.65343
1.65155
1.64912
1.64614
1.64263
1.63859
1.63403
1.62898
1.62345
1.61747
1.61106
1.60427
1.59711
1.58965
1.58193
1.57401
1.56594
1.5578
1.54966
1.54159
1.53367
1.52596
1.51854
1.51148
1.50482
1.4986
1.49285
1.48759
1.4828
1.47847
1.47456
1.47103
1.46783
1.46491
1.4622
1.45966
1.45724
1.45491
1.45261
1.45034
1.44808
1.44582
1.44357
1.44135
1.43915
1.43702
1.43496
1.43301
1.43119
1.42951
1.42801
1.42668
1.42555
1.42461
1.42388
1.42335
1.42302
1.42288
1.42291
1.42311
1.42344
1.4239
1.42444
1.42504
1.42566
1.42627
1.42684
1.42734
1.42774
1.42802
1.42816
1.51694
1.51717
1.51764
1.51835
1.51929
1.52048
1.5219
1.52357
1.52547
1.5276
1.52996
1.53254
1.53532
1.53831
1.5415
1.54488
1.54845
1.55221
1.55618
1.56034
1.56471
1.56928
1.57406
1.57904
1.5842
1.58954
1.59501
1.60059
1.60625
1.61193
1.6176
1.62321
1.6287
1.63403
1.63916
1.64403
1.64862
1.65288
1.65679
1.6603
1.6634
1.66606
1.66827
1.67
1.67125
1.67201
1.67226
1.672
1.67122
1.66993
1.66813
1.66582
1.663
1.65969
1.65588
1.65161
1.64688
1.6417
1.63612
1.63015
1.62382
1.61718
1.61026
1.6031
1.59577
1.58832
1.5808
1.57327
1.56581
1.55847
1.55132
1.54441
1.5378
1.53154
1.52565
1.52016
1.51508
1.5104
1.50612
1.50221
1.49863
1.49535
1.49232
1.48951
1.48686
1.48434
1.48192
1.47957
1.47727
1.475
1.47277
1.47057
1.4684
1.46629
1.46425
1.46229
1.46044
1.4587
1.4571
1.45566
1.45437
1.45327
1.45233
1.45158
1.45101
1.45062
1.45039
1.45032
1.45039
1.45059
1.45089
1.45127
1.45171
1.45217
1.45263
1.45306
1.45344
1.45374
1.45395
1.45406
1.5447
1.54492
1.54537
1.54605
1.54695
1.54809
1.54945
1.55103
1.55284
1.55486
1.5571
1.55955
1.5622
1.56504
1.56807
1.57129
1.5747
1.57828
1.58206
1.58602
1.59016
1.59449
1.59899
1.60367
1.6085
1.61347
1.61855
1.62372
1.62894
1.63418
1.63939
1.64454
1.64957
1.65446
1.65915
1.66362
1.66782
1.67171
1.67528
1.67849
1.68131
1.68374
1.68574
1.6873
1.68841
1.68907
1.68925
1.68896
1.68819
1.68695
1.68522
1.68303
1.68036
1.67723
1.67366
1.66964
1.66521
1.66037
1.65515
1.64959
1.6437
1.63752
1.63109
1.62446
1.61766
1.61076
1.60379
1.59682
1.5899
1.58308
1.57643
1.56998
1.56379
1.55788
1.5523
1.54705
1.54216
1.53761
1.5334
1.52952
1.52593
1.52261
1.51953
1.51664
1.51392
1.51134
1.50887
1.50648
1.50416
1.50189
1.49968
1.49752
1.49541
1.49337
1.4914
1.48952
1.48774
1.48607
1.48454
1.48314
1.48189
1.4808
1.47987
1.47911
1.4785
1.47805
1.47775
1.47759
1.47756
1.47764
1.47781
1.47806
1.47835
1.47868
1.47901
1.47933
1.47961
1.47983
1.47999
1.48007
1.57223
1.57245
1.57288
1.57353
1.57439
1.57547
1.57676
1.57827
1.57999
1.58191
1.58404
1.58636
1.58887
1.59157
1.59446
1.59752
1.60076
1.60417
1.60775
1.61151
1.61543
1.61951
1.62375
1.62813
1.63265
1.63728
1.64201
1.6468
1.65162
1.65645
1.66125
1.66598
1.6706
1.67508
1.67938
1.68347
1.68731
1.69087
1.69413
1.69706
1.69963
1.70183
1.70364
1.70505
1.70604
1.7066
1.70672
1.7064
1.70564
1.70444
1.70279
1.7007
1.69818
1.69523
1.69186
1.68809
1.68394
1.67941
1.67454
1.66935
1.66386
1.65811
1.65214
1.64597
1.63966
1.63325
1.62679
1.62032
1.61388
1.60754
1.60133
1.5953
1.58948
1.58391
1.57861
1.5736
1.56889
1.56448
1.56037
1.55653
1.55297
1.54964
1.54653
1.54361
1.54085
1.53823
1.53573
1.53332
1.53099
1.52873
1.52654
1.52441
1.52235
1.52037
1.51846
1.51664
1.51492
1.51332
1.51183
1.51048
1.50926
1.50818
1.50725
1.50647
1.50583
1.50533
1.50497
1.50473
1.50461
1.50459
1.50465
1.50479
1.50497
1.50518
1.50541
1.50563
1.50583
1.50599
1.50611
1.50617
1.59955
1.59976
1.60017
1.60079
1.60161
1.60264
1.60387
1.6053
1.60693
1.60876
1.61077
1.61298
1.61536
1.61793
1.62067
1.62357
1.62665
1.62988
1.63328
1.63683
1.64053
1.64438
1.64836
1.65247
1.65669
1.66101
1.6654
1.66983
1.6743
1.67875
1.68317
1.68752
1.69177
1.69588
1.69982
1.70357
1.70708
1.71034
1.71331
1.71598
1.71832
1.72032
1.72196
1.72321
1.72409
1.72456
1.72463
1.72429
1.72354
1.72237
1.7208
1.71881
1.71642
1.71364
1.71047
1.70693
1.70304
1.6988
1.69425
1.6894
1.68428
1.67893
1.67337
1.66763
1.66177
1.65581
1.6498
1.64377
1.63778
1.63186
1.62606
1.6204
1.61492
1.60966
1.60463
1.59984
1.59532
1.59105
1.58704
1.58328
1.57976
1.57646
1.57335
1.57042
1.56765
1.56501
1.56249
1.56007
1.55775
1.5555
1.55334
1.55124
1.54923
1.54729
1.54543
1.54367
1.542
1.54044
1.539
1.53767
1.53648
1.53541
1.53448
1.53368
1.53301
1.53248
1.53206
1.53176
1.53156
1.53145
1.53143
1.53147
1.53155
1.53168
1.53182
1.53196
1.53209
1.5322
1.53228
1.53232
1.62667
1.62686
1.62725
1.62784
1.62862
1.6296
1.63077
1.63213
1.63368
1.63541
1.63732
1.63941
1.64168
1.64411
1.6467
1.64946
1.65237
1.65544
1.65865
1.662
1.66549
1.66911
1.67285
1.67669
1.68064
1.68466
1.68873
1.69285
1.69698
1.70109
1.70517
1.70917
1.71307
1.71685
1.72046
1.72389
1.72711
1.73008
1.7328
1.73523
1.73736
1.73917
1.74064
1.74177
1.74253
1.74293
1.74295
1.74259
1.74185
1.74072
1.73921
1.73732
1.73506
1.73244
1.72945
1.72613
1.72247
1.71851
1.71425
1.70972
1.70494
1.69995
1.69477
1.68943
1.68396
1.67841
1.67281
1.6672
1.6616
1.65607
1.65063
1.64532
1.64016
1.63518
1.6304
1.62583
1.62148
1.61737
1.61347
1.6098
1.60634
1.60307
1.59999
1.59707
1.5943
1.59167
1.58915
1.58674
1.58443
1.5822
1.58006
1.578
1.57602
1.57412
1.57231
1.57059
1.56897
1.56745
1.56604
1.56474
1.56357
1.56251
1.56158
1.56076
1.56007
1.5595
1.55904
1.55868
1.55842
1.55824
1.55814
1.5581
1.55811
1.55815
1.55822
1.55829
1.55837
1.55844
1.55849
1.55851
1.65358
1.65377
1.65414
1.6547
1.65544
1.65637
1.65748
1.65877
1.66024
1.66188
1.66369
1.66567
1.66782
1.67012
1.67258
1.67519
1.67795
1.68084
1.68387
1.68703
1.69032
1.69372
1.69722
1.70082
1.7045
1.70825
1.71204
1.71585
1.71967
1.72347
1.72723
1.73092
1.73451
1.73797
1.74129
1.74443
1.74737
1.75009
1.75257
1.75478
1.75672
1.75835
1.75968
1.76068
1.76135
1.76167
1.76165
1.76127
1.76054
1.75945
1.758
1.75621
1.75407
1.75159
1.74878
1.74565
1.74222
1.73851
1.73452
1.73028
1.72582
1.72116
1.71632
1.71134
1.70625
1.70107
1.69584
1.6906
1.68537
1.68019
1.67508
1.67008
1.66521
1.6605
1.65595
1.65159
1.64742
1.64345
1.63968
1.6361
1.63271
1.6295
1.62646
1.62357
1.62082
1.6182
1.6157
1.61331
1.61102
1.60881
1.6067
1.60467
1.60272
1.60087
1.59909
1.59742
1.59583
1.59435
1.59297
1.5917
1.59053
1.58949
1.58855
1.58773
1.58701
1.58641
1.58591
1.5855
1.58519
1.58495
1.58478
1.58468
1.58462
1.5846
1.58461
1.58463
1.58466
1.58469
1.58472
1.58473
1.68031
1.68049
1.68084
1.68137
1.68208
1.68296
1.68401
1.68523
1.68662
1.68818
1.6899
1.69177
1.6938
1.69598
1.69831
1.70077
1.70338
1.70611
1.70897
1.71194
1.71503
1.71822
1.72151
1.72487
1.7283
1.73179
1.73531
1.73885
1.74239
1.7459
1.74936
1.75276
1.75606
1.75924
1.76229
1.76517
1.76786
1.77034
1.7726
1.77462
1.77637
1.77785
1.77904
1.77992
1.7805
1.78076
1.7807
1.7803
1.77958
1.77853
1.77715
1.77544
1.77341
1.77107
1.76842
1.76548
1.76226
1.75877
1.75504
1.75107
1.7469
1.74254
1.73803
1.73337
1.72861
1.72378
1.71889
1.71398
1.70908
1.70422
1.69942
1.69471
1.69012
1.68565
1.68133
1.67716
1.67317
1.66934
1.66569
1.66222
1.65891
1.65577
1.65277
1.64993
1.64721
1.64462
1.64215
1.63978
1.63751
1.63534
1.63325
1.63126
1.62935
1.62752
1.62579
1.62415
1.6226
1.62114
1.61979
1.61854
1.61739
1.61635
1.61541
1.61458
1.61385
1.61322
1.61268
1.61224
1.61188
1.61159
1.61137
1.61121
1.6111
1.61102
1.61098
1.61096
1.61095
1.61095
1.61096
1.61096
1.70687
1.70703
1.70737
1.70787
1.70854
1.70937
1.71037
1.71153
1.71285
1.71432
1.71594
1.71772
1.71964
1.7217
1.72389
1.72622
1.72868
1.73125
1.73394
1.73674
1.73964
1.74263
1.74571
1.74885
1.75205
1.7553
1.75857
1.76185
1.76512
1.76837
1.77157
1.7747
1.77773
1.78066
1.78345
1.78609
1.78855
1.79082
1.79288
1.79471
1.7963
1.79763
1.7987
1.79948
1.79998
1.80018
1.80008
1.79967
1.79896
1.79794
1.79662
1.79499
1.79307
1.79085
1.78836
1.78559
1.78256
1.77929
1.77579
1.77207
1.76817
1.76409
1.75986
1.75551
1.75106
1.74653
1.74196
1.73736
1.73276
1.72819
1.72368
1.71924
1.71489
1.71065
1.70654
1.70256
1.69874
1.69506
1.69153
1.68816
1.68495
1.68188
1.67895
1.67615
1.67348
1.67093
1.66849
1.66615
1.66391
1.66177
1.65972
1.65776
1.65588
1.65409
1.65239
1.65078
1.64926
1.64784
1.64651
1.64527
1.64414
1.6431
1.64216
1.64132
1.64058
1.63993
1.63937
1.63889
1.63849
1.63816
1.6379
1.63769
1.63753
1.63742
1.63733
1.63727
1.63724
1.63721
1.6372
1.63719
1.73325
1.73341
1.73373
1.7342
1.73484
1.73563
1.73657
1.73766
1.73891
1.7403
1.74184
1.74351
1.74533
1.74727
1.74935
1.75154
1.75386
1.75628
1.75881
1.76144
1.76416
1.76696
1.76984
1.77277
1.77576
1.77877
1.78181
1.78486
1.78789
1.79089
1.79384
1.79672
1.79952
1.80221
1.80477
1.80718
1.80944
1.81151
1.81339
1.81505
1.81649
1.81768
1.81863
1.81932
1.81974
1.81989
1.81976
1.81934
1.81864
1.81766
1.81639
1.81484
1.81301
1.81092
1.80856
1.80596
1.80311
1.80003
1.79675
1.79326
1.7896
1.78578
1.78182
1.77775
1.77358
1.76933
1.76504
1.76073
1.75641
1.75211
1.74786
1.74366
1.73955
1.73553
1.73161
1.72782
1.72415
1.72062
1.71722
1.71396
1.71084
1.70784
1.70498
1.70224
1.69963
1.69712
1.69472
1.69242
1.69022
1.68812
1.6861
1.68417
1.68233
1.68057
1.67891
1.67733
1.67584
1.67443
1.67313
1.67191
1.67079
1.66976
1.66882
1.66798
1.66722
1.66655
1.66597
1.66546
1.66503
1.66467
1.66437
1.66412
1.66393
1.66377
1.66366
1.66357
1.6635
1.66346
1.66343
1.66342
1.75948
1.75963
1.75993
1.76038
1.76098
1.76172
1.76261
1.76365
1.76483
1.76614
1.76759
1.76918
1.77089
1.77272
1.77468
1.77674
1.77892
1.7812
1.78358
1.78605
1.7886
1.79122
1.79391
1.79664
1.79942
1.80223
1.80505
1.80788
1.81068
1.81346
1.81618
1.81884
1.82141
1.82388
1.82623
1.82844
1.8305
1.8324
1.8341
1.83561
1.83691
1.83799
1.83883
1.83943
1.83979
1.83988
1.83972
1.8393
1.83861
1.83766
1.83644
1.83496
1.83323
1.83125
1.82902
1.82656
1.82388
1.82099
1.8179
1.81463
1.8112
1.80761
1.8039
1.80008
1.79617
1.79219
1.78816
1.7841
1.78004
1.77599
1.77198
1.76801
1.76411
1.7603
1.75657
1.75295
1.74944
1.74604
1.74277
1.73962
1.73659
1.73368
1.73089
1.72822
1.72566
1.7232
1.72085
1.7186
1.71644
1.71437
1.71239
1.71049
1.70869
1.70697
1.70533
1.70378
1.70232
1.70094
1.69965
1.69845
1.69734
1.69632
1.69538
1.69454
1.69377
1.69309
1.69249
1.69196
1.69151
1.69111
1.69078
1.69051
1.69028
1.6901
1.68995
1.68984
1.68975
1.68969
1.68965
1.68964
1.78555
1.78569
1.78598
1.7864
1.78697
1.78767
1.78852
1.78949
1.7906
1.79185
1.79322
1.79471
1.79632
1.79805
1.79989
1.80184
1.80389
1.80603
1.80826
1.81057
1.81296
1.81541
1.81792
1.82048
1.82306
1.82567
1.82829
1.83091
1.83351
1.83607
1.83859
1.84103
1.8434
1.84567
1.84783
1.84986
1.85174
1.85346
1.85502
1.85638
1.85756
1.85852
1.85927
1.85979
1.86008
1.86014
1.85995
1.85952
1.85884
1.85792
1.85675
1.85534
1.85369
1.85182
1.84971
1.84739
1.84487
1.84214
1.83924
1.83617
1.83294
1.82957
1.82609
1.8225
1.81882
1.81508
1.8113
1.80748
1.80366
1.79984
1.79605
1.79229
1.7886
1.78497
1.78142
1.77796
1.7746
1.77135
1.76819
1.76515
1.76222
1.7594
1.75669
1.75409
1.75159
1.74919
1.74688
1.74468
1.74256
1.74053
1.73859
1.73673
1.73496
1.73327
1.73167
1.73015
1.72871
1.72736
1.72609
1.72491
1.72381
1.72279
1.72186
1.72101
1.72024
1.71955
1.71894
1.71839
1.71791
1.7175
1.71714
1.71684
1.71659
1.71638
1.71621
1.71608
1.71597
1.7159
1.71585
1.71583
1.81148
1.81161
1.81188
1.81228
1.81282
1.81349
1.81428
1.8152
1.81625
1.81742
1.81871
1.82012
1.82164
1.82327
1.825
1.82683
1.82875
1.83076
1.83286
1.83502
1.83726
1.83955
1.84189
1.84427
1.84668
1.84911
1.85154
1.85396
1.85637
1.85874
1.86106
1.86331
1.86549
1.86758
1.86956
1.87141
1.87313
1.8747
1.87612
1.87735
1.87841
1.87927
1.87993
1.88038
1.88062
1.88063
1.88042
1.87998
1.87932
1.87842
1.8773
1.87596
1.87439
1.87261
1.87062
1.86843
1.86604
1.86348
1.86074
1.85785
1.85482
1.85165
1.84838
1.845
1.84155
1.83803
1.83447
1.83087
1.82726
1.82366
1.82007
1.81652
1.81301
1.80956
1.80619
1.80288
1.79967
1.79654
1.79351
1.79058
1.78775
1.78501
1.78238
1.77985
1.77741
1.77507
1.77282
1.77066
1.76859
1.76661
1.76471
1.76289
1.76115
1.7595
1.75792
1.75643
1.75502
1.75369
1.75244
1.75128
1.75019
1.74918
1.74826
1.74741
1.74664
1.74594
1.74531
1.74475
1.74426
1.74382
1.74345
1.74313
1.74285
1.74262
1.74244
1.74228
1.74217
1.74208
1.74203
1.742
1.83728
1.8374
1.83766
1.83804
1.83854
1.83917
1.83992
1.84079
1.84178
1.84288
1.8441
1.84542
1.84685
1.84838
1.85001
1.85173
1.85353
1.85542
1.85738
1.85941
1.8615
1.86364
1.86582
1.86804
1.87028
1.87253
1.87479
1.87704
1.87926
1.88145
1.88359
1.88567
1.88768
1.88959
1.8914
1.8931
1.89467
1.89611
1.89739
1.89851
1.89945
1.90022
1.9008
1.90119
1.90137
1.90135
1.90112
1.90068
1.90002
1.89916
1.89808
1.89679
1.8953
1.89361
1.89173
1.88965
1.8874
1.88498
1.88241
1.87968
1.87683
1.87385
1.87076
1.86759
1.86434
1.86102
1.85766
1.85427
1.85087