/*--------------------------------*- C++ -*----------------------------------*\
| =========                 |                                                 |
| \\      /  F ield         | OpenFOAM: The Open Source CFD Toolbox           |
|  \\    /   O peration     | Version:  2406                                  |
|   \\  /    A nd           | Website:  www.openfoam.com                      |
|    \\/     M anipulation  |                                                 |
\*---------------------------------------------------------------------------*/
FoamFile
{
    version     2.0;
    format      ascii;
    arch        "LSB;label=32;scalar=64";
    class       volScalarField;
    location    "2.5";
    object      C_0_0;
}
// * * * * * * * * * * * * * * * * * * * * * * * * * * * * * * * * * * * * * //

dimensions      [1 -3 0 0 0 0 0];

internalField   nonuniform List<scalar> 
14400
(
1.05397
1.04586
1.02304
0.988267
0.956482
0.93314
0.92021
0.918598
0.928644
0.950199
0.982535
1.0238
1.06853
1.09949
1.11504
1.12383
1.12639
1.1225
1.11104
1.08408
1.04755
1.01755
0.998283
0.991528
0.998195
1.01875
1.05324
1.10125
1.16137
1.22935
1.28194
1.31564
1.34352
1.36789
1.38931
1.40817
1.42481
1.43944
1.45226
1.46341
1.473
1.48114
1.48789
1.49332
1.49746
1.50037
1.50206
1.50254
1.50184
1.49996
1.49688
1.4926
1.48709
1.48033
1.47228
1.46289
1.4521
1.43984
1.42601
1.41051
1.3932
1.37392
1.35244
1.32851
1.3018
1.27186
1.23815
1.19385
1.12785
1.0509
0.98248
0.925418
0.8804
0.847562
0.826852
0.81813
0.821193
0.835769
0.861491
0.897808
0.943713
0.996514
1.03944
1.06461
1.08116
1.09246
1.09909
1.10141
1.09952
1.09334
1.08259
1.06665
1.03895
0.997043
0.954378
0.919687
0.895077
0.881309
0.878402
0.885722
0.901876
0.924251
0.945278
0.953202
0.945291
0.924192
0.901653
0.885336
0.877885
0.88072
0.894497
0.919221
0.954151
0.997193
1.03941
1.06748
1.08411
1.09588
1.10343
1.10712
1.06205
1.05514
1.03894
1.00832
0.975019
0.950561
0.936961
0.935124
0.945403
0.967632
1.00111
1.04398
1.0836
1.1074
1.12169
1.13008
1.13282
1.1298
1.12055
1.10081
1.06734
1.03603
1.0157
1.00836
1.01485
1.03568
1.07086
1.11996
1.18107
1.24432
1.2888
1.31992
1.34704
1.37085
1.39185
1.41041
1.42681
1.44125
1.45393
1.46496
1.47446
1.48252
1.48922
1.4946
1.49871
1.50158
1.50325
1.50373
1.50303
1.50115
1.49808
1.49382
1.48834
1.48162
1.47362
1.46429
1.45357
1.4414
1.42769
1.41232
1.39518
1.3761
1.35489
1.3313
1.30502
1.27563
1.24256
1.20322
1.14506
1.06893
0.999709
0.941761
0.896013
0.862646
0.84164
0.832882
0.836174
0.851226
0.877645
0.9148
0.961335
1.01283
1.04931
1.07085
1.08642
1.09711
1.10342
1.10561
1.1038
1.09792
1.08777
1.07288
1.051
1.01535
0.972209
0.936628
0.911367
0.897443
0.894942
0.903236
0.920727
0.944247
0.96164
0.966188
0.961592
0.944154
0.920472
0.902797
0.894346
0.896752
0.91066
0.936008
0.971787
1.01521
1.05109
1.07339
1.08897
1.1001
1.10729
1.11082
1.07704
1.07179
1.06143
1.04147
1.01017
0.984683
0.970015
0.967767
0.978467
1.00173
1.03616
1.07677
1.10459
1.1218
1.13425
1.14197
1.14501
1.14332
1.1368
1.12528
1.10297
1.07175
1.04993
1.04164
1.04781
1.06915
1.1055
1.15629
1.21724
1.26536
1.2992
1.3282
1.35385
1.37661
1.39684
1.41481
1.43075
1.44484
1.45723
1.46804
1.47736
1.48528
1.49185
1.49714
1.50118
1.50401
1.50564
1.5061
1.50539
1.50352
1.50048
1.49626
1.49084
1.48419
1.47628
1.46707
1.4565
1.44451
1.43101
1.41591
1.3991
1.38042
1.35972
1.33678
1.31134
1.28307
1.25156
1.2163
1.17058
1.10429
1.03383
0.974306
0.927201
0.892805
0.871202
0.862368
0.866115
0.882089
0.909832
0.948577
0.996354
1.03834
1.06433
1.08272
1.09654
1.10616
1.11186
1.11382
1.11213
1.10679
1.09768
1.08464
1.06747
1.04259
1.00603
0.969796
0.943377
0.929171
0.92741
0.937509
0.956695
0.976095
0.985357
0.987824
0.985224
0.975873
0.956382
0.936963
0.926654
0.92827
0.942414
0.968879
1.00526
1.04186
1.06696
1.08458
1.09828
1.10827
1.11481
1.11803
1.09727
1.09356
1.08643
1.07661
1.05837
1.03403
1.01833
1.01552
1.02681
1.05106
1.08447
1.11048
1.12709
1.14095
1.15152
1.15854
1.16192
1.16167
1.1579
1.15095
1.14104
1.12254
1.09965
1.09054
1.09613
1.11825
1.15565
1.20741
1.25169
1.2846
1.31353
1.33983
1.36356
1.38491
1.40408
1.42124
1.43654
1.45013
1.46212
1.47261
1.48167
1.48937
1.49578
1.50093
1.50487
1.50762
1.50921
1.50964
1.50892
1.50707
1.50406
1.4999
1.49456
1.48802
1.48025
1.47121
1.46085
1.44912
1.43593
1.42121
1.40487
1.38677
1.36679
1.34476
1.32049
1.29376
1.26433
1.23194
1.19642
1.1486
1.08283
1.02252
0.973817
0.937964
0.915446
0.906487
0.910917
0.928148
0.957451
0.996872
1.03789
1.06517
1.08391
1.09916
1.11087
1.11913
1.12403
1.12568
1.12413
1.11941
1.11153
1.10052
1.08651
1.06995
1.04684
1.01696
0.989622
0.975194
0.974215
0.986177
1.00054
1.00954
1.01323
1.01453
1.01302
1.00911
0.999971
0.985446
0.973202
0.973971
0.98826
1.01557
1.04533
1.06848
1.08531
1.09971
1.11128
1.11991
1.12563
1.12848
1.12123
1.11873
1.11406
1.10787
1.10112
1.0896
1.07856
1.07539
1.08712
1.10671
1.12582
1.13939
1.1522
1.16339
1.17235
1.17875
1.18246
1.18354
1.18218
1.17885
1.17439
1.16921
1.15952
1.15264
1.15712
1.18039
1.21589
1.25087
1.27888
1.3053
1.3305
1.35401
1.37565
1.3954
1.41333
1.42952
1.44405
1.45703
1.46851
1.47859
1.48733
1.49477
1.50096
1.50594
1.50975
1.5124
1.51392
1.51432
1.51359
1.51176
1.5088
1.50471
1.49948
1.49308
1.48549
1.47667
1.46658
1.45517
1.44238
1.42815
1.41238
1.39501
1.37591
1.35498
1.3321
1.30716
1.28003
1.2507
1.21925
1.18598
1.14163
1.08507
1.03539
0.99779
0.973993
0.964851
0.970226
0.988782
1.01888
1.05195
1.07604
1.09241
1.10696
1.11914
1.12866
1.13544
1.13946
1.14073
1.1393
1.1352
1.12852
1.11939
1.1081
1.09515
1.0814
1.06454
1.04575
1.0323
1.03092
1.03583
1.04001
1.04189
1.0435
1.04403
1.04321
1.04131
1.03913
1.03472
1.02953
1.03065
1.04383
1.06241
1.07914
1.09299
1.10611
1.11767
1.1272
1.13446
1.13932
1.14176
1.14767
1.14609
1.1432
1.13954
1.13597
1.13367
1.13127
1.13186
1.13946
1.14935
1.15863
1.16885
1.17892
1.18806
1.19574
1.20164
1.20565
1.20783
1.20842
1.2079
1.20701
1.20686
1.20871
1.21065
1.21911
1.23829
1.26108
1.28242
1.30471
1.32722
1.34917
1.37006
1.38961
1.40772
1.42432
1.43945
1.45313
1.4654
1.47632
1.48593
1.49428
1.50141
1.50735
1.51213
1.51578
1.51832
1.51976
1.52011
1.51938
1.51757
1.51467
1.51067
1.50557
1.49934
1.49196
1.4834
1.47363
1.46261
1.45028
1.4366
1.42152
1.40496
1.38686
1.36715
1.34579
1.32272
1.29795
1.27158
1.2438
1.21505
1.18594
1.14997
1.10903
1.07065
1.04553
1.03611
1.04245
1.0609
1.08087
1.09744
1.10955
1.12148
1.1324
1.14176
1.1492
1.15452
1.15763
1.15849
1.15712
1.15357
1.14795
1.14044
1.13135
1.12115
1.11056
1.10051
1.09103
1.08231
1.07822
1.0757
1.0745
1.07452
1.07484
1.07489
1.07447
1.07378
1.07338
1.0742
1.07638
1.08012
1.08851
1.09773
1.10767
1.11822
1.12845
1.13767
1.14541
1.15139
1.15545
1.15749
1.17569
1.17476
1.1731
1.17113
1.16945
1.16878
1.16986
1.17297
1.17714
1.18304
1.19037
1.19844
1.20658
1.2142
1.22089
1.22641
1.23066
1.23371
1.23579
1.23731
1.2389
1.24139
1.24581
1.25334
1.26435
1.27773
1.2935
1.31131
1.3303
1.3497
1.36889
1.38744
1.40504
1.42152
1.4368
1.45083
1.4636
1.47513
1.48542
1.49452
1.50245
1.50923
1.51489
1.51945
1.52292
1.52533
1.52668
1.52699
1.52625
1.52446
1.52163
1.51774
1.51278
1.50675
1.49961
1.49134
1.48193
1.47134
1.45953
1.44647
1.43212
1.41645
1.39941
1.38099
1.36117
1.33998
1.31749
1.29385
1.26933
1.24436
1.21954
1.1957
1.17087
1.14554
1.12522
1.11527
1.11561
1.122
1.12862
1.13527
1.14324
1.15154
1.15941
1.1663
1.17185
1.17581
1.17804
1.17848
1.17713
1.17402
1.16927
1.16307
1.15569
1.14755
1.13916
1.13113
1.12404
1.11818
1.1131
1.10969
1.10777
1.10686
1.10646
1.10621
1.10601
1.10596
1.10642
1.10789
1.11085
1.1155
1.121
1.12779
1.13557
1.14378
1.15181
1.15914
1.16537
1.17025
1.17358
1.17527
1.20464
1.20415
1.20332
1.20244
1.2019
1.20216
1.2036
1.20636
1.21024
1.21531
1.22134
1.22797
1.23474
1.24126
1.24723
1.25246
1.25688
1.26056
1.26371
1.26666
1.26988
1.27398
1.27961
1.28737
1.29747
1.30959
1.32356
1.33903
1.35548
1.37239
1.38927
1.40576
1.42158
1.43654
1.45052
1.46347
1.47532
1.48608
1.49573
1.50429
1.51177
1.51818
1.52353
1.52785
1.53113
1.5334
1.53466
1.53491
1.53416
1.53241
1.52964
1.52587
1.52108
1.51525
1.50838
1.50044
1.49141
1.48129
1.47003
1.45763
1.44406
1.4293
1.41335
1.39622
1.37792
1.35853
1.33816
1.317
1.29531
1.2735
1.2521
1.23177
1.21335
1.1977
1.18437
1.17497
1.16958
1.16723
1.16833
1.17178
1.17661
1.18202
1.18738
1.19219
1.19608
1.19882
1.20025
1.20027
1.19888
1.1961
1.19204
1.18686
1.18081
1.17419
1.16739
1.16082
1.15486
1.14971
1.14541
1.14219
1.14002
1.13868
1.13791
1.1375
1.13738
1.13763
1.13845
1.14009
1.14279
1.1466
1.1513
1.15685
1.16305
1.16953
1.17587
1.1817
1.1867
1.19064
1.19335
1.19473
1.23408
1.23389
1.23359
1.23339
1.23355
1.23435
1.23601
1.23863
1.24217
1.24659
1.25174
1.25736
1.26316
1.26888
1.27431
1.2793
1.28383
1.28795
1.29183
1.29572
1.29998
1.30503
1.31128
1.31907
1.32855
1.33962
1.35211
1.36576
1.38022
1.3951
1.41004
1.42475
1.43897
1.45253
1.46529
1.47719
1.48814
1.49813
1.50713
1.51514
1.52216
1.52818
1.53322
1.53728
1.54036
1.54248
1.54364
1.54384
1.54307
1.54135
1.53867
1.53503
1.5304
1.5248
1.51821
1.51061
1.502
1.49236
1.48168
1.46996
1.45718
1.44335
1.42848
1.4126
1.39577
1.37807
1.35964
1.34067
1.32142
1.30224
1.28358
1.26594
1.24991
1.23601
1.22452
1.21569
1.20967
1.20641
1.20568
1.2069
1.20939
1.21257
1.21591
1.21899
1.22148
1.22315
1.22385
1.22348
1.22201
1.21947
1.21594
1.21154
1.20648
1.201
1.19538
1.18992
1.18486
1.18039
1.17662
1.17364
1.17145
1.16995
1.169
1.16849
1.16839
1.16874
1.16964
1.17124
1.17363
1.17682
1.18074
1.18528
1.19025
1.1954
1.20044
1.20509
1.20909
1.21226
1.21446
1.21557
1.26373
1.26371
1.26376
1.26399
1.26457
1.26569
1.26746
1.26998
1.27323
1.27716
1.28165
1.28655
1.29166
1.2968
1.30181
1.30662
1.31119
1.31559
1.31993
1.32442
1.32931
1.33487
1.3414
1.34909
1.35804
1.36821
1.3795
1.39169
1.40453
1.41774
1.43105
1.44422
1.45702
1.46931
1.48094
1.49184
1.50193
1.51117
1.51953
1.52699
1.53353
1.53917
1.54388
1.54768
1.55056
1.55252
1.55358
1.55372
1.55295
1.55127
1.54867
1.54515
1.54071
1.53535
1.52904
1.5218
1.51361
1.50447
1.49438
1.48333
1.47135
1.45843
1.44461
1.42994
1.41448
1.39834
1.38166
1.36461
1.34745
1.33047
1.31402
1.29851
1.28435
1.2719
1.26142
1.25309
1.24699
1.24306
1.2411
1.24073
1.2415
1.24295
1.24469
1.24637
1.24769
1.24846
1.24852
1.24779
1.24622
1.24383
1.24068
1.23688
1.23258
1.22796
1.22323
1.2186
1.21427
1.21038
1.20704
1.20431
1.20219
1.20066
1.19964
1.19908
1.19895
1.19929
1.20015
1.20158
1.20365
1.20633
1.20957
1.21326
1.21726
1.22138
1.2254
1.22912
1.23232
1.23487
1.23663
1.23753
1.29338
1.29349
1.29374
1.29423
1.29507
1.29635
1.29818
1.30059
1.3036
1.30715
1.31117
1.31554
1.32013
1.32483
1.32953
1.33416
1.33873
1.34328
1.34789
1.35272
1.35795
1.36376
1.37035
1.37784
1.3863
1.39571
1.40598
1.41696
1.42847
1.44029
1.45222
1.46404
1.4756
1.48673
1.49733
1.5073
1.51657
1.52509
1.53282
1.53974
1.54583
1.55107
1.55546
1.55899
1.56166
1.56347
1.56442
1.56451
1.56373
1.56209
1.55958
1.5562
1.55195
1.54682
1.54082
1.53394
1.52618
1.51754
1.50803
1.49766
1.48644
1.47441
1.4616
1.44806
1.43388
1.41916
1.40404
1.38868
1.3733
1.35815
1.34353
1.32973
1.31707
1.30581
1.29616
1.28825
1.28213
1.27774
1.27492
1.27342
1.27291
1.27306
1.27354
1.27409
1.27446
1.27447
1.27399
1.27293
1.27125
1.26896
1.26609
1.26273
1.25899
1.25502
1.25097
1.24699
1.24324
1.23983
1.23685
1.23435
1.23235
1.23085
1.22982
1.22922
1.22905
1.22933
1.23007
1.23131
1.23305
1.23527
1.23793
1.24093
1.24416
1.24746
1.25068
1.25365
1.25621
1.25825
1.25967
1.26039
1.32293
1.32311
1.32349
1.32413
1.3251
1.32648
1.32831
1.33062
1.33342
1.33667
1.34033
1.3443
1.34851
1.35286
1.3573
1.36178
1.3663
1.37089
1.37564
1.38063
1.386
1.39188
1.39839
1.40562
1.41361
1.42234
1.43174
1.44171
1.45209
1.46274
1.47347
1.48414
1.49459
1.50469
1.51434
1.52346
1.53196
1.5398
1.54693
1.55333
1.55897
1.56382
1.56789
1.57116
1.57363
1.57529
1.57614
1.57617
1.57538
1.57378
1.57136
1.56812
1.56406
1.55918
1.55347
1.54695
1.53962
1.53148
1.52254
1.51282
1.50236
1.49117
1.4793
1.46683
1.45382
1.44038
1.42664
1.41276
1.39891
1.38532
1.37221
1.35982
1.34839
1.33812
1.32916
1.32162
1.31553
1.31085
1.30744
1.30512
1.30367
1.30282
1.30234
1.30199
1.30159
1.30098
1.30004
1.29869
1.2969
1.29465
1.29198
1.28895
1.28564
1.28216
1.27863
1.27516
1.27187
1.26885
1.26617
1.26389
1.26202
1.26058
1.25955
1.25893
1.25871
1.2589
1.2595
1.26052
1.26196
1.26379
1.26595
1.26839
1.27098
1.27363
1.27621
1.27858
1.28063
1.28226
1.2834
1.28398
1.3523
1.35252
1.35297
1.3537
1.35474
1.35615
1.35795
1.36016
1.36279
1.3658
1.36917
1.37283
1.37673
1.38081
1.38502
1.38935
1.39379
1.39836
1.40313
1.40816
1.41355
1.41937
1.42572
1.43265
1.44018
1.44829
1.45694
1.46603
1.47546
1.48509
1.4948
1.50445
1.51392
1.52311
1.5319
1.54022
1.54801
1.55521
1.56178
1.56768
1.57288
1.57737
1.58113
1.58414
1.58641
1.58792
1.58866
1.58864
1.58785
1.58629
1.58396
1.58086
1.57699
1.57235
1.56695
1.56078
1.55386
1.54621
1.53783
1.52874
1.51899
1.5086
1.49762
1.48613
1.47419
1.46191
1.4494
1.4368
1.42428
1.412
1.40016
1.38895
1.37854
1.3691
1.36075
1.35355
1.34754
1.34267
1.33886
1.33597
1.33382
1.33222
1.33099
1.32995
1.32893
1.32781
1.32649
1.3249
1.32299
1.32077
1.31824
1.31545
1.31246
1.30935
1.30622
1.30315
1.30022
1.29752
1.2951
1.29301
1.29127
1.28989
1.28888
1.28824
1.28797
1.28806
1.28851
1.28932
1.29048
1.29196
1.29371
1.29567
1.29775
1.29987
1.30193
1.30383
1.30546
1.30677
1.30768
1.30814
1.38145
1.38169
1.38219
1.38295
1.38402
1.38542
1.38717
1.38929
1.39176
1.39458
1.39771
1.40113
1.40477
1.40862
1.41264
1.41681
1.42113
1.42564
1.43035
1.43534
1.44064
1.44634
1.45247
1.45908
1.46616
1.47372
1.48169
1.49002
1.49862
1.50737
1.51619
1.52495
1.53355
1.5419
1.54992
1.55753
1.56466
1.57126
1.57729
1.58272
1.58751
1.59164
1.5951
1.59787
1.59994
1.6013
1.60195
1.60188
1.60109
1.59957
1.59734
1.59437
1.59069
1.58629
1.58118
1.57536
1.56885
1.56166
1.55382
1.54534
1.53626
1.52662
1.51647
1.50587
1.4949
1.48366
1.47224
1.46077
1.44939
1.43825
1.42749
1.41727
1.40774
1.39901
1.39117
1.3843
1.37839
1.37344
1.36936
1.36606
1.36341
1.36126
1.35946
1.35787
1.35637
1.35485
1.35322
1.35141
1.34941
1.34718
1.34475
1.34214
1.33939
1.33658
1.33375
1.33099
1.32836
1.32591
1.3237
1.32177
1.32015
1.31884
1.31785
1.31719
1.31686
1.31685
1.31716
1.31778
1.31869
1.31987
1.32126
1.32282
1.32449
1.32618
1.32782
1.32933
1.33064
1.33168
1.3324
1.33277
1.41037
1.41062
1.41112
1.4119
1.41297
1.41434
1.41603
1.41805
1.42039
1.42304
1.42598
1.42918
1.43262
1.43626
1.4401
1.44411
1.44831
1.4527
1.45731
1.46219
1.46736
1.47287
1.47875
1.48502
1.49168
1.49872
1.50609
1.51375
1.52161
1.5296
1.53762
1.5456
1.55343
1.56104
1.56835
1.5753
1.58183
1.58788
1.59341
1.59839
1.60279
1.60659
1.60976
1.6123
1.61418
1.61541
1.61596
1.61584
1.61505
1.61358
1.61143
1.6086
1.60511
1.60094
1.59611
1.59063
1.58451
1.57778
1.57044
1.56253
1.55408
1.54514
1.53575
1.52598
1.51589
1.50558
1.49513
1.48466
1.47427
1.4641
1.45428
1.44491
1.43612
1.42801
1.42064
1.41407
1.4083
1.40333
1.39909
1.39551
1.3925
1.38994
1.38771
1.38571
1.38383
1.38199
1.38011
1.37814
1.37604
1.37381
1.37144
1.36896
1.3664
1.3638
1.36122
1.3587
1.3563
1.35406
1.35203
1.35024
1.34871
1.34745
1.34649
1.34581
1.34542
1.34532
1.3455
1.34594
1.34663
1.34755
1.34864
1.34988
1.3512
1.35254
1.35384
1.35503
1.35607
1.3569
1.35747
1.35777
1.43903
1.43928
1.43979
1.44056
1.44161
1.44294
1.44457
1.44649
1.44871
1.45121
1.45398
1.457
1.46025
1.46372
1.46738
1.47123
1.47528
1.47954
1.48401
1.48874
1.49373
1.49902
1.50463
1.51057
1.51682
1.52338
1.53021
1.53726
1.54448
1.55178
1.55911
1.56639
1.57353
1.58047
1.58715
1.5935
1.59947
1.60501
1.61008
1.61465
1.61868
1.62216
1.62507
1.62738
1.62908
1.63017
1.63064
1.63048
1.62969
1.62826
1.6262
1.62351
1.62019
1.61625
1.6117
1.60654
1.6008
1.59449
1.58763
1.58026
1.5724
1.56411
1.55542
1.5464
1.53711
1.52763
1.51805
1.50845
1.49894
1.48962
1.4806
1.47197
1.46383
1.45626
1.44932
1.44303
1.43742
1.43248
1.42816
1.4244
1.42114
1.41828
1.41574
1.41343
1.41126
1.40917
1.40709
1.40498
1.40282
1.40057
1.39825
1.39587
1.39345
1.39102
1.38862
1.38629
1.38408
1.38201
1.38012
1.37844
1.37699
1.37579
1.37483
1.37414
1.3737
1.37351
1.37356
1.37385
1.37435
1.37504
1.37589
1.37685
1.37788
1.37893
1.37996
1.3809
1.38172
1.38237
1.38282
1.38306
1.46744
1.46769
1.46819
1.46894
1.46996
1.47125
1.47281
1.47464
1.47675
1.47911
1.48173
1.48459
1.48767
1.49097
1.49447
1.49816
1.50205
1.50615
1.51047
1.51501
1.51981
1.52486
1.53019
1.53579
1.54166
1.54778
1.55411
1.56061
1.56725
1.57395
1.58066
1.58731
1.59383
1.60018
1.60628
1.61208
1.61754
1.62261
1.62725
1.63143
1.63513
1.63831
1.64096
1.64306
1.6446
1.64557
1.64595
1.64575
1.64496
1.64358
1.6416
1.63904
1.6359
1.63217
1.62788
1.62303
1.61765
1.61174
1.60534
1.59847
1.59117
1.58347
1.57543
1.56709
1.55852
1.5498
1.54098
1.53216
1.52341
1.51484
1.50652
1.49854
1.49098
1.48389
1.47733
1.47132
1.46588
1.461
1.45666
1.4528
1.44937
1.4463
1.44354
1.441
1.43861
1.43633
1.43411
1.43189
1.42966
1.42741
1.42512
1.42281
1.4205
1.4182
1.41595
1.41377
1.4117
1.40977
1.408
1.40642
1.40503
1.40387
1.40292
1.40221
1.40172
1.40145
1.4014
1.40155
1.40189
1.40239
1.40302
1.40375
1.40454
1.40536
1.40615
1.40689
1.40753
1.40804
1.4084
1.40858
1.4956
1.49585
1.49633
1.49706
1.49805
1.49928
1.50077
1.50252
1.50452
1.50676
1.50925
1.51196
1.51488
1.51802
1.52136
1.52489
1.52862
1.53255
1.53669
1.54104
1.54562
1.55043
1.55548
1.56075
1.56625
1.57195
1.57783
1.58384
1.58995
1.59611
1.60226
1.60835
1.61432
1.62012
1.6257
1.631
1.636
1.64064
1.64488
1.64871
1.65208
1.65499
1.6574
1.6593
1.66069
1.66154
1.66185
1.66161
1.66082
1.65948
1.65759
1.65516
1.65218
1.64866
1.64462
1.64007
1.63502
1.6295
1.62352
1.61712
1.61032
1.60318
1.59572
1.58801
1.5801
1.57204
1.56391
1.55578
1.54772
1.53981
1.53211
1.5247
1.51765
1.51099
1.50478
1.49904
1.49378
1.489
1.48467
1.48076
1.47723
1.47403
1.47111
1.4684
1.46587
1.46345
1.46111
1.45881
1.45654
1.45427
1.45202
1.44977
1.44753
1.44534
1.4432
1.44115
1.43919
1.43737
1.43569
1.43419
1.43286
1.43172
1.43079
1.43005
1.42952
1.42918
1.42904
1.42907
1.42926
1.42959
1.43004
1.43058
1.43118
1.4318
1.43241
1.43298
1.43347
1.43387
1.43415
1.43429
1.52353
1.52376
1.52423
1.52493
1.52588
1.52706
1.52848
1.53015
1.53204
1.53417
1.53653
1.5391
1.54188
1.54487
1.54805
1.55142
1.55498
1.55874
1.56269
1.56685
1.5712
1.57576
1.58053
1.58549
1.59064
1.59595
1.60141
1.60697
1.61261
1.61827
1.62392
1.6295
1.63497
1.64028
1.64539
1.65024
1.65481
1.65905
1.66294
1.66643
1.66951
1.67216
1.67435
1.67607
1.67731
1.67805
1.67829
1.67802
1.67724
1.67594
1.67413
1.67182
1.66899
1.66568
1.66187
1.6576
1.65287
1.6477
1.64212
1.63615
1.62983
1.62319
1.61628
1.60913
1.60181
1.59436
1.58685
1.57933
1.57188
1.56455
1.55741
1.55051
1.54391
1.53765
1.53177
1.52628
1.5212
1.51653
1.51226
1.50834
1.50477
1.50149
1.49846
1.49565
1.493
1.49048
1.48806
1.48571
1.4834
1.48113
1.4789
1.4767
1.47453
1.47242
1.47038
1.46842
1.46656
1.46482
1.46322
1.46177
1.46049
1.45938
1.45845
1.45769
1.45712
1.45672
1.45649
1.45642
1.45649
1.45668
1.45698
1.45736
1.45779
1.45825
1.45871
1.45914
1.45951
1.45982
1.46003
1.46014
1.55121
1.55144
1.55189
1.55256
1.55347
1.5546
1.55595
1.55753
1.55934
1.56136
1.5636
1.56604
1.56868
1.57152
1.57455
1.57776
1.58116
1.58474
1.5885
1.59245
1.59658
1.60089
1.60538
1.61004
1.61486
1.61981
1.62488
1.63003
1.63523
1.64045
1.64564
1.65077
1.65579
1.66065
1.66533
1.66977
1.67395
1.67783
1.68138
1.68457
1.68738
1.68978
1.69177
1.69332
1.69442
1.69506
1.69524
1.69494
1.69416
1.69291
1.69118
1.68898
1.68631
1.68318
1.6796
1.67558
1.67115
1.66632
1.6611
1.65554
1.64966
1.64348
1.63706
1.63044
1.62365
1.61675
1.60979
1.60283
1.59591
1.58911
1.58246
1.57602
1.56983
1.56393
1.55835
1.55311
1.54822
1.54368
1.53947
1.53559
1.53201
1.52869
1.5256
1.52272
1.52
1.51742
1.51494
1.51255
1.51023
1.50796
1.50575
1.50359
1.50148
1.49943
1.49746
1.49558
1.4938
1.49213
1.4906
1.4892
1.48795
1.48686
1.48593
1.48516
1.48455
1.48409
1.48379
1.48363
1.48359
1.48367
1.48384
1.48409
1.48438
1.4847
1.48503
1.48535
1.48563
1.48585
1.48601
1.48609
1.57867
1.57889
1.57932
1.57997
1.58083
1.5819
1.5832
1.5847
1.58641
1.58833
1.59046
1.59277
1.59528
1.59798
1.60086
1.60391
1.60714
1.61055
1.61412
1.61786
1.62177
1.62584
1.63007
1.63444
1.63894
1.64356
1.64827
1.65304
1.65785
1.66266
1.66744
1.67215
1.67675
1.68121
1.68549
1.68956
1.69339
1.69693
1.70017
1.70309
1.70564
1.70783
1.70963
1.71102
1.71199
1.71254
1.71266
1.71233
1.71156
1.71035
1.7087
1.70661
1.70408
1.70113
1.69776
1.69399
1.68983
1.68531
1.68044
1.67525
1.66977
1.66402
1.65805
1.6519
1.6456
1.63919
1.63273
1.62627
1.61984
1.6135
1.6073
1.60127
1.59546
1.5899
1.5846
1.5796
1.57489
1.57048
1.56637
1.56254
1.55898
1.55565
1.55255
1.54963
1.54687
1.54425
1.54174
1.53933
1.537
1.53474
1.53255
1.53042
1.52836
1.52637
1.52446
1.52264
1.52093
1.51932
1.51783
1.51647
1.51525
1.51417
1.51324
1.51246
1.51181
1.51131
1.51095
1.51071
1.51059
1.51056
1.51063
1.51076
1.51094
1.51115
1.51138
1.5116
1.51179
1.51195
1.51207
1.51213
1.60592
1.60613
1.60654
1.60715
1.60797
1.609
1.61023
1.61166
1.61328
1.61511
1.61712
1.61932
1.6217
1.62426
1.62699
1.62989
1.63296
1.63618
1.63957
1.64311
1.6468
1.65064
1.65461
1.65871
1.66291
1.66721
1.67159
1.67601
1.68046
1.68489
1.6893
1.69363
1.69786
1.70195
1.70588
1.7096
1.7131
1.71634
1.7193
1.72196
1.72428
1.72627
1.72789
1.72913
1.72999
1.73046
1.73052
1.73017
1.72941
1.72824
1.72666
1.72467
1.72228
1.71949
1.71632
1.71278
1.70888
1.70465
1.7001
1.69525
1.69014
1.68479
1.67923
1.6735
1.66764
1.66169
1.65568
1.64967
1.64368
1.63777
1.63197
1.62632
1.62085
1.61559
1.61056
1.60578
1.60126
1.59699
1.59299
1.58923
1.58571
1.58241
1.5793
1.57637
1.5736
1.57096
1.56844
1.56602
1.5637
1.56145
1.55928
1.55719
1.55517
1.55323
1.55137
1.54961
1.54794
1.54638
1.54493
1.54361
1.54241
1.54135
1.54041
1.53961
1.53894
1.5384
1.53798
1.53768
1.53748
1.53737
1.53734
1.53738
1.53747
1.53759
1.53772
1.53786
1.538
1.5381
1.53818
1.53822
1.63296
1.63316
1.63355
1.63413
1.63491
1.63589
1.63706
1.63841
1.63996
1.64169
1.64359
1.64568
1.64794
1.65037
1.65296
1.6557
1.65861
1.66166
1.66487
1.66821
1.67169
1.6753
1.67902
1.68286
1.68679
1.69079
1.69486
1.69896
1.70307
1.70717
1.71123
1.71521
1.7191
1.72286
1.72646
1.72987
1.73307
1.73603
1.73873
1.74115
1.74327
1.74506
1.74652
1.74764
1.74839
1.74878
1.74879
1.74842
1.74767
1.74654
1.74502
1.74313
1.74087
1.73824
1.73525
1.73193
1.72827
1.72431
1.72005
1.71552
1.71075
1.70576
1.70058
1.69524
1.68979
1.68424
1.67864
1.67303
1.66745
1.66192
1.65648
1.65118
1.64602
1.64104
1.63627
1.6317
1.62736
1.62325
1.61935
1.61568
1.61222
1.60896
1.60587
1.60296
1.60019
1.59755
1.59504
1.59263
1.59031
1.58809
1.58594
1.58388
1.5819
1.58
1.57819
1.57647
1.57485
1.57333
1.57192
1.57062
1.56944
1.56838
1.56745
1.56663
1.56594
1.56536
1.5649
1.56454
1.56428
1.5641
1.56399
1.56395
1.56396
1.564
1.56407
1.56414
1.56422
1.56428
1.56433
1.56436
1.6598
1.65999
1.66036
1.66092
1.66166
1.66259
1.66369
1.66498
1.66644
1.66808
1.66989
1.67187
1.67401
1.67631
1.67876
1.68136
1.68411
1.687
1.69002
1.69317
1.69645
1.69984
1.70333
1.70692
1.71058
1.71431
1.71809
1.72189
1.7257
1.72949
1.73323
1.7369
1.74047
1.74392
1.74722
1.75035
1.75328
1.75598
1.75845
1.76065
1.76257
1.76419
1.76551
1.7665
1.76715
1.76747
1.76743
1.76705
1.76631
1.76521
1.76377
1.76197
1.75982
1.75734
1.75453
1.7514
1.74797
1.74425
1.74027
1.73603
1.73158
1.72692
1.72208
1.71711
1.71201
1.70684
1.70162
1.69638
1.69115
1.68597
1.68087
1.67588
1.67102
1.6663
1.66176
1.65741
1.65324
1.64927
1.6455
1.64193
1.63854
1.63533
1.63228
1.6294
1.62665
1.62403
1.62153
1.61914
1.61684
1.61464
1.61252
1.61049
1.60855
1.60669
1.60492
1.60324
1.60165
1.60017
1.59878
1.59751
1.59635
1.5953
1.59436
1.59354
1.59282
1.59222
1.59171
1.5913
1.59099
1.59075
1.59058
1.59047
1.59041
1.59039
1.5904
1.59042
1.59045
1.59048
1.59051
1.59052
1.68646
1.68664
1.68699
1.68752
1.68822
1.6891
1.69015
1.69137
1.69276
1.69431
1.69602
1.6979
1.69992
1.70209
1.70441
1.70687
1.70947
1.71219
1.71504
1.71801
1.72109
1.72427
1.72754
1.7309
1.73432
1.73779
1.7413
1.74482
1.74835
1.75185
1.7553
1.75868
1.76196
1.76513
1.76816
1.77103
1.77371
1.77618
1.77843
1.78043
1.78217
1.78363
1.78481
1.78569
1.78626
1.78651
1.78643
1.78603
1.78531
1.78425
1.78286
1.78115
1.77911
1.77677
1.77412
1.77118
1.76796
1.76447
1.76074
1.75677
1.7526
1.74825
1.74373
1.73908
1.73433
1.72949
1.72461
1.7197
1.71481
1.70995
1.70516
1.70045
1.69586
1.69139
1.68707
1.68291
1.67892
1.6751
1.67145
1.66798
1.66467
1.66153
1.65854
1.65569
1.65298
1.65039
1.64791
1.64555
1.64328
1.6411
1.63902
1.63702
1.63511
1.63329
1.63155
1.62991
1.62835
1.6269
1.62554
1.62429
1.62314
1.6221
1.62116
1.62033
1.6196
1.61896
1.61843
1.61798
1.61762
1.61733
1.61711
1.61695
1.61683
1.61676
1.61671
1.61669
1.61669
1.61669
1.61669
1.61669
1.71294
1.71311
1.71344
1.71395
1.71461
1.71544
1.71644
1.71759
1.71891
1.72038
1.722
1.72377
1.72568
1.72774
1.72993
1.73225
1.7347
1.73727
1.73995
1.74274
1.74563
1.74861
1.75167
1.75481
1.758
1.76123
1.76449
1.76776
1.77102
1.77425
1.77744
1.78055
1.78358
1.78649
1.78927
1.79189
1.79434
1.7966
1.79865
1.80047
1.80204
1.80336
1.80442
1.80519
1.80568
1.80587
1.80576
1.80535
1.80463
1.80361
1.80228
1.80065
1.79872
1.7965
1.794
1.79123
1.78821
1.78493
1.78143
1.77772
1.77381
1.76974
1.76551
1.76116
1.75671
1.75219
1.74762
1.74302
1.73843
1.73387
1.72935
1.72492
1.72057
1.71634
1.71223
1.70826
1.70443
1.70075
1.69723
1.69386
1.69065
1.68758
1.68465
1.68185
1.67918
1.67663
1.67419
1.67186
1.66962
1.66748
1.66542
1.66346
1.66158
1.65979
1.65809
1.65648
1.65496
1.65353
1.6522
1.65097
1.64983
1.64879
1.64785
1.64701
1.64627
1.64562
1.64505
1.64457
1.64417
1.64384
1.64358
1.64337
1.64321
1.64309
1.64301
1.64295
1.64291
1.64289
1.64287
1.64287
1.73925
1.73941
1.73973
1.7402
1.74084
1.74162
1.74256
1.74366
1.7449
1.74629
1.74782
1.74949
1.7513
1.75324
1.75531
1.7575
1.75981
1.76222
1.76475
1.76737
1.77008
1.77287
1.77574
1.77866
1.78163
1.78464
1.78767
1.7907
1.79372
1.79671
1.79965
1.80252
1.8053
1.80797
1.81052
1.81293
1.81517
1.81723
1.81909
1.82075
1.82217
1.82336
1.8243
1.82498
1.82539
1.82553
1.82539
1.82497
1.82426
1.82327
1.822
1.82044
1.81861
1.81652
1.81416
1.81155
1.8087
1.80563
1.80234
1.79886
1.7952
1.79138
1.78742
1.78335
1.77918
1.77494
1.77065
1.76634
1.76202
1.75773
1.75348
1.74929
1.74517
1.74115
1.73724
1.73345
1.72979
1.72625
1.72286
1.7196
1.71648
1.71349
1.71062
1.70789
1.70527
1.70276
1.70036
1.69807
1.69587
1.69376
1.69174
1.68981
1.68797
1.68621
1.68455
1.68296
1.68147
1.68007
1.67876
1.67754
1.67642
1.67539
1.67445
1.67361
1.67285
1.67218
1.67159
1.67109
1.67066
1.67029
1.66999
1.66974
1.66955
1.66939
1.66927
1.66918
1.66912
1.66908
1.66905
1.66904
1.76541
1.76556
1.76586
1.76631
1.7669
1.76765
1.76854
1.76957
1.77075
1.77206
1.7735
1.77508
1.77679
1.77862
1.78057
1.78263
1.7848
1.78708
1.78945
1.79191
1.79445
1.79706
1.79974
1.80246
1.80523
1.80803
1.81084
1.81365
1.81645
1.81921
1.82192
1.82457
1.82713
1.82959
1.83193
1.83413
1.83618
1.83806
1.83975
1.84125
1.84254
1.84361
1.84444
1.84503
1.84538
1.84547
1.8453
1.84487
1.84417
1.84322
1.84199
1.84051
1.83878
1.83679
1.83456
1.8321
1.82942
1.82653
1.82344
1.82017
1.81674
1.81315
1.80944
1.80562
1.80171
1.79773
1.79371
1.78965
1.7856
1.78155
1.77754
1.77357
1.76968
1.76586
1.76214
1.75852
1.75501
1.75162
1.74835
1.7452
1.74217
1.73926
1.73648
1.7338
1.73124
1.72879
1.72643
1.72418
1.72202
1.71995
1.71797
1.71608
1.71427
1.71255
1.71091
1.70936
1.70789
1.70652
1.70523
1.70403
1.70291
1.70189
1.70096
1.70011
1.69934
1.69866
1.69806
1.69753
1.69707
1.69668
1.69634
1.69607
1.69584
1.69565
1.69551
1.69539
1.69531
1.69525
1.69521
1.69519
1.79141
1.79155
1.79184
1.79226
1.79282
1.79353
1.79437
1.79534
1.79645
1.79769
1.79906
1.80055
1.80215
1.80388
1.80571
1.80765
1.8097
1.81183
1.81406
1.81636
1.81874
1.82118
1.82368
1.82623
1.82881
1.83141
1.83402
1.83662
1.83921
1.84176
1.84427
1.8467
1.84906
1.85132
1.85346
1.85548
1.85735
1.85907
1.86061
1.86197
1.86313
1.86408
1.86482
1.86534
1.86562
1.86567
1.86547
1.86504
1.86435
1.86342
1.86225
1.86084
1.85919
1.85731
1.8552
1.85288
1.85035
1.84763
1.84472
1.84165
1.83842
1.83506
1.83157
1.82799
1.82431
1.82058
1.81679
1.81298
1.80915
1.80534
1.80155
1.7978
1.7941
1.79048
1.78693
1.78348
1.78012
1.77686
1.77371
1.77067
1.76774
1.76492
1.76221
1.75961
1.75711
1.75471
1.75241
1.7502
1.74808
1.74605
1.74411
1.74225
1.74048
1.73879
1.73719
1.73567
1.73423
1.73287
1.73161
1.73042
1.72932
1.72831
1.72737
1.72652
1.72575
1.72506
1.72444
1.7239
1.72342
1.723
1.72265
1.72234
1.72209
1.72188
1.72171
1.72158
1.72147
1.7214
1.72135
1.72133
1.81727
1.8174
1.81767
1.81807
1.81861
1.81927
1.82006
1.82098
1.82203
1.8232
1.82448
1.82589
1.8274
1.82902
1.83075
1.83258
1.83449
1.8365
1.83858
1.84074
1.84297
1.84525
1.84759
1.84996
1.85236
1.85477
1.8572
1.85961
1.86201
1.86436
1.86667
1.86892
1.87109
1.87316
1.87513
1.87698
1.87869
1.88025
1.88165
1.88288
1.88392
1.88478
1.88543
1.88587
1.8861
1.88611
1.88589
1.88545
1.88478
1.88388
1.88275
1.8814
1.87983
1.87805
1.87605
1.87386
1.87147
1.86891
1.86617
1.86328
1.86025
1.85708
1.85381
1.85043
1.84698
1.84346
1.8399
1.83631
1.8327
1.8291
1.82552
1.82196
1.81846
1.81501
1.81164
1.80833
1.80512
1.802
1.79897
1.79604
1.7932
1.79047
1.78784
1.78531
1.78287
1.78053
1.77828
1.77612
1.77405
1.77207
1.77017
1.76835
1.76661
1.76496
1.76338
1.76189
1.76048
1.75915
1.7579
1.75673
1.75564
1.75464
1.75371
1.75286
1.75208
1.75138
1.75076
1.7502
1.7497
1.74927
1.74889
1.74857
1.74829
1.74806
1.74788
1.74772
1.74761
1.74752
1.74747
1.74744
1.843
1.84312
1.84337
1.84375
1.84426
1.84488
1.84563
1.8465
1.84748
1.84858
1.8498
1.85112
1.85254
1.85407
1.85569
1.8574
1.8592
1.86108
1.86304
1.86506
1.86714
1.86927
1.87145
1.87366
1.87589
1.87814
1.88038
1.88262
1.88484
1.88702
1.88915
1.89122
1.89321
1.89511
1.89692
1.89861
1.90017
1.90159
1.90286
1.90397
1.90491
1.90567
1.90624
1.90662
1.9068
1.90677
1.90653
1.90609
1.90543
1.90456
1.90347
1.90218
1.90069
1.89899
1.89711
1.89503
1.89278
1.89036
1.88778
1.88506
1.8822
1.87922
1.87614
1.87296
1.86971
1.8664
1.86304
1.85965
1.85625