/*--------------------------------*- C++ -*----------------------------------*\
| =========                 |                                                 |
| \\      /  F ield         | OpenFOAM: The Open Source CFD Toolbox           |
|  \\    /   O peration     | Version:  2406                                  |
|   \\  /    A nd           | Website:  www.openfoam.com                      |
|    \\/     M anipulation  |                                                 |
\*---------------------------------------------------------------------------*/
FoamFile
{
    version     2.0;
    format      ascii;
    arch        "LSB;label=32;scalar=64";
    class       volScalarField;
    location    "9.4";
    object      C_0_0;
}
// * * * * * * * * * * * * * * * * * * * * * * * * * * * * * * * * * * * * * //

dimensions      [1 -3 0 0 0 0 0];

internalField   nonuniform List<scalar> 
14400
(
0.214068
0.213306
0.211956
0.210289
0.208592
0.207117
0.206054
0.20552
0.205557
0.206135
0.207144
0.208395
0.209617
0.21047
0.210585
0.209651
0.207554
0.204499
0.200868
0.197083
0.193529
0.190531
0.188359
0.187247
0.187413
0.189079
0.192487
0.197904
0.205623
0.215952
0.229203
0.245695
0.265747
0.289684
0.317815
0.350388
0.387424
0.428067
0.466832
0.494581
0.5139
0.5304
0.544338
0.555904
0.565241
0.572458
0.577637
0.580835
0.58209
0.581423
0.578835
0.574312
0.56782
0.559309
0.548706
0.535912
0.520799
0.503198
0.482833
0.453126
0.412502
0.371886
0.335109
0.302835
0.275018
0.251405
0.23168
0.215509
0.202545
0.192434
0.184814
0.179342
0.175722
0.173722
0.173174
0.173966
0.176029
0.179333
0.183872
0.189663
0.196728
0.20508
0.214688
0.225426
0.236993
0.248732
0.259067
0.264832
0.263918
0.258411
0.250931
0.243094
0.235593
0.228796
0.222902
0.217998
0.214088
0.211121
0.208995
0.20758
0.206722
0.206269
0.206086
0.206088
0.206255
0.206645
0.207382
0.208639
0.210609
0.213487
0.217459
0.22268
0.229271
0.237295
0.246743
0.257497
0.269278
0.281528
0.293066
0.30039
0.219071
0.218119
0.216471
0.214479
0.212489
0.210786
0.209575
0.208981
0.209051
0.209751
0.210972
0.212517
0.214095
0.215319
0.21573
0.214877
0.212539
0.209053
0.204941
0.20071
0.196782
0.193493
0.191113
0.189874
0.189988
0.191672
0.195163
0.200723
0.208638
0.219207
0.23274
0.249551
0.269961
0.294296
0.322864
0.355912
0.393474
0.434635
0.471859
0.497734
0.51671
0.532961
0.546711
0.558133
0.567361
0.574497
0.579617
0.582777
0.584013
0.583344
0.58077
0.576279
0.56984
0.561402
0.550897
0.538232
0.523287
0.505905
0.48588
0.45794
0.418697
0.377495
0.340127
0.307337
0.279055
0.255019
0.234906
0.218378
0.205091
0.194695
0.186835
0.181174
0.177419
0.175335
0.174753
0.175558
0.177683
0.181097
0.185801
0.191816
0.199172
0.20789
0.217947
0.229228
0.241451
0.25396
0.264821
0.270434
0.270143
0.264447
0.256468
0.248154
0.240236
0.233092
0.226924
0.221818
0.217781
0.214754
0.212632
0.211268
0.210494
0.21013
0.210016
0.210044
0.210186
0.210511
0.211168
0.212355
0.214292
0.21719
0.221246
0.226623
0.233442
0.241773
0.251607
0.262835
0.275181
0.288051
0.299971
0.306717
0.229591
0.228195
0.225876
0.223182
0.220575
0.218398
0.216883
0.216166
0.216297
0.217245
0.218895
0.221041
0.223363
0.225397
0.226506
0.2259
0.222962
0.218491
0.213343
0.208182
0.203488
0.19961
0.196813
0.195316
0.195321
0.197036
0.200686
0.206522
0.214813
0.22585
0.239933
0.257374
0.278493
0.303613
0.333032
0.366961
0.405327
0.446837
0.480926
0.503888
0.522243
0.538022
0.551412
0.562557
0.571573
0.578551
0.583558
0.586644
0.587842
0.587168
0.584623
0.580196
0.573857
0.565562
0.555248
0.542833
0.528211
0.511248
0.49178
0.466788
0.4304
0.388478
0.350142
0.316395
0.287213
0.262343
0.241465
0.224236
0.210314
0.199355
0.191018
0.184978
0.180948
0.178693
0.178039
0.178869
0.181116
0.184756
0.189795
0.196265
0.204208
0.213657
0.224599
0.236932
0.250377
0.264226
0.275746
0.28104
0.281579
0.276312
0.267616
0.258431
0.249714
0.241897
0.235199
0.229708
0.22543
0.222301
0.220202
0.218964
0.218381
0.218223
0.218268
0.218355
0.218436
0.218609
0.219078
0.220103
0.221949
0.224866
0.229071
0.234739
0.241996
0.250914
0.261489
0.273616
0.28702
0.301031
0.313123
0.318324
0.246638
0.244358
0.240839
0.236968
0.233368
0.230447
0.22846
0.227551
0.22777
0.229086
0.231386
0.234457
0.237958
0.241357
0.243804
0.2439
0.23964
0.233377
0.226512
0.219887
0.214019
0.209247
0.205817
0.203925
0.203757
0.205502
0.209369
0.215588
0.224416
0.236125
0.25101
0.269376
0.291543
0.317824
0.348494
0.383681
0.422974
0.46351
0.492617
0.51285
0.530351
0.545474
0.558356
0.569109
0.577824
0.584575
0.58942
0.592399
0.593542
0.592862
0.590359
0.586024
0.57983
0.57174
0.561699
0.54964
0.535475
0.519096
0.500372
0.478379
0.446413
0.40466
0.365232
0.330153
0.299662
0.273569
0.251566
0.23331
0.218461
0.20668
0.197642
0.191037
0.186589
0.184068
0.1833
0.184168
0.186604
0.190591
0.196143
0.203305
0.212133
0.222669
0.234911
0.24875
0.263854
0.279254
0.29088
0.29584
0.297101
0.293778
0.284565
0.274201
0.264356
0.255584
0.248132
0.242102
0.237499
0.234257
0.232241
0.23125
0.231022
0.231244
0.231588
0.231785
0.231745
0.231624
0.231735
0.232442
0.234092
0.236984
0.241366
0.247426
0.255296
0.265043
0.276658
0.290014
0.304755
0.319833
0.330597
0.334222
0.27167
0.267633
0.262124
0.256485
0.251468
0.247512
0.244879
0.243704
0.244035
0.245838
0.249002
0.253318
0.258448
0.263849
0.268546
0.270352
0.263381
0.25424
0.244903
0.236274
0.228831
0.222868
0.218588
0.216159
0.215739
0.217494
0.221611
0.228301
0.2378
0.250368
0.266287
0.285857
0.309392
0.337191
0.36949
0.406321
0.446839
0.482271
0.505663
0.524354
0.540835
0.555168
0.567431
0.577699
0.586038
0.592506
0.597146
0.599992
0.601065
0.600377
0.597929
0.59371
0.587701
0.579868
0.570171
0.558553
0.544951
0.52929
0.511491
0.49149
0.465083
0.42645
0.385666
0.34885
0.316656
0.288971
0.265503
0.245915
0.229869
0.217033
0.207092
0.199755
0.194758
0.191884
0.190963
0.191881
0.194577
0.199036
0.205283
0.213373
0.22337
0.235326
0.249243
0.264996
0.282135
0.298963
0.309296
0.31408
0.315949
0.314873
0.307176
0.295697
0.284536
0.274594
0.266209
0.259517
0.25454
0.251214
0.249393
0.24884
0.249223
0.250111
0.250995
0.251394
0.251112
0.250445
0.249915
0.250057
0.251328
0.254095
0.258637
0.265155
0.273775
0.284554
0.297456
0.312291
0.328462
0.343532
0.350881
0.353536
0.306019
0.298723
0.290257
0.282233
0.275382
0.270115
0.266667
0.265159
0.265624
0.268024
0.272246
0.278078
0.285186
0.292988
0.300041
0.300689
0.293629
0.281119
0.268779
0.257722
0.248367
0.240945
0.235614
0.232504
0.231743
0.233473
0.237858
0.245088
0.25538
0.268976
0.286147
0.307184
0.332386
0.362015
0.396177
0.434405
0.473703
0.501236
0.520701
0.538067
0.553468
0.566932
0.5785
0.588216
0.596125
0.602264
0.606667
0.609356
0.610349
0.609653
0.607269
0.603188
0.597394
0.589862
0.580561
0.569451
0.556487
0.541622
0.524809
0.506011
0.484342
0.452611
0.411324
0.372679
0.338492
0.308887
0.283639
0.262435
0.244942
0.230839
0.219821
0.21161
0.205959
0.202663
0.201564
0.202556
0.205583
0.210638
0.217752
0.226986
0.238409
0.252076
0.26798
0.285958
0.305321
0.322016
0.330349
0.335207
0.337646
0.337795
0.334044
0.322953
0.310599
0.299371
0.289912
0.282466
0.277089
0.273743
0.272284
0.272444
0.273815
0.275826
0.277682
0.278468
0.277693
0.276037
0.274413
0.273622
0.27425
0.276735
0.281383
0.288394
0.297877
0.30985
0.324211
0.340619
0.3578
0.369042
0.373384
0.375503
0.34228
0.336305
0.325054
0.314389
0.305437
0.298642
0.294248
0.292353
0.292975
0.296068
0.301504
0.309019
0.318178
0.327907
0.332849
0.331201
0.326566
0.313288
0.298154
0.284506
0.273012
0.263918
0.257357
0.25343
0.252241
0.25391
0.258577
0.266412
0.277612
0.292403
0.311036
0.333782
0.360914
0.392642
0.428881
0.468162
0.499311
0.519965
0.537714
0.553745
0.568039
0.580593
0.59142
0.600541
0.607981
0.61376
0.617901
0.620417
0.621321
0.620617
0.618305
0.614378
0.608824
0.601625
0.59276
0.582203
0.569925
0.555902
0.540112
0.522552
0.503239
0.478866
0.442098
0.401885
0.365524
0.333723
0.306402
0.283306
0.264129
0.24856
0.236306
0.227101
0.220713
0.21695
0.215666
0.216765
0.220199
0.225966
0.234103
0.244673
0.257746
0.273366
0.291484
0.31176
0.332719
0.346712
0.353857
0.358754
0.361633
0.362621
0.361884
0.355621
0.342801
0.330301
0.319669
0.311402
0.30561
0.302324
0.301438
0.302659
0.305512
0.309332
0.312921
0.314512
0.312687
0.309301
0.305921
0.303714
0.303364
0.305369
0.310046
0.317574
0.328005
0.341269
0.357082
0.374552
0.388528
0.394669
0.397921
0.399589
0.37566
0.373777
0.365245
0.352774
0.341776
0.333353
0.327944
0.325637
0.32644
0.330294
0.33705
0.346213
0.356809
0.364574
0.365067
0.363027
0.35972
0.350069
0.333048
0.316883
0.30313
0.292207
0.284269
0.279407
0.277712
0.279287
0.284255
0.292767
0.304999
0.32115
0.341442
0.3661
0.395328
0.429167
0.466732
0.500383
0.522612
0.540235
0.556442
0.571162
0.584349
0.59598
0.606046
0.614549
0.621496
0.626895
0.630758
0.633091
0.633901
0.63319
0.630956
0.627195
0.621899
0.615056
0.606652
0.596674
0.585109
0.571947
0.557187
0.540843
0.522949
0.503433
0.475881
0.436359
0.398095
0.363923
0.334267
0.309016
0.287919
0.270687
0.257043
0.246731
0.239532
0.235266
0.2338
0.235044
0.238961
0.245551
0.254854
0.266935
0.281858
0.299641
0.320145
0.342656
0.36265
0.372827
0.37945
0.384319
0.387511
0.389149
0.38941
0.388023
0.38056
0.36751
0.355742
0.346677
0.340447
0.337294
0.337206
0.339862
0.344688
0.351143
0.357411
0.360606
0.356713
0.35076
0.344835
0.340723
0.339034
0.340356
0.344983
0.353043
0.364467
0.378966
0.395564
0.410485
0.417933
0.421525
0.424045
0.425341
0.408715
0.4084
0.40556
0.396472
0.384306
0.374328
0.367962
0.36526
0.366259
0.370868
0.378958
0.389131
0.397689
0.399652
0.398195
0.396052
0.393051
0.387905
0.373288
0.355077
0.33908
0.326243
0.316819
0.310921
0.308653
0.310115
0.315415
0.324685
0.33808
0.355761
0.377894
0.404593
0.435869
0.471147
0.505804
0.528968
0.545983
0.561919
0.576658
0.590111
0.602215
0.612932
0.622236
0.630113
0.636557
0.641567
0.645144
0.647289
0.648002
0.647285
0.645135
0.641548
0.63652
0.630046
0.622118
0.612733
0.601889
0.589589
0.575846
0.560685
0.544144
0.526278
0.506165
0.475991
0.436582
0.399949
0.367735
0.340086
0.316837
0.297743
0.282549
0.271013
0.262927
0.258123
0.256476
0.257907
0.262381
0.269903
0.28051
0.294262
0.311206
0.33129
0.354112
0.377796
0.392714
0.400574
0.406798
0.411561
0.414941
0.417056
0.418072
0.418212
0.416661
0.409847
0.397867
0.388425
0.381706
0.37872
0.379636
0.384034
0.390795
0.399908
0.405088
0.406635
0.40501
0.399367
0.390786
0.384688
0.381364
0.381865
0.386368
0.394952
0.407283
0.422356
0.43585
0.443323
0.446705
0.449453
0.451391
0.452391
0.442085
0.441975
0.441838
0.439184
0.431875
0.421106
0.414238
0.41122
0.412402
0.417456
0.426387
0.433066
0.435076
0.433661
0.43201
0.429936
0.427322
0.424133
0.416495
0.398914
0.381151
0.366457
0.355496
0.34848
0.345587
0.346928
0.352602
0.362724
0.377422
0.396792
0.420914
0.449614
0.48233
0.516091
0.539082
0.555151
0.570424
0.584801
0.59816
0.610407
0.62147
0.631297
0.639852
0.647109
0.653053
0.657673
0.660962
0.662917
0.663535
0.662813
0.660749
0.657342
0.652589
0.646489
0.639042
0.630252
0.620125
0.608675
0.595924
0.581906
0.566665
0.55026
0.532759
0.511722
0.479971
0.441956
0.407242
0.377045
0.351441
0.330287
0.313377
0.30049
0.291432
0.286047
0.284219
0.285875
0.290983
0.299543
0.311584
0.327145
0.346232
0.368663
0.393402
0.413169
0.422786
0.429821
0.435605
0.440186
0.443636
0.446061
0.447609
0.448478
0.448925
0.448211
0.443589
0.435931
0.428788
0.426036
0.427964
0.43402
0.44019
0.443929
0.445086
0.445082
0.445787
0.444737
0.44107
0.434702
0.429837
0.429656
0.433915
0.442716
0.455062
0.464843
0.47079
0.473566
0.476102
0.478191
0.479674
0.480442
0.475564
0.475578
0.475674
0.475996
0.47483
0.470796
0.465488
0.46232
0.463629
0.467588
0.470639
0.471166
0.469471
0.467901
0.466246
0.464361
0.462165
0.459635
0.456743
0.447613
0.429472
0.413215
0.400787
0.392583
0.389038
0.390273
0.396366
0.407424
0.423558
0.444699
0.470821
0.500767
0.531459
0.55296
0.567782
0.582073
0.595759
0.6087
0.620775
0.631888
0.641961
0.650935
0.658765
0.66542
0.670873
0.675109
0.678115
0.679883
0.680407
0.679682
0.677708
0.674481
0.670004
0.664279
0.65731
0.649107
0.639683
0.629061
0.61727
0.604349
0.590349
0.575337
0.559389
0.542605
0.521173
0.489097
0.453006
0.420381
0.392296
0.368906
0.35012
0.335748
0.325623
0.319606
0.317589
0.319505
0.325324
0.335031
0.348618
0.366073
0.387273
0.411492
0.434669
0.446782
0.454035
0.460319
0.465615
0.469942
0.473356
0.475943
0.477826
0.479167
0.480169
0.481074
0.481849
0.480183
0.477858
0.47663
0.477531
0.47941
0.480694
0.479984
0.479578
0.479756
0.480552
0.481996
0.483299
0.48259
0.48161
0.481976
0.485538
0.491225
0.496694
0.500016
0.501976
0.504033
0.505947
0.507537
0.508671
0.50926
0.509028
0.509098
0.509283
0.50967
0.510383
0.511117
0.509991
0.508822
0.5087
0.508825
0.507284
0.50536
0.503729
0.502224
0.500712
0.499099
0.49734
0.495436
0.493437
0.491064
0.48248
0.466307
0.453006
0.443575
0.439437
0.440623
0.447172
0.45918
0.476821
0.499445
0.526702
0.551974
0.570605
0.583837
0.596877
0.609599
0.621841
0.633465
0.644353
0.654408
0.66355
0.671716
0.678855
0.68493
0.689911
0.693775
0.696506
0.698093
0.698527
0.697802
0.695918
0.692872
0.688668
0.683311
0.676811
0.669181
0.660441
0.650617
0.639745
0.62787
0.615048
0.601348
0.586856
0.571671
0.555909
0.53502
0.504285
0.470369
0.439906
0.41417
0.393387
0.377401
0.366112
0.359408
0.357188
0.359393
0.365995
0.376955
0.392166
0.411509
0.434571
0.458948
0.472894
0.479948
0.486249
0.491806
0.496592
0.500612
0.503902
0.506528
0.508585
0.510196
0.511508
0.512688
0.513898
0.515314
0.516431
0.516631
0.516362
0.515272
0.514204
0.513622
0.513481
0.513811
0.514641
0.515999
0.517915
0.520528
0.522868
0.52469
0.52699
0.529101
0.53018
0.531513
0.533056
0.534643
0.536115
0.537339
0.538213
0.538667
0.542421
0.542504
0.542691
0.543019
0.543518
0.544159
0.544839
0.544968
0.544023
0.542404
0.54078
0.539255
0.537862
0.536556
0.535277
0.533983
0.53266
0.531334
0.530071
0.528991
0.52783
0.521815
0.511423
0.501125
0.496854
0.498149
0.505137
0.517782
0.536555
0.558634
0.577317
0.591792
0.603187
0.614757
0.626291
0.637605
0.648541
0.658965
0.668764
0.677841
0.686115
0.693523
0.70001
0.705535
0.710065
0.713574
0.716042
0.717455
0.717804
0.717083
0.715288
0.712421
0.708484
0.703488
0.697442
0.690366
0.682282
0.673222
0.663224
0.652338
0.640623
0.628154
0.615015
0.601311
0.587161
0.572698
0.553516
0.526062
0.494426
0.466484
0.443756
0.426054
0.413517
0.406077
0.403631
0.40613
0.413568
0.425875
0.442656
0.463533
0.48706
0.501198
0.507895
0.513795
0.519206
0.524065
0.528336
0.532013
0.535113
0.537683
0.53979
0.541523
0.542982
0.544271
0.545474
0.546617
0.547543
0.548033
0.547899
0.547464
0.547028
0.546818
0.546915
0.547366
0.548203
0.549444
0.55109
0.553119
0.555336
0.557502
0.559119
0.56038
0.561561
0.562798
0.564092
0.565368
0.566531
0.567491
0.568174
0.568529
0.575733
0.575805
0.575957
0.576195
0.576511
0.576851
0.577093
0.576987
0.576354
0.57533
0.574175
0.573016
0.571909
0.57086
0.569857
0.568894
0.567985
0.567168
0.566523
0.566169
0.566289
0.567044
0.565092
0.56197
0.559645
0.561366
0.568641
0.580345
0.593605
0.606065
0.616051
0.625554
0.635522
0.645713
0.655926
0.665988
0.675752
0.685091
0.693897
0.702075
0.709548
0.71625
0.722127
0.727136
0.73124
0.734412
0.736632
0.737883
0.738153
0.737437
0.735731
0.733038
0.729362
0.724712
0.719104
0.712558
0.7051
0.696764
0.687591
0.677634
0.666954
0.655627
0.64374
0.631397
0.618719
0.605848
0.592946
0.576712
0.554195
0.525512
0.501591
0.48213
0.468349
0.460175
0.45747
0.460201
0.468418
0.482108
0.499761
0.519961
0.532328
0.538142
0.543238
0.548132
0.552714
0.556911
0.560675
0.563988
0.566855
0.5693
0.57137
0.573123
0.574625
0.57594
0.577109
0.578135
0.578952
0.579472
0.579663
0.579658
0.579624
0.579707
0.579993
0.580534
0.581361
0.582482
0.583885
0.585518
0.587263
0.588961
0.590435
0.59171
0.592884
0.594027
0.595146
0.596205
0.59715
0.59792
0.598464
0.598746
0.608971
0.609027
0.609136
0.609294
0.609479
0.609641
0.609696
0.609531
0.609077
0.608386
0.607574
0.606727
0.605899
0.605118
0.604397
0.603753
0.603215
0.602833
0.602682
0.602873
0.60356
0.604941
0.607291
0.609886
0.611884
0.615442
0.621346
0.628711
0.635841
0.642708
0.650461
0.65884
0.667634
0.676649
0.685711
0.694669
0.703388
0.711752
0.719657
0.727015
0.733752
0.739802
0.745113
0.74964
0.753347
0.756205
0.758191
0.75929
0.759488
0.75878
0.757163
0.754638
0.751212
0.746895
0.741705
0.735662
0.728796
0.721142
0.712743
0.703652
0.693933
0.68366
0.672921
0.661818
0.650472
0.639022
0.627633
0.616508
0.604134
0.58716
0.566047
0.545215
0.53067
0.521942
0.518935
0.521652
0.530066
0.5446
0.557827
0.566769
0.570808
0.57474
0.578784
0.582779
0.586608
0.590188
0.593466
0.596411
0.599017
0.601293
0.603266
0.604974
0.606457
0.607753
0.608888
0.609863
0.610656
0.61124
0.611624
0.611879
0.612105
0.612394
0.612816
0.613418
0.614224
0.61524
0.616448
0.617806
0.619236
0.620645
0.62195
0.623139
0.62424
0.625279
0.626259
0.627158
0.627943
0.628574
0.629016
0.629245
0.642154
0.642194
0.642268
0.642367
0.64247
0.642538
0.642521
0.642363
0.642036
0.641565
0.641007
0.640417
0.639842
0.639315
0.63886
0.638507
0.638291
0.638265
0.638498
0.639083
0.640136
0.641787
0.644164
0.647298
0.651242
0.655611
0.660213
0.66522
0.670932
0.677277
0.684246
0.691712
0.699525
0.707536
0.715601
0.723589
0.73138
0.73887
0.745963
0.752577
0.758641
0.764094
0.768883
0.772964
0.776302
0.778868
0.780638
0.781596
0.78173
0.781033
0.779501
0.777139
0.773952
0.769952
0.765157
0.75959
0.753281
0.746264
0.738586
0.730299
0.721466
0.712159
0.702465
0.692484
0.682329
0.672134
0.662054
0.652273
0.643006
0.634275
0.62304
0.610502
0.598434
0.5898
0.586458
0.588548
0.59395
0.599704
0.603896
0.605764
0.608287
0.611227
0.61438
0.617593
0.620751
0.623769
0.626589
0.629174
0.631507
0.633588
0.635429
0.63705
0.638475
0.639728
0.640826
0.641773
0.642568
0.643209
0.643714
0.644131
0.644521
0.644947
0.645461
0.646097
0.646877
0.647804
0.648863
0.650022
0.651231
0.652433
0.653581
0.654655
0.655657
0.656591
0.657452
0.658226
0.65889
0.659417
0.659783
0.659971
0.675298
0.675325
0.675375
0.675437
0.675494
0.67552
0.675486
0.675363
0.67514
0.674832
0.67447
0.674094
0.673739
0.673438
0.673222
0.673122
0.673178
0.673437
0.673962
0.674826
0.676112
0.677908
0.680282
0.683261
0.686827
0.690846
0.69524
0.700057
0.705387
0.711224
0.717534
0.724235
0.731219
0.738369
0.745568
0.752704
0.759675
0.766384
0.772748
0.778689
0.784143
0.789049
0.79336
0.797032
0.80003
0.802327
0.803898
0.804728
0.804804
0.804119
0.802671
0.800464
0.797504
0.793804
0.789382
0.784261
0.778471
0.772049
0.765039
0.757492
0.749471
0.741045
0.732298
0.723322
0.714225
0.705131
0.696177
0.687523
0.679345
0.671835
0.665242
0.659295
0.652661
0.646997
0.643639
0.642746
0.642996
0.642424
0.64258
0.643641
0.645351
0.647499
0.649915
0.652463
0.655034
0.657548
0.659946
0.662188
0.664251
0.666125
0.667812
0.669321
0.670665
0.671859
0.672914
0.673837
0.674634
0.675312
0.675893
0.676409
0.676901
0.677413
0.677982
0.678633
0.679384
0.680235
0.681178
0.682187
0.683232
0.684276
0.685286
0.686245
0.687143
0.687975
0.688733
0.689405
0.689973
0.69042
0.690728
0.690886
0.708415
0.708434
0.708469
0.708512
0.708549
0.708564
0.70854
0.708463
0.70833
0.708151
0.707948
0.707748
0.707581
0.707478
0.707467
0.707582
0.70786
0.708345
0.709087
0.710145
0.71158
0.713449
0.715796
0.718637
0.721958
0.725705
0.729844
0.734381
0.739335
0.744697
0.750432
0.756476
0.762747
0.769153
0.775597
0.781986
0.788229
0.794244
0.799954
0.80529
0.81019
0.814601
0.818475
0.821773
0.82446
0.82651
0.827899
0.828612
0.828637
0.827968
0.826602
0.824542
0.821796
0.818378
0.814305
0.8096
0.804294
0.798422
0.792027
0.785161
0.77788
0.770254
0.762358
0.754281
0.74612
0.737986
0.730001
0.722297
0.715017
0.708306
0.7023
0.697053
0.692674
0.689048
0.685958
0.683364
0.681493
0.680514
0.680333
0.680868
0.681975
0.683504
0.68532
0.687308
0.689374
0.691443
0.693459
0.695381
0.697182
0.698848
0.700372
0.701756
0.703006
0.704129
0.705134
0.706027
0.706817
0.707514
0.708137
0.70871
0.709262
0.709823
0.710419
0.711071
0.711789
0.712576
0.713425
0.714318
0.715235
0.716151
0.717043
0.717894
0.718694
0.719432
0.720101
0.720687
0.721178
0.721561
0.721825
0.721959
0.741512
0.741528
0.741556
0.741591
0.741625
0.741646
0.741647
0.74162
0.741567
0.741495
0.741422
0.741369
0.741361
0.741424
0.741587
0.74188
0.742336
0.742994
0.743897
0.745088
0.746613
0.748513
0.750816
0.753535
0.756661
0.760173
0.764051
0.768286
0.772874
0.777797
0.78302
0.78849
0.794141
0.799898
0.805682
0.811412
0.817013
0.82241
0.827535
0.832326
0.836728
0.840689
0.844168
0.847125
0.849528
0.851353
0.852577
0.853185
0.853166
0.852513
0.851225
0.849306
0.846762
0.843607
0.839859
0.835541
0.830683
0.825318
0.819488
0.813242
0.806636
0.799731
0.792601
0.785323
0.777989
0.770693
0.763542
0.756647
0.75012
0.744073
0.738599
0.733759
0.729592
0.72606
0.723093
0.720681
0.7189
0.717806
0.717368
0.717525
0.718178
0.719222
0.720552
0.722075
0.72371
0.725391
0.727066
0.728695
0.73025
0.731713
0.733072
0.734325
0.735473
0.736518
0.737465
0.73832
0.739093
0.739791
0.740432
0.741032
0.741613
0.742196
0.742801
0.743442
0.744126
0.744856
0.745626
0.746426
0.747239
0.74805
0.74884
0.749596
0.750306
0.750961
0.75155
0.752064
0.752491
0.752823
0.75305
0.753165
0.774594
0.774609
0.774637
0.774673
0.774713
0.77475
0.774781
0.774804
0.774821
0.77484
0.774875
0.774945
0.775069
0.775271
0.775577
0.776013
0.77661
0.7774
0.778417
0.779696
0.781272
0.783173
0.785421
0.788023
0.790979
0.794276
0.7979
0.801839
0.806079
0.810597
0.81536
0.820323
0.825429
0.830617
0.835819
0.840969
0.846
0.850847
0.855449
0.859752
0.863705
0.867261
0.870381
0.873029
0.875176
0.876797
0.877871
0.878385
0.878328
0.877694
0.876481
0.874693
0.872339
0.869429
0.865984
0.862023
0.857577
0.852678
0.847365
0.841685
0.835689
0.829435
0.822989
0.816424
0.809818
0.803256
0.796828
0.790627
0.784744
0.779266
0.774265
0.769791
0.765874
0.762507
0.759672
0.757368
0.755619
0.75444
0.753811
0.753684
0.753991
0.754654
0.755592
0.756729
0.758
0.759346
0.760719
0.762084
0.76341
0.76468
0.765879
0.767001
0.768042
0.769004
0.769887
0.770698
0.771441
0.772127
0.772766
0.773372
0.773962
0.774549
0.775148
0.775769
0.776417
0.777095
0.777798
0.778519
0.779247
0.779969
0.780671
0.781343
0.781974
0.782554
0.783075
0.783526
0.783901
0.78419
0.784387
0.784486
0.807662
0.807677
0.807708
0.80775
0.807802
0.80786
0.807924
0.807993
0.808072
0.808169
0.808295
0.808466
0.808699
0.809015
0.809436
0.809987
0.810691
0.811578
0.812674
0.814008
0.815606
0.817488
0.81967
0.822159
0.824956
0.828051
0.831434
0.835091
0.839005
0.843153
0.847501
0.852011
0.856635
0.861321
0.86601
0.870646
0.87517
0.879527
0.883664
0.887529
0.891078
0.894269
0.897065
0.899435
0.901349
0.902786
0.903726
0.904157
0.904067
0.903452
0.902311
0.900648
0.898469
0.895789
0.892622
0.888992
0.884924
0.880451
0.87561
0.870443
0.864999
0.85933
0.853497
0.847565
0.841602
0.835684
0.829887
0.824289
0.818964
0.813983
0.809403
0.805268
0.801605
0.798423
0.795721
0.7935
0.791769
0.790525
0.789751
0.789409
0.789448
0.78981
0.790431
0.791251
0.792215
0.793272
0.794382
0.795509
0.796628
0.797717
0.798763
0.799757
0.800692
0.801567
0.802383
0.803142
0.803848
0.804509
0.805133
0.80573
0.806312
0.80689
0.807473
0.808068
0.808679
0.809309
0.809953
0.810606
0.811261
0.811907
0.812534
0.813132
0.813693
0.814208
0.814668
0.815066
0.815395
0.815648
0.81582
0.815907
0.840713
0.840731
0.840767
0.840818
0.840885
0.840966
0.841061
0.841173
0.841306
0.841469
0.84167
0.841924
0.842246
0.842654
0.843167
0.843805
0.844591
0.845546
0.846694
0.848057
0.849654
0.851502
0.853612
0.855989
0.858633
0.861538
0.864694
0.868087
0.871699
0.875507
0.879481
0.883586
0.887781
0.89202
0.896254
0.900434
0.904508
0.908429
0.912148
0.915622
0.918809
0.921672
0.924177
0.926295
0.928
0.929272
0.930092
0.930448
0.930331
0.929737
0.928664
0.927117
0.925102
0.922633
0.919724
0.916397
0.912677
0.908593
0.904181
0.89948
0.894533
0.88939
0.884105
0.878735
0.873343
0.867992
0.862748
0.857676
0.85284
0.848297
0.844096
0.840273
0.836856
0.833858
0.831286
0.829144
0.827431
0.826141
0.825258
0.824752
0.824583
0.824706
0.825072
0.82563
0.826336
0.827147
0.828027
0.828944
0.829875
0.830798
0.8317
0.83257
0.833402
0.83419
0.834935
0.835638
0.836301
0.836928
0.837527
0.838104
0.838668
0.839226
0.839785
0.84035
0.840924
0.841508
0.842099
0.842693
0.843283
0.843863
0.844424
0.844958
0.845458
0.845915
0.846323
0.846675
0.846965
0.847188
0.847339
0.847416
0.873747
0.873768
0.873809
0.873871
0.873954
0.874056
0.874181
0.874332
0.874511
0.874729
0.874992
0.875314
0.875708
0.876188
0.876772
0.877477
0.87832
0.879322
0.8805
0.881872
0.883452
0.885254
0.887286
0.889551
0.892049
0.894774
0.897716
0.900863
0.904196
0.907694
0.91133
0.915071
0.918883
0.922724
0.926553
0.930326
0.934
0.937532
0.940879
0.944002
0.946865
0.949433
0.951676
0.953568
0.955085
0.956208
0.956921
0.957212
0.957073
0.9565
0.955492
0.954054
0.952191
0.949916
0.947245
0.944196
0.940793
0.937064
0.933041
0.928761
0.924263
0.919593
0.914797
0.909929
0.905042
0.900192
0.895435
0.890828
0.886424
0.88227
0.878409
0.874873
0.871688
0.868868
0.866423
0.864357
0.862669
0.861351
0.860389
0.859758
0.859427
0.85936
0.859518
0.859862
0.860351
0.860953
0.861633
0.862366
0.863128
0.863901
0.864669
0.865423
0.866154
0.866857
0.867531
0.868174
0.868788
0.869376
0.869942
0.870491
0.871029
0.87156
0.872091
0.872623
0.873159
0.873699
0.874241
0.874782
0.875316
0.875838
0.876342
0.876819
0.877265
0.877672
0.878035
0.878347
0.878603
0.8788
0.878933
0.879
0.90676
0.906784
0.906832
0.906904
0.907002
0.907125
0.907277
0.90746
0.907679
0.907942
0.908257
0.908633
0.909083
0.909619
0.910256
0.911009
0.911892
0.912921
0.914112
0.915477
0.917029
0.918777
0.920727
0.922881
0.925238
0.927792
0.930535
0.933453
0.936529
0.939744
0.943073
0.946487
0.949954
0.95344
0.956907
0.960318
0.963635
0.966819
0.969833
0.972642
0.975214
0.977518
0.979527
0.981216
0.982565
0.983555
0.984172
0.984406
0.984249
0.983697
0.982751
0.981414
0.979692
0.977597
0.975143
0.972348
0.969235
0.965828
0.962159
0.958259
0.954166
0.94992
0.945563
0.941142
0.936704
0.932299
0.927974
0.923778
0.919757
0.915951
0.912397
0.909123
0.906153
0.903503
0.901181
0.899193
0.897536
0.896206
0.895188
0.894463
0.894007
0.89379
0.89378
0.893946
0.894256
0.894679
0.895188
0.895759
0.896371
0.897007
0.897653
0.898298
0.898933
0.899554
0.900156
0.900739
0.901301
0.901846
0.902374
0.90289
0.903396
0.903896
0.904394
0.904892
0.90539
0.905888
0.906385
0.906878
0.907362
0.907833
0.908285
0.908713
0.909111
0.909474
0.909796
0.910073
0.910301
0.910475
0.910592
0.910652
0.939748
0.939775
0.93983
0.939912
0.940024
0.940165
0.94034
0.940552
0.940804
0.941104
0.941459
0.941878
0.942371
0.942949
0.943625
0.94441
0.945317
0.946359
0.947549
0.948896
0.95041
0.952098
0.953963
0.956008
0.958229
0.960622
0.963178
0.965884
0.968724
0.971681
0.974731
0.977849
0.981007
0.984174
0.987318
0.990405
0.993402
0.996275
0.998991
1.00152
1.00383
1.0059
1.0077
1.0092
1.0104
1.01127
1.01181
1.01199
1.01182
1.01129
1.0104
1.00916
1.00757
1.00564
1.00338
1.00082
0.997969
0.994856
0.991507
0.987951
0.984222
0.980357
0.976393
0.972371
0.968334
0.964324
0.960383
0.956554
0.952874
0.94938
0.946104
0.94307
0.9403
0.937809
0.935606
0.933696
0.932078
0.930748
0.929693
0.9289
0.928347
0.928011
0.927867
0.927888
0.928047
0.928319
0.928681
0.929111
0.929591
0.930104
0.930638
0.931182
0.931728
0.932269
0.932802
0.933324
0.933834
0.934332
0.934819
0.935297
0.935769
0.936235
0.936699
0.937161
0.937621
0.938079
0.938534
0.938982
0.93942
0.939845
0.940252
0.940636
0.940992
0.941316
0.941603
0.94185
0.942052
0.942206
0.94231
0.942363
0.97271
0.97274
0.9728
0.972891
0.973015
0.973173
0.973368
0.973602
0.973881
0.974211
0.974598
0.975049
0.975574
0.976182
0.976884
0.977688
0.978608
0.979651
0.980828
0.982148
0.983617
0.98524
0.987021
0.988958
0.99105
0.99329
0.995671
0.99818
1.0008
1.00352
1.00632
1.00917
1.01205
1.01493
1.01779
1.02058
1.02329
1.02589
1.02834
1.03061
1.03269
1.03455
1.03616
1.0375
1.03857
1.03933
1.03979
1.03993
1.03975
1.03924
1.03841
1.03725
1.03578
1.034
1.03193
1.02958
1.02697
1.02412
1.02106
1.01782
1.01442
1.01089
1.00728
1.00362
0.999937
0.99628
0.992682
0.989179
0.985806
0.982593
0.979567
0.976753
0.974168
0.971826
0.969738
0.967906
0.966333
0.965013
0.963938
0.963096
0.96247
0.962041
0.961788
0.96169
0.961725
0.96187
0.962105
0.962413
0.962776
0.96318
0.963613
0.964064
0.964526
0.964992
0.965458
0.965921
0.966377
0.966828
0.967273
0.967712
0.968146
0.968577
0.969005
0.969431
0.969854
0.970274
0.970688
0.971096
0.971493
0.971876
0.972242
0.972586
0.972905
0.973195
0.973451
0.97367
0.97385
0.973987
0.97408
0.974127
1.00564
1.00567
1.00574
1.00584
1.00597
1.00614
1.00635
1.00661
1.00691
1.00726
1.00767
1.00815
1.00869
1.00932
1.01004
1.01085
1.01177
1.01281
1.01397
1.01525
1.01667
1.01823
1.01992
1.02175
1.02372
1.02582
1.02803
1.03036
1.03279
1.03529
1.03786
1.04047
1.04309
1.04572
1.04831
1.05085
1.0533
1.05565
1.05786
1.05991
1.06178
1.06344
1.06488
1.06608
1.06703
1.0677
1.06809
1.06819
1.068
1.06752
1.06673
1.06566
1.0643
1.06266
1.06075
1.05859
1.0562
1.0536
1.0508
1.04784
1.04473
1.04152
1.03822
1.03488
1.03152
1.02818
1.02489
1.02168
1.01858
1.01562
1.01282
1.01021
1.00779
1.00559
1.00361
1.00186
1.00033
0.999034
0.997951
0.997076
0.996396
0.995895
0.995556
0.995361
0.995292
0.99533
0.995458
0.995659
0.99592
0.996227
0.996569
0.996936
0.997321
0.997716
0.998118
0.998523
0.998927
0.999331
0.999732
1.00013
1.00053
1.00092
1.00131
1.0017
1.00209
1.00247
1.00285
1.00322
1.00358
1.00392
1.00425
1.00456
1.00485
1.00511
1.00534
1.00553
1.00569
1.00581
1.0059
1.00594
1.03854
1.03858
1.03864
1.03875
1.03889
1.03908
1.0393
1.03957
1.03988
1.04025
1.04068
1.04117
1.04173
1.04237
1.0431
1.04391
1.04483
1.04584
1.04697
1.04822
1.04959
1.05107
1.05268
1.05441
1.05626
1.05822
1.06029
1.06245
1.06469
1.06699
1.06935
1.07174
1.07414
1.07653
1.07889
1.08119
1.08342
1.08554
1.08753
1.08938
1.09107
1.09256
1.09385
1.09492
1.09576
1.09635
1.09668
1.09675
1.09655
1.09609
1.09535
1.09435
1.09309
1.09158
1.08983
1.08785
1.08565
1.08327