/*--------------------------------*- C++ -*----------------------------------*\
| =========                 |                                                 |
| \\      /  F ield         | OpenFOAM: The Open Source CFD Toolbox           |
|  \\    /   O peration     | Version:  2406                                  |
|   \\  /    A nd           | Website:  www.openfoam.com                      |
|    \\/     M anipulation  |                                                 |
\*---------------------------------------------------------------------------*/
FoamFile
{
    version     2.0;
    format      ascii;
    arch        "LSB;label=32;scalar=64";
    class       volScalarField;
    location    "8.25";
    object      C;
}
// * * * * * * * * * * * * * * * * * * * * * * * * * * * * * * * * * * * * * //

dimensions      [1 -3 0 0 0 0 0];

internalField   nonuniform List<scalar> 
14400
(
0.222413
0.221494
0.219878
0.217904
0.215927
0.214252
0.213108
0.212637
0.212895
0.213847
0.215366
0.217227
0.219102
0.220573
0.22117
0.220484
0.218356
0.21506
0.211093
0.206993
0.203245
0.200258
0.198374
0.197887
0.199068
0.202177
0.207476
0.215233
0.225727
0.239249
0.256105
0.276618
0.301121
0.329944
0.363368
0.401519
0.444065
0.488948
0.522499
0.544558
0.563114
0.57899
0.592408
0.603538
0.612512
0.619431
0.624369
0.627381
0.6285
0.627744
0.625113
0.620592
0.614149
0.605732
0.595269
0.582665
0.567796
0.550499
0.530568
0.506218
0.470052
0.424137
0.381452
0.343531
0.310461
0.282012
0.257857
0.237643
0.221024
0.207664
0.197244
0.189458
0.184022
0.180684
0.179237
0.179528
0.181457
0.184971
0.19005
0.196699
0.20493
0.214736
0.226057
0.238728
0.252388
0.266245
0.278194
0.284524
0.283517
0.27686
0.267694
0.258155
0.24906
0.240825
0.233672
0.227703
0.222929
0.219292
0.21668
0.214939
0.213888
0.213345
0.213146
0.213185
0.213436
0.213969
0.214931
0.216526
0.218979
0.222517
0.227342
0.233626
0.241491
0.251003
0.262145
0.274785
0.2886
0.302909
0.316134
0.324008
0.228567
0.227414
0.225434
0.223073
0.220752
0.218813
0.217501
0.216965
0.217262
0.21836
0.220131
0.222346
0.22466
0.226606
0.227605
0.227055
0.224631
0.220808
0.216269
0.211649
0.207473
0.204158
0.202043
0.201414
0.202533
0.205652
0.211023
0.218911
0.229589
0.243347
0.26049
0.281341
0.306239
0.335516
0.369461
0.408185
0.451158
0.494852
0.526262
0.547525
0.565795
0.581449
0.594696
0.605694
0.614568
0.621411
0.626296
0.629273
0.630375
0.629618
0.627003
0.622515
0.616123
0.607777
0.59741
0.584931
0.570223
0.553134
0.533468
0.510246
0.475804
0.430308
0.387316
0.348909
0.315349
0.286448
0.261885
0.241305
0.22436
0.210712
0.200042
0.192049
0.186451
0.183003
0.181501
0.181793
0.183781
0.187411
0.192669
0.199562
0.208105
0.218296
0.230081
0.243308
0.257636
0.272276
0.284642
0.290652
0.290363
0.283715
0.27408
0.264058
0.254536
0.245947
0.238519
0.232354
0.227462
0.223782
0.221194
0.219531
0.218593
0.218166
0.218055
0.218128
0.218348
0.218797
0.219652
0.221147
0.223537
0.227065
0.231948
0.238362
0.246437
0.25624
0.267761
0.280877
0.29528
0.31026
0.323622
0.330389
0.241387
0.239673
0.236876
0.233682
0.230645
0.228165
0.226511
0.225841
0.226214
0.2276
0.229875
0.232808
0.236034
0.239013
0.240961
0.240817
0.237631
0.232603
0.226836
0.221142
0.216098
0.212124
0.209544
0.208626
0.209613
0.212741
0.21825
0.226391
0.237431
0.251653
0.269363
0.290884
0.316555
0.346713
0.381646
0.421459
0.465381
0.505579
0.533
0.553386
0.57109
0.586315
0.599231
0.609975
0.618653
0.625351
0.630131
0.633041
0.634109
0.633351
0.630767
0.626342
0.620049
0.611843
0.601662
0.589426
0.57503
0.558346
0.53921
0.517385
0.486541
0.442949
0.399174
0.359739
0.325201
0.295406
0.270036
0.248734
0.231145
0.21693
0.205771
0.197372
0.191461
0.187798
0.186187
0.186483
0.188589
0.192455
0.19807
0.205448
0.214609
0.225559
0.238253
0.252545
0.268088
0.284001
0.296687
0.302166
0.302749
0.297163
0.286887
0.275977
0.265631
0.256354
0.248392
0.241849
0.236736
0.232987
0.230469
0.22899
0.228307
0.228146
0.228239
0.228388
0.228532
0.228782
0.229387
0.230651
0.232885
0.236371
0.241348
0.248006
0.256481
0.266844
0.279091
0.293098
0.308534
0.324524
0.337276
0.342203
0.261865
0.259018
0.254757
0.25018
0.246006
0.24269
0.240513
0.239635
0.240116
0.241929
0.244956
0.248974
0.253623
0.258319
0.26207
0.263011
0.258093
0.25089
0.243123
0.235764
0.229405
0.224441
0.22116
0.2198
0.220576
0.223702
0.229399
0.237904
0.249471
0.264378
0.282926
0.305435
0.332239
0.363655
0.399905
0.440858
0.484772
0.519234
0.54252
0.561926
0.578863
0.593491
0.60594
0.61632
0.624719
0.631207
0.635837
0.638649
0.639669
0.638909
0.63637
0.632038
0.625889
0.617884
0.607971
0.59608
0.582127
0.566008
0.547603
0.526781
0.500607
0.461772
0.416945
0.376088
0.340154
0.309058
0.282502
0.260134
0.241596
0.226551
0.214681
0.205695
0.199332
0.195362
0.1936
0.193907
0.196194
0.200415
0.206564
0.214661
0.224734
0.236796
0.250807
0.266615
0.283793
0.301063
0.313077
0.318066
0.31935
0.316299
0.306146
0.294087
0.282588
0.27233
0.263602
0.256524
0.251112
0.247299
0.244937
0.243799
0.24358
0.243906
0.244381
0.244673
0.244661
0.24453
0.244665
0.245497
0.247428
0.250797
0.255872
0.262858
0.271895
0.283056
0.296328
0.311553
0.328263
0.344927
0.354944
0.358402
0.291357
0.286275
0.279634
0.273024
0.267265
0.262812
0.259932
0.258772
0.259391
0.261759
0.265765
0.271208
0.277754
0.284852
0.291436
0.293972
0.286379
0.275934
0.265394
0.255812
0.247724
0.241458
0.237249
0.235292
0.235772
0.238875
0.244801
0.253769
0.266021
0.281825
0.301473
0.325277
0.353554
0.386579
0.424441
0.466475
0.506856
0.534254
0.55473
0.572937
0.588945
0.602844
0.614719
0.624648
0.632697
0.63892
0.643361
0.64605
0.647009
0.646247
0.643765
0.639552
0.633585
0.625834
0.616256
0.604796
0.591389
0.575957
0.558414
0.538661
0.516224
0.484247
0.440214
0.398043
0.36042
0.327659
0.29956
0.275798
0.256022
0.239898
0.227111
0.217376
0.210441
0.206089
0.204146
0.204483
0.207017
0.211712
0.218566
0.227605
0.238863
0.252358
0.268053
0.285774
0.304936
0.322917
0.332754
0.337498
0.339367
0.338448
0.331315
0.318462
0.305663
0.294212
0.28453
0.276786
0.271025
0.267188
0.265116
0.264549
0.265105
0.266268
0.267425
0.267974
0.267663
0.266834
0.266152
0.26625
0.26766
0.270786
0.275927
0.283295
0.293027
0.305181
0.319717
0.33639
0.354366
0.36913
0.375338
0.377986
0.329922
0.321607
0.311715
0.302496
0.294766
0.288915
0.285167
0.283658
0.284442
0.287482
0.292659
0.29978
0.308488
0.318076
0.326322
0.326948
0.320937
0.307392
0.293692
0.281513
0.271375
0.263543
0.258201
0.255503
0.255602
0.258658
0.26485
0.274377
0.287468
0.304375
0.325376
0.350764
0.380823
0.415736
0.455268
0.49732
0.528764
0.550293
0.569204
0.586145
0.601137
0.61422
0.625443
0.634855
0.642499
0.648416
0.652635
0.655181
0.656069
0.655306
0.652892
0.648817
0.643066
0.635612
0.626424
0.61546
0.602675
0.588017
0.571433
0.552877
0.532323
0.507252
0.469487
0.425924
0.38631
0.351551
0.321573
0.2961
0.274805
0.257362
0.243465
0.232833
0.225222
0.220428
0.218287
0.21868
0.221536
0.226822
0.234543
0.24473
0.257421
0.272633
0.290305
0.310159
0.331142
0.34746
0.355106
0.359802
0.36214
0.362248
0.359342
0.348859
0.335036
0.322322
0.311563
0.303049
0.296913
0.293121
0.291522
0.291835
0.293611
0.29615
0.298521
0.29955
0.298667
0.296577
0.294546
0.293485
0.29408
0.296793
0.301938
0.309719
0.320249
0.333539
0.349466
0.367431
0.385052
0.394207
0.398169
0.400218
0.367278
0.362516
0.350422
0.338573
0.328718
0.321309
0.316563
0.314645
0.315628
0.319445
0.325927
0.334868
0.345701
0.356774
0.360659
0.359052
0.355864
0.34414
0.327852
0.313038
0.300676
0.291081
0.284433
0.280866
0.280508
0.283498
0.289995
0.300181
0.314264
0.332478
0.355073
0.382298
0.414366
0.451284
0.491904
0.526298
0.549264
0.568285
0.585647
0.601303
0.615237
0.627457
0.637979
0.646828
0.65403
0.659609
0.663584
0.665971
0.66678
0.666017
0.663679
0.65976
0.654248
0.647124
0.638366
0.627946
0.615834
0.602003
0.586426
0.569089
0.550002
0.52917
0.500691
0.459202
0.418032
0.381115
0.348968
0.321483
0.298393
0.279397
0.264199
0.252525
0.244142
0.238852
0.236503
0.236988
0.24024
0.246234
0.25498
0.26651
0.280861
0.298034
0.317903
0.339893
0.361294
0.373311
0.379871
0.384464
0.387142
0.388034
0.387359
0.382642
0.37036
0.356841
0.345033
0.335677
0.329161
0.325506
0.324584
0.326137
0.329708
0.334368
0.338891
0.3408
0.338863
0.334526
0.330437
0.327677
0.327118
0.329225
0.3343
0.342508
0.35391
0.368391
0.385698
0.404144
0.415209
0.419806
0.422903
0.424499
0.400739
0.400194
0.394052
0.38087
0.369159
0.360215
0.354379
0.352
0.353227
0.357922
0.365721
0.376429
0.388519
0.394373
0.393929
0.392317
0.389864
0.383583
0.367544
0.350575
0.335979
0.32449
0.316397
0.311849
0.310971
0.313886
0.320736
0.331684
0.346919
0.366637
0.391041
0.420263
0.454295
0.492374
0.528074
0.552136
0.570677
0.587936
0.603795
0.618182
0.631053
0.64239
0.652187
0.660449
0.667185
0.672405
0.67612
0.678338
0.679064
0.678301
0.676047
0.672297
0.667042
0.660271
0.651969
0.642122
0.630714
0.617734
0.603178
0.587052
0.569385
0.550226
0.52895
0.497716
0.455924
0.416787
0.382225
0.352446
0.327293
0.306508
0.289816
0.276955
0.267698
0.26186
0.259296
0.259907
0.263634
0.270454
0.280377
0.293433
0.309642
0.328964
0.351139
0.374916
0.392227
0.400505
0.406588
0.411039
0.413932
0.415388
0.415596
0.414792
0.40938
0.397442
0.385098
0.374867
0.368029
0.364607
0.364533
0.367611
0.373555
0.380843
0.388596
0.39124
0.388362
0.380617
0.374006
0.369023
0.367035
0.368365
0.373304
0.381923
0.39419
0.40958
0.427276
0.438398
0.443316
0.446736
0.449138
0.450376
0.434437
0.434283
0.433561
0.427583
0.415606
0.40565
0.398675
0.395777
0.397317
0.403003
0.411675
0.423109
0.428862
0.429091
0.427982
0.42642
0.4243
0.421515
0.412276
0.39435
0.377668
0.364204
0.354569
0.348951
0.347505
0.35035
0.357608
0.369429
0.385972
0.407372
0.43375
0.464923
0.500131
0.53508
0.559109
0.576695
0.593371
0.608986
0.623417
0.636576
0.648404
0.658863
0.667931
0.675596
0.681855
0.686707
0.690154
0.692197
0.692838
0.692076
0.68991
0.686338
0.681352
0.674948
0.667119
0.657859
0.647166
0.635042
0.621499
0.606558
0.590259
0.572659
0.553833
0.531795
0.49903
0.458737
0.421771
0.389504
0.362045
0.339246
0.320868
0.306669
0.296433
0.289986
0.287195
0.287967
0.292247
0.300012
0.311263
0.326013
0.344235
0.365737
0.389736
0.411521
0.422504
0.429381
0.434935
0.439175
0.442157
0.443989
0.444832
0.444897
0.44441
0.439869
0.430953
0.420258
0.413444
0.410361
0.411176
0.415583
0.423814
0.430423
0.433886
0.434947
0.434193
0.430932
0.424175
0.417024
0.413718
0.414172
0.418941
0.42782
0.440557
0.455051
0.464493
0.468873
0.47207
0.474686
0.476535
0.477491
0.468291
0.468284
0.468336
0.46816
0.463927
0.456554
0.448754
0.445414
0.447261
0.453897
0.460996
0.464914
0.464741
0.463656
0.462489
0.461082
0.459348
0.45725
0.454134
0.443599
0.425897
0.410559
0.399404
0.392663
0.390634
0.39343
0.401156
0.413945
0.431941
0.455103
0.483462
0.515726
0.547573
0.570169
0.586447
0.60215
0.617126
0.63122
0.64431
0.656301
0.667124
0.676727
0.685077
0.69215
0.697932
0.702414
0.705591
0.707458
0.708013
0.707255
0.705182
0.701791
0.697081
0.69105
0.683698
0.675029
0.665049
0.65377
0.641217
0.627422
0.612434
0.596319
0.579163
0.561076
0.538765
0.505906
0.467769
0.433117
0.4032
0.378193
0.357951
0.34226
0.33093
0.323808
0.320772
0.321736
0.326648
0.335476
0.348196
0.364788
0.38511
0.40856
0.432688
0.446394
0.453512
0.45958
0.464598
0.468567
0.471532
0.473581
0.474846
0.475504
0.475782
0.475957
0.473702
0.46918
0.464009
0.461394
0.46289
0.466514
0.469616
0.471104
0.47063
0.470639
0.471488
0.472659
0.471503
0.468866
0.465776
0.46539
0.46999
0.478306
0.486832
0.493324
0.496339
0.498978
0.501403
0.503405
0.504825
0.505562
0.502152
0.502227
0.502429
0.502865
0.503652
0.502221
0.499757
0.498198
0.498882
0.500758
0.501966
0.500635
0.499388
0.498305
0.497234
0.49607
0.494762
0.493302
0.491742
0.48877
0.479324
0.46337
0.45119
0.443351
0.440804
0.443607
0.451842
0.465623
0.485147
0.509725
0.539117
0.565561
0.585254
0.599901
0.614321
0.628333
0.641761
0.654458
0.666302
0.677196
0.687062
0.695844
0.703499
0.709995
0.71531
0.719427
0.722337
0.72403
0.724502
0.72375
0.72177
0.718564
0.71413
0.708473
0.701596
0.69351
0.684229
0.673774
0.662176
0.649478
0.635735
0.621021
0.605425
0.589062
0.572065
0.550473
0.519265
0.48349
0.451218
0.423915
0.401683
0.384357
0.371813
0.363943
0.360637
0.361817
0.367435
0.377437
0.391725
0.41023
0.432586
0.456878
0.472164
0.479424
0.485523
0.490828
0.495309
0.498964
0.501823
0.503956
0.505466
0.506491
0.507204
0.507813
0.508551
0.508907
0.50774
0.506825
0.506978
0.507319
0.506289
0.505368
0.50503
0.505231
0.506035
0.507411
0.50949
0.511286
0.51197
0.513381
0.516496
0.520469
0.523533
0.525272
0.527269
0.529297
0.531161
0.532703
0.5338
0.534369
0.535937
0.536043
0.536287
0.536727
0.537441
0.538502
0.539577
0.539699
0.539262
0.537863
0.536239
0.534943
0.533873
0.532941
0.53207
0.531205
0.530325
0.529455
0.528665
0.528094
0.526543
0.520201
0.509372
0.500834
0.498125
0.501057
0.509784
0.524238
0.544922
0.568673
0.588645
0.604151
0.616914
0.629809
0.642603
0.655098
0.667128
0.67855
0.689245
0.699116
0.708085
0.716089
0.72308
0.729021
0.733884
0.737648
0.740298
0.741823
0.742216
0.741471
0.739587
0.736563
0.732404
0.727114
0.720704
0.713186
0.704583
0.69492
0.684236
0.672579
0.660008
0.646603
0.632455
0.617679
0.60241
0.586801
0.567129
0.539443
0.506134
0.476803
0.452633
0.43357
0.419701
0.411019
0.407413
0.408809
0.415182
0.426443
0.442231
0.462371
0.485401
0.500283
0.507497
0.51317
0.518327
0.5229
0.526847
0.530155
0.532842
0.534955
0.53657
0.537789
0.538732
0.539529
0.540291
0.541044
0.541758
0.541928
0.54127
0.540285
0.539493
0.538995
0.538892
0.539219
0.540012
0.541276
0.543034
0.545236
0.547874
0.550369
0.552218
0.553576
0.554996
0.556538
0.558169
0.559778
0.561242
0.562446
0.563302
0.563746
0.569615
0.569722
0.569949
0.570317
0.570839
0.571477
0.572052
0.572265
0.571822
0.570957
0.569952
0.569025
0.568218
0.567518
0.566901
0.566352
0.565881
0.565526
0.565371
0.565549
0.566254
0.567179
0.565165
0.562436
0.561047
0.564321
0.573371
0.58681
0.601582
0.615312
0.626403
0.637195
0.648418
0.659818
0.671182
0.682329
0.693102
0.703368
0.713012
0.721939
0.730072
0.737347
0.743711
0.749125
0.753558
0.756984
0.759385
0.760749
0.761066
0.760331
0.758542
0.755699
0.751808
0.746876
0.740917
0.733949
0.725995
0.717089
0.70727
0.696591
0.685117
0.672926
0.660113
0.646791
0.633092
0.619172
0.605212
0.588642
0.565874
0.536426
0.5111
0.490323
0.475082
0.465586
0.461648
0.463198
0.470279
0.482829
0.499387
0.519322
0.531878
0.538034
0.542828
0.547431
0.551717
0.555598
0.559023
0.561967
0.564434
0.566451
0.568072
0.569363
0.570406
0.571279
0.572041
0.5727
0.573203
0.573381
0.57317
0.572762
0.572403
0.572227
0.572323
0.572743
0.573515
0.574649
0.576133
0.577917
0.579903
0.581837
0.58351
0.58495
0.586331
0.587714
0.589092
0.590406
0.591581
0.592539
0.593216
0.593567
0.603187
0.60328
0.603469
0.603754
0.604119
0.604515
0.60483
0.604919
0.604681
0.604191
0.603586
0.602988
0.602455
0.602011
0.601663
0.601423
0.601318
0.601398
0.601744
0.602475
0.603754
0.605791
0.608896
0.611699
0.614424
0.619143
0.626357
0.634975
0.643244
0.65131
0.660255
0.669807
0.679744
0.689863
0.69998
0.709935
0.719585
0.728807
0.737495
0.745557
0.752918
0.759514
0.765292
0.770211
0.774237
0.777343
0.77951
0.780722
0.780969
0.780246
0.77855
0.775884
0.772252
0.767666
0.762141
0.755697
0.748361
0.740169
0.731164
0.7214
0.710943
0.699872
0.68828
0.676279
0.663995
0.651581
0.639213
0.627098
0.614294
0.596976
0.575818
0.554075
0.537888
0.527836
0.523556
0.525011
0.532258
0.545664
0.558384
0.567107
0.571106
0.574653
0.578348
0.58201
0.58551
0.588753
0.59168
0.594257
0.596474
0.598346
0.599901
0.601186
0.602249
0.60314
0.603893
0.604512
0.604973
0.605225
0.605265
0.605191
0.60513
0.605186
0.605431
0.605913
0.606658
0.60767
0.608932
0.610397
0.611983
0.613563
0.615034
0.616384
0.617663
0.618896
0.620078
0.621174
0.622136
0.622912
0.623457
0.623738
0.636667
0.636743
0.636893
0.637109
0.63737
0.637633
0.637834
0.6379
0.637792
0.63754
0.637214
0.636885
0.636605
0.636408
0.636317
0.63636
0.636571
0.637004
0.637732
0.638855
0.640494
0.64279
0.64588
0.649784
0.654553
0.65976
0.665273
0.671271
0.678035
0.685455
0.693502
0.702033
0.710889
0.719908
0.72894
0.737844
0.746495
0.754781
0.762603
0.769877
0.776529
0.782499
0.787733
0.792191
0.795836
0.798643
0.800589
0.801659
0.801843
0.801133
0.799529
0.797033
0.793651
0.789396
0.784283
0.778336
0.771583
0.764062
0.755816
0.746902
0.737383
0.727338
0.716858
0.706048
0.69503
0.683946
0.672958
0.662254
0.652053
0.642547
0.631025
0.618119
0.605598
0.596058
0.591485
0.592192
0.596353
0.601303
0.605117
0.606528
0.608596
0.611125
0.613899
0.616753
0.619559
0.622225
0.624687
0.626905
0.628861
0.630555
0.632003
0.633229
0.634265
0.635141
0.635877
0.636483
0.636953
0.637278
0.637477
0.637606
0.637741
0.637955
0.638302
0.638822
0.639533
0.640441
0.641527
0.642756
0.64407
0.645397
0.646678
0.64789
0.64904
0.65013
0.65115
0.652077
0.652877
0.653516
0.653961
0.65419
0.67007
0.670132
0.670252
0.67042
0.670617
0.670814
0.670972
0.671056
0.671048
0.670964
0.670843
0.670733
0.670673
0.670698
0.670839
0.671127
0.671602
0.672314
0.673326
0.674718
0.676578
0.678996
0.682046
0.68575
0.690085
0.694911
0.700161
0.705887
0.712167
0.718975
0.726263
0.733934
0.741869
0.749942
0.758028
0.766007
0.77377
0.781218
0.78826
0.794818
0.800824
0.806218
0.810951
0.814981
0.818274
0.820802
0.822544
0.823483
0.823609
0.822915
0.821401
0.819067
0.815924
0.811982
0.80726
0.80178
0.795574
0.788678
0.781138
0.773007
0.764349
0.75524
0.745765
0.736024
0.726131
0.716214
0.706418
0.696908
0.687862
0.679476
0.671965
0.66538
0.658393
0.652076
0.647829
0.645983
0.645388
0.644213
0.643812
0.644374
0.645626
0.647351
0.649372
0.651542
0.653748
0.655901
0.657938
0.659816
0.66151
0.663012
0.664325
0.665462
0.666441
0.66728
0.667993
0.66859
0.669076
0.669459
0.669758
0.670013
0.670275
0.67059
0.671002
0.671537
0.672214
0.673032
0.67398
0.67503
0.676145
0.677277
0.67839
0.679459
0.680476
0.681433
0.682315
0.683106
0.68378
0.684313
0.684682
0.684871
0.703411
0.703463
0.703562
0.703701
0.703865
0.704034
0.704186
0.704303
0.704378
0.704423
0.704463
0.70453
0.704656
0.704873
0.705212
0.705707
0.706395
0.707322
0.708542
0.710114
0.712103
0.71457
0.717558
0.721083
0.725127
0.729636
0.734575
0.739948
0.745769
0.752016
0.758641
0.765571
0.772711
0.779963
0.787221
0.794386
0.801362
0.80806
0.814401
0.820312
0.825729
0.830599
0.834872
0.838509
0.841477
0.843748
0.845301
0.84612
0.846195
0.845518
0.84409
0.841913
0.838995
0.835349
0.830993
0.825952
0.820255
0.81394
0.80705
0.799639
0.791768
0.783507
0.774938
0.766153
0.757255
0.74836
0.739594
0.731097
0.723013
0.715491
0.708669
0.702637
0.697447
0.693091
0.689346
0.686156
0.683721
0.682193
0.681486
0.681531
0.682181
0.683282
0.684694
0.686297
0.68799
0.689694
0.691348
0.69291
0.694351
0.695657
0.696824
0.697854
0.698757
0.699544
0.700225
0.700808
0.701303
0.701722
0.702083
0.702415
0.702753
0.70313
0.703577
0.704113
0.704752
0.705494
0.70633
0.707241
0.7082
0.709177
0.710144
0.711081
0.711974
0.712809
0.713573
0.714251
0.714824
0.715273
0.715583
0.715741
0.7367
0.736746
0.736834
0.736957
0.737107
0.73727
0.737435
0.737592
0.73774
0.737889
0.738056
0.738267
0.738547
0.738925
0.73943
0.740093
0.74095
0.742038
0.743404
0.745093
0.747151
0.749622
0.752534
0.755898
0.759705
0.763931
0.768553
0.773562
0.778946
0.784679
0.790716
0.796995
0.803443
0.809976
0.816508
0.822954
0.829231
0.83526
0.840971
0.846298
0.851184
0.855575
0.859429
0.862707
0.865376
0.867411
0.868792
0.869502
0.869531
0.868874
0.867529
0.865499
0.862793
0.859425
0.855412
0.850778
0.845554
0.839775
0.833484
0.826731
0.819575
0.812082
0.804328
0.796395
0.788378
0.780377
0.772503
0.764871
0.757601
0.750805
0.744585
0.739011
0.734123
0.729912
0.726314
0.723315
0.720977
0.719351
0.718406
0.718083
0.718285
0.718902
0.719826
0.720961
0.722221
0.723536
0.724851
0.726125
0.727328
0.728442
0.729458
0.730373
0.73119
0.731915
0.732554
0.733115
0.733607
0.734043
0.734437
0.734812
0.735192
0.735601
0.736061
0.736586
0.737186
0.737861
0.738605
0.739404
0.740238
0.741087
0.741929
0.742748
0.743528
0.744256
0.744918
0.745502
0.745992
0.746374
0.746636
0.746769
0.769944
0.769987
0.770069
0.770188
0.770335
0.770505
0.770691
0.770889
0.771101
0.771335
0.771607
0.771935
0.772341
0.772851
0.77349
0.774287
0.775272
0.776478
0.777943
0.779701
0.781788
0.784233
0.787057
0.790269
0.793864
0.797828
0.802146
0.806802
0.811775
0.817037
0.822547
0.828252
0.83409
0.839991
0.845882
0.851691
0.857346
0.862779
0.867925
0.872727
0.877131
0.88109
0.884562
0.887512
0.88991
0.89173
0.892953
0.893565
0.893555
0.892917
0.891651
0.889761
0.887255
0.884146
0.880451
0.876196
0.871408
0.866122
0.860379
0.854227
0.84772
0.84092
0.833895
0.826722
0.819483
0.812267
0.805169
0.798286
0.791713
0.785543
0.779853
0.774701
0.770121
0.76612
0.762683
0.759811
0.757521
0.755827
0.754706
0.754111
0.753974
0.754214
0.754749
0.755499
0.756396
0.757377
0.758395
0.75941
0.760393
0.761325
0.762192
0.76299
0.763715
0.764371
0.764961
0.765491
0.765968
0.766404
0.76681
0.767204
0.767602
0.768022
0.76848
0.768985
0.769545
0.77016
0.770826
0.771531
0.772262
0.773003
0.773739
0.774453
0.775134
0.775768
0.776342
0.776846
0.777267
0.777594
0.777817
0.777931
0.803146
0.803187
0.803269
0.803389
0.803542
0.803725
0.803935
0.804172
0.804439
0.804745
0.805101
0.805524
0.806032
0.806648
0.807392
0.808292
0.809372
0.810661
0.812187
0.81398
0.816066
0.818465
0.821193
0.824257
0.827653
0.831373
0.835402
0.839723
0.844315
0.849148
0.854183
0.859376
0.864673
0.870014
0.875338
0.880582
0.885684
0.890584
0.895225
0.899554
0.903524
0.907091
0.910217
0.91287
0.91502
0.916645
0.917726
0.918249
0.918205
0.917588
0.916398
0.914639
0.912319
0.909451
0.906053
0.902146
0.897759
0.892926
0.887683
0.882077
0.876158
0.869982
0.863611
0.857114
0.850564
0.844039
0.83762
0.831389
0.825425
0.819802
0.814583
0.809819
0.80554
0.801762
0.798489
0.795724
0.793471
0.791729
0.790478
0.789681
0.789286
0.789232
0.789455
0.789892
0.790485
0.791183
0.791942
0.792727
0.793511
0.794272
0.794997
0.795678
0.79631
0.796893
0.797428
0.797918
0.798371
0.798793
0.799196
0.79959
0.79999
0.800406
0.80085
0.80133
0.80185
0.80241
0.803006
0.803631
0.804275
0.804925
0.805568
0.806193
0.806787
0.807339
0.807838
0.808273
0.808636
0.808917
0.809108
0.809206
0.836305
0.836348
0.836432
0.836556
0.836718
0.836917
0.837152
0.837425
0.837739
0.838104
0.838528
0.839027
0.839617
0.840314
0.84114
0.842115
0.843263
0.844605
0.846166
0.847968
0.85003
0.852368
0.854994
0.857911
0.861118
0.864607
0.868365
0.872374
0.876614
0.881054
0.885662
0.890397
0.895211
0.900055
0.904875
0.909616
0.914224
0.918648
0.922835
0.92674
0.930319
0.933533
0.936346
0.93873
0.940656
0.942104
0.943057
0.943501
0.943428
0.942833
0.941715
0.940078
0.937932
0.935287
0.932161
0.928576
0.924558
0.920138
0.915352
0.910241
0.904853
0.899238
0.893453
0.887559
0.88162
0.875706
0.869884
0.864225
0.858795
0.853655
0.84886
0.84445
0.840458
0.8369
0.833787
0.831124
0.828911
0.827141
0.825797
0.824849
0.824257
0.823973
0.823947
0.824128
0.82447
0.824927
0.825463
0.826046
0.82665
0.827255
0.827847
0.828415
0.828955
0.829463
0.829938
0.830384
0.830804
0.831203
0.83159
0.831973
0.83236
0.832762
0.833184
0.833634
0.834113
0.834622
0.835158
0.835714
0.836282
0.836853
0.837417
0.837963
0.838482
0.838962
0.839396
0.839774
0.840087
0.840329
0.840494
0.840578
0.869423
0.869467
0.869554
0.869684
0.869857
0.870073
0.870331
0.870636
0.87099
0.871402
0.871882
0.872441
0.873092
0.873852
0.874738
0.875767
0.876959
0.878332
0.879904
0.881694
0.883717
0.885984
0.888503
0.891277
0.894302
0.897573
0.901077
0.904796
0.908711
0.912794
0.917015
0.921338
0.92572
0.93012
0.93449
0.938782
0.94295
0.946947
0.950728
0.954252
0.957479
0.960374
0.962906
0.965046
0.96677
0.968059
0.968897
0.969271
0.969173
0.968599
0.96755
0.966028
0.964042
0.961604
0.95873
0.95544
0.951759
0.947716
0.943345
0.938683
0.933774
0.928664
0.923404
0.918048
0.912653
0.907279
0.901986
0.896832
0.891874
0.887165
0.88275
0.878665
0.87494
0.871593
0.868636
0.866074
0.863907
0.862127
0.86072
0.859661
0.858919
0.858455
0.858231
0.858205
0.858338
0.858593
0.858938
0.859344
0.859788
0.860251
0.860719
0.861181
0.861631
0.862065
0.862479
0.862876
0.863257
0.863626
0.863988
0.86435
0.864717
0.865096
0.865492
0.865909
0.866348
0.866809
0.867289
0.867783
0.868286
0.868789
0.869283
0.869762
0.870214
0.870633
0.87101
0.871338
0.87161
0.871819
0.871962
0.872034
0.902496
0.902542
0.902634
0.902771
0.902955
0.903185
0.903465
0.903796
0.904183
0.904634
0.905156
0.905761
0.906459
0.907265
0.908193
0.909257
0.910474
0.911858
0.913425
0.915189
0.91716
0.919348
0.921757
0.924389
0.927242
0.930306
0.933572
0.937023
0.940639
0.944396
0.948266
0.952217
0.956213
0.960215
0.964182
0.968073
0.971847
0.975462
0.978878
0.98206
0.984971
0.98758
0.989857
0.991778
0.99332
0.994466
0.9952
0.995512
0.995393
0.994842
0.993856
0.992442
0.990605
0.988357
0.985714
0.982694
0.979321
0.975622
0.971628
0.967373
0.962896
0.958241
0.953451
0.948576
0.943666
0.938772
0.933947
0.929242
0.924705
0.920381
0.916308
0.912521
0.909044
0.905897
0.90309
0.900629
0.898515
0.896741
0.895295
0.894157
0.893301
0.892699
0.892317
0.892123
0.892084
0.892169
0.892351
0.892603
0.892906
0.893242
0.893597
0.89396
0.894325
0.894685
0.895038
0.895383
0.895722
0.896055
0.896387
0.896721
0.897062
0.897413
0.897779
0.898161
0.89856
0.898976
0.899406
0.899845
0.900289
0.900732
0.901166
0.901585
0.901981
0.902346
0.902674
0.902959
0.903195
0.903376
0.903499
0.903561
0.935523
0.935571
0.935667
0.935812
0.936005
0.936249
0.936546
0.936899
0.937313
0.937793
0.938349
0.938987
0.939719
0.940556
0.94151
0.942594
0.94382
0.945202
0.94675
0.948475
0.950386
0.952489
0.954788
0.957283
0.959969
0.962839
0.965882
0.969084
0.972426
0.975885
0.979437
0.983052
0.986699
0.990344
0.99395
0.997482
1.0009
1.00417
1.00726
1.01014
1.01277
1.01512
1.01716
1.01889
1.02027
1.02128
1.02193
1.02218
1.02205
1.02152
1.02059
1.01928
1.01758
1.01551
1.01307
1.0103
1.00721
1.00382
1.00017
0.996284
0.992198
0.987951
0.983584
0.979139
0.974661
0.970197
0.965789
0.961484
0.957323
0.953344
0.949583
0.946067
0.94282
0.939859
0.937197
0.934838
0.932783
0.931028
0.929562
0.92837
0.927431
0.926721
0.926216
0.925886
0.925706
0.925649
0.925692
0.925812
0.925992
0.926214
0.926466
0.926738
0.927022
0.927312
0.927605
0.927898
0.928191
0.928486
0.928783
0.929086
0.929396
0.929717
0.93005
0.930396
0.930757
0.931129
0.931512
0.931902
0.932295
0.932684
0.933065
0.933432
0.933777
0.934096
0.934382
0.934629
0.934834
0.934991
0.935097
0.935151
0.968503
0.968552
0.968652
0.968803
0.969005
0.969261
0.969572
0.969942
0.970376
0.970879
0.971458
0.97212
0.972874
0.97373
0.974698
0.975789
0.977012
0.978378
0.979897
0.981575
0.98342
0.985436
0.987624
0.989984
0.992511
0.995198
0.998034
1.00101
1.00409
1.00728
1.01054
1.01386
1.01719
1.02051
1.02379
1.027
1.0301
1.03307
1.03587
1.03846
1.04084
1.04295
1.0448
1.04634
1.04757
1.04848
1.04904
1.04924
1.0491
1.04859
1.04772
1.0465
1.04492
1.04301
1.04078
1.03823
1.03539
1.03229
1.02895
1.02539
1.02166
1.01778
1.01379
1.00973
1.00564
1.00156
0.997529
0.993582
0.989759
0.986091
0.982611
0.979343
0.976309
0.973524
0.971
0.968742
0.966751
0.965025
0.963555
0.962329
0.961331
0.960541
0.959938
0.9595
0.959205
0.95903
0.958956
0.958962
0.959034
0.959156
0.959316
0.959505
0.959713
0.959937
0.96017
0.960412
0.96066
0.960913
0.961174
0.961443
0.96172
0.962008
0.962307
0.962618
0.96294
0.963272
0.963612
0.963957
0.964302
0.964645
0.964979
0.965299
0.965601
0.965879
0.966127
0.966342
0.96652
0.966656
0.966749
0.966795
1.00143
1.00148
1.00159
1.00174
1.00195
1.00222
1.00254
1.00292
1.00337
1.00389
1.00448
1.00516
1.00593
1.00679
1.00776
1.00885
1.01006
1.0114
1.01288
1.01451
1.01628
1.01821
1.02029
1.02252
1.02489
1.02741
1.03005
1.03281
1.03567
1.0386
1.0416
1.04464
1.04769
1.05072
1.05371
1.05663
1.05945
1.06213
1.06467
1.06702
1.06916
1.07107
1.07273
1.07411
1.07521
1.07601
1.0765
1.07666
1.07651
1.07602
1.0752
1.07407
1.07261
1.07085
1.06879
1.06645
1.06384
1.061
1.05794
1.05468
1.05127
1.04772
1.04407
1.04036
1.03662
1.03288
1.02918
1.02556
1.02204
1.01865
1.01543
1.01239
1.00955
1.00693
1.00454
1.00238
1.00046
0.998766
0.997305
0.996061
0.995022
0.994172
0.993495
0.992971
0.992582
0.992311
0.992138
0.992048
0.992026
0.99206
0.992138
0.99225
0.99239
0.992551
0.992728
0.992919
0.993122
0.993335
0.993558
0.99379
0.994034
0.994288
0.994553
0.994828
0.995113
0.995407
0.995707
0.99601
0.996314
0.996614
0.996906
0.997186
0.997449
0.99769
0.997906
0.998093
0.998247
0.998365
0.998445
0.998486
1.03431
1.03436
1.03447
1.03463
1.03484
1.03511
1.03544
1.03584
1.03629
1.03682
1.03743
1.03811
1.03888
1.03975
1.04071
1.04179
1.04298
1.04429
1.04573
1.04729
1.04899
1.05083
1.0528
1.05491
1.05714
1.05949
1.06195
1.06451
1.06716
1.06987
1.07262
1.07541
1.0782
1.08097
1.0837
1.08635
1.08891
1.09136
1.09365
1.09578
1.09771
1.09943
1.10093
1.10217
1.10315
1.10386
1.10428
1.10441
1.10424
1.10378
1.10301
1.10195
1.1006
1.09897
1.09708
1.09492
1.09253
1.08992
1.08712
1.08414
1.08101
1.07776
1.07442
1.07102
1.06759
1.06416
1.06076
1.05743
1.05418
1.05105
1.04806
1.04523
1.04257
1.04011
1.03784
1.03578
1.03393
1.03228
1.03084
1.02959
1.02852
1.02763
1.0269
1.02631
1.02584
1.02549
1.02524
1.02507
1.02496
1.02492
1.02492
1.02497
1.02505
1.02515
1.02527
1.02542
1.02557
1.02575
1.02593
1.02613
1.02634
1.02656
1.02679
1.02703
1.02728
1.02754
1.0278
1.02806
1.02833
1.02859
1.02885
1.02909
1.02932
1.02953
1.02971
1.02988
1.03001
1.03011
1.03018
1.03022
1.06714
1.06719
1.0673
1.06746
1.06768
1.06795
1.06829
1.06868
1.06915
1.06968
1.07029
1.07097
1.07174
1.0726
1.07356
1.07461
1.07578
1.07705
1.07844
1.07994
1.08157
1.08332
1.08518
1.08717
1.08926
1.09146
1.09375
1.09613
1.09858
1.10108
1.10362
1.10618
1.10873
1.11127
1.11375
1.11617
1.1185
1.12072
1.1228
1.12473
1.12648
1.12803
1.12937
1.13049
1.13137
1.13199
1.13235
1.13245
1.13228
1.13183
1.13111
1.13013
1.12888
1.12737
1.12562
1.12364
1.12144
1.11905
1.11647
1.11374
1.11087
1.10789
1.10483
1.10171
1.09856
1.09541
1.09228
1.08921
1.08621