/*--------------------------------*- C++ -*----------------------------------*\
| =========                 |                                                 |
| \\      /  F ield         | OpenFOAM: The Open Source CFD Toolbox           |
|  \\    /   O peration     | Version:  2406                                  |
|   \\  /    A nd           | Website:  www.openfoam.com                      |
|    \\/     M anipulation  |                                                 |
\*---------------------------------------------------------------------------*/
FoamFile
{
    version     2.0;
    format      ascii;
    arch        "LSB;label=32;scalar=64";
    class       volScalarField;
    location    "8.25";
    object      D;
}
// * * * * * * * * * * * * * * * * * * * * * * * * * * * * * * * * * * * * * //

dimensions      [0 2 -1 0 0 0 0];

internalField   nonuniform List<scalar> 
14400
(
7.21076e-05
7.20592e-05
7.19923e-05
7.19351e-05
7.18994e-05
7.18833e-05
7.18791e-05
7.18801e-05
7.18858e-05
7.19031e-05
7.19454e-05
7.20274e-05
7.2156e-05
7.23138e-05
7.24415e-05
7.24411e-05
7.22459e-05
7.1924e-05
7.15455e-05
7.11282e-05
7.06502e-05
7.00755e-05
6.9375e-05
6.85412e-05
6.75952e-05
6.65843e-05
6.55703e-05
6.46117e-05
6.37528e-05
6.30206e-05
6.243e-05
6.19918e-05
6.1722e-05
6.16545e-05
6.18674e-05
6.25606e-05
6.43938e-05
7.09592e-05
0.000131542
0.00013824
0.00013824
0.00013824
0.00013824
0.00013824
0.00013824
0.00013824
0.00013824
0.00013824
0.00013824
0.00013824
0.00013824
0.00013824
0.00013824
0.00013824
0.00013824
0.00013824
0.00013824
0.00013824
0.00013824
0.000120986
6.99011e-05
6.43318e-05
6.28893e-05
6.2447e-05
6.24655e-05
6.27916e-05
6.33768e-05
6.42128e-05
6.53055e-05
6.6654e-05
6.82263e-05
6.99348e-05
7.16336e-05
7.31517e-05
7.43448e-05
7.51274e-05
7.54741e-05
7.54074e-05
7.49872e-05
7.43082e-05
7.34961e-05
7.27015e-05
7.20995e-05
7.19197e-05
7.26008e-05
7.56365e-05
9.0276e-05
0.000137768
0.000100999
7.5631e-05
7.09736e-05
6.94617e-05
6.88984e-05
6.87779e-05
6.89086e-05
6.91909e-05
6.95598e-05
6.9966e-05
7.03695e-05
7.07362e-05
7.10361e-05
7.12415e-05
7.13274e-05
7.12745e-05
7.10763e-05
7.07417e-05
7.02923e-05
6.97565e-05
6.91666e-05
6.85577e-05
6.79675e-05
6.74354e-05
6.70042e-05
6.67243e-05
6.66665e-05
6.69556e-05
6.78741e-05
7.03011e-05
7.85673e-05
0.00013453
7.16101e-05
7.14967e-05
7.13399e-05
7.1197e-05
7.10918e-05
7.10261e-05
7.09927e-05
7.09849e-05
7.10018e-05
7.10506e-05
7.11457e-05
7.13048e-05
7.154e-05
7.1836e-05
7.21138e-05
7.21978e-05
7.19132e-05
7.14541e-05
7.09628e-05
7.04728e-05
6.99592e-05
6.93817e-05
6.87079e-05
6.79268e-05
6.70539e-05
6.61283e-05
6.52017e-05
6.43245e-05
6.35362e-05
6.28629e-05
6.23212e-05
6.1925e-05
6.16948e-05
6.16722e-05
6.19535e-05
6.28006e-05
6.51987e-05
7.51643e-05
0.000136938
0.00013824
0.00013824
0.00013824
0.00013824
0.00013824
0.00013824
0.00013824
0.00013824
0.00013824
0.00013824
0.00013824
0.00013824
0.00013824
0.00013824
0.00013824
0.00013824
0.00013824
0.00013824
0.00013824
0.00013824
0.000129745
7.10449e-05
6.47348e-05
6.30453e-05
6.24966e-05
6.24511e-05
6.27244e-05
6.32545e-05
6.40244e-05
6.50331e-05
6.62756e-05
6.77209e-05
6.9292e-05
7.08615e-05
7.22768e-05
7.34018e-05
7.41495e-05
7.44894e-05
7.44404e-05
7.40619e-05
7.34484e-05
7.27231e-05
7.20317e-05
7.15435e-05
7.14915e-05
7.23644e-05
7.61111e-05
9.77275e-05
0.000138162
0.000113313
7.65044e-05
7.09879e-05
6.92596e-05
6.85756e-05
6.8362e-05
6.84105e-05
6.86178e-05
6.89204e-05
6.92728e-05
6.96385e-05
6.99856e-05
7.02832e-05
7.04991e-05
7.05998e-05
7.05573e-05
7.03615e-05
7.00276e-05
6.9587e-05
6.9075e-05
6.85265e-05
6.79746e-05
6.74522e-05
6.69938e-05
6.66381e-05
6.64348e-05
6.64597e-05
6.6857e-05
6.79927e-05
7.12857e-05
8.62629e-05
0.000137814
7.09106e-05
7.06389e-05
7.02905e-05
6.99839e-05
6.97562e-05
6.96068e-05
6.9525e-05
6.95017e-05
6.95348e-05
6.9632e-05
6.98113e-05
7.01004e-05
7.05305e-05
7.11125e-05
7.17624e-05
7.2121e-05
7.15272e-05
7.0718e-05
6.99873e-05
6.93591e-05
6.87825e-05
6.82007e-05
6.75726e-05
6.68801e-05
6.61286e-05
6.53435e-05
6.45615e-05
6.38206e-05
6.31527e-05
6.25823e-05
6.21281e-05
6.18094e-05
6.16547e-05
6.17199e-05
6.21375e-05
6.33123e-05
6.73094e-05
9.56565e-05
0.000138226
0.00013824
0.00013824
0.00013824
0.00013824
0.00013824
0.00013824
0.00013824
0.00013824
0.00013824
0.00013824
0.00013824
0.00013824
0.00013824
0.00013824
0.00013824
0.00013824
0.00013824
0.00013824
0.00013824
0.00013824
0.000137761
7.93034e-05
6.60879e-05
6.34268e-05
6.26129e-05
6.24343e-05
6.26058e-05
6.30335e-05
6.36841e-05
6.45446e-05
6.56024e-05
6.68272e-05
6.81564e-05
6.94902e-05
7.0707e-05
7.16912e-05
7.23615e-05
7.26837e-05
7.26714e-05
7.23802e-05
7.18995e-05
7.13443e-05
7.08489e-05
7.05746e-05
7.07622e-05
7.19768e-05
7.68689e-05
0.000111924
0.000138238
0.000130567
7.84954e-05
7.12787e-05
6.9012e-05
6.80693e-05
6.76806e-05
6.75855e-05
6.76671e-05
6.78609e-05
6.81255e-05
6.84296e-05
6.87451e-05
6.9041e-05
6.92781e-05
6.94083e-05
6.93861e-05
6.91926e-05
6.88567e-05
6.84279e-05
6.79534e-05
6.74709e-05
6.70096e-05
6.65955e-05
6.6256e-05
6.60254e-05
6.59541e-05
6.61283e-05
6.67279e-05
6.82642e-05
7.3299e-05
0.000108773
0.000138237
7.0547e-05
6.99054e-05
6.92135e-05
6.86674e-05
6.82837e-05
6.80365e-05
6.79e-05
6.78578e-05
6.79053e-05
6.80515e-05
6.83217e-05
6.87644e-05
6.94594e-05
7.05223e-05
7.20479e-05
7.35715e-05
7.1658e-05
7.00371e-05
6.89038e-05
6.80804e-05
6.74213e-05
6.68317e-05
6.6254e-05
6.56592e-05
6.50412e-05
6.44111e-05
6.37904e-05
6.32047e-05
6.26785e-05
6.22339e-05
6.1892e-05
6.1678e-05
6.16316e-05
6.1831e-05
6.2467e-05
6.41601e-05
7.02208e-05
0.00012411
0.00013824
0.00013824
0.00013824
0.00013824
0.00013824
0.00013824
0.00013824
0.00013824
0.00013824
0.00013824
0.00013824
0.00013824
0.00013824
0.00013824
0.00013824
0.00013824
0.00013824
0.00013824
0.00013824
0.00013824
0.00013824
0.000138239
0.000108127
6.87501e-05
6.40655e-05
6.28196e-05
6.24398e-05
6.24655e-05
6.27549e-05
6.32521e-05
6.39294e-05
6.47651e-05
6.57283e-05
6.67689e-05
6.78136e-05
6.87744e-05
6.95652e-05
7.01215e-05
7.04138e-05
7.04522e-05
7.02835e-05
6.99846e-05
6.96551e-05
6.94163e-05
6.94286e-05
6.99678e-05
7.17531e-05
7.81803e-05
0.000128596
0.00013824
0.000138191
9.64521e-05
7.31096e-05
6.90279e-05
6.75988e-05
6.69543e-05
6.66754e-05
6.66086e-05
6.66806e-05
6.68504e-05
6.70906e-05
6.73772e-05
6.76802e-05
6.79542e-05
6.81324e-05
6.81411e-05
6.79422e-05
6.75897e-05
6.71614e-05
6.67187e-05
6.63011e-05
6.5933e-05
6.56334e-05
6.54242e-05
6.53381e-05
6.54314e-05
6.58151e-05
6.67438e-05
6.89917e-05
7.64839e-05
0.000132453
0.00013824
7.16836e-05
6.98333e-05
6.84584e-05
6.75614e-05
6.69892e-05
6.66361e-05
6.64432e-05
6.63805e-05
6.64396e-05
6.66307e-05
6.69907e-05
6.7602e-05
6.86458e-05
7.05665e-05
7.47979e-05
8.61801e-05
7.35465e-05
6.97741e-05
6.79817e-05
6.68983e-05
6.61358e-05
6.55277e-05
6.49897e-05
6.4479e-05
6.39783e-05
6.34868e-05
6.30141e-05
6.25758e-05
6.21902e-05
6.18776e-05
6.16616e-05
6.15751e-05
6.16746e-05
6.20806e-05
6.31326e-05
6.64014e-05
8.63621e-05
0.000138161
0.00013824
0.00013824
0.00013824
0.00013824
0.00013824
0.00013824
0.00013824
0.00013824
0.00013824
0.00013824
0.00013824
0.00013824
0.00013824
0.00013824
0.00013824
0.00013824
0.00013824
0.00013824
0.00013824
0.00013824
0.00013824
0.00013824
0.000133942
7.25232e-05
6.51694e-05
6.32101e-05
6.25204e-05
6.23484e-05
6.24701e-05
6.27958e-05
6.32807e-05
6.38933e-05
6.46014e-05
6.5364e-05
6.61286e-05
6.68356e-05
6.7428e-05
6.78628e-05
6.81208e-05
6.82111e-05
6.8171e-05
6.80619e-05
6.79679e-05
6.80024e-05
6.83451e-05
6.93934e-05
7.26409e-05
8.9216e-05
0.000137996
0.00013824
0.00013824
0.000129943
7.67761e-05
6.96578e-05
6.74179e-05
6.64008e-05
6.5894e-05
6.56661e-05
6.56193e-05
6.57051e-05
6.58962e-05
6.61724e-05
6.65075e-05
6.68516e-05
6.71142e-05
6.71731e-05
6.69428e-05
6.65322e-05
6.60683e-05
6.56287e-05
6.52531e-05
6.4959e-05
6.47591e-05
6.46724e-05
6.47348e-05
6.50193e-05
6.5699e-05
6.72778e-05
7.2208e-05
0.000107185
0.000138238
0.00013824
8.10224e-05
7.15224e-05
6.83752e-05
6.68853e-05
6.60583e-05
6.55769e-05
6.53188e-05
6.52324e-05
6.53032e-05
6.55435e-05
6.60058e-05
6.68276e-05
6.83923e-05
7.22721e-05
9.12031e-05
0.000136295
8.05212e-05
7.0424e-05
6.74481e-05
6.59884e-05
6.50834e-05
6.44344e-05
6.39145e-05
6.34626e-05
6.30506e-05
6.26686e-05
6.23179e-05
6.20071e-05
6.17506e-05
6.15683e-05
6.14885e-05
6.15568e-05
6.18603e-05
6.26048e-05
6.44539e-05
7.10639e-05
0.000129749
0.00013824
0.00013824
0.00013824
0.00013824
0.00013824
0.00013824
0.00013824
0.00013824
0.00013824
0.00013824
0.00013824
0.00013824
0.00013824
0.00013824
0.00013824
0.00013824
0.00013824
0.00013824
0.00013824
0.00013824
0.00013824
0.00013824
0.00013824
0.000138239
0.000108636
6.87978e-05
6.40861e-05
6.27726e-05
6.23143e-05
6.22344e-05
6.23781e-05
6.26753e-05
6.3084e-05
6.35698e-05
6.40976e-05
6.46296e-05
6.51267e-05
6.55538e-05
6.58863e-05
6.61149e-05
6.62495e-05
6.63205e-05
6.63785e-05
6.64993e-05
6.68001e-05
6.75042e-05
6.92187e-05
7.49286e-05
0.000119567
0.00013824
0.00013824
0.00013824
0.000138238
0.000108571
7.32688e-05
6.80332e-05
6.62559e-05
6.54106e-05
6.49883e-05
6.48217e-05
6.48375e-05
6.50029e-05
6.53034e-05
6.57234e-05
6.62168e-05
6.66609e-05
6.68325e-05
6.64897e-05
6.59117e-05
6.53317e-05
6.48389e-05
6.44666e-05
6.42183e-05
6.40986e-05
6.41268e-05
6.43497e-05
6.48729e-05
6.60046e-05
6.88834e-05
8.10978e-05
0.000137533
0.00013824
0.00013824
0.000135774
7.95762e-05
6.96744e-05
6.68823e-05
6.56285e-05
6.4952e-05
6.45995e-05
6.44793e-05
6.45685e-05
6.48817e-05
6.54984e-05
6.6664e-05
6.91956e-05
7.74797e-05
0.000134867
0.00013824
0.00011964
7.3774e-05
6.76245e-05
6.54769e-05
6.43443e-05
6.36153e-05
6.30836e-05
6.26611e-05
6.23077e-05
6.20057e-05
6.17505e-05
6.1547e-05
6.14078e-05
6.13559e-05
6.14305e-05
6.17039e-05
6.23405e-05
6.38458e-05
6.88709e-05
0.000109342
0.00013824
0.00013824
0.00013824
0.00013824
0.00013824
0.00013824
0.00013824
0.00013824
0.00013824
0.00013824
0.00013824
0.00013824
0.00013824
0.00013824
0.00013824
0.00013824
0.00013824
0.00013824
0.00013824
0.00013824
0.00013824
0.00013824
0.00013824
0.00013824
0.00013824
0.00013768
7.81053e-05
6.59132e-05
6.33442e-05
6.24455e-05
6.21097e-05
6.20545e-05
6.21695e-05
6.23971e-05
6.26981e-05
6.304e-05
6.33939e-05
6.37338e-05
6.40392e-05
6.42973e-05
6.45062e-05
6.46772e-05
6.48379e-05
6.50363e-05
6.53523e-05
6.59307e-05
6.71054e-05
7.00758e-05
8.3037e-05
0.00013764
0.00013824
0.00013824
0.00013824
0.00013824
0.000138132
9.00278e-05
7.07964e-05
6.69189e-05
6.54202e-05
6.46997e-05
6.43875e-05
6.43408e-05
6.451e-05
6.48956e-05
6.55225e-05
6.63899e-05
6.73683e-05
6.79662e-05
6.7148e-05
6.60233e-05
6.51267e-05
6.44651e-05
6.40364e-05
6.38015e-05
6.37489e-05
6.39034e-05
6.43447e-05
6.52529e-05
6.73659e-05
7.45664e-05
0.000132072
0.00013824
0.00013824
0.00013824
0.00013824
0.000133094
7.58343e-05
6.82537e-05
6.59822e-05
6.49032e-05
6.43711e-05
6.41876e-05
6.43158e-05
6.47738e-05
6.5709e-05
6.77746e-05
7.45138e-05
0.000126468
0.00013824
0.00013824
0.000138142
8.94212e-05
6.93677e-05
6.55331e-05
6.39847e-05
6.31047e-05
6.25196e-05
6.20937e-05
6.17702e-05
6.15229e-05
6.13424e-05
6.12318e-05
6.1206e-05
6.12968e-05
6.15695e-05
6.21619e-05
6.34684e-05
6.73409e-05
9.10956e-05
0.000138212
0.00013824
0.00013824
0.00013824
0.00013824
0.00013824
0.00013824
0.00013824
0.00013824
0.00013824
0.00013824
0.00013824
0.00013824
0.00013824
0.00013824
0.00013824
0.00013824
0.00013824
0.00013824
0.00013824
0.00013824
0.00013824
0.00013824
0.00013824
0.00013824
0.00013824
0.00013824
0.000129198
7.11784e-05
6.4721e-05
6.29164e-05
6.21852e-05
6.18829e-05
6.18068e-05
6.1867e-05
6.2012e-05
6.22073e-05
6.24274e-05
6.26539e-05
6.28742e-05
6.30831e-05
6.32832e-05
6.34879e-05
6.37262e-05
6.40519e-05
6.45671e-05
6.54916e-05
6.74598e-05
7.36645e-05
0.000123042
0.00013824
0.00013824
0.00013824
0.00013824
0.00013824
0.00013824
0.000137772
8.35976e-05
6.99886e-05
6.64215e-05
6.50237e-05
6.44717e-05
6.43537e-05
6.45715e-05
6.51779e-05
6.63949e-05
6.86092e-05
7.25013e-05
7.61894e-05
7.19735e-05
6.78092e-05
6.58798e-05
6.47115e-05
6.41095e-05
6.38427e-05
6.38586e-05
6.42037e-05
6.50928e-05
6.69538e-05
7.34415e-05
0.000125694
0.00013824
0.00013824
0.00013824
0.00013824
0.00013824
0.00013824
0.000131024
7.52097e-05
6.83462e-05
6.59152e-05
6.48994e-05
6.45491e-05
6.4788e-05
6.56454e-05
6.74973e-05
7.37162e-05
0.00012168
0.00013824
0.00013824
0.00013824
0.00013824
0.000134041
7.43953e-05
6.65852e-05
6.41557e-05
6.2967e-05
6.22563e-05
6.17823e-05
6.14584e-05
6.12444e-05
6.1125e-05
6.11042e-05
6.12053e-05
6.14811e-05
6.20713e-05
6.33222e-05
6.66413e-05
8.23447e-05
0.000138037
0.00013824
0.00013824
0.00013824
0.00013824
0.00013824
0.00013824
0.00013824
0.00013824
0.00013824
0.00013824
0.00013824
0.00013824
0.00013824
0.00013824
0.00013824
0.00013824
0.00013824
0.00013824
0.00013824
0.00013824
0.00013824
0.00013824
0.00013824
0.00013824
0.00013824
0.00013824
0.00013824
0.00013824
0.000113767
6.96515e-05
6.42451e-05
6.26361e-05
6.1946e-05
6.16335e-05
6.15204e-05
6.15231e-05
6.15959e-05
6.17115e-05
6.18542e-05
6.20159e-05
6.21953e-05
6.23984e-05
6.2642e-05
6.29603e-05
6.34237e-05
6.41866e-05
6.56702e-05
6.9794e-05
9.51394e-05
0.000138214
0.00013824
0.00013824
0.00013824
0.00013824
0.00013824
0.00013824
0.00013824
0.000137782
8.8888e-05
7.10601e-05
6.66961e-05
6.55625e-05
6.5316e-05
6.56913e-05
6.6967e-05
7.1025e-05
8.20731e-05
0.000124225
0.000136229
0.000120219
7.70897e-05
6.98632e-05
6.62611e-05
6.51435e-05
6.47338e-05
6.48624e-05
6.56457e-05
6.82804e-05
7.42864e-05
0.000127389
0.00013824
0.00013824
0.00013824
0.00013824
0.00013824
0.00013824
0.00013824
0.00013824
0.000134323
8.22408e-05
7.07553e-05
6.73645e-05
6.627e-05
6.70057e-05
6.99463e-05
7.61755e-05
0.000127871
0.00013824
0.00013824
0.00013824
0.00013824
0.00013824
0.00013824
0.000124374
7.20053e-05
6.54741e-05
6.3403e-05
6.23963e-05
6.17882e-05
6.14218e-05
6.12208e-05
6.11578e-05
6.12438e-05
6.15287e-05
6.21135e-05
6.34347e-05
6.70057e-05
8.1966e-05
0.000137882
0.00013824
0.00013824
0.00013824
0.00013824
0.00013824
0.00013824
0.00013824
0.00013824
0.00013824
0.00013824
0.00013824
0.00013824
0.00013824
0.00013824
0.00013824
0.00013824
0.00013824
0.00013824
0.00013824
0.00013824
0.00013824
0.00013824
0.00013824
0.00013824
0.00013824
0.00013824
0.00013824
0.00013824
0.00013824
0.000138237
0.000101977
6.8746e-05
6.39426e-05
6.24126e-05
6.1728e-05
6.13985e-05
6.12496e-05
6.1206e-05
6.12308e-05
6.13068e-05
6.14273e-05
6.15933e-05
6.18146e-05
6.21133e-05
6.25358e-05
6.31871e-05
6.43371e-05
6.68847e-05
7.61286e-05
0.000136461
0.00013824
0.00013824
0.00013824
0.00013824
0.00013824
0.00013824
0.00013824
0.00013824
0.00013824
0.000138144
0.000110508
7.38318e-05
7.04452e-05
6.96463e-05
7.07828e-05
7.51102e-05
0.000112828
0.000137822
0.00013824
0.00013824
0.00013824
0.000136772
0.000103519
7.29091e-05
6.96963e-05
6.8412e-05
6.90341e-05
7.15557e-05
8.99443e-05
0.000134584
0.00013824
0.00013824
0.00013824
0.00013824
0.00013824
0.00013824
0.00013824
0.00013824
0.00013824
0.00013824
0.00013788
0.000113148
8.0388e-05
7.31204e-05
7.76251e-05
0.000106631
0.000136382
0.00013824
0.00013824
0.00013824
0.00013824
0.00013824
0.00013824
0.00013824
0.00013824
0.000118763
7.12831e-05
6.51358e-05
6.329e-05
6.22941e-05
6.18001e-05
6.15862e-05
6.15902e-05
6.18499e-05
6.25398e-05
6.38613e-05
6.83117e-05
9.034e-05
0.000138028
0.00013824
0.00013824
0.00013824
0.00013824
0.00013824
0.00013824
0.00013824
0.00013824
0.00013824
0.00013824
0.00013824
0.00013824
0.00013824
0.00013824
0.00013824
0.00013824
0.00013824
0.00013824
0.00013824
0.00013824
0.00013824
0.00013824
0.00013824
0.00013824
0.00013824
0.00013824
0.00013824
0.00013824
0.00013824
0.00013824
0.00013824
0.00013823
9.74724e-05
6.84831e-05
6.38034e-05
6.22777e-05
6.15963e-05
6.12429e-05
6.10622e-05
6.09912e-05
6.10056e-05
6.10959e-05
6.12645e-05
6.15277e-05
6.19196e-05
6.25152e-05
6.35121e-05
6.56011e-05
7.24119e-05
0.000129395
0.00013824
0.00013824
0.00013824
0.00013824
0.00013824
0.00013824
0.00013824
0.00013824
0.00013824
0.00013824
0.00013824
0.000138239
0.000133757
0.000112923
0.000102972
0.000116323
0.000135767
0.00013824
0.00013824
0.00013824
0.00013824
0.00013824
0.00013824
0.000138237
0.000131464
0.000107285
9.21312e-05
0.000100168
0.000124267
0.000138185
0.00013824
0.00013824
0.00013824
0.00013824
0.00013824
0.00013824
0.00013824
0.00013824
0.00013824
0.00013824
0.00013824
0.00013824
0.00013824
0.000137719
0.000133426
0.000137195
0.000138238
0.00013824
0.00013824
0.00013824
0.00013824
0.00013824
0.00013824
0.00013824
0.00013824
0.00013824
0.00013824
0.000124279
7.23598e-05
6.68033e-05
6.39477e-05
6.30705e-05
6.27904e-05
6.2916e-05
6.35944e-05
6.61158e-05
7.04507e-05
0.000109658
0.000138211
0.00013824
0.00013824
0.00013824
0.00013824
0.00013824
0.00013824
0.00013824
0.00013824
0.00013824
0.00013824
0.00013824
0.00013824
0.00013824
0.00013824
0.00013824
0.00013824
0.00013824
0.00013824
0.00013824
0.00013824
0.00013824
0.00013824
0.00013824
0.00013824
0.00013824
0.00013824
0.00013824
0.00013824
0.00013824
0.00013824
0.00013824
0.00013824
0.00013824
0.00013823
0.000100803
6.89335e-05
6.391e-05
6.23912e-05
6.165e-05
6.1251e-05
6.10445e-05
6.09864e-05
6.10524e-05
6.1245e-05
6.15978e-05
6.21796e-05
6.31498e-05
6.50525e-05
7.13467e-05
0.000122373
0.00013824
0.00013824
0.00013824
0.00013824
0.00013824
0.00013824
0.00013824
0.00013824
0.00013824
0.00013824
0.00013824
0.00013824
0.00013824
0.00013824
0.00013824
0.000138236
0.00013824
0.00013824
0.00013824
0.00013824
0.00013824
0.00013824
0.00013824
0.00013824
0.00013824
0.00013824
0.000138239
0.000138198
0.000138233
0.00013824
0.00013824
0.00013824
0.00013824
0.00013824
0.00013824
0.00013824
0.00013824
0.00013824
0.00013824
0.00013824
0.00013824
0.00013824
0.00013824
0.00013824
0.00013824
0.00013824
0.00013824
0.00013824
0.00013824
0.00013824
0.00013824
0.00013824
0.00013824
0.00013824
0.00013824
0.00013824
0.00013824
0.00013824
0.00013824
0.000134341
9.30731e-05
7.02824e-05
6.79121e-05
6.73007e-05
6.79355e-05
7.00969e-05
9.26602e-05
0.000130775
0.00013824
0.00013824
0.00013824
0.00013824
0.00013824
0.00013824
0.00013824
0.00013824
0.00013824
0.00013824
0.00013824
0.00013824
0.00013824
0.00013824
0.00013824
0.00013824
0.00013824
0.00013824
0.00013824
0.00013824
0.00013824
0.00013824
0.00013824
0.00013824
0.00013824
0.00013824
0.00013824
0.00013824
0.00013824
0.00013824
0.00013824
0.00013824
0.00013824
0.00013824
0.00013824
0.00013824
0.000138237
0.000112579
7.01926e-05
6.49924e-05
6.29801e-05
6.20492e-05
6.15577e-05
6.1383e-05
6.14253e-05
6.16822e-05
6.22512e-05
6.33549e-05
6.55705e-05
7.15749e-05
0.000123456
0.00013824
0.00013824
0.00013824
0.00013824
0.00013824
0.00013824
0.00013824
0.00013824
0.00013824
0.00013824
0.00013824
0.00013824
0.00013824
0.00013824
0.00013824
0.00013824
0.00013824
0.00013824
0.00013824
0.00013824
0.00013824
0.00013824
0.00013824
0.00013824
0.00013824
0.00013824
0.00013824
0.00013824
0.00013824
0.00013824
0.00013824
0.00013824
0.00013824
0.00013824
0.00013824
0.00013824
0.00013824
0.00013824
0.00013824
0.00013824
0.00013824
0.00013824
0.00013824
0.00013824
0.00013824
0.00013824
0.00013824
0.00013824
0.00013824
0.00013824
0.00013824
0.00013824
0.00013824
0.00013824
0.00013824
0.00013824
0.00013824
0.00013824
0.00013824
0.00013824
0.00013824
0.000138223
0.00012913
0.000109579
0.000103105
0.000113088
0.000131256
0.000138224
0.00013824
0.00013824
0.00013824
0.00013824
0.00013824
0.00013824
0.00013824
0.00013824
0.00013824
0.00013824
0.00013824
0.00013824
0.00013824
0.00013824
0.00013824
0.00013824
0.00013824
0.00013824
0.00013824
0.00013824
0.00013824
0.00013824
0.00013824
0.00013824
0.00013824
0.00013824
0.00013824
0.00013824
0.00013824
0.00013824
0.00013824
0.00013824
0.00013824
0.00013824
0.00013824
0.00013824
0.00013824
0.00013824
0.00013824
0.000129134
7.9093e-05
6.81129e-05
6.46846e-05
6.31212e-05
6.26814e-05
6.26901e-05
6.31181e-05
6.44086e-05
6.81169e-05
7.84889e-05
0.000131831
0.00013824
0.00013824
0.00013824
0.00013824
0.00013824
0.00013824
0.00013824
0.00013824
0.00013824
0.00013824
0.00013824
0.00013824
0.00013824
0.00013824
0.00013824
0.00013824
0.00013824
0.00013824
0.00013824
0.00013824
0.00013824
0.00013824
0.00013824
0.00013824
0.00013824
0.00013824
0.00013824
0.00013824
0.00013824
0.00013824
0.00013824
0.00013824
0.00013824
0.00013824
0.00013824
0.00013824
0.00013824
0.00013824
0.00013824
0.00013824
0.00013824
0.00013824
0.00013824
0.00013824
0.00013824
0.00013824
0.00013824
0.00013824
0.00013824
0.00013824
0.00013824
0.00013824
0.00013824
0.00013824
0.00013824
0.00013824
0.00013824
0.00013824
0.00013824
0.00013824
0.00013824
0.00013824
0.00013824
0.00013824
0.00013824
0.000138238
0.00013824
0.00013824
0.00013824
0.00013824
0.00013824
0.00013824
0.00013824
0.00013824
0.00013824
0.00013824
0.00013824
0.00013824
0.00013824
0.00013824
0.00013824
0.00013824
0.00013824
0.00013824
0.00013824
0.00013824
0.00013824
0.00013824
0.00013824
0.00013824
0.00013824
0.00013824
0.00013824
0.00013824
0.00013824
0.00013824
0.00013824
0.00013824
0.00013824
0.00013824
0.00013824
0.00013824
0.00013824
0.00013824
0.00013824
0.00013824
0.00013824
0.00013824
0.00013824
0.000137945
0.00011595
7.88505e-05
6.90319e-05
6.77231e-05
6.76159e-05
6.86788e-05
7.39717e-05
0.000111425
0.000137821
0.00013824
0.00013824
0.00013824
0.00013824
0.00013824
0.00013824
0.00013824
0.00013824
0.00013824
0.00013824
0.00013824
0.00013824
0.00013824
0.00013824
0.00013824
0.00013824
0.00013824
0.00013824
0.00013824
0.00013824
0.00013824
0.00013824
0.00013824
0.00013824
0.00013824
0.00013824
0.00013824
0.00013824
0.00013824
0.00013824
0.00013824
0.00013824
0.00013824
0.00013824
0.00013824
0.00013824
0.00013824
0.00013824
0.00013824
0.00013824
0.00013824
0.00013824
0.00013824
0.00013824
0.00013824
0.00013824
0.00013824
0.00013824
0.00013824
0.00013824
0.00013824
0.00013824
0.00013824
0.00013824
0.00013824
0.00013824
0.00013824
0.00013824
0.00013824
0.00013824
0.00013824
0.00013824
0.00013824
0.00013824
0.00013824
0.00013824
0.00013824
0.00013824
0.00013824
0.00013824
0.00013824
0.00013824
0.00013824
0.00013824
0.00013824
0.00013824
0.00013824
0.00013824
0.00013824
0.00013824
0.00013824
0.00013824
0.00013824
0.00013824
0.00013824
0.00013824
0.00013824
0.00013824
0.00013824
0.00013824
0.00013824
0.00013824
0.00013824
0.00013824
0.00013824
0.00013824
0.00013824
0.00013824
0.00013824
0.00013824
0.00013824
0.00013824
0.00013824
0.00013824
0.00013824
0.00013824
0.00013824
0.00013824
0.00013824
0.00013824
0.00013824
0.00013824
0.000137936
0.000127302
0.000114086
0.000111641
0.000122683
0.000137001
0.00013824
0.00013824
0.00013824
0.00013824
0.00013824
0.00013824
0.00013824
0.00013824
0.00013824
0.00013824
0.00013824
0.00013824
0.00013824
0.00013824
0.00013824
0.00013824
0.00013824
0.00013824
0.00013824
0.00013824
0.00013824
0.00013824
0.00013824
0.00013824
0.00013824
0.00013824
0.00013824
0.00013824
0.00013824
0.00013824
0.00013824
0.00013824
0.00013824
0.00013824
0.00013824
0.00013824
0.00013824
0.00013824
0.00013824
0.00013824
0.00013824
0.00013824
0.00013824
0.00013824
0.00013824
0.00013824
0.00013824
0.00013824
0.00013824
0.00013824
0.00013824
0.00013824
0.00013824
0.00013824
0.00013824
0.00013824
0.00013824
0.00013824
0.00013824
0.00013824
0.00013824
0.00013824
0.00013824
0.00013824
0.00013824
0.00013824
0.00013824
0.00013824
0.00013824
0.00013824
0.00013824
0.00013824
0.00013824
0.00013824
0.00013824
0.00013824
0.00013824
0.00013824
0.00013824
0.00013824
0.00013824
0.00013824
0.00013824
0.00013824
0.00013824
0.00013824
0.00013824
0.00013824
0.00013824
0.00013824
0.00013824
0.00013824
0.00013824
0.00013824
0.00013824
0.00013824
0.00013824
0.00013824
0.00013824
0.00013824
0.00013824
0.00013824
0.00013824
0.00013824
0.00013824
0.00013824
0.00013824
0.00013824
0.00013824
0.00013824
0.00013824
0.00013824
0.00013824
0.00013824
0.00013824
0.00013824
0.00013824
0.00013824
0.00013824
0.00013824
0.00013824
0.00013824
0.00013824
0.00013824
0.00013824
0.00013824
0.00013824
0.00013824
0.00013824
0.00013824
0.00013824
0.00013824
0.00013824
0.00013824
0.00013824
0.00013824
0.00013824
0.00013824
0.00013824
0.00013824
0.00013824
0.00013824
0.00013824
0.00013824
0.00013824
0.00013824
0.00013824
0.00013824
0.00013824
0.00013824
0.00013824
0.00013824
0.00013824
0.00013824
0.00013824
0.00013824
0.00013824
0.00013824
0.00013824
0.00013824
0.00013824
0.00013824
0.00013824
0.00013824
0.00013824
0.00013824
0.00013824
0.00013824
0.00013824
0.00013824
0.00013824
0.00013824
0.00013824
0.00013824
0.00013824
0.00013824
0.00013824
0.00013824
0.00013824
0.00013824
0.00013824
0.00013824
0.00013824
0.00013824
0.00013824
0.00013824
0.00013824
0.00013824
0.00013824
0.00013824
0.00013824
0.00013824
0.00013824
0.00013824
0.00013824
0.00013824
0.00013824
0.00013824
0.00013824
0.00013824
0.00013824
0.00013824
0.00013824
0.00013824
0.00013824
0.00013824
0.00013824
0.00013824
0.00013824
0.00013824
0.00013824
0.00013824
0.00013824
0.00013824
0.00013824
0.00013824
0.00013824
0.00013824
0.00013824
0.00013824
0.00013824
0.00013824
0.00013824
0.00013824
0.00013824
0.00013824
0.00013824
0.00013824
0.00013824
0.00013824
0.00013824
0.00013824
0.00013824
0.00013824
0.00013824
0.00013824
0.00013824
0.00013824
0.00013824
0.00013824
0.00013824
0.00013824
0.00013824
0.00013824
0.00013824
0.00013824
0.00013824
0.00013824
0.00013824
0.00013824
0.00013824
0.00013824
0.00013824
0.00013824
0.00013824
0.00013824
0.00013824
0.00013824
0.00013824
0.00013824
0.00013824
0.00013824
0.00013824
0.00013824
0.00013824
0.00013824
0.00013824
0.00013824
0.00013824
0.00013824
0.00013824
0.00013824
0.00013824
0.00013824
0.00013824
0.00013824
0.00013824
0.00013824
0.00013824
0.00013824
0.00013824
0.00013824
0.00013824
0.00013824
0.00013824
0.00013824
0.00013824
0.00013824
0.00013824
0.00013824
0.00013824
0.00013824
0.00013824
0.00013824
0.00013824
0.00013824
0.00013824
0.00013824
0.00013824
0.00013824
0.00013824
0.00013824
0.00013824
0.00013824
0.00013824
0.00013824
0.00013824
0.00013824
0.00013824
0.00013824
0.00013824
0.00013824
0.00013824
0.00013824
0.00013824
0.00013824
0.00013824
0.00013824
0.00013824
0.00013824
0.00013824
0.00013824
0.00013824
0.00013824
0.00013824
0.00013824
0.00013824
0.00013824
0.00013824
0.00013824
0.00013824
0.00013824
0.00013824
0.00013824
0.00013824
0.00013824
0.00013824
0.00013824
0.00013824
0.00013824
0.00013824
0.00013824
0.00013824
0.00013824
0.00013824
0.00013824
0.00013824
0.00013824
0.00013824
0.00013824
0.00013824
0.00013824
0.00013824
0.00013824
0.00013824
0.00013824
0.00013824
0.00013824
0.00013824
0.00013824
0.00013824
0.00013824
0.00013824
0.00013824
0.00013824
0.00013824
0.00013824
0.00013824
0.00013824
0.00013824
0.00013824
0.00013824
0.00013824
0.00013824
0.00013824
0.00013824
0.00013824
0.00013824
0.00013824
0.00013824
0.00013824
0.00013824
0.00013824
0.00013824
0.00013824
0.00013824
0.00013824
0.00013824
0.00013824
0.00013824
0.00013824
0.00013824
0.00013824
0.00013824
0.00013824
0.00013824
0.00013824
0.00013824
0.00013824
0.00013824
0.00013824
0.00013824
0.00013824
0.00013824
0.00013824
0.00013824
0.00013824
0.00013824
0.00013824
0.00013824
0.00013824
0.00013824
0.00013824
0.00013824
0.00013824
0.00013824
0.00013824
0.00013824
0.00013824
0.00013824
0.00013824
0.00013824
0.00013824
0.00013824
0.00013824
0.00013824
0.00013824
0.00013824
0.00013824
0.00013824
0.00013824
0.00013824
0.00013824
0.00013824
0.00013824
0.00013824
0.00013824
0.00013824
0.00013824
0.00013824
0.00013824
0.00013824
0.00013824
0.00013824
0.00013824
0.00013824
0.00013824
0.00013824
0.00013824
0.00013824
0.00013824
0.00013824
0.00013824
0.00013824
0.00013824
0.00013824
0.00013824
0.00013824
0.00013824
0.00013824
0.00013824
0.00013824
0.00013824
0.00013824
0.00013824
0.00013824
0.00013824
0.00013824
0.00013824
0.00013824
0.00013824
0.00013824
0.00013824
0.00013824
0.00013824
0.00013824
0.00013824
0.00013824
0.00013824
0.00013824
0.00013824
0.00013824
0.00013824
0.00013824
0.00013824
0.00013824
0.00013824
0.00013824
0.00013824
0.00013824
0.00013824
0.00013824
0.00013824
0.00013824
0.00013824
0.00013824
0.00013824
0.00013824
0.00013824
0.00013824
0.00013824
0.00013824
0.00013824
0.00013824
0.00013824
0.00013824
0.00013824
0.00013824
0.00013824
0.00013824
0.00013824
0.00013824
0.00013824
0.00013824
0.00013824
0.00013824
0.00013824
0.00013824
0.00013824
0.00013824
0.00013824
0.00013824
0.00013824
0.00013824
0.00013824
0.00013824
0.00013824
0.00013824
0.00013824
0.00013824
0.00013824
0.00013824
0.00013824
0.00013824
0.00013824
0.00013824
0.00013824
0.00013824
0.00013824
0.00013824
0.00013824
0.00013824
0.00013824
0.00013824
0.00013824
0.00013824
0.00013824
0.00013824
0.00013824
0.00013824
0.00013824
0.00013824
0.00013824
0.00013824
0.00013824
0.00013824
0.00013824
0.00013824
0.00013824
0.00013824
0.00013824
0.00013824
0.00013824
0.00013824
0.00013824
0.00013824
0.00013824
0.00013824
0.00013824
0.00013824
0.00013824
0.00013824
0.00013824
0.00013824
0.00013824
0.00013824
0.00013824
0.00013824
0.00013824
0.00013824
0.00013824
0.00013824
0.00013824
0.00013824
0.00013824
0.00013824
0.00013824
0.00013824
0.00013824
0.00013824
0.00013824
0.00013824
0.00013824
0.00013824
0.00013824
0.00013824
0.00013824
0.00013824
0.00013824
0.00013824
0.00013824
0.00013824
0.00013824
0.00013824
0.00013824
0.00013824
0.00013824
0.00013824
0.00013824
0.00013824
0.00013824
0.00013824
0.00013824
0.00013824
0.00013824
0.00013824
0.00013824
0.00013824
0.00013824
0.00013824
0.00013824
0.00013824
0.00013824
0.00013824
0.00013824
0.00013824
0.00013824
0.00013824
0.00013824
0.00013824
0.00013824
0.00013824
0.00013824
0.00013824
0.00013824
0.00013824
0.00013824
0.00013824
0.00013824
0.00013824
0.00013824
0.00013824
0.00013824
0.00013824
0.00013824
0.00013824
0.00013824
0.00013824
0.00013824
0.00013824
0.00013824
0.00013824
0.00013824
0.00013824
0.00013824
0.00013824
0.00013824
0.00013824
0.00013824
0.00013824
0.00013824
0.00013824
0.00013824
0.00013824
0.00013824
0.00013824
0.00013824
0.00013824
0.00013824
0.00013824
0.00013824
0.00013824
0.00013824
0.00013824
0.00013824
0.00013824
0.00013824
0.00013824
0.00013824
0.00013824
0.00013824
0.00013824
0.00013824
0.00013824