/*--------------------------------*- C++ -*----------------------------------*\
| =========                 |                                                 |
| \\      /  F ield         | OpenFOAM: The Open Source CFD Toolbox           |
|  \\    /   O peration     | Version:  2406                                  |
|   \\  /    A nd           | Website:  www.openfoam.com                      |
|    \\/     M anipulation  |                                                 |
\*---------------------------------------------------------------------------*/
FoamFile
{
    version     2.0;
    format      ascii;
    arch        "LSB;label=32;scalar=64";
    class       volScalarField;
    location    "8.25";
    object      Da;
}
// * * * * * * * * * * * * * * * * * * * * * * * * * * * * * * * * * * * * * //

dimensions      [0 2 -1 0 0 0 0];

internalField   nonuniform List<scalar> 
14400
(
4.87823e-05
4.8761e-05
4.87316e-05
4.87065e-05
4.8691e-05
4.86841e-05
4.86823e-05
4.86829e-05
4.86854e-05
4.86929e-05
4.87115e-05
4.87475e-05
4.88042e-05
4.88739e-05
4.89303e-05
4.89303e-05
4.88443e-05
4.87026e-05
4.85358e-05
4.83518e-05
4.8141e-05
4.78871e-05
4.75774e-05
4.72083e-05
4.67893e-05
4.63413e-05
4.58916e-05
4.54665e-05
4.50855e-05
4.47606e-05
4.44985e-05
4.43039e-05
4.41839e-05
4.41532e-05
4.42463e-05
4.45509e-05
4.5357e-05
4.82453e-05
7.49644e-05
7.8e-05
7.8e-05
7.8e-05
7.8e-05
7.8e-05
7.8e-05
7.8e-05
7.8e-05
7.8e-05
7.8e-05
7.8e-05
7.8e-05
7.8e-05
7.8e-05
7.8e-05
7.8e-05
7.8e-05
7.8e-05
7.8e-05
7.8e-05
7.02855e-05
4.77902e-05
4.53337e-05
4.46977e-05
4.45033e-05
4.45124e-05
4.46574e-05
4.49173e-05
4.52882e-05
4.57729e-05
4.6371e-05
4.70682e-05
4.78255e-05
4.85781e-05
4.92503e-05
4.97782e-05
5.01241e-05
5.02771e-05
5.0247e-05
5.00604e-05
4.97591e-05
4.93988e-05
4.90462e-05
4.87786e-05
4.86977e-05
4.89974e-05
5.03371e-05
5.67973e-05
7.779e-05
6.15307e-05
5.03333e-05
4.82763e-05
4.76087e-05
4.73603e-05
4.73077e-05
4.73661e-05
4.74916e-05
4.76552e-05
4.78353e-05
4.80142e-05
4.81766e-05
4.83094e-05
4.84004e-05
4.84384e-05
4.84151e-05
4.83273e-05
4.81792e-05
4.79803e-05
4.7743e-05
4.74816e-05
4.72118e-05
4.69502e-05
4.67142e-05
4.65228e-05
4.63983e-05
4.6372e-05
4.6499e-05
4.69042e-05
4.7975e-05
5.16214e-05
7.63482e-05
4.85615e-05
4.85114e-05
4.84423e-05
4.83793e-05
4.8333e-05
4.83041e-05
4.82894e-05
4.8286e-05
4.82935e-05
4.83151e-05
4.83569e-05
4.84272e-05
4.8531e-05
4.86618e-05
4.87846e-05
4.88218e-05
4.86964e-05
4.84939e-05
4.82773e-05
4.80611e-05
4.78345e-05
4.75793e-05
4.72814e-05
4.69357e-05
4.6549e-05
4.61388e-05
4.5728e-05
4.5339e-05
4.49893e-05
4.46906e-05
4.44502e-05
4.42743e-05
4.41717e-05
4.4161e-05
4.42842e-05
4.46565e-05
4.57085e-05
5.00521e-05
7.7397e-05
7.8e-05
7.8e-05
7.8e-05
7.8e-05
7.8e-05
7.8e-05
7.8e-05
7.8e-05
7.8e-05
7.8e-05
7.8e-05
7.8e-05
7.8e-05
7.8e-05
7.8e-05
7.8e-05
7.8e-05
7.8e-05
7.8e-05
7.8e-05
7.41729e-05
4.82906e-05
4.55102e-05
4.47662e-05
4.45249e-05
4.45058e-05
4.46276e-05
4.4863e-05
4.52046e-05
4.5652e-05
4.62031e-05
4.6844e-05
4.75405e-05
4.82359e-05
4.88627e-05
4.93605e-05
4.96912e-05
4.98411e-05
4.98189e-05
4.96507e-05
4.93783e-05
4.90564e-05
4.87494e-05
4.85322e-05
4.85079e-05
4.88924e-05
5.05464e-05
6.00869e-05
7.79654e-05
6.69706e-05
5.07189e-05
4.82821e-05
4.75188e-05
4.7217e-05
4.71232e-05
4.71452e-05
4.72374e-05
4.73717e-05
4.75279e-05
4.769e-05
4.78438e-05
4.79756e-05
4.80712e-05
4.81158e-05
4.8097e-05
4.80103e-05
4.78625e-05
4.76674e-05
4.74407e-05
4.71977e-05
4.69532e-05
4.67216e-05
4.65182e-05
4.63603e-05
4.62698e-05
4.62801e-05
4.64551e-05
4.69562e-05
4.8409e-05
5.50063e-05
7.78091e-05
4.82507e-05
4.81306e-05
4.79767e-05
4.78413e-05
4.77408e-05
4.76749e-05
4.76389e-05
4.76286e-05
4.76432e-05
4.76861e-05
4.77654e-05
4.78931e-05
4.80831e-05
4.83404e-05
4.86276e-05
4.87862e-05
4.85242e-05
4.8167e-05
4.78444e-05
4.75671e-05
4.73125e-05
4.70554e-05
4.67776e-05
4.64711e-05
4.61383e-05
4.57904e-05
4.54438e-05
4.51153e-05
4.48191e-05
4.45661e-05
4.43645e-05
4.42229e-05
4.41538e-05
4.41819e-05
4.43654e-05
4.48827e-05
4.66405e-05
5.90571e-05
7.79936e-05
7.8e-05
7.8e-05
7.8e-05
7.8e-05
7.8e-05
7.8e-05
7.8e-05
7.8e-05
7.8e-05
7.8e-05
7.8e-05
7.8e-05
7.8e-05
7.8e-05
7.8e-05
7.8e-05
7.8e-05
7.8e-05
7.8e-05
7.8e-05
7.77774e-05
5.18626e-05
4.61018e-05
4.49338e-05
4.4576e-05
4.44981e-05
4.45748e-05
4.47648e-05
4.50535e-05
4.54353e-05
4.59044e-05
4.64475e-05
4.70368e-05
4.7628e-05
4.8167e-05
4.86027e-05
4.88992e-05
4.90414e-05
4.90354e-05
4.89058e-05
4.86922e-05
4.84455e-05
4.82253e-05
4.81028e-05
4.81845e-05
4.87202e-05
5.08805e-05
6.63576e-05
7.7999e-05
7.45972e-05
5.1597e-05
4.84096e-05
4.74085e-05
4.69923e-05
4.68209e-05
4.67793e-05
4.68158e-05
4.69018e-05
4.70191e-05
4.71539e-05
4.72937e-05
4.74247e-05
4.75296e-05
4.75873e-05
4.75774e-05
4.74918e-05
4.73431e-05
4.71533e-05
4.69432e-05
4.67295e-05
4.65251e-05
4.63415e-05
4.61909e-05
4.60885e-05
4.60564e-05
4.61329e-05
4.63973e-05
4.70756e-05
4.92983e-05
6.4947e-05
7.79989e-05
4.80877e-05
4.78043e-05
4.74987e-05
4.72574e-05
4.70879e-05
4.69788e-05
4.69185e-05
4.68998e-05
4.69209e-05
4.69854e-05
4.71049e-05
4.73005e-05
4.76077e-05
4.80775e-05
4.87514e-05
4.94232e-05
4.85795e-05
4.78639e-05
4.73635e-05
4.69998e-05
4.67086e-05
4.6448e-05
4.61925e-05
4.59293e-05
4.56557e-05
4.53766e-05
4.51015e-05
4.48419e-05
4.46086e-05
4.44114e-05
4.42596e-05
4.41644e-05
4.41433e-05
4.42307e-05
4.45107e-05
4.52566e-05
4.79272e-05
7.16698e-05
7.8e-05
7.8e-05
7.8e-05
7.8e-05
7.8e-05
7.8e-05
7.8e-05
7.8e-05
7.8e-05
7.8e-05
7.8e-05
7.8e-05
7.8e-05
7.8e-05
7.8e-05
7.8e-05
7.8e-05
7.8e-05
7.8e-05
7.8e-05
7.8e-05
7.79996e-05
6.4586e-05
4.72786e-05
4.52156e-05
4.46669e-05
4.45002e-05
4.45124e-05
4.46412e-05
4.48618e-05
4.51623e-05
4.55329e-05
4.596e-05
4.64213e-05
4.68844e-05
4.73102e-05
4.76604e-05
4.79066e-05
4.80356e-05
4.80521e-05
4.79768e-05
4.78437e-05
4.7697e-05
4.75903e-05
4.75947e-05
4.78321e-05
4.86199e-05
5.14583e-05
7.37255e-05
7.8e-05
7.79782e-05
5.95072e-05
4.92162e-05
4.74143e-05
4.67831e-05
4.64986e-05
4.63756e-05
4.63463e-05
4.63784e-05
4.64537e-05
4.65601e-05
4.6687e-05
4.68211e-05
4.69424e-05
4.70212e-05
4.7025e-05
4.6937e-05
4.6781e-05
4.65915e-05
4.63955e-05
4.62107e-05
4.60476e-05
4.59148e-05
4.5822e-05
4.57835e-05
4.58242e-05
4.59934e-05
4.64033e-05
4.73958e-05
5.07029e-05
7.54229e-05
7.8e-05
4.85856e-05
4.77698e-05
4.71627e-05
4.67666e-05
4.65138e-05
4.63579e-05
4.62726e-05
4.6245e-05
4.62711e-05
4.63556e-05
4.65146e-05
4.67848e-05
4.7246e-05
4.80945e-05
4.99617e-05
5.49689e-05
4.94093e-05
4.77452e-05
4.69537e-05
4.64751e-05
4.61382e-05
4.58694e-05
4.56316e-05
4.54057e-05
4.51841e-05
4.49664e-05
4.47571e-05
4.45628e-05
4.43919e-05
4.42532e-05
4.41572e-05
4.41185e-05
4.41619e-05
4.43405e-05
4.48037e-05
4.62392e-05
5.49393e-05
7.79629e-05
7.8e-05
7.8e-05
7.8e-05
7.8e-05
7.8e-05
7.8e-05
7.8e-05
7.8e-05
7.8e-05
7.8e-05
7.8e-05
7.8e-05
7.8e-05
7.8e-05
7.8e-05
7.8e-05
7.8e-05
7.8e-05
7.8e-05
7.8e-05
7.8e-05
7.8e-05
7.60487e-05
4.8936e-05
4.57013e-05
4.48386e-05
4.45352e-05
4.44601e-05
4.45147e-05
4.46594e-05
4.48745e-05
4.51462e-05
4.54602e-05
4.57982e-05
4.61371e-05
4.64504e-05
4.67128e-05
4.69052e-05
4.70192e-05
4.70588e-05
4.70404e-05
4.69915e-05
4.69492e-05
4.69636e-05
4.71143e-05
4.75766e-05
4.90095e-05
5.63133e-05
7.78909e-05
7.8e-05
7.8e-05
7.4315e-05
5.08349e-05
4.76913e-05
4.67019e-05
4.62527e-05
4.60289e-05
4.59283e-05
4.59078e-05
4.59459e-05
4.60305e-05
4.61527e-05
4.63009e-05
4.64531e-05
4.65691e-05
4.6595e-05
4.64932e-05
4.63117e-05
4.61066e-05
4.59121e-05
4.57459e-05
4.56157e-05
4.5527e-05
4.54884e-05
4.55157e-05
4.5641e-05
4.59408e-05
4.66376e-05
4.88126e-05
6.42268e-05
7.79989e-05
7.8e-05
5.26897e-05
4.85112e-05
4.71235e-05
4.64658e-05
4.61007e-05
4.58881e-05
4.57741e-05
4.5736e-05
4.57673e-05
4.58735e-05
4.60777e-05
4.64408e-05
4.71319e-05
4.8844e-05
5.71825e-05
7.71289e-05
5.24769e-05
4.80293e-05
4.67158e-05
4.6071e-05
4.56712e-05
4.53844e-05
4.51546e-05
4.49547e-05
4.47725e-05
4.46034e-05
4.44481e-05
4.43105e-05
4.41967e-05
4.41158e-05
4.40801e-05
4.41098e-05
4.42433e-05
4.45714e-05
4.53866e-05
4.82996e-05
7.41729e-05
7.8e-05
7.8e-05
7.8e-05
7.8e-05
7.8e-05
7.8e-05
7.8e-05
7.8e-05
7.8e-05
7.8e-05
7.8e-05
7.8e-05
7.8e-05
7.8e-05
7.8e-05
7.8e-05
7.8e-05
7.8e-05
7.8e-05
7.8e-05
7.8e-05
7.8e-05
7.8e-05
7.79997e-05
6.47874e-05
4.72968e-05
4.52239e-05
4.46459e-05
4.44444e-05
4.44099e-05
4.44741e-05
4.4606e-05
4.47873e-05
4.50027e-05
4.52366e-05
4.54724e-05
4.56926e-05
4.58818e-05
4.60289e-05
4.61299e-05
4.61892e-05
4.62201e-05
4.62453e-05
4.62981e-05
4.64305e-05
4.6741e-05
4.74977e-05
5.00186e-05
6.97224e-05
7.79999e-05
7.8e-05
7.8e-05
7.79991e-05
6.48472e-05
4.92827e-05
4.6972e-05
4.61873e-05
4.5814e-05
4.56275e-05
4.5554e-05
4.55611e-05
4.56343e-05
4.57671e-05
4.59528e-05
4.61707e-05
4.63668e-05
4.64422e-05
4.62911e-05
4.60357e-05
4.57794e-05
4.55616e-05
4.5397e-05
4.52871e-05
4.5234e-05
4.52462e-05
4.53443e-05
4.55751e-05
4.60744e-05
4.73429e-05
5.27071e-05
7.76804e-05
7.8e-05
7.8e-05
7.68929e-05
5.20505e-05
4.76936e-05
4.64624e-05
4.59092e-05
4.56106e-05
4.5455e-05
4.54019e-05
4.54413e-05
4.55797e-05
4.58521e-05
4.6367e-05
4.74847e-05
5.11378e-05
7.64926e-05
7.8e-05
6.97424e-05
4.95062e-05
4.67915e-05
4.58432e-05
4.53429e-05
4.50209e-05
4.47859e-05
4.45992e-05
4.44429e-05
4.43093e-05
4.41964e-05
4.41062e-05
4.40445e-05
4.40212e-05
4.40538e-05
4.4174e-05
4.44544e-05
4.51175e-05
4.73288e-05
6.50841e-05
7.79998e-05
7.8e-05
7.8e-05
7.8e-05
7.8e-05
7.8e-05
7.8e-05
7.8e-05
7.8e-05
7.8e-05
7.8e-05
7.8e-05
7.8e-05
7.8e-05
7.8e-05
7.8e-05
7.8e-05
7.8e-05
7.8e-05
7.8e-05
7.8e-05
7.8e-05
7.8e-05
7.8e-05
7.8e-05
7.77386e-05
5.13307e-05
4.60245e-05
4.48973e-05
4.45019e-05
4.43542e-05
4.43304e-05
4.43817e-05
4.44827e-05
4.46161e-05
4.47677e-05
4.49245e-05
4.5075e-05
4.52102e-05
4.53244e-05
4.54167e-05
4.54921e-05
4.55629e-05
4.56502e-05
4.57895e-05
4.60446e-05
4.65631e-05
4.78731e-05
5.35733e-05
7.77301e-05
7.8e-05
7.8e-05
7.8e-05
7.8e-05
7.79509e-05
5.66449e-05
4.81871e-05
4.64783e-05
4.5817e-05
4.54989e-05
4.53611e-05
4.53405e-05
4.54153e-05
4.55856e-05
4.58624e-05
4.62452e-05
4.6677e-05
4.69385e-05
4.65796e-05
4.60831e-05
4.56874e-05
4.53952e-05
4.52058e-05
4.5102e-05
4.50785e-05
4.51465e-05
4.5341e-05
4.57417e-05
4.66743e-05
4.98507e-05
7.52369e-05
7.8e-05
7.8e-05
7.8e-05
7.8e-05
7.56935e-05
5.0408e-05
4.70654e-05
4.60635e-05
4.55877e-05
4.53528e-05
4.52718e-05
4.53284e-05
4.55307e-05
4.59436e-05
4.68562e-05
4.98317e-05
7.27543e-05
7.8e-05
7.8e-05
7.79553e-05
5.63666e-05
4.75562e-05
4.58661e-05
4.51827e-05
4.4794e-05
4.45356e-05
4.43474e-05
4.42044e-05
4.40951e-05
4.40152e-05
4.39661e-05
4.39545e-05
4.39944e-05
4.41144e-05
4.43751e-05
4.49497e-05
4.66489e-05
5.7016e-05
7.79866e-05
7.8e-05
7.8e-05
7.8e-05
7.8e-05
7.8e-05
7.8e-05
7.8e-05
7.8e-05
7.8e-05
7.8e-05
7.8e-05
7.8e-05
7.8e-05
7.8e-05
7.8e-05
7.8e-05
7.8e-05
7.8e-05
7.8e-05
7.8e-05
7.8e-05
7.8e-05
7.8e-05
7.8e-05
7.8e-05
7.8e-05
7.39217e-05
4.83504e-05
4.55049e-05
4.47094e-05
4.4387e-05
4.42539e-05
4.42206e-05
4.42475e-05
4.43119e-05
4.43985e-05
4.4496e-05
4.45963e-05
4.46938e-05
4.47862e-05
4.48745e-05
4.49649e-05
4.507e-05
4.52136e-05
4.5441e-05
4.5849e-05
4.67179e-05
4.94566e-05
7.12445e-05
7.8e-05
7.8e-05
7.8e-05
7.8e-05
7.8e-05
7.8e-05
7.77877e-05
5.38007e-05
4.78281e-05
4.62576e-05
4.56408e-05
4.53973e-05
4.53452e-05
4.54413e-05
4.57087e-05
4.62459e-05
4.72204e-05
4.89403e-05
5.05439e-05
4.87067e-05
4.68677e-05
4.60182e-05
4.55029e-05
4.52371e-05
4.51193e-05
4.51261e-05
4.52782e-05
4.56699e-05
4.64906e-05
4.93542e-05
7.23906e-05
7.8e-05
7.8e-05
7.8e-05
7.8e-05
7.8e-05
7.8e-05
7.47629e-05
5.01281e-05
4.71021e-05
4.60329e-05
4.55844e-05
4.54298e-05
4.55352e-05
4.59139e-05
4.67298e-05
4.9477e-05
7.06215e-05
7.8e-05
7.8e-05
7.8e-05
7.8e-05
7.61107e-05
4.97705e-05
4.6329e-05
4.52571e-05
4.47321e-05
4.44182e-05
4.42089e-05
4.40659e-05
4.39713e-05
4.39184e-05
4.3909e-05
4.39535e-05
4.4075e-05
4.43348e-05
4.48847e-05
4.63378e-05
5.31609e-05
7.7904e-05
7.8e-05
7.8e-05
7.8e-05
7.8e-05
7.8e-05
7.8e-05
7.8e-05
7.8e-05
7.8e-05
7.8e-05
7.8e-05
7.8e-05
7.8e-05
7.8e-05
7.8e-05
7.8e-05
7.8e-05
7.8e-05
7.8e-05
7.8e-05
7.8e-05
7.8e-05
7.8e-05
7.8e-05
7.8e-05
7.8e-05
7.8e-05
7.79999e-05
6.7048e-05
4.76757e-05
4.52948e-05
4.45855e-05
4.42811e-05
4.41434e-05
4.40936e-05
4.4095e-05
4.41273e-05
4.41786e-05
4.42418e-05
4.43133e-05
4.43926e-05
4.44823e-05
4.45898e-05
4.47303e-05
4.49348e-05
4.52714e-05
4.59257e-05
4.77426e-05
5.88827e-05
7.7988e-05
7.8e-05
7.8e-05
7.8e-05
7.8e-05
7.8e-05
7.8e-05
7.8e-05
7.77917e-05
5.61196e-05
4.83014e-05
4.63774e-05
4.5878e-05
4.57693e-05
4.59346e-05
4.64956e-05
4.82857e-05
5.31187e-05
7.17538e-05
7.70897e-05
6.99715e-05
5.09366e-05
4.77719e-05
4.61857e-05
4.56927e-05
4.55117e-05
4.55684e-05
4.59138e-05
4.70716e-05
4.97174e-05
7.31361e-05
7.8e-05
7.8e-05
7.8e-05
7.8e-05
7.8e-05
7.8e-05
7.8e-05
7.8e-05
7.62361e-05
5.3184e-05
4.81654e-05
4.66671e-05
4.61863e-05
4.65091e-05
4.7808e-05
5.05375e-05
7.33613e-05
7.8e-05
7.8e-05
7.8e-05
7.8e-05
7.8e-05
7.8e-05
7.17919e-05
4.87194e-05
4.5838e-05
4.49234e-05
4.4479e-05
4.42107e-05
4.40489e-05
4.39601e-05
4.39322e-05
4.39699e-05
4.40954e-05
4.43532e-05
4.49347e-05
4.64991e-05
5.29892e-05
7.78305e-05
7.8e-05
7.8e-05
7.8e-05
7.8e-05
7.8e-05
7.8e-05
7.8e-05
7.8e-05
7.8e-05
7.8e-05
7.8e-05
7.8e-05
7.8e-05
7.8e-05
7.8e-05
7.8e-05
7.8e-05
7.8e-05
7.8e-05
7.8e-05
7.8e-05
7.8e-05
7.8e-05
7.8e-05
7.8e-05
7.8e-05
7.8e-05
7.8e-05
7.8e-05
7.79987e-05
6.1826e-05
4.72736e-05
4.51607e-05
4.44863e-05
4.41844e-05
4.4039e-05
4.39734e-05
4.39542e-05
4.39653e-05
4.3999e-05
4.40523e-05
4.41256e-05
4.42233e-05
4.43552e-05
4.45417e-05
4.48291e-05
4.53364e-05
4.64584e-05
5.05146e-05
7.71916e-05
7.8e-05
7.8e-05
7.8e-05
7.8e-05
7.8e-05
7.8e-05
7.8e-05
7.8e-05
7.8e-05
7.79561e-05
6.56621e-05
4.95199e-05
4.80313e-05
4.76783e-05
4.818e-05
5.0071e-05
6.66911e-05
7.78091e-05
7.8e-05
7.8e-05
7.8e-05
7.73332e-05
6.25618e-05
4.91165e-05
4.76997e-05
4.71313e-05
4.74067e-05
4.85201e-05
5.65594e-05
7.63489e-05
7.8e-05
7.8e-05
7.8e-05
7.8e-05
7.8e-05
7.8e-05
7.8e-05
7.8e-05
7.8e-05
7.8e-05
7.78349e-05
6.68383e-05
5.23621e-05
4.91989e-05
5.11537e-05
6.3948e-05
7.71569e-05
7.8e-05
7.8e-05
7.8e-05
7.8e-05
7.8e-05
7.8e-05
7.8e-05
7.8e-05
6.92871e-05
4.8398e-05
4.56858e-05
4.48719e-05
4.44331e-05
4.42153e-05
4.41208e-05
4.41223e-05
4.42365e-05
4.45401e-05
4.51231e-05
4.7079e-05
5.66644e-05
7.78994e-05
7.8e-05
7.8e-05
7.8e-05
7.8e-05
7.8e-05
7.8e-05
7.8e-05
7.8e-05
7.8e-05
7.8e-05
7.8e-05
7.8e-05
7.8e-05
7.8e-05
7.8e-05
7.8e-05
7.8e-05
7.8e-05
7.8e-05
7.8e-05
7.8e-05
7.8e-05
7.8e-05
7.8e-05
7.8e-05
7.8e-05
7.8e-05
7.8e-05
7.8e-05
7.8e-05
7.8e-05
7.79954e-05
5.98285e-05
4.71565e-05
4.50988e-05
4.44262e-05
4.41253e-05
4.39695e-05
4.38899e-05
4.38587e-05
4.38652e-05
4.39051e-05
4.39795e-05
4.40957e-05
4.42686e-05
4.45314e-05
4.49715e-05
4.58935e-05
4.88969e-05
7.40207e-05
7.8e-05
7.8e-05
7.8e-05
7.8e-05
7.8e-05
7.8e-05
7.8e-05
7.8e-05
7.8e-05
7.8e-05
7.8e-05
7.79997e-05
7.59808e-05
6.67382e-05
6.23363e-05
6.82443e-05
7.68789e-05
7.79998e-05
7.8e-05
7.8e-05
7.8e-05
7.8e-05
7.8e-05
7.79985e-05
7.49584e-05
6.42386e-05
5.7539e-05
6.10891e-05
7.17618e-05
7.79744e-05
7.8e-05
7.8e-05
7.8e-05
7.8e-05
7.8e-05
7.8e-05
7.8e-05
7.8e-05
7.8e-05
7.8e-05
7.8e-05
7.8e-05
7.79998e-05
7.77611e-05
7.58274e-05
7.75221e-05
7.79992e-05
7.8e-05
7.8e-05
7.8e-05
7.8e-05
7.8e-05
7.8e-05
7.8e-05
7.8e-05
7.8e-05
7.8e-05
7.17203e-05
4.88606e-05
4.64143e-05
4.51615e-05
4.47752e-05
4.46514e-05
4.47065e-05
4.50043e-05
4.61091e-05
4.80249e-05
6.51957e-05
7.7986e-05
7.8e-05
7.8e-05
7.8e-05
7.8e-05
7.8e-05
7.8e-05
7.8e-05
7.8e-05
7.8e-05
7.8e-05
7.8e-05
7.8e-05
7.8e-05
7.8e-05
7.8e-05
7.8e-05
7.8e-05
7.8e-05
7.8e-05
7.8e-05
7.8e-05
7.8e-05
7.8e-05
7.8e-05
7.8e-05
7.8e-05
7.8e-05
7.8e-05
7.8e-05
7.8e-05
7.8e-05
7.8e-05
7.8e-05
7.79952e-05
6.12905e-05
4.73559e-05
4.5145e-05
4.44743e-05
4.4148e-05
4.39722e-05
4.38814e-05
4.3856e-05
4.38852e-05
4.39701e-05
4.41256e-05
4.43821e-05
4.48096e-05
4.56497e-05
4.84259e-05
7.08829e-05
7.8e-05
7.8e-05
7.8e-05
7.8e-05
7.8e-05
7.8e-05
7.8e-05
7.8e-05
7.8e-05
7.8e-05
7.8e-05
7.8e-05
7.8e-05
7.8e-05
7.79998e-05
7.7998e-05
7.79999e-05
7.8e-05
7.8e-05
7.8e-05
7.8e-05
7.8e-05
7.8e-05
7.8e-05
7.8e-05
7.8e-05
7.79993e-05
7.79806e-05
7.79966e-05
7.8e-05
7.8e-05
7.8e-05
7.8e-05
7.8e-05
7.8e-05
7.8e-05
7.8e-05
7.8e-05
7.8e-05
7.8e-05
7.8e-05
7.8e-05
7.8e-05
7.8e-05
7.8e-05
7.8e-05
7.8e-05
7.8e-05
7.8e-05
7.8e-05
7.8e-05
7.8e-05
7.8e-05
7.8e-05
7.8e-05
7.8e-05
7.8e-05
7.8e-05
7.8e-05
7.62221e-05
5.78782e-05
4.79521e-05
4.69078e-05
4.66369e-05
4.69175e-05
4.78653e-05
5.76676e-05
7.46133e-05
7.79998e-05
7.8e-05
7.8e-05
7.8e-05
7.8e-05
7.8e-05
7.8e-05
7.8e-05
7.8e-05
7.8e-05
7.8e-05
7.8e-05
7.8e-05
7.8e-05
7.8e-05
7.8e-05
7.8e-05
7.8e-05
7.8e-05
7.8e-05
7.8e-05
7.8e-05
7.8e-05
7.8e-05
7.8e-05
7.8e-05
7.8e-05
7.8e-05
7.8e-05
7.8e-05
7.8e-05
7.8e-05
7.8e-05
7.8e-05
7.8e-05
7.8e-05
7.79984e-05
6.64916e-05
4.79111e-05
4.56122e-05
4.47324e-05
4.43224e-05
4.41069e-05
4.40304e-05
4.40491e-05
4.41621e-05
4.44121e-05
4.48984e-05
4.58694e-05
4.85212e-05
7.13486e-05
7.8e-05
7.8e-05
7.8e-05
7.8e-05
7.8e-05
7.8e-05
7.8e-05
7.8e-05
7.8e-05
7.8e-05
7.8e-05
7.8e-05
7.8e-05
7.8e-05
7.8e-05
7.8e-05
7.8e-05
7.8e-05
7.8e-05
7.8e-05
7.8e-05
7.8e-05
7.8e-05
7.8e-05
7.8e-05
7.8e-05
7.8e-05
7.8e-05
7.8e-05
7.8e-05
7.8e-05
7.8e-05
7.8e-05
7.8e-05
7.8e-05
7.8e-05
7.8e-05
7.8e-05
7.8e-05
7.8e-05
7.8e-05
7.8e-05
7.8e-05
7.8e-05
7.8e-05
7.8e-05
7.8e-05
7.8e-05
7.8e-05
7.8e-05
7.8e-05
7.8e-05
7.8e-05
7.8e-05
7.8e-05
7.8e-05
7.8e-05
7.8e-05
7.8e-05
7.8e-05
7.8e-05
7.79917e-05
7.38838e-05
6.51986e-05
6.23288e-05
6.67431e-05
7.48179e-05
7.79923e-05
7.8e-05
7.8e-05
7.8e-05
7.8e-05
7.8e-05
7.8e-05
7.8e-05
7.8e-05
7.8e-05
7.8e-05
7.8e-05
7.8e-05
7.8e-05
7.8e-05
7.8e-05
7.8e-05
7.8e-05
7.8e-05
7.8e-05
7.8e-05
7.8e-05
7.8e-05
7.8e-05
7.8e-05
7.8e-05
7.8e-05
7.8e-05
7.8e-05
7.8e-05
7.8e-05
7.8e-05
7.8e-05
7.8e-05
7.8e-05
7.8e-05
7.8e-05
7.8e-05
7.8e-05
7.79999e-05
7.38746e-05
5.171e-05
4.69883e-05
4.54748e-05
4.47948e-05
4.46025e-05
4.46064e-05
4.47941e-05
4.53566e-05
4.69908e-05
5.14737e-05
7.50909e-05
7.8e-05
7.8e-05
7.8e-05
7.8e-05
7.8e-05
7.8e-05
7.8e-05
7.8e-05
7.8e-05
7.8e-05
7.8e-05
7.8e-05
7.8e-05
7.8e-05
7.8e-05
7.8e-05
7.8e-05
7.8e-05
7.8e-05
7.8e-05
7.8e-05
7.8e-05
7.8e-05
7.8e-05
7.8e-05
7.8e-05
7.8e-05
7.8e-05
7.8e-05
7.8e-05
7.8e-05
7.8e-05
7.8e-05
7.8e-05
7.8e-05
7.8e-05
7.8e-05
7.8e-05
7.8e-05
7.8e-05
7.8e-05
7.8e-05
7.8e-05
7.8e-05
7.8e-05
7.8e-05
7.8e-05
7.8e-05
7.8e-05
7.8e-05
7.8e-05
7.8e-05
7.8e-05
7.8e-05
7.8e-05
7.8e-05
7.8e-05
7.8e-05
7.8e-05
7.8e-05
7.8e-05
7.8e-05
7.8e-05
7.8e-05
7.79998e-05
7.7999e-05
7.79999e-05
7.8e-05
7.8e-05
7.8e-05
7.8e-05
7.8e-05
7.8e-05
7.8e-05
7.8e-05
7.8e-05
7.8e-05
7.8e-05
7.8e-05
7.8e-05
7.8e-05
7.8e-05
7.8e-05
7.8e-05
7.8e-05
7.8e-05
7.8e-05
7.8e-05
7.8e-05
7.8e-05
7.8e-05
7.8e-05
7.8e-05
7.8e-05
7.8e-05
7.8e-05
7.8e-05
7.8e-05
7.8e-05
7.8e-05
7.8e-05
7.8e-05
7.8e-05
7.8e-05
7.8e-05
7.8e-05
7.8e-05
7.8e-05
7.8e-05
7.78586e-05
6.80028e-05
5.15966e-05
4.7397e-05
4.68234e-05
4.67761e-05
4.72432e-05
4.95061e-05
6.59981e-05
7.7802e-05
7.8e-05
7.8e-05
7.8e-05
7.8e-05
7.8e-05
7.8e-05
7.8e-05
7.8e-05
7.8e-05
7.8e-05
7.8e-05
7.8e-05
7.8e-05
7.8e-05
7.8e-05
7.8e-05
7.8e-05
7.8e-05
7.8e-05
7.8e-05
7.8e-05
7.8e-05
7.8e-05
7.8e-05
7.8e-05
7.8e-05
7.8e-05
7.8e-05
7.8e-05
7.8e-05
7.8e-05
7.8e-05
7.8e-05
7.8e-05
7.8e-05
7.8e-05
7.8e-05
7.8e-05
7.8e-05
7.8e-05
7.8e-05
7.8e-05
7.8e-05
7.8e-05
7.8e-05
7.8e-05
7.8e-05
7.8e-05
7.8e-05
7.8e-05
7.8e-05
7.8e-05
7.8e-05
7.8e-05
7.8e-05
7.8e-05
7.8e-05
7.8e-05
7.8e-05
7.8e-05
7.8e-05
7.8e-05
7.8e-05
7.8e-05
7.8e-05
7.8e-05
7.8e-05
7.8e-05
7.8e-05
7.8e-05
7.8e-05
7.8e-05
7.8e-05
7.8e-05
7.8e-05
7.8e-05
7.8e-05
7.8e-05
7.8e-05
7.8e-05
7.8e-05
7.8e-05
7.8e-05
7.8e-05
7.8e-05
7.8e-05
7.8e-05
7.8e-05
7.8e-05
7.8e-05
7.8e-05
7.8e-05
7.8e-05
7.8e-05
7.8e-05
7.8e-05
7.8e-05
7.8e-05
7.8e-05
7.8e-05
7.8e-05
7.8e-05
7.8e-05
7.8e-05
7.8e-05
7.8e-05
7.8e-05
7.8e-05
7.8e-05
7.8e-05
7.8e-05
7.8e-05
7.78541e-05
7.30427e-05
6.71735e-05
6.6093e-05
7.09948e-05
7.74162e-05
7.79999e-05
7.8e-05
7.8e-05
7.8e-05
7.8e-05
7.8e-05
7.8e-05
7.8e-05
7.8e-05
7.8e-05
7.8e-05
7.8e-05
7.8e-05
7.8e-05
7.8e-05
7.8e-05
7.8e-05
7.8e-05
7.8e-05
7.8e-05
7.8e-05
7.8e-05
7.8e-05
7.8e-05
7.8e-05
7.8e-05
7.8e-05
7.8e-05
7.8e-05
7.8e-05
7.8e-05
7.8e-05
7.8e-05
7.8e-05
7.8e-05
7.8e-05
7.8e-05
7.8e-05
7.8e-05
7.8e-05
7.8e-05
7.8e-05
7.8e-05
7.8e-05
7.8e-05
7.8e-05
7.8e-05
7.8e-05
7.8e-05
7.8e-05
7.8e-05
7.8e-05
7.8e-05
7.8e-05
7.8e-05
7.8e-05
7.8e-05
7.8e-05
7.8e-05
7.8e-05
7.8e-05
7.8e-05
7.8e-05
7.8e-05
7.8e-05
7.8e-05
7.8e-05
7.8e-05
7.8e-05
7.8e-05
7.8e-05
7.8e-05
7.8e-05
7.8e-05
7.8e-05
7.8e-05
7.8e-05
7.8e-05
7.8e-05
7.8e-05
7.8e-05
7.8e-05
7.8e-05
7.8e-05
7.8e-05
7.8e-05
7.8e-05
7.8e-05
7.8e-05
7.8e-05
7.8e-05
7.8e-05
7.8e-05
7.8e-05
7.8e-05
7.8e-05
7.8e-05
7.8e-05
7.8e-05
7.8e-05
7.8e-05
7.8e-05
7.8e-05
7.8e-05
7.8e-05
7.8e-05
7.8e-05
7.8e-05
7.8e-05
7.8e-05
7.8e-05
7.8e-05
7.8e-05
7.8e-05
7.8e-05
7.8e-05
7.79999e-05
7.79999e-05
7.8e-05
7.8e-05
7.8e-05
7.8e-05
7.8e-05
7.8e-05
7.8e-05
7.8e-05
7.8e-05
7.8e-05
7.8e-05
7.8e-05
7.8e-05
7.8e-05
7.8e-05
7.8e-05
7.8e-05
7.8e-05
7.8e-05
7.8e-05
7.8e-05
7.8e-05
7.8e-05
7.8e-05
7.8e-05
7.8e-05
7.8e-05
7.8e-05
7.8e-05
7.8e-05
7.8e-05
7.8e-05
7.8e-05
7.8e-05
7.8e-05
7.8e-05
7.8e-05
7.8e-05
7.8e-05
7.8e-05
7.8e-05
7.8e-05
7.8e-05
7.8e-05
7.8e-05
7.8e-05
7.8e-05
7.8e-05
7.8e-05
7.8e-05
7.8e-05
7.8e-05
7.8e-05
7.8e-05
7.8e-05
7.8e-05
7.8e-05
7.8e-05
7.8e-05
7.8e-05
7.8e-05
7.8e-05
7.8e-05
7.8e-05
7.8e-05
7.8e-05
7.8e-05
7.8e-05
7.8e-05
7.8e-05
7.8e-05
7.8e-05
7.8e-05
7.8e-05
7.8e-05
7.8e-05
7.8e-05
7.8e-05
7.8e-05
7.8e-05
7.8e-05
7.8e-05
7.8e-05
7.8e-05
7.8e-05
7.8e-05
7.8e-05
7.8e-05
7.8e-05
7.8e-05
7.8e-05
7.8e-05
7.8e-05
7.8e-05
7.8e-05
7.8e-05
7.8e-05
7.8e-05
7.8e-05
7.8e-05
7.8e-05
7.8e-05
7.8e-05
7.8e-05
7.8e-05
7.8e-05
7.8e-05
7.8e-05
7.8e-05
7.8e-05
7.8e-05
7.8e-05
7.8e-05
7.8e-05
7.8e-05
7.8e-05
7.8e-05
7.8e-05
7.8e-05
7.8e-05
7.8e-05
7.8e-05
7.8e-05
7.8e-05
7.8e-05
7.8e-05
7.8e-05
7.8e-05
7.8e-05
7.8e-05
7.8e-05
7.8e-05
7.8e-05
7.8e-05
7.8e-05
7.8e-05
7.8e-05
7.8e-05
7.8e-05
7.8e-05
7.8e-05
7.8e-05
7.8e-05
7.8e-05
7.8e-05
7.8e-05
7.8e-05
7.8e-05
7.8e-05
7.8e-05
7.8e-05
7.8e-05
7.8e-05
7.8e-05
7.8e-05
7.8e-05
7.8e-05
7.8e-05
7.8e-05
7.8e-05
7.8e-05
7.8e-05
7.8e-05
7.8e-05
7.8e-05
7.8e-05
7.8e-05
7.8e-05
7.8e-05
7.8e-05
7.8e-05
7.8e-05
7.8e-05
7.8e-05
7.8e-05
7.8e-05
7.8e-05
7.8e-05
7.8e-05
7.8e-05
7.8e-05
7.8e-05
7.8e-05
7.8e-05
7.8e-05
7.8e-05
7.8e-05
7.8e-05
7.8e-05
7.8e-05
7.8e-05
7.8e-05
7.8e-05
7.8e-05
7.8e-05
7.8e-05
7.8e-05
7.8e-05
7.8e-05
7.8e-05
7.8e-05
7.8e-05
7.8e-05
7.8e-05
7.8e-05
7.8e-05
7.8e-05
7.8e-05
7.8e-05
7.8e-05
7.8e-05
7.8e-05
7.8e-05
7.8e-05
7.8e-05
7.8e-05
7.8e-05
7.8e-05
7.8e-05
7.8e-05
7.8e-05
7.8e-05
7.8e-05
7.8e-05
7.8e-05
7.8e-05
7.8e-05
7.8e-05
7.8e-05
7.8e-05
7.8e-05
7.8e-05
7.8e-05
7.8e-05
7.8e-05
7.8e-05
7.8e-05
7.8e-05
7.8e-05
7.8e-05
7.8e-05
7.8e-05
7.8e-05
7.8e-05
7.8e-05
7.8e-05
7.8e-05
7.8e-05
7.8e-05
7.8e-05
7.8e-05
7.8e-05
7.8e-05
7.8e-05
7.8e-05
7.8e-05
7.8e-05
7.8e-05
7.8e-05
7.8e-05
7.8e-05
7.8e-05
7.8e-05
7.8e-05
7.8e-05
7.8e-05
7.8e-05
7.8e-05
7.8e-05
7.8e-05
7.8e-05
7.8e-05
7.8e-05
7.8e-05
7.8e-05
7.8e-05
7.8e-05
7.8e-05
7.8e-05
7.8e-05
7.8e-05
7.8e-05
7.8e-05
7.8e-05
7.8e-05
7.8e-05
7.8e-05
7.8e-05
7.8e-05
7.8e-05
7.8e-05
7.8e-05
7.8e-05
7.8e-05
7.8e-05
7.8e-05
7.8e-05
7.8e-05
7.8e-05
7.8e-05
7.8e-05
7.8e-05
7.8e-05
7.8e-05
7.8e-05
7.8e-05
7.8e-05
7.8e-05
7.8e-05
7.8e-05
7.8e-05
7.8e-05
7.8e-05
7.8e-05
7.8e-05
7.8e-05
7.8e-05
7.8e-05
7.8e-05
7.8e-05
7.8e-05
7.8e-05
7.8e-05
7.8e-05
7.8e-05
7.8e-05
7.8e-05
7.8e-05
7.8e-05
7.8e-05
7.8e-05
7.8e-05
7.8e-05
7.8e-05
7.8e-05
7.8e-05
7.8e-05
7.8e-05
7.8e-05
7.8e-05
7.8e-05
7.8e-05
7.8e-05
7.8e-05
7.8e-05
7.8e-05
7.8e-05
7.8e-05
7.8e-05
7.8e-05
7.8e-05
7.8e-05
7.8e-05
7.8e-05
7.8e-05
7.8e-05
7.8e-05
7.8e-05
7.8e-05
7.8e-05
7.8e-05
7.8e-05
7.8e-05
7.8e-05
7.8e-05
7.8e-05
7.8e-05
7.8e-05
7.8e-05
7.8e-05
7.8e-05
7.8e-05
7.8e-05
7.8e-05
7.8e-05
7.8e-05
7.8e-05
7.8e-05
7.8e-05
7.8e-05
7.8e-05
7.8e-05
7.8e-05
7.8e-05
7.8e-05
7.8e-05
7.8e-05
7.8e-05
7.8e-05
7.8e-05
7.8e-05
7.8e-05
7.8e-05
7.8e-05
7.8e-05
7.8e-05
7.8e-05
7.8e-05
7.8e-05
7.8e-05
7.8e-05
7.8e-05
7.8e-05
7.8e-05
7.8e-05
7.8e-05
7.8e-05
7.8e-05
7.8e-05
7.8e-05
7.8e-05
7.8e-05
7.8e-05
7.8e-05
7.8e-05
7.8e-05
7.8e-05
7.8e-05
7.8e-05
7.8e-05
7.8e-05
7.8e-05
7.8e-05
7.8e-05
7.8e-05
7.8e-05
7.8e-05
7.8e-05
7.8e-05
7.8e-05
7.8e-05
7.8e-05
7.8e-05
7.8e-05
7.8e-05
7.8e-05
7.8e-05
7.8e-05
7.8e-05
7.8e-05
7.8e-05
7.8e-05
7.8e-05
7.8e-05
7.8e-05
7.8e-05
7.8e-05
7.8e-05
7.8e-05
7.8e-05
7.8e-05
7.8e-05
7.8e-05
7.8e-05
7.8e-05
7.8e-05
7.8e-05
7.8e-05
7.8e-05
7.8e-05
7.8e-05
7.8e-05
7.8e-05
7.8e-05
7.8e-05
7.8e-05
7.8e-05
7.8e-05
7.8e-05
7.8e-05
7.8e-05
7.8e-05
7.8e-05
7.8e-05
7.8e-05
7.8e-05
7.8e-05
7.8e-05
7.8e-05
7.8e-05
7.8e-05
7.8e-05
7.8e-05
7.8e-05
7.8e-05
7.8e-05
7.8e-05
7.8e-05
7.8e-05
7.8e-05
7.8e-05
7.8e-05
7.8e-05
7.8e-05
7.8e-05
7.8e-05
7.8e-05
7.8e-05
7.8e-05
7.8e-05
7.8e-05
7.8e-05
7.8e-05
7.8e-05
7.8e-05
7.8e-05
7.8e-05
7.8e-05
7.8e-05
7.8e-05
7.8e-05
7.8e-05
7.8e-05
7.8e-05
7.8e-05
7.8e-05
7.8e-05
7.8e-05
7.8e-05
7.8e-05
7.8e-05
7.8e-05
7.8e-05
7.8e-05
7.8e-05
7.8e-05
7.8e-05
7.8e-05
7.8e-05
7.8e-05
7.8e-05
7.8e-05
7.8e-05
7.8e-05
7.8e-05
7.8e-05
7.8e-05
7.8e-05
7.8e-05
7.8e-05
7.8e-05
7.8e-05
7.8e-05
7.8e-05
7.8e-05
7.8e-05
7.8e-05
7.8e-05
7.8e-05
7.8e-05
7.8e-05
7.8e-05
7.8e-05
7.8e-05
7.8e-05
7.8e-05
7.8e-05
7.8e-05
7.8e-05
7.8e-05
7.8e-05
7.8e-05
7.8e-05
7.8e-05
7.8e-05
7.8e-05
7.8e-05
7.8e-05
7.8e-05
7.8e-05
7.8e-05
7.8e-05
7.8e-05
7.8e-05
7.8e-05
7.8e-05
7.8e-05
7.8e-05
7.8e-05
7.8e-05
7.8e-05
7.8e-05
7.8e-05
7.8e-05
7.8e-05
7.8e-05
7.8e-05
7.8e-05
7.8e-05
7.8e-05
7.8e-05
7.8e-05
7.8e-05
7.8e-05
7.8e-05
7.8e-05
7.8e-05
7.8e-05
7.8e-05
7.8e-05
7.8e-05
7.8e-05
7.8e-05
7.8e-05
7.8e-05
7.8e-05
7.8e-05
7.8e-05
7.8e-05
7.8e-05
7.8e-05
7.8e-05
7.8e-05
7.8e-05
7.8e-05
7.8e-05
7.8e-05
7.8e-05
7.8e-05
7.8e-05
7.8e-05
7.8e-05
7.8e-05
7.8e-05
7.8e-05
7.8e-05
7.8e-05
7.8e-05
7.8e-05
7.8e-05
7.8e-05
7.8e-05
7.8e-05
7.8e-05
7.8e-05
7.8e-05
7.8e-05
7.8e-05
7.8e-05
7.8e-05
7.8e-05
7.8e-05
7.8e-05
7.8e-05
7.8e-05
7.8e-05
7.8e-05
7.8e-05
7.8e-05
7.8e-05
7.8e-05
7.8e-05
7.8e-05
7.8e-05
7.8e-05
7.8e-05
7.8e-05
7.8e-05
7.8e-05
7.8e-05
7.8e-05
7.8e-05
7.8e-05
7.8e-05
7.8e-05
7.8e-05
7.8e-05
7.8e-05
7.8e-05
7.8e-05
7.8e-05
7.8e-05
7.8e-05
7.8e-05
7.8e-05
7.8e-05
7.8e-05
7.8e-05
7.8e-05
7.8e-05
7.8e-05
7.8e-05
7.8e-05
7.8e-05
7.8e-05
7.8e-05
7.8e-05
7.8e-05
7.8e-05
7.8e-05
7.8e-05
7.8e-05
7.8e-05
7.8e-05
7.8e-05
7.8e-05
7.8e-05
7.8e-05
7.8e-05
7.8e-05
7.8e-05
7.8e-05
7.8e-05
7.8e-05
7.8e-05
7.8e-05
7.8e-05
7.8e-05
7.8e-05
7.8e-05
7.8e-05
7.8e-05
7.8e-05
7.8e-05
7.8e-05
7.8e-05
7.8e-05
7.8e-05
7.8e-05
7.8e-05
7.8e-05
7.8e-05
7.8e-05
7.8e-05
7.8e-05
7.8e-05
7.8e-05
7.8e-05
7.8e-05
7.8e-05
7.8e-05
7.8e-05
7.8e-05
7.8e-05
7.8e-05
7.8e-05
7.8e-05
7.8e-05
7.8e-05
7.8e-05
7.8e-05
7.8e-05
7.8e-05
7.8e-05
7.8e-05
7.8e-05
7.8e-05
7.8e-05
7.8e-05
7.8e-05
7.8e-05
7.8e-05
7.8e-05
7.8e-05
7.8e-05
7.8e-05
7.8e-05
7.8e-05
7.8e-05
7.8e-05
7.8e-05
7.8e-05
7.8e-05
7.8e-05
7.8e-05
7.8e-05
7.8e-05
7.8e-05
7.8e-05
7.8e-05
7.8e-05
7.8e-05
7.8e-05
7.8e-05
7.8e-05
7.8e-05
7.8e-05
7.8e-05
7.8e-05
7.8e-05
7.8e-05
7.8e-05
7.8e-05
7.8e-05
7.8e-05
7.8e-05
7.8e-05
7.8e-05
7.8e-05
7.8e-05
7.8e-05
7.8e-05
7.8e-05
7.8e-05
7.8e-05
7.8e-05
7.8e-05
7.8e-05
7.8e-05
7.8e-05
7.8e-05
7.8e-05
7.8e-05
7.8e-05
7.8e-05
7.8e-05
7.8e-05
7.8e-05
7.8e-05
7.8e-05
7.8e-05
7.8e-05
7.8e-05
7.8e-05
7.8e-05
7.8e-05
7.8e-05
7.8e-05
7.8e-05
7.8e-05
7.8e-05
7.8e-05
7.8e-05
7.8e-05
7.8e-05
7.8e-05
7.8e-05
7.8e-05
7.8e-05
7.8e-05
7.8e-05
7.8e-05
7.8e-05
7.8e-05
7.8e-05
7.8e-05
7.8e-05
7.8e-05
7.8e-05
7.8e-05
7.8e-05
7.8e-05
7.8e-05
7.8e-05
7.8e-05
7.8e-05
7.8e-05
7.8e-05
7.8e-05
7.8e-05
7.8e-05
7.8e-05
7.8e-05
7.8e-05
7.8e-05
7.8e-05
7.8e-05
7.8e-05
7.8e-05
7.8e-05
7.8e-05
7.8e-05
7.8e-05
7.8e-05
7.8e-05
7.8e-05
7.8e-05
7.8e-05
7.8e-05
7.8e-05
7.8e-05
7.8e-05
7.8e-05
7.8e-05
7.8e-05
7.8e-05
7.8e-05
7.8e-05
7.8e-05
7.8e-05
7.8e-05
7.8e-05
7.8e-05
7.8e-05
7.8e-05
7.8e-05
7.8e-05
7.8e-05
7.8e-05
7.8e-05
7.8e-05
7.8e-05
7.8e-05
7.8e-05
7.8e-05
7.8e-05
7.8e-05
7.8e-05
7.8e-05
7.8e-05
7.8e-05
7.8e-05
7.8e-05
7.8e-05
7.8e-05
7.8e-05
7.8e-05
7.8e-05
7.8e-05
7.8e-05
7.8e-05
7.8e-05
7.8e-05
7.8e-05
7.8e-05
7.8e-05
7.8e-05
7.8e-05
7.8e-05
7.8e-05
7.8e-05
7.8e-05
7.8e-05
7.8e-05
7.8e-05
7.8e-05
7.8e-05
7.8e-05
7.8e-05
7.8e-05
7.8e-05
7.8e-05
7.8e-05
7.8e-05
7.8e-05
7.8e-05
7.8e-05
7.8e-05
7.8e-05
7.8e-05
7.8e-05
7.8e-05
7.8e-05
7.8e-05
7.8e-05
7.8e-05
7.8e-05
7.8e-05
7.8e-05
7.8e-05
7.8e-05
7.8e-05
7.8e-05
7.8e-05
7.8e-05
7.8e-05
7.8e-05
7.8e-05
7.8e-05
7.8e-05
7.8e-05
7.8e-05
7.8e-05
7.8e-05
7.8e-05
7.8e-05
7.8e-05
7.8e-05
7.8e-05
7.8e-05
7.8e-05
7.8e-05
7.8e-05
7.8e-05
7.8e-05
7.8e-05
7.8e-05
7.8e-05
7.8e-05
7.8e-05
7.8e-05
7.8e-05
7.8e-05
7.8e-05
7.8e-05
7.8e-05
7.8e-05
7.8e-05
7.8e-05
7.8e-05
7.8e-05
7.8e-05
7.8e-05
7.8e-05
7.8e-05
7.8e-05
7.8e-05
7.8e-05
7.8e-05
7.8e-05
7.8e-05
7.8e-05
7.8e-05
7.8e-05
7.8e-05
7.8e-05
7.8e-05
7.8e-05
7.8e-05
7.8e-05
7.8e-05
7.8e-05
7.8e-05
7.8e-05
7.8e-05
7.8e-05
7.8e-05
7.8e-05
7.8e-05
7.8e-05
7.8e-05
7.8e-05
7.8e-05
7.8e-05
7.8e-05
7.8e-05
7.8e-05
7.8e-05
7.8e-05
7.8e-05
7.8e-05
7.8e-05
7.8e-05
7.8e-05
7.8e-05
7.8e-05
7.8e-05
7.8e-05
7.8e-05
7.8e-05
7.8e-05
7.8e-05
7.8e-05
7.8e-05
7.8e-05
7.8e-05
7.8e-05
7.8e-05
7.8e-05
7.8e-05
7.8e-05
7.8e-05
7.8e-05
7.8e-05
7.8e-05
7.8e-05
7.8e-05
7.8e-05
7.8e-05
7.8e-05
7.8e-05
7.8e-05
7.8e-05
7.8e-05
7.8e-05
7.8e-05
7.8e-05
7.8e-05
7.8e-05
7.8e-05
7.8e-05
7.8e-05
7.8e-05
7.8e-05
7.8e-05
7.8e-05
7.8e-05
7.8e-05
7.8e-05
7.8e-05
7.8e-05
7.8e-05
7.8e-05
7.8e-05
7.8e-05
7.8e-05
7.8e-05
7.8e-05
7.8e-05
7.8e-05
7.8e-05
7.8e-05
7.8e-05
7.8e-05
7.8e-05
7.8e-05
7.8e-05
7.8e-05
7.8e-05
7.8e-05
7.8e-05
7.8e-05
7.8e-05
7.8e-05
7.8e-05
7.8e-05
7.8e-05
7.8e-05
7.8e-05
7.8e-05
7.8e-05
7.8e-05
7.8e-05
7.8e-05
7.8e-05
7.8e-05
7.8e-05
7.8e-05
7.8e-05
7.8e-05
7.8e-05
7.8e-05
7.8e-05
7.8e-05
7.8e-05
7.8e-05
7.8e-05
7.8e-05
7.8e-05