/*--------------------------------*- C++ -*----------------------------------*\
| =========                 |                                                 |
| \\      /  F ield         | OpenFOAM: The Open Source CFD Toolbox           |
|  \\    /   O peration     | Version:  2406                                  |
|   \\  /    A nd           | Website:  www.openfoam.com                      |
|    \\/     M anipulation  |                                                 |
\*---------------------------------------------------------------------------*/
FoamFile
{
    version     2.0;
    format      ascii;
    arch        "LSB;label=32;scalar=64";
    class       volScalarField;
    location    "8.6";
    object      Da;
}
// * * * * * * * * * * * * * * * * * * * * * * * * * * * * * * * * * * * * * //

dimensions      [0 2 -1 0 0 0 0];

internalField   nonuniform List<scalar> 
14400
(
4.95856e-05
4.95714e-05
4.95545e-05
4.95452e-05
4.9546e-05
4.95536e-05
4.95625e-05
4.95683e-05
4.95702e-05
4.95717e-05
4.95799e-05
4.96037e-05
4.96486e-05
4.97107e-05
4.97674e-05
4.97796e-05
4.97188e-05
4.96114e-05
4.94832e-05
4.9337e-05
4.9157e-05
4.8921e-05
4.8609e-05
4.82111e-05
4.77331e-05
4.71986e-05
4.6644e-05
4.61078e-05
4.56204e-05
4.52004e-05
4.48562e-05
4.45914e-05
4.44099e-05
4.43214e-05
4.43522e-05
4.45723e-05
4.5216e-05
4.76111e-05
6.8769e-05
7.8e-05
7.8e-05
7.8e-05
7.8e-05
7.8e-05
7.8e-05
7.8e-05
7.8e-05
7.8e-05
7.8e-05
7.8e-05
7.8e-05
7.8e-05
7.8e-05
7.8e-05
7.8e-05
7.8e-05
7.8e-05
7.8e-05
7.79993e-05
6.40319e-05
4.74499e-05
4.53372e-05
4.4795e-05
4.46625e-05
4.47315e-05
4.4945e-05
4.52892e-05
4.57667e-05
4.63844e-05
4.71393e-05
4.80031e-05
4.8912e-05
4.97781e-05
5.05179e-05
5.10736e-05
5.14178e-05
5.15472e-05
5.14756e-05
5.12303e-05
5.08534e-05
5.0402e-05
4.99478e-05
4.95757e-05
4.93945e-05
4.95978e-05
5.0801e-05
5.66317e-05
7.7704e-05
6.09692e-05
5.07014e-05
4.87425e-05
4.81195e-05
4.79146e-05
4.79087e-05
4.80159e-05
4.81899e-05
4.83992e-05
4.86198e-05
4.88321e-05
4.90204e-05
4.91714e-05
4.92735e-05
4.93164e-05
4.92919e-05
4.9197e-05
4.90347e-05
4.88135e-05
4.85447e-05
4.82423e-05
4.79226e-05
4.76043e-05
4.7308e-05
4.70559e-05
4.68733e-05
4.67928e-05
4.68678e-05
4.72139e-05
4.81763e-05
5.14508e-05
7.54599e-05
4.92993e-05
4.92552e-05
4.91963e-05
4.91463e-05
4.91138e-05
4.90973e-05
4.9092e-05
4.90935e-05
4.9101e-05
4.9118e-05
4.9152e-05
4.9213e-05
4.93086e-05
4.94347e-05
4.95593e-05
4.96085e-05
4.95088e-05
4.93395e-05
4.91586e-05
4.89763e-05
4.87765e-05
4.85353e-05
4.82323e-05
4.78573e-05
4.74153e-05
4.69268e-05
4.64224e-05
4.59349e-05
4.54905e-05
4.5106e-05
4.47905e-05
4.45493e-05
4.43884e-05
4.43209e-05
4.43781e-05
4.46423e-05
4.5387e-05
4.80971e-05
7.32134e-05
7.8e-05
7.8e-05
7.8e-05
7.8e-05
7.8e-05
7.8e-05
7.8e-05
7.8e-05
7.8e-05
7.8e-05
7.8e-05
7.8e-05
7.8e-05
7.8e-05
7.8e-05
7.8e-05
7.8e-05
7.8e-05
7.8e-05
7.8e-05
6.85743e-05
4.78009e-05
4.54408e-05
4.48355e-05
4.46696e-05
4.47133e-05
4.4902e-05
4.52172e-05
4.56577e-05
4.62273e-05
4.69224e-05
4.77187e-05
4.85618e-05
4.93737e-05
5.00754e-05
5.06085e-05
5.09423e-05
5.10706e-05
5.10059e-05
5.07763e-05
5.04252e-05
5.00103e-05
4.96022e-05
4.92837e-05
4.9164e-05
4.94577e-05
5.09743e-05
5.96642e-05
7.79466e-05
6.62148e-05
5.10554e-05
4.87129e-05
4.79914e-05
4.77281e-05
4.76745e-05
4.77383e-05
4.78721e-05
4.80459e-05
4.82379e-05
4.84307e-05
4.86091e-05
4.87593e-05
4.88668e-05
4.89169e-05
4.8897e-05
4.88025e-05
4.86396e-05
4.84217e-05
4.81643e-05
4.7883e-05
4.75934e-05
4.73117e-05
4.70555e-05
4.68448e-05
4.67037e-05
4.66666e-05
4.67951e-05
4.72374e-05
4.8523e-05
5.38032e-05
7.75732e-05
4.88695e-05
4.87548e-05
4.86081e-05
4.84813e-05
4.83903e-05
4.83334e-05
4.83044e-05
4.82982e-05
4.83136e-05
4.83543e-05
4.84294e-05
4.8553e-05
4.87406e-05
4.89979e-05
4.92864e-05
4.94488e-05
4.92204e-05
4.88966e-05
4.86047e-05
4.83539e-05
4.81186e-05
4.78695e-05
4.7584e-05
4.72507e-05
4.68717e-05
4.6461e-05
4.60407e-05
4.56342e-05
4.52618e-05
4.49382e-05
4.46731e-05
4.44744e-05
4.43524e-05
4.4326e-05
4.44394e-05
4.48159e-05
4.59501e-05
5.11806e-05
7.76907e-05
7.8e-05
7.8e-05
7.8e-05
7.8e-05
7.8e-05
7.8e-05
7.8e-05
7.8e-05
7.8e-05
7.8e-05
7.8e-05
7.8e-05
7.8e-05
7.8e-05
7.8e-05
7.8e-05
7.8e-05
7.8e-05
7.8e-05
7.8e-05
7.52919e-05
4.87265e-05
4.57374e-05
4.49434e-05
4.4695e-05
4.4685e-05
4.48256e-05
4.50874e-05
4.5462e-05
4.59472e-05
4.65374e-05
4.72133e-05
4.7934e-05
4.86383e-05
4.92585e-05
4.97392e-05
5.00469e-05
5.01714e-05
5.01234e-05
4.99309e-05
4.96375e-05
4.92999e-05
4.89846e-05
4.87697e-05
4.8766e-05
4.92199e-05
5.12524e-05
6.56594e-05
7.79982e-05
7.38484e-05
5.18166e-05
4.87661e-05
4.78135e-05
4.74301e-05
4.72893e-05
4.72784e-05
4.73452e-05
4.74605e-05
4.7605e-05
4.77642e-05
4.79251e-05
4.80731e-05
4.81899e-05
4.82533e-05
4.82424e-05
4.8149e-05
4.79854e-05
4.77741e-05
4.7537e-05
4.72913e-05
4.70508e-05
4.6828e-05
4.66364e-05
4.6493e-05
4.64213e-05
4.64598e-05
4.66858e-05
4.7313e-05
4.93695e-05
6.30318e-05
7.79963e-05
4.85425e-05
4.82751e-05
4.79796e-05
4.77458e-05
4.75836e-05
4.74812e-05
4.74262e-05
4.74108e-05
4.7433e-05
4.74971e-05
4.76153e-05
4.78102e-05
4.81178e-05
4.85864e-05
4.92389e-05
4.98219e-05
4.91037e-05
4.84427e-05
4.79714e-05
4.76266e-05
4.73473e-05
4.70901e-05
4.68273e-05
4.65439e-05
4.62373e-05
4.59139e-05
4.55868e-05
4.52711e-05
4.49813e-05
4.47296e-05
4.45267e-05
4.43833e-05
4.43149e-05
4.43493e-05
4.45522e-05
4.51289e-05
4.72177e-05
6.48279e-05
7.79996e-05
7.8e-05
7.8e-05
7.8e-05
7.8e-05
7.8e-05
7.8e-05
7.8e-05
7.8e-05
7.8e-05
7.8e-05
7.8e-05
7.8e-05
7.8e-05
7.8e-05
7.8e-05
7.8e-05
7.8e-05
7.8e-05
7.8e-05
7.8e-05
7.79798e-05
5.67715e-05
4.67066e-05
4.51826e-05
4.47583e-05
4.46607e-05
4.47326e-05
4.49238e-05
4.52151e-05
4.55975e-05
4.60619e-05
4.65917e-05
4.71577e-05
4.77165e-05
4.82177e-05
4.86153e-05
4.88785e-05
4.89957e-05
4.89751e-05
4.88425e-05
4.86379e-05
4.84122e-05
4.82253e-05
4.81526e-05
4.83161e-05
4.90221e-05
5.17118e-05
7.29336e-05
7.8e-05
7.79472e-05
5.80765e-05
4.93971e-05
4.77319e-05
4.71342e-05
4.68719e-05
4.67694e-05
4.67597e-05
4.68106e-05
4.69037e-05
4.70268e-05
4.71688e-05
4.73159e-05
4.74466e-05
4.75297e-05
4.75316e-05
4.74379e-05
4.727e-05
4.70638e-05
4.68476e-05
4.66396e-05
4.64509e-05
4.62901e-05
4.61676e-05
4.60988e-05
4.61091e-05
4.62464e-05
4.66177e-05
4.75456e-05
5.06225e-05
7.40474e-05
7.8e-05
4.87546e-05
4.80521e-05
4.74866e-05
4.71082e-05
4.68661e-05
4.67178e-05
4.66375e-05
4.66128e-05
4.66403e-05
4.67251e-05
4.68837e-05
4.71525e-05
4.76075e-05
4.84273e-05
5.01103e-05
5.38146e-05
4.96246e-05
4.81513e-05
4.74048e-05
4.69431e-05
4.66148e-05
4.63485e-05
4.61063e-05
4.58682e-05
4.56262e-05
4.53806e-05
4.51372e-05
4.49048e-05
4.46936e-05
4.45139e-05
4.43768e-05
4.42966e-05
4.42955e-05
4.44164e-05
4.47637e-05
4.56861e-05
4.91419e-05
7.65912e-05
7.8e-05
7.8e-05
7.8e-05
7.8e-05
7.8e-05
7.8e-05
7.8e-05
7.8e-05
7.8e-05
7.8e-05
7.8e-05
7.8e-05
7.8e-05
7.8e-05
7.8e-05
7.8e-05
7.8e-05
7.8e-05
7.8e-05
7.8e-05
7.8e-05
7.8e-05
7.15918e-05
4.82119e-05
4.55817e-05
4.48831e-05
4.46605e-05
4.46447e-05
4.47538e-05
4.49554e-05
4.52324e-05
4.5572e-05
4.59588e-05
4.63708e-05
4.67789e-05
4.71494e-05
4.74504e-05
4.76589e-05
4.7766e-05
4.77779e-05
4.77156e-05
4.76121e-05
4.75102e-05
4.74644e-05
4.7555e-05
4.79485e-05
4.92238e-05
5.5202e-05
7.77651e-05
7.8e-05
7.8e-05
7.3102e-05
5.08986e-05
4.79108e-05
4.69595e-05
4.65312e-05
4.63234e-05
4.62362e-05
4.62275e-05
4.62763e-05
4.63704e-05
4.6501e-05
4.66562e-05
4.68123e-05
4.69282e-05
4.69481e-05
4.68464e-05
4.66594e-05
4.64454e-05
4.62395e-05
4.60592e-05
4.59122e-05
4.58044e-05
4.57443e-05
4.5748e-05
4.58473e-05
4.61122e-05
4.67379e-05
4.86498e-05
6.10588e-05
7.79935e-05
7.8e-05
5.15871e-05
4.84809e-05
4.72833e-05
4.6677e-05
4.63327e-05
4.6132e-05
4.60242e-05
4.59892e-05
4.60221e-05
4.6129e-05
4.63322e-05
4.66904e-05
4.73543e-05
4.89031e-05
5.55011e-05
7.6157e-05
5.19432e-05
4.82365e-05
4.70202e-05
4.64012e-05
4.60127e-05
4.57307e-05
4.55004e-05
4.5295e-05
4.51016e-05
4.49159e-05
4.4739e-05
4.45756e-05
4.44327e-05
4.43194e-05
4.4248e-05
4.42374e-05
4.43216e-05
4.45774e-05
4.52392e-05
4.75503e-05
6.73759e-05
7.79999e-05
7.8e-05
7.8e-05
7.8e-05
7.8e-05
7.8e-05
7.8e-05
7.8e-05
7.8e-05
7.8e-05
7.8e-05
7.8e-05
7.8e-05
7.8e-05
7.8e-05
7.8e-05
7.8e-05
7.8e-05
7.8e-05
7.8e-05
7.8e-05
7.8e-05
7.8e-05
7.79728e-05
5.59542e-05
4.66156e-05
4.5155e-05
4.47213e-05
4.45893e-05
4.46054e-05
4.47155e-05
4.48934e-05
4.5122e-05
4.53858e-05
4.56678e-05
4.59479e-05
4.6205e-05
4.64194e-05
4.65773e-05
4.66737e-05
4.67143e-05
4.67154e-05
4.67034e-05
4.67152e-05
4.68048e-05
4.70676e-05
4.77525e-05
5.00903e-05
6.80645e-05
7.79998e-05
7.8e-05
7.8e-05
7.79958e-05
6.22289e-05
4.91782e-05
4.70923e-05
4.63647e-05
4.60183e-05
4.58467e-05
4.57829e-05
4.57964e-05
4.58733e-05
4.60074e-05
4.61917e-05
4.64027e-05
4.65899e-05
4.66434e-05
4.65098e-05
4.62608e-05
4.60078e-05
4.5789e-05
4.56185e-05
4.54987e-05
4.54322e-05
4.54271e-05
4.55039e-05
4.57088e-05
4.61579e-05
4.72253e-05
5.10025e-05
7.68083e-05
7.8e-05
7.8e-05
7.53033e-05
5.11186e-05
4.76428e-05
4.65517e-05
4.60371e-05
4.57597e-05
4.56128e-05
4.55639e-05
4.56049e-05
4.57439e-05
4.60139e-05
4.65208e-05
4.75808e-05
5.08682e-05
7.52078e-05
7.79998e-05
6.72028e-05
4.94299e-05
4.6943e-05
4.60566e-05
4.55792e-05
4.52664e-05
4.50345e-05
4.48468e-05
4.46854e-05
4.45422e-05
4.44151e-05
4.43064e-05
4.42214e-05
4.41693e-05
4.41644e-05
4.42334e-05
4.4433e-05
4.49187e-05
4.63867e-05
5.51717e-05
7.79658e-05
7.8e-05
7.8e-05
7.8e-05
7.8e-05
7.8e-05
7.8e-05
7.8e-05
7.8e-05
7.8e-05
7.8e-05
7.8e-05
7.8e-05
7.8e-05
7.8e-05
7.8e-05
7.8e-05
7.8e-05
7.8e-05
7.8e-05
7.8e-05
7.8e-05
7.8e-05
7.8e-05
7.8e-05
7.48892e-05
4.86902e-05
4.5713e-05
4.49048e-05
4.46024e-05
4.45058e-05
4.45211e-05
4.46071e-05
4.47409e-05
4.49059e-05
4.50873e-05
4.5271e-05
4.54433e-05
4.55928e-05
4.57124e-05
4.58005e-05
4.5863e-05
4.59138e-05
4.59758e-05
4.60855e-05
4.63058e-05
4.67722e-05
4.79085e-05
5.21327e-05
7.72176e-05
7.8e-05
7.8e-05
7.8e-05
7.8e-05
7.7774e-05
5.38024e-05
4.78986e-05
4.65051e-05
4.5929e-05
4.56412e-05
4.55165e-05
4.55007e-05
4.55739e-05
4.57354e-05
4.59954e-05
4.63398e-05
4.67443e-05
4.68976e-05
4.66437e-05
4.61833e-05
4.58165e-05
4.55404e-05
4.5354e-05
4.52449e-05
4.52111e-05
4.52617e-05
4.54296e-05
4.58022e-05
4.667e-05
4.95323e-05
7.21985e-05
7.8e-05
7.8e-05
7.8e-05
7.8e-05
7.30777e-05
5.0009e-05
4.70009e-05
4.60693e-05
4.56438e-05
4.54243e-05
4.5351e-05
4.54077e-05
4.56086e-05
4.60105e-05
4.69036e-05
4.96736e-05
6.9729e-05
7.8e-05
7.8e-05
7.77266e-05
5.30835e-05
4.73718e-05
4.59664e-05
4.53355e-05
4.49626e-05
4.47103e-05
4.45247e-05
4.43805e-05
4.42655e-05
4.41754e-05
4.41109e-05
4.40776e-05
4.40862e-05
4.41561e-05
4.43289e-05
4.47124e-05
4.56677e-05
4.92959e-05
7.69999e-05
7.8e-05
7.8e-05
7.8e-05
7.8e-05
7.8e-05
7.8e-05
7.8e-05
7.8e-05
7.8e-05
7.8e-05
7.8e-05
7.8e-05
7.8e-05
7.8e-05
7.8e-05
7.8e-05
7.8e-05
7.8e-05
7.8e-05
7.8e-05
7.8e-05
7.8e-05
7.8e-05
7.8e-05
7.8e-05
7.79999e-05
6.63788e-05
4.76789e-05
4.54071e-05
4.47484e-05
4.4488e-05
4.43945e-05
4.43908e-05
4.44418e-05
4.45273e-05
4.46328e-05
4.47468e-05
4.48597e-05
4.49649e-05
4.50589e-05
4.51428e-05
4.52232e-05
4.53137e-05
4.5438e-05
4.56387e-05
4.6006e-05
4.6797e-05
4.92734e-05
6.8451e-05
7.79999e-05
7.8e-05
7.8e-05
7.8e-05
7.8e-05
7.8e-05
7.69747e-05
5.12723e-05
4.74032e-05
4.62336e-05
4.57038e-05
4.54858e-05
4.54383e-05
4.55262e-05
4.57635e-05
4.62365e-05
4.69867e-05
4.86467e-05
4.9402e-05
4.83856e-05
4.67348e-05
4.60164e-05
4.55667e-05
4.53166e-05
4.5196e-05
4.51934e-05
4.53202e-05
4.56465e-05
4.6416e-05
4.90119e-05
6.77563e-05
7.79999e-05
7.8e-05
7.8e-05
7.8e-05
7.8e-05
7.8e-05
7.10394e-05
4.95721e-05
4.67674e-05
4.59444e-05
4.55349e-05
4.54068e-05
4.55009e-05
4.58626e-05
4.6607e-05
4.91795e-05
6.648e-05
7.79997e-05
7.8e-05
7.8e-05
7.8e-05
7.33666e-05
4.93514e-05
4.63269e-05
4.53375e-05
4.48355e-05
4.45309e-05
4.43286e-05
4.41879e-05
4.40902e-05
4.40284e-05
4.40032e-05
4.40224e-05
4.41031e-05
4.42773e-05
4.46263e-05
4.54491e-05
4.83615e-05
7.44128e-05
7.8e-05
7.8e-05
7.8e-05
7.8e-05
7.8e-05
7.8e-05
7.8e-05
7.8e-05
7.8e-05
7.8e-05
7.8e-05
7.8e-05
7.8e-05
7.8e-05
7.8e-05
7.8e-05
7.8e-05
7.8e-05
7.8e-05
7.8e-05
7.8e-05
7.8e-05
7.8e-05
7.8e-05
7.8e-05
7.8e-05
7.8e-05
7.79885e-05
5.76019e-05
4.68591e-05
4.51591e-05
4.46032e-05
4.43628e-05
4.42598e-05
4.42317e-05
4.42493e-05
4.42951e-05
4.43576e-05
4.4429e-05
4.45047e-05
4.45833e-05
4.46678e-05
4.47663e-05
4.48945e-05
4.50815e-05
4.53859e-05
4.59586e-05
4.74152e-05
5.45983e-05
7.78942e-05
7.8e-05
7.8e-05
7.8e-05
7.8e-05
7.8e-05
7.8e-05
7.8e-05
7.68262e-05
5.20982e-05
4.78246e-05
4.63111e-05
4.58753e-05
4.57702e-05
4.59182e-05
4.63729e-05
4.78278e-05
5.04317e-05
6.76713e-05
7.4854e-05
6.5084e-05
4.96175e-05
4.73121e-05
4.61214e-05
4.56709e-05
4.54817e-05
4.55304e-05
4.58235e-05
4.65931e-05
4.90966e-05
6.79961e-05
7.79998e-05
7.8e-05
7.8e-05
7.8e-05
7.8e-05
7.8e-05
7.8e-05
7.8e-05
7.3036e-05
5.01762e-05
4.75924e-05
4.62573e-05
4.59624e-05
4.61713e-05
4.72849e-05
4.94893e-05
6.89031e-05
7.79997e-05
7.8e-05
7.8e-05
7.8e-05
7.8e-05
7.79998e-05
6.60489e-05
4.83068e-05
4.58021e-05
4.495e-05
4.45225e-05
4.42735e-05
4.41203e-05
4.40304e-05
4.39928e-05
4.40089e-05
4.40952e-05
4.42904e-05
4.46679e-05
4.54561e-05
4.82238e-05
7.25761e-05
7.8e-05
7.8e-05
7.8e-05
7.8e-05
7.8e-05
7.8e-05
7.8e-05
7.8e-05
7.8e-05
7.8e-05
7.8e-05
7.8e-05
7.8e-05
7.8e-05
7.8e-05
7.8e-05
7.8e-05
7.8e-05
7.8e-05
7.8e-05
7.8e-05
7.8e-05
7.8e-05
7.8e-05
7.8e-05
7.8e-05
7.8e-05
7.8e-05
7.8e-05
7.78479e-05
5.23602e-05
4.62749e-05
4.49744e-05
4.44792e-05
4.424e-05
4.41217e-05
4.40726e-05
4.40661e-05
4.40875e-05
4.41283e-05
4.41842e-05
4.42552e-05
4.43459e-05
4.44676e-05
4.46415e-05
4.49115e-05
4.5376e-05
4.63397e-05
4.94578e-05
7.48728e-05
7.8e-05
7.8e-05
7.8e-05
7.8e-05
7.8e-05
7.8e-05
7.8e-05
7.8e-05
7.8e-05
7.76214e-05
5.99251e-05
4.89984e-05
4.76959e-05
4.7314e-05
4.78275e-05
4.91679e-05
6.09504e-05
7.68157e-05
7.79999e-05
7.8e-05
7.79995e-05
7.53431e-05
5.63963e-05
4.86446e-05
4.72793e-05
4.66499e-05
4.69346e-05
4.80052e-05
5.11595e-05
7.31019e-05
7.79999e-05
7.8e-05
7.8e-05
7.8e-05
7.8e-05
7.8e-05
7.8e-05
7.8e-05
7.8e-05
7.8e-05
7.67387e-05
6.10456e-05
4.93794e-05
4.84028e-05
4.90459e-05
5.77677e-05
7.49116e-05
7.8e-05
7.8e-05
7.8e-05
7.8e-05
7.8e-05
7.8e-05
7.8e-05
7.79981e-05
6.19921e-05
4.78471e-05
4.55484e-05
4.47794e-05
4.44171e-05
4.42236e-05
4.41302e-05
4.41192e-05
4.41929e-05
4.43948e-05
4.48662e-05
4.59323e-05
4.86827e-05
7.37194e-05
7.8e-05
7.8e-05
7.8e-05
7.8e-05
7.8e-05
7.8e-05
7.8e-05
7.8e-05
7.8e-05
7.8e-05
7.8e-05
7.8e-05
7.8e-05
7.8e-05
7.8e-05
7.8e-05
7.8e-05
7.8e-05
7.8e-05
7.8e-05
7.8e-05
7.8e-05
7.8e-05
7.8e-05
7.8e-05
7.8e-05
7.8e-05
7.8e-05
7.8e-05
7.8e-05
7.8e-05
7.7486e-05
5.05241e-05
4.60707e-05
4.48945e-05
4.43945e-05
4.41405e-05
4.40098e-05
4.39476e-05
4.39306e-05
4.39461e-05
4.39884e-05
4.40583e-05
4.41634e-05
4.43207e-05
4.45649e-05
4.49837e-05
4.58304e-05
4.84293e-05
6.84137e-05
7.8e-05
7.8e-05
7.8e-05
7.8e-05
7.8e-05
7.8e-05
7.8e-05
7.8e-05
7.8e-05
7.8e-05
7.8e-05
7.79937e-05
7.28731e-05
6.1634e-05
5.71277e-05
6.32673e-05
7.41817e-05
7.79963e-05
7.8e-05
7.8e-05
7.8e-05
7.8e-05
7.8e-05
7.7968e-05
7.1273e-05
5.85747e-05
5.2283e-05
5.5327e-05
6.69728e-05
7.75382e-05
7.8e-05
7.8e-05
7.8e-05
7.8e-05
7.8e-05
7.8e-05
7.8e-05
7.8e-05
7.8e-05
7.8e-05
7.8e-05
7.8e-05
7.79966e-05
7.60654e-05
7.17903e-05
7.51558e-05
7.79838e-05
7.8e-05
7.8e-05
7.8e-05
7.8e-05
7.8e-05
7.8e-05
7.8e-05
7.8e-05
7.8e-05
7.79976e-05
6.35115e-05
4.80382e-05
4.56756e-05
4.49707e-05
4.4655e-05
4.45306e-05
4.4572e-05
4.47694e-05
4.52621e-05
4.70158e-05
5.32446e-05
7.64908e-05
7.8e-05
7.8e-05
7.8e-05
7.8e-05
7.8e-05
7.8e-05
7.8e-05
7.8e-05
7.8e-05
7.8e-05
7.8e-05
7.8e-05
7.8e-05
7.8e-05
7.8e-05
7.8e-05
7.8e-05
7.8e-05
7.8e-05
7.8e-05
7.8e-05
7.8e-05
7.8e-05
7.8e-05
7.8e-05
7.8e-05
7.8e-05
7.8e-05
7.8e-05
7.8e-05
7.8e-05
7.8e-05
7.8e-05
7.73694e-05
5.10129e-05
4.6298e-05
4.4926e-05
4.43677e-05
4.41029e-05
4.39622e-05
4.38995e-05
4.38894e-05
4.3922e-05
4.39984e-05
4.41318e-05
4.43542e-05
4.47324e-05
4.55164e-05
4.78558e-05
6.34074e-05
7.79992e-05
7.8e-05
7.8e-05
7.8e-05
7.8e-05
7.8e-05
7.8e-05
7.8e-05
7.8e-05
7.8e-05
7.8e-05
7.8e-05
7.8e-05
7.8e-05
7.7997e-05
7.79732e-05
7.79987e-05
7.8e-05
7.8e-05
7.8e-05
7.8e-05
7.8e-05
7.8e-05
7.8e-05
7.8e-05
7.8e-05
7.79878e-05
7.77373e-05
7.7944e-05
7.79999e-05
7.8e-05
7.8e-05
7.8e-05
7.8e-05
7.8e-05
7.8e-05
7.8e-05
7.8e-05
7.8e-05
7.8e-05
7.8e-05
7.8e-05
7.8e-05
7.8e-05
7.8e-05
7.8e-05
7.8e-05
7.8e-05
7.8e-05
7.8e-05
7.8e-05
7.8e-05
7.8e-05
7.8e-05
7.8e-05
7.8e-05
7.8e-05
7.8e-05
7.79993e-05
7.07763e-05
4.95131e-05
4.71505e-05
4.61899e-05
4.58575e-05
4.61773e-05
4.69577e-05
4.86358e-05
6.62304e-05
7.79298e-05
7.8e-05
7.8e-05
7.8e-05
7.8e-05
7.8e-05
7.8e-05
7.8e-05
7.8e-05
7.8e-05
7.8e-05
7.8e-05
7.8e-05
7.8e-05
7.8e-05
7.8e-05
7.8e-05
7.8e-05
7.8e-05
7.8e-05
7.8e-05
7.8e-05
7.8e-05
7.8e-05
7.8e-05
7.8e-05
7.8e-05
7.8e-05
7.8e-05
7.8e-05
7.8e-05
7.8e-05
7.8e-05
7.8e-05
7.8e-05
7.8e-05
7.7707e-05
5.47641e-05
4.69179e-05
4.50798e-05
4.44923e-05
4.41848e-05
4.40475e-05
4.40026e-05
4.4027e-05
4.41232e-05
4.43173e-05
4.46944e-05
4.54182e-05
4.77633e-05
6.2718e-05
7.79983e-05
7.8e-05
7.8e-05
7.8e-05
7.8e-05
7.8e-05
7.8e-05
7.8e-05
7.8e-05
7.8e-05
7.8e-05
7.8e-05
7.8e-05
7.8e-05
7.8e-05
7.8e-05
7.8e-05
7.8e-05
7.8e-05
7.8e-05
7.8e-05
7.8e-05
7.8e-05
7.8e-05
7.8e-05
7.8e-05
7.8e-05
7.8e-05
7.8e-05
7.8e-05
7.8e-05
7.8e-05
7.8e-05
7.8e-05
7.8e-05
7.8e-05
7.8e-05
7.8e-05
7.8e-05
7.8e-05
7.8e-05
7.8e-05
7.8e-05
7.8e-05
7.8e-05
7.8e-05
7.8e-05
7.8e-05
7.8e-05
7.8e-05
7.8e-05
7.8e-05
7.8e-05
7.8e-05
7.8e-05
7.8e-05
7.8e-05
7.8e-05
7.8e-05
7.8e-05
7.8e-05
7.72028e-05
6.64716e-05
5.57453e-05
5.27206e-05
5.67073e-05
6.65799e-05
7.66639e-05
7.79999e-05
7.8e-05
7.8e-05
7.8e-05
7.8e-05
7.8e-05
7.8e-05
7.8e-05
7.8e-05
7.8e-05
7.8e-05
7.8e-05
7.8e-05
7.8e-05
7.8e-05
7.8e-05
7.8e-05
7.8e-05
7.8e-05
7.8e-05
7.8e-05
7.8e-05
7.8e-05
7.8e-05
7.8e-05
7.8e-05
7.8e-05
7.8e-05
7.8e-05
7.8e-05
7.8e-05
7.8e-05
7.8e-05
7.8e-05
7.8e-05
7.8e-05
7.8e-05
7.8e-05
7.7965e-05
6.33929e-05
4.78461e-05
4.58795e-05
4.48847e-05
4.45686e-05
4.44469e-05
4.44595e-05
4.46158e-05
4.4975e-05
4.59816e-05
4.82349e-05
6.70395e-05
7.7999e-05
7.8e-05
7.8e-05
7.8e-05
7.8e-05
7.8e-05
7.8e-05
7.8e-05
7.8e-05
7.8e-05
7.8e-05
7.8e-05
7.8e-05
7.8e-05
7.8e-05
7.8e-05
7.8e-05
7.8e-05
7.8e-05
7.8e-05
7.8e-05
7.8e-05
7.8e-05
7.8e-05
7.8e-05
7.8e-05
7.8e-05
7.8e-05
7.8e-05
7.8e-05
7.8e-05
7.8e-05
7.8e-05
7.8e-05
7.8e-05
7.8e-05
7.8e-05
7.8e-05
7.8e-05
7.8e-05
7.8e-05
7.8e-05
7.8e-05
7.8e-05
7.8e-05
7.8e-05
7.8e-05
7.8e-05
7.8e-05
7.8e-05
7.8e-05
7.8e-05
7.8e-05
7.8e-05
7.8e-05
7.8e-05
7.8e-05
7.8e-05
7.8e-05
7.8e-05
7.8e-05
7.8e-05
7.8e-05
7.79999e-05
7.79728e-05
7.78858e-05
7.79839e-05
7.79999e-05
7.8e-05
7.8e-05
7.8e-05
7.8e-05
7.8e-05
7.8e-05
7.8e-05
7.8e-05
7.8e-05
7.8e-05
7.8e-05
7.8e-05
7.8e-05
7.8e-05
7.8e-05
7.8e-05
7.8e-05
7.8e-05
7.8e-05
7.8e-05
7.8e-05
7.8e-05
7.8e-05
7.8e-05
7.8e-05
7.8e-05
7.8e-05
7.8e-05
7.8e-05
7.8e-05
7.8e-05
7.8e-05
7.8e-05
7.8e-05
7.8e-05
7.8e-05
7.8e-05
7.8e-05
7.8e-05
7.8e-05
7.79995e-05
7.3646e-05
5.51134e-05
4.7547e-05
4.65537e-05
4.60418e-05
4.59957e-05
4.64889e-05
4.75379e-05
5.40919e-05
7.42639e-05
7.79999e-05
7.8e-05
7.8e-05
7.8e-05
7.8e-05
7.8e-05
7.8e-05
7.8e-05
7.8e-05
7.8e-05
7.8e-05
7.8e-05
7.8e-05
7.8e-05
7.8e-05
7.8e-05
7.8e-05
7.8e-05
7.8e-05
7.8e-05
7.8e-05
7.8e-05
7.8e-05
7.8e-05
7.8e-05
7.8e-05
7.8e-05
7.8e-05
7.8e-05
7.8e-05
7.8e-05
7.8e-05
7.8e-05
7.8e-05
7.8e-05
7.8e-05
7.8e-05
7.8e-05
7.8e-05
7.8e-05
7.8e-05
7.8e-05
7.8e-05
7.8e-05
7.8e-05
7.8e-05
7.8e-05
7.8e-05
7.8e-05
7.8e-05
7.8e-05
7.8e-05
7.8e-05
7.8e-05
7.8e-05
7.8e-05
7.8e-05
7.8e-05
7.8e-05
7.8e-05
7.8e-05
7.8e-05
7.8e-05
7.8e-05
7.8e-05
7.8e-05
7.8e-05
7.8e-05
7.8e-05
7.8e-05
7.8e-05
7.8e-05
7.8e-05
7.8e-05
7.8e-05
7.8e-05
7.8e-05
7.8e-05
7.8e-05
7.8e-05
7.8e-05
7.8e-05
7.8e-05
7.8e-05
7.8e-05
7.8e-05
7.8e-05
7.8e-05
7.8e-05
7.8e-05
7.8e-05
7.8e-05
7.8e-05
7.8e-05
7.8e-05
7.8e-05
7.8e-05
7.8e-05
7.8e-05
7.8e-05
7.8e-05
7.8e-05
7.8e-05
7.8e-05
7.8e-05
7.8e-05
7.8e-05
7.8e-05
7.8e-05
7.8e-05
7.8e-05
7.7975e-05
7.29728e-05
6.30171e-05
5.63341e-05
5.54372e-05
6.10415e-05
7.15852e-05
7.79533e-05
7.8e-05
7.8e-05
7.8e-05
7.8e-05
7.8e-05
7.8e-05
7.8e-05
7.8e-05
7.8e-05
7.8e-05
7.8e-05
7.8e-05
7.8e-05
7.8e-05
7.8e-05
7.8e-05
7.8e-05
7.8e-05
7.8e-05
7.8e-05
7.8e-05
7.8e-05
7.8e-05
7.8e-05
7.8e-05
7.8e-05
7.8e-05
7.8e-05
7.8e-05
7.8e-05
7.8e-05
7.8e-05
7.8e-05
7.8e-05
7.8e-05
7.8e-05
7.8e-05
7.8e-05
7.8e-05
7.8e-05
7.8e-05
7.8e-05
7.8e-05
7.8e-05
7.8e-05
7.8e-05
7.8e-05
7.8e-05
7.8e-05
7.8e-05
7.8e-05
7.8e-05
7.8e-05
7.8e-05
7.8e-05
7.8e-05
7.8e-05
7.8e-05
7.8e-05
7.8e-05
7.8e-05
7.8e-05
7.8e-05
7.8e-05
7.8e-05
7.8e-05
7.8e-05
7.8e-05
7.8e-05
7.8e-05
7.8e-05
7.8e-05
7.8e-05
7.8e-05
7.8e-05
7.8e-05
7.8e-05
7.8e-05
7.8e-05
7.8e-05
7.8e-05
7.8e-05
7.8e-05
7.8e-05
7.8e-05
7.8e-05
7.8e-05
7.8e-05
7.8e-05
7.8e-05
7.8e-05
7.8e-05
7.8e-05
7.8e-05
7.8e-05
7.8e-05
7.8e-05
7.8e-05
7.8e-05
7.8e-05
7.8e-05
7.8e-05
7.8e-05
7.8e-05
7.8e-05
7.8e-05
7.8e-05
7.8e-05
7.8e-05
7.8e-05
7.8e-05
7.8e-05
7.8e-05
7.8e-05
7.79993e-05
7.79822e-05
7.79723e-05
7.79981e-05
7.8e-05
7.8e-05
7.8e-05
7.8e-05
7.8e-05
7.8e-05
7.8e-05
7.8e-05
7.8e-05
7.8e-05
7.8e-05
7.8e-05
7.8e-05
7.8e-05
7.8e-05
7.8e-05
7.8e-05
7.8e-05
7.8e-05
7.8e-05
7.8e-05
7.8e-05
7.8e-05
7.8e-05
7.8e-05
7.8e-05
7.8e-05
7.8e-05
7.8e-05
7.8e-05
7.8e-05
7.8e-05
7.8e-05
7.8e-05
7.8e-05
7.8e-05
7.8e-05
7.8e-05
7.8e-05
7.8e-05
7.8e-05
7.8e-05
7.8e-05
7.8e-05
7.8e-05
7.8e-05
7.8e-05
7.8e-05
7.8e-05
7.8e-05
7.8e-05
7.8e-05
7.8e-05
7.8e-05
7.8e-05
7.8e-05
7.8e-05
7.8e-05
7.8e-05
7.8e-05
7.8e-05
7.8e-05
7.8e-05
7.8e-05
7.8e-05
7.8e-05
7.8e-05
7.8e-05
7.8e-05
7.8e-05
7.8e-05
7.8e-05
7.8e-05
7.8e-05
7.8e-05
7.8e-05
7.8e-05
7.8e-05
7.8e-05
7.8e-05
7.8e-05
7.8e-05
7.8e-05
7.8e-05
7.8e-05
7.8e-05
7.8e-05
7.8e-05
7.8e-05
7.8e-05
7.8e-05
7.8e-05
7.8e-05
7.8e-05
7.8e-05
7.8e-05
7.8e-05
7.8e-05
7.8e-05
7.8e-05
7.8e-05
7.8e-05
7.8e-05
7.8e-05
7.8e-05
7.8e-05
7.8e-05
7.8e-05
7.8e-05
7.8e-05
7.8e-05
7.8e-05
7.8e-05
7.8e-05
7.8e-05
7.8e-05
7.8e-05
7.8e-05
7.8e-05
7.8e-05
7.8e-05
7.8e-05
7.8e-05
7.8e-05
7.8e-05
7.8e-05
7.8e-05
7.8e-05
7.8e-05
7.8e-05
7.8e-05
7.8e-05
7.8e-05
7.8e-05
7.8e-05
7.8e-05
7.8e-05
7.8e-05
7.8e-05
7.8e-05
7.8e-05
7.8e-05
7.8e-05
7.8e-05
7.8e-05
7.8e-05
7.8e-05
7.8e-05
7.8e-05
7.8e-05
7.8e-05
7.8e-05
7.8e-05
7.8e-05
7.8e-05
7.8e-05
7.8e-05
7.8e-05
7.8e-05
7.8e-05
7.8e-05
7.8e-05
7.8e-05
7.8e-05
7.8e-05
7.8e-05
7.8e-05
7.8e-05
7.8e-05
7.8e-05
7.8e-05
7.8e-05
7.8e-05
7.8e-05
7.8e-05
7.8e-05
7.8e-05
7.8e-05
7.8e-05
7.8e-05
7.8e-05
7.8e-05
7.8e-05
7.8e-05
7.8e-05
7.8e-05
7.8e-05
7.8e-05
7.8e-05
7.8e-05
7.8e-05
7.8e-05
7.8e-05
7.8e-05
7.8e-05
7.8e-05
7.8e-05
7.8e-05
7.8e-05
7.8e-05
7.8e-05
7.8e-05
7.8e-05
7.8e-05
7.8e-05
7.8e-05
7.8e-05
7.8e-05
7.8e-05
7.8e-05
7.8e-05
7.8e-05
7.8e-05
7.8e-05
7.8e-05
7.8e-05
7.8e-05
7.8e-05
7.8e-05
7.8e-05
7.8e-05
7.8e-05
7.8e-05
7.8e-05
7.8e-05
7.8e-05
7.8e-05
7.8e-05
7.8e-05
7.8e-05
7.8e-05
7.8e-05
7.8e-05
7.8e-05
7.8e-05
7.8e-05
7.8e-05
7.8e-05
7.8e-05
7.8e-05
7.8e-05
7.8e-05
7.8e-05
7.8e-05
7.8e-05
7.8e-05
7.8e-05
7.8e-05
7.8e-05
7.8e-05
7.8e-05
7.8e-05
7.8e-05
7.8e-05
7.8e-05
7.8e-05
7.8e-05
7.8e-05
7.8e-05
7.8e-05
7.8e-05
7.8e-05
7.8e-05
7.8e-05
7.8e-05
7.8e-05
7.8e-05
7.8e-05
7.8e-05
7.8e-05
7.8e-05
7.8e-05
7.8e-05
7.8e-05
7.8e-05
7.8e-05
7.8e-05
7.8e-05
7.8e-05
7.8e-05
7.8e-05
7.8e-05
7.8e-05
7.8e-05
7.8e-05
7.8e-05
7.8e-05
7.8e-05
7.8e-05
7.8e-05
7.8e-05
7.8e-05
7.8e-05
7.8e-05
7.8e-05
7.8e-05
7.8e-05
7.8e-05
7.8e-05
7.8e-05
7.8e-05
7.8e-05
7.8e-05
7.8e-05
7.8e-05
7.8e-05
7.8e-05
7.8e-05
7.8e-05
7.8e-05
7.8e-05
7.8e-05
7.8e-05
7.8e-05
7.8e-05
7.8e-05
7.8e-05
7.8e-05
7.8e-05
7.8e-05
7.8e-05
7.8e-05
7.8e-05
7.8e-05
7.8e-05
7.8e-05
7.8e-05
7.8e-05
7.8e-05
7.8e-05
7.8e-05
7.8e-05
7.8e-05
7.8e-05
7.8e-05
7.8e-05
7.8e-05
7.8e-05
7.8e-05
7.8e-05
7.8e-05
7.8e-05
7.8e-05
7.8e-05
7.8e-05
7.8e-05
7.8e-05
7.8e-05
7.8e-05
7.8e-05
7.8e-05
7.8e-05
7.8e-05
7.8e-05
7.8e-05
7.8e-05
7.8e-05
7.8e-05
7.8e-05
7.8e-05
7.8e-05
7.8e-05
7.8e-05
7.8e-05
7.8e-05
7.8e-05
7.8e-05
7.8e-05
7.8e-05
7.8e-05
7.8e-05
7.8e-05
7.8e-05
7.8e-05
7.8e-05
7.8e-05
7.8e-05
7.8e-05
7.8e-05
7.8e-05
7.8e-05
7.8e-05
7.8e-05
7.8e-05
7.8e-05
7.8e-05
7.8e-05
7.8e-05
7.8e-05
7.8e-05
7.8e-05
7.8e-05
7.8e-05
7.8e-05
7.8e-05
7.8e-05
7.8e-05
7.8e-05
7.8e-05
7.8e-05
7.8e-05
7.8e-05
7.8e-05
7.8e-05
7.8e-05
7.8e-05
7.8e-05
7.8e-05
7.8e-05
7.8e-05
7.8e-05
7.8e-05
7.8e-05
7.8e-05
7.8e-05
7.8e-05
7.8e-05
7.8e-05
7.8e-05
7.8e-05
7.8e-05
7.8e-05
7.8e-05
7.8e-05
7.8e-05
7.8e-05
7.8e-05
7.8e-05
7.8e-05
7.8e-05
7.8e-05
7.8e-05
7.8e-05
7.8e-05
7.8e-05
7.8e-05
7.8e-05
7.8e-05
7.8e-05
7.8e-05
7.8e-05
7.8e-05
7.8e-05
7.8e-05
7.8e-05
7.8e-05
7.8e-05
7.8e-05
7.8e-05
7.8e-05
7.8e-05
7.8e-05
7.8e-05
7.8e-05
7.8e-05
7.8e-05
7.8e-05
7.8e-05
7.8e-05
7.8e-05
7.8e-05
7.8e-05
7.8e-05
7.8e-05
7.8e-05
7.8e-05
7.8e-05
7.8e-05
7.8e-05
7.8e-05
7.8e-05
7.8e-05
7.8e-05
7.8e-05
7.8e-05
7.8e-05
7.8e-05
7.8e-05
7.8e-05
7.8e-05
7.8e-05
7.8e-05
7.8e-05
7.8e-05
7.8e-05
7.8e-05
7.8e-05
7.8e-05
7.8e-05
7.8e-05
7.8e-05
7.8e-05
7.8e-05
7.8e-05
7.8e-05
7.8e-05
7.8e-05
7.8e-05
7.8e-05
7.8e-05
7.8e-05
7.8e-05
7.8e-05
7.8e-05
7.8e-05
7.8e-05
7.8e-05
7.8e-05
7.8e-05
7.8e-05
7.8e-05
7.8e-05
7.8e-05
7.8e-05
7.8e-05
7.8e-05
7.8e-05
7.8e-05
7.8e-05
7.8e-05
7.8e-05
7.8e-05
7.8e-05
7.8e-05
7.8e-05
7.8e-05
7.8e-05
7.8e-05
7.8e-05
7.8e-05
7.8e-05
7.8e-05
7.8e-05
7.8e-05
7.8e-05
7.8e-05
7.8e-05
7.8e-05
7.8e-05
7.8e-05
7.8e-05
7.8e-05
7.8e-05
7.8e-05
7.8e-05
7.8e-05
7.8e-05
7.8e-05
7.8e-05
7.8e-05
7.8e-05
7.8e-05
7.8e-05
7.8e-05
7.8e-05
7.8e-05
7.8e-05
7.8e-05
7.8e-05
7.8e-05
7.8e-05
7.8e-05
7.8e-05
7.8e-05
7.8e-05
7.8e-05
7.8e-05
7.8e-05
7.8e-05
7.8e-05
7.8e-05
7.8e-05
7.8e-05
7.8e-05
7.8e-05
7.8e-05
7.8e-05
7.8e-05
7.8e-05
7.8e-05
7.8e-05
7.8e-05
7.8e-05
7.8e-05
7.8e-05
7.8e-05
7.8e-05
7.8e-05
7.8e-05
7.8e-05
7.8e-05
7.8e-05
7.8e-05
7.8e-05
7.8e-05
7.8e-05
7.8e-05
7.8e-05
7.8e-05
7.8e-05
7.8e-05
7.8e-05
7.8e-05
7.8e-05
7.8e-05
7.8e-05
7.8e-05
7.8e-05
7.8e-05
7.8e-05
7.8e-05
7.8e-05
7.8e-05
7.8e-05
7.8e-05
7.8e-05
7.8e-05
7.8e-05
7.8e-05
7.8e-05
7.8e-05
7.8e-05
7.8e-05
7.8e-05
7.8e-05
7.8e-05
7.8e-05
7.8e-05
7.8e-05
7.8e-05
7.8e-05
7.8e-05
7.8e-05
7.8e-05
7.8e-05
7.8e-05
7.8e-05
7.8e-05
7.8e-05
7.8e-05
7.8e-05
7.8e-05
7.8e-05
7.8e-05
7.8e-05
7.8e-05
7.8e-05
7.8e-05
7.8e-05
7.8e-05
7.8e-05
7.8e-05
7.8e-05
7.8e-05
7.8e-05
7.8e-05
7.8e-05
7.8e-05
7.8e-05
7.8e-05
7.8e-05
7.8e-05
7.8e-05
7.8e-05
7.8e-05
7.8e-05
7.8e-05
7.8e-05
7.8e-05
7.8e-05
7.8e-05
7.8e-05
7.8e-05
7.8e-05
7.8e-05
7.8e-05
7.8e-05
7.8e-05
7.8e-05
7.8e-05
7.8e-05
7.8e-05
7.8e-05
7.8e-05
7.8e-05
7.8e-05
7.8e-05
7.8e-05
7.8e-05
7.8e-05
7.8e-05
7.8e-05
7.8e-05
7.8e-05
7.8e-05
7.8e-05
7.8e-05
7.8e-05
7.8e-05
7.8e-05
7.8e-05
7.8e-05
7.8e-05
7.8e-05
7.8e-05
7.8e-05
7.8e-05
7.8e-05
7.8e-05
7.8e-05
7.8e-05
7.8e-05
7.8e-05
7.8e-05
7.8e-05
7.8e-05
7.8e-05
7.8e-05
7.8e-05
7.8e-05
7.8e-05
7.8e-05
7.8e-05
7.8e-05
7.8e-05
7.8e-05
7.8e-05
7.8e-05
7.8e-05
7.8e-05
7.8e-05
7.8e-05
7.8e-05
7.8e-05
7.8e-05
7.8e-05
7.8e-05
7.8e-05
7.8e-05
7.8e-05
7.8e-05
7.8e-05
7.8e-05
7.8e-05
7.8e-05
7.8e-05
7.8e-05
7.8e-05
7.8e-05
7.8e-05
7.8e-05
7.8e-05
7.8e-05
7.8e-05
7.8e-05
7.8e-05
7.8e-05
7.8e-05
7.8e-05
7.8e-05
7.8e-05
7.8e-05
7.8e-05
7.8e-05
7.8e-05
7.8e-05
7.8e-05
7.8e-05
7.8e-05
7.8e-05
7.8e-05
7.8e-05
7.8e-05
7.8e-05
7.8e-05
7.8e-05
7.8e-05
7.8e-05
7.8e-05
7.8e-05
7.8e-05
7.8e-05
7.8e-05
7.8e-05
7.8e-05
7.8e-05
7.8e-05
7.8e-05
7.8e-05
7.8e-05
7.8e-05
7.8e-05
7.8e-05
7.8e-05
7.8e-05
7.8e-05
7.8e-05
7.8e-05
7.8e-05
7.8e-05
7.8e-05
7.8e-05
7.8e-05
7.8e-05
7.8e-05
7.8e-05
7.8e-05
7.8e-05
7.8e-05
7.8e-05
7.8e-05
7.8e-05
7.8e-05
7.8e-05
7.8e-05
7.8e-05
7.8e-05
7.8e-05
7.8e-05
7.8e-05
7.8e-05
7.8e-05
7.8e-05
7.8e-05
7.8e-05
7.8e-05
7.8e-05
7.8e-05
7.8e-05
7.8e-05
7.8e-05
7.8e-05
7.8e-05
7.8e-05
7.8e-05
7.8e-05
7.8e-05
7.8e-05
7.8e-05
7.8e-05
7.8e-05
7.8e-05
7.8e-05
7.8e-05
7.8e-05
7.8e-05
7.8e-05
7.8e-05
7.8e-05
7.8e-05
7.8e-05
7.8e-05
7.8e-05
7.8e-05
7.8e-05
7.8e-05
7.8e-05
7.8e-05
7.8e-05
7.8e-05
7.8e-05
7.8e-05
7.8e-05
7.8e-05
7.8e-05
7.8e-05
7.8e-05
7.8e-05
7.8e-05
7.8e-05
7.8e-05
7.8e-05
7.8e-05
7.8e-05
7.8e-05
7.8e-05
7.8e-05
7.8e-05
7.8e-05
7.8e-05
7.8e-05
7.8e-05
7.8e-05
7.8e-05
7.8e-05
7.8e-05
7.8e-05
7.8e-05
7.8e-05
7.8e-05
7.8e-05
7.8e-05
7.8e-05
7.8e-05
7.8e-05
7.8e-05
7.8e-05
7.8e-05
7.8e-05
7.8e-05
7.8e-05
7.8e-05
7.8e-05
7.8e-05
7.8e-05
7.8e-05
7.8e-05
7.8e-05
7.8e-05
7.8e-05
7.8e-05
7.8e-05
7.8e-05
7.8e-05
7.8e-05
7.8e-05
7.8e-05
7.8e-05
7.8e-05
7.8e-05
7.8e-05
7.8e-05
7.8e-05
7.8e-05
7.8e-05
7.8e-05
7.8e-05
7.8e-05
7.8e-05
7.8e-05
7.8e-05
7.8e-05
7.8e-05
7.8e-05
7.8e-05
7.8e-05
7.8e-05
7.8e-05
7.8e-05
7.8e-05
7.8e-05
7.8e-05
7.8e-05
7.8e-05
7.8e-05
7.8e-05
7.8e-05
7.8e-05
7.8e-05
7.8e-05
7.8e-05
7.8e-05
7.8e-05
7.8e-05
7.8e-05
7.8e-05
7.8e-05
7.8e-05
7.8e-05
7.8e-05
7.8e-05
7.8e-05
7.8e-05
7.8e-05
7.8e-05
7.8e-05
7.8e-05
7.8e-05
7.8e-05
7.8e-05
7.8e-05
7.8e-05
7.8e-05
7.8e-05
7.8e-05
7.8e-05
7.8e-05
7.8e-05
7.8e-05
7.8e-05
7.8e-05
7.8e-05
7.8e-05
7.8e-05
7.8e-05
7.8e-05
7.8e-05
7.8e-05
7.8e-05
7.8e-05
7.8e-05
7.8e-05
7.8e-05
7.8e-05
7.8e-05
7.8e-05
7.8e-05
7.8e-05
7.8e-05
7.8e-05
7.8e-05
7.8e-05
7.8e-05
7.8e-05
7.8e-05
7.8e-05
7.8e-05
7.8e-05
7.8e-05
7.8e-05
7.8e-05
7.8e-05
7.8e-05
7.8e-05
7.8e-05
7.8e-05
7.8e-05
7.8e-05
7.8e-05
7.8e-05
7.8e-05
7.8e-05
7.8e-05
7.8e-05
7.8e-05
7.8e-05
7.8e-05
7.8e-05
7.8e-05
7.8e-05
7.8e-05
7.8e-05
7.8e-05
7.8e-05
7.8e-05
7.8e-05
7.8e-05
7.8e-05
7.8e-05
7.8e-05
7.8e-05
7.8e-05
7.8e-05
7.8e-05
7.8e-05
7.8e-05
7.8e-05
7.8e-05
7.8e-05
7.8e-05
7.8e-05
7.8e-05
7.8e-05
7.8e-05
7.8e-05
7.8e-05
7.8e-05
7.8e-05
7.8e-05
7.8e-05
7.8e-05
7.8e-05
7.8e-05
7.8e-05
7.8e-05
7.8e-05
7.8e-05
7.8e-05
7.8e-05
7.8e-05
7.8e-05
7.8e-05
7.8e-05
7.8e-05
7.8e-05
7.8e-05
7.8e-05
7.8e-05
7.8e-05
7.8e-05
7.8e-05
7.8e-05
7.8e-05
7.8e-05
7.8e-05
7.8e-05
7.8e-05
7.8e-05
7.8e-05
7.8e-05
7.8e-05
7.8e-05
7.8e-05
7.8e-05
7.8e-05
7.8e-05
7.8e-05
7.8e-05
7.8e-05
7.8e-05
7.8e-05
7.8e-05
7.8e-05
7.8e-05
7.8e-05
7.8e-05
7.8e-05
7.8e-05
7.8e-05
7.8e-05
7.8e-05
7.8e-05
7.8e-05
7.8e-05
7.8e-05