/*--------------------------------*- C++ -*----------------------------------*\
| =========                 |                                                 |
| \\      /  F ield         | OpenFOAM: The Open Source CFD Toolbox           |
|  \\    /   O peration     | Version:  2406                                  |
|   \\  /    A nd           | Website:  www.openfoam.com                      |
|    \\/     M anipulation  |                                                 |
\*---------------------------------------------------------------------------*/
FoamFile
{
    version     2.0;
    format      ascii;
    arch        "LSB;label=32;scalar=64";
    class       volScalarField;
    location    "0.55";
    object      C_0;
}
// * * * * * * * * * * * * * * * * * * * * * * * * * * * * * * * * * * * * * //

dimensions      [1 -3 0 0 0 0 0];

internalField   nonuniform List<scalar> 
14400
(
3.77171
3.77119
3.77011
3.76834
3.76564
3.76151
3.75449
3.7432
3.75521
3.76283
3.76757
3.7709
3.77335
3.77515
3.77643
3.77728
3.77772
3.77776
3.77736
3.77646
3.77492
3.7725
3.76868
3.76201
3.7512
3.76379
3.77192
3.77722
3.7812
3.78435
3.78694
3.78912
3.79098
3.79258
3.79396
3.79514
3.79617
3.79704
3.79778
3.79839
3.79888
3.79926
3.79954
3.79971
3.79978
3.79975
3.79963
3.79941
3.79909
3.79868
3.79818
3.79757
3.79687
3.79606
3.79514
3.79411
3.79296
3.79169
3.79028
3.78873
3.78703
3.78515
3.78308
3.7808
3.77827
3.77545
3.77228
3.76869
3.76456
3.75971
3.75383
3.74635
3.73562
3.71884
3.72387
3.7231
3.71616
3.73098
3.74007
3.74589
3.75004
3.75312
3.75543
3.75714
3.75836
3.75916
3.75958
3.75964
3.75936
3.75871
3.75769
3.75624
3.75427
3.75167
3.74815
3.74323
3.73542
3.72312
3.734
3.74063
3.74432
3.7465
3.74765
3.74798
3.74754
3.74627
3.74398
3.74018
3.73346
3.72245
3.73464
3.74236
3.7472
3.75064
3.75318
3.75509
3.75651
3.75751
3.75816
3.75847
3.77222
3.77176
3.77079
3.76927
3.76707
3.7641
3.76041
3.7571
3.76107
3.76538
3.76897
3.7718
3.77399
3.77566
3.77687
3.77769
3.77813
3.77819
3.77786
3.77709
3.7758
3.77389
3.77125
3.76793
3.76507
3.76956
3.77439
3.77856
3.78202
3.78491
3.78735
3.78944
3.79124
3.7928
3.79414
3.79531
3.79632
3.79718
3.7979
3.79851
3.79899
3.79937
3.79964
3.79981
3.79987
3.79985
3.79972
3.7995
3.79919
3.79878
3.79827
3.79767
3.79697
3.79616
3.79525
3.79423
3.79309
3.79182
3.79043
3.78889
3.7872
3.78534
3.7833
3.78104
3.77855
3.77579
3.7727
3.76923
3.76528
3.76073
3.75542
3.74915
3.74183
3.73409
3.73287
3.73203
3.73145
3.73735
3.74298
3.74754
3.75112
3.7539
3.75603
3.75763
3.75878
3.75954
3.75994
3.75999
3.75971
3.75909
3.75811
3.75674
3.75492
3.75257
3.74956
3.74578
3.74126
3.73701
3.73997
3.74328
3.74583
3.74753
3.74847
3.74874
3.74836
3.7473
3.74549
3.74283
3.73941
3.73634
3.74048
3.74491
3.7486
3.75153
3.75382
3.75558
3.75692
3.75787
3.75849
3.75879
3.77321
3.77282
3.77204
3.77086
3.76928
3.7674
3.76556
3.76467
3.76619
3.76864
3.77113
3.77333
3.77516
3.77662
3.77771
3.77848
3.77891
3.77902
3.7788
3.77824
3.77731
3.77603
3.77448
3.77302
3.77257
3.77457
3.77754
3.78059
3.78341
3.78592
3.78812
3.79005
3.79174
3.79322
3.79451
3.79564
3.79661
3.79745
3.79815
3.79874
3.79921
3.79958
3.79984
3.8
3.80007
3.80004
3.79991
3.79969
3.79938
3.79897
3.79847
3.79787
3.79717
3.79638
3.79547
3.79446
3.79333
3.79209
3.79071
3.7892
3.78754
3.78572
3.78372
3.78153
3.77912
3.77646
3.77351
3.77025
3.7666
3.76253
3.75798
3.75301
3.74786
3.74339
3.74115
3.74029
3.74078
3.74351
3.74693
3.75019
3.753
3.75531
3.75715
3.75857
3.7596
3.76028
3.76063
3.76067
3.76041
3.75983
3.75893
3.7577
3.7561
3.75412
3.75175
3.74907
3.7464
3.74463
3.7452
3.7467
3.74818
3.74931
3.74998
3.75016
3.74986
3.74908
3.74783
3.74624
3.74463
3.74394
3.74561
3.74819
3.75078
3.75306
3.75498
3.75651
3.7577
3.75857
3.75913
3.75941
3.77457
3.77428
3.77369
3.77285
3.77179
3.77067
3.76976
3.76952
3.77036
3.77186
3.77358
3.77524
3.7767
3.77793
3.77889
3.77959
3.78002
3.78018
3.78009
3.77974
3.77917
3.77842
3.77764
3.77711
3.7773
3.7786
3.7806
3.78286
3.78511
3.78723
3.78916
3.7909
3.79245
3.79383
3.79505
3.79612
3.79704
3.79784
3.79852
3.79909
3.79954
3.79989
3.80015
3.8003
3.80036
3.80032
3.80019
3.79997
3.79966
3.79926
3.79876
3.79817
3.79748
3.79669
3.7958
3.79481
3.7937
3.79248
3.79113
3.78965
3.78804
3.78627
3.78434
3.78223
3.77993
3.77741
3.77465
3.77164
3.76835
3.76478
3.76097
3.75703
3.75322
3.75005
3.74806
3.74721
3.74749
3.74895
3.75106
3.75329
3.75538
3.7572
3.7587
3.75989
3.76076
3.76135
3.76164
3.76166
3.76141
3.76089
3.76009
3.75902
3.75767
3.75606
3.75425
3.75235
3.75064
3.74956
3.74953
3.75012
3.75089
3.75155
3.75196
3.75207
3.75184
3.75131
3.75054
3.74965
3.74894
3.74887
3.74984
3.75145
3.75325
3.75498
3.75651
3.75779
3.75881
3.75956
3.76006
3.76031
3.77624
3.77602
3.77561
3.77504
3.77437
3.77373
3.7733
3.7733
3.77387
3.77487
3.77608
3.77733
3.77849
3.7795
3.78033
3.78096
3.78139
3.78161
3.78163
3.78148
3.7812
3.78084
3.78055
3.78049
3.78091
3.78192
3.78341
3.78514
3.78695
3.78872
3.79039
3.79194
3.79334
3.79461
3.79573
3.79673
3.79761
3.79836
3.79901
3.79954
3.79998
3.80031
3.80055
3.80069
3.80074
3.8007
3.80057
3.80035
3.80004
3.79964
3.79915
3.79856
3.79789
3.79711
3.79624
3.79527
3.79419
3.79299
3.79168
3.79025
3.78869
3.78698
3.78513
3.78313
3.78095
3.77859
3.77604
3.7733
3.77038
3.76728
3.76409
3.76091
3.75796
3.75551
3.75384
3.753
3.753
3.75377
3.75504
3.75653
3.75803
3.75939
3.76057
3.76152
3.76223
3.7627
3.76293
3.76293
3.76269
3.76222
3.76153
3.76061
3.7595
3.75821
3.75682
3.75544
3.75425
3.75346
3.75321
3.75337
3.75371
3.75404
3.75426
3.7543
3.75414
3.7538
3.75334
3.75289
3.75261
3.75275
3.75342
3.75451
3.75579
3.75709
3.75829
3.75933
3.76017
3.76081
3.76124
3.76145
3.77811
3.77797
3.77769
3.77732
3.77692
3.77658
3.7764
3.7765
3.77694
3.77766
3.77856
3.77951
3.78043
3.78126
3.78198
3.78254
3.78296
3.78322
3.78335
3.78336
3.78329
3.78321
3.78321
3.78341
3.78391
3.78478
3.78596
3.78735
3.78883
3.79031
3.79175
3.79311
3.79437
3.79551
3.79655
3.79747
3.79829
3.79899
3.7996
3.8001
3.80051
3.80082
3.80104
3.80117
3.80121
3.80117
3.80103
3.80081
3.8005
3.80011
3.79963
3.79905
3.79839
3.79763
3.79678
3.79583
3.79478
3.79362
3.79236
3.79098
3.78947
3.78785
3.78609
3.78419
3.78215
3.77997
3.77763
3.77516
3.77257
3.76989
3.76719
3.76458
3.76219
3.76021
3.75877
3.75795
3.75774
3.75808
3.75882
3.75977
3.7608
3.76178
3.76266
3.76338
3.76393
3.76429
3.76445
3.76442
3.76419
3.76378
3.76318
3.76241
3.76149
3.76047
3.75939
3.75835
3.75745
3.75682
3.7565
3.75644
3.75652
3.75665
3.75673
3.75672
3.75661
3.7564
3.75615
3.75594
3.75588
3.75608
3.7566
3.75738
3.75832
3.75929
3.76023
3.76105
3.76175
3.76228
3.76263
3.76281
3.78013
3.78004
3.77986
3.77964
3.77942
3.77925
3.77921
3.77936
3.77973
3.78029
3.78097
3.78171
3.78246
3.78315
3.78376
3.78427
3.78468
3.78498
3.78518
3.78531
3.7854
3.7855
3.78568
3.78601
3.78655
3.78732
3.78831
3.78946
3.79069
3.79195
3.7932
3.79439
3.7955
3.79653
3.79748
3.79832
3.79907
3.79973
3.80029
3.80076
3.80114
3.80142
3.80163
3.80174
3.80177
3.80172
3.80158
3.80136
3.80106
3.80067
3.80019
3.79963
3.79898
3.79825
3.79742
3.7965
3.79548
3.79436
3.79315
3.79182
3.79039
3.78884
3.78718
3.7854
3.7835
3.78148
3.77936
3.77714
3.77484
3.77251
3.77021
3.76801
3.76602
3.76435
3.76309
3.76229
3.76194
3.762
3.76237
3.76294
3.76361
3.76428
3.7649
3.76542
3.76582
3.76607
3.76617
3.76611
3.76589
3.76552
3.765
3.76435
3.7636
3.76277
3.76192
3.7611
3.7604
3.75986
3.75952
3.75936
3.7593
3.7593
3.7593
3.75926
3.75917
3.75904
3.75892
3.75884
3.75888
3.7591
3.75951
3.7601
3.7608
3.76154
3.76227
3.76292
3.76348
3.76391
3.76421
3.76435
3.78224
3.78219
3.78209
3.78197
3.78186
3.7818
3.78184
3.78201
3.78233
3.78278
3.78332
3.78392
3.78453
3.78511
3.78565
3.78611
3.78651
3.78683
3.78708
3.7873
3.7875
3.78771
3.788
3.7884
3.78894
3.78965
3.79051
3.79149
3.79253
3.79361
3.79469
3.79573
3.79672
3.79765
3.7985
3.79927
3.79995
3.80055
3.80107
3.8015
3.80185
3.80212
3.8023
3.8024
3.80242
3.80236
3.80222
3.802
3.80169
3.80131
3.80085
3.8003
3.79967
3.79895
3.79815
3.79726
3.79628
3.79521
3.79404
3.79278
3.79141
3.78995
3.78839
3.78673
3.78497
3.78311
3.78118
3.77918
3.77715
3.77511
3.77311
3.77123
3.76953
3.76809
3.76696
3.76617
3.76573
3.7656
3.76572
3.76602
3.76641
3.76684
3.76725
3.76759
3.76785
3.76801
3.76804
3.76795
3.76774
3.7674
3.76695
3.7664
3.76577
3.7651
3.76441
3.76375
3.76317
3.76271
3.76237
3.76216
3.76203
3.76195
3.7619
3.76184
3.76176
3.76169
3.76163
3.76163
3.76171
3.76192
3.76226
3.76271
3.76324
3.76381
3.76438
3.76489
3.76533
3.76568
3.76592
3.76604
3.78441
3.78438
3.78433
3.78428
3.78424
3.78425
3.78434
3.78452
3.7848
3.78518
3.78563
3.78612
3.78663
3.78713
3.7876
3.78802
3.7884
3.78874
3.78903
3.7893
3.78957
3.78986
3.79021
3.79064
3.79118
3.79183
3.79259
3.79344
3.79434
3.79528
3.79621
3.79713
3.79801
3.79883
3.7996
3.80029
3.80092
3.80146
3.80194
3.80233
3.80265
3.80289
3.80305
3.80314
3.80314
3.80308
3.80293
3.80271
3.80241
3.80203
3.80158
3.80105
3.80044
3.79974
3.79897
3.79811
3.79717
3.79614
3.79503
3.79383
3.79254
3.79116
3.7897
3.78815
3.78652
3.78483
3.78307
3.78127
3.77945
3.77765
3.77591
3.77427
3.77279
3.77151
3.77048
3.76971
3.76921
3.76895
3.7689
3.76899
3.76918
3.76941
3.76965
3.76985
3.76999
3.77006
3.77004
3.76992
3.76971
3.7694
3.769
3.76853
3.768
3.76744
3.76687
3.76632
3.76584
3.76543
3.76511
3.76487
3.76471
3.76459
3.7645
3.76443
3.76436
3.76431
3.76429
3.76432
3.76442
3.7646
3.76488
3.76524
3.76565
3.76609
3.76653
3.76693
3.76728
3.76756
3.76775
3.76785
3.7866
3.78659
3.78658
3.78657
3.78658
3.78663
3.78674
3.78692
3.78718
3.7875
3.78788
3.7883
3.78873
3.78917
3.78959
3.78998
3.79035
3.79069
3.791
3.79131
3.79162
3.79195
3.79233
3.79277
3.79329
3.7939
3.79458
3.79533
3.79612
3.79694
3.79776
3.79857
3.79935
3.80008
3.80077
3.80139
3.80195
3.80245
3.80288
3.80324
3.80352
3.80374
3.80388
3.80395
3.80395
3.80387
3.80372
3.8035
3.8032
3.80284
3.80239
3.80188
3.80128
3.80061
3.79987
3.79905
3.79814
3.79717
3.79611
3.79497
3.79375
3.79246
3.79109
3.78965
3.78815
3.7866
3.785
3.78337
3.78175
3.78015
3.7786
3.77715
3.77584
3.77469
3.77373
3.77299
3.77245
3.7721
3.77192
3.77187
3.7719
3.77198
3.77208
3.77216
3.77221
3.77221
3.77213
3.77199
3.77177
3.77148
3.77113
3.77071
3.77026
3.76978
3.7693
3.76884
3.76842
3.76805
3.76775
3.76752
3.76733
3.7672
3.76709
3.76701
3.76695
3.76691
3.7669
3.76694
3.76704
3.7672
3.76742
3.7677
3.76803
3.76837
3.76871
3.76903
3.76931
3.76953
3.76968
3.76976
3.78881
3.78881
3.78882
3.78883
3.78887
3.78895
3.78907
3.78925
3.78948
3.78977
3.7901
3.79046
3.79084
3.79122
3.7916
3.79197
3.79232
3.79266
3.79299
3.79331
3.79364
3.794
3.79439
3.79483
3.79533
3.79589
3.79651
3.79717
3.79788
3.7986
3.79932
3.80003
3.80072
3.80138
3.80199
3.80255
3.80306
3.80351
3.80389
3.80421
3.80447
3.80466
3.80478
3.80483
3.80482
3.80474
3.80458
3.80436
3.80407
3.80371
3.80328
3.80278
3.80221
3.80156
3.80085
3.80006
3.7992
3.79827
3.79726
3.79619
3.79504
3.79383
3.79255
3.79122
3.78984
3.78841
3.78695
3.78548
3.78401
3.78258
3.7812
3.7799
3.77872
3.77767
3.77678
3.77605
3.77549
3.77509
3.77482
3.77466
3.77457
3.77454
3.77453
3.77451
3.77448
3.77441
3.7743
3.77413
3.77391
3.77363
3.77331
3.77294
3.77254
3.77213
3.77171
3.77131
3.77094
3.77061
3.77033
3.7701
3.76992
3.76977
3.76966
3.76957
3.76951
3.76947
3.76947
3.76951
3.76959
3.76973
3.76991
3.77013
3.77038
3.77065
3.77092
3.77117
3.77139
3.77156
3.77168
3.77174
3.79101
3.79102
3.79104
3.79108
3.79114
3.79123
3.79135
3.79152
3.79174
3.79199
3.79228
3.7926
3.79294
3.79329
3.79363
3.79398
3.79431
3.79464
3.79497
3.7953
3.79564
3.79601
3.7964
3.79683
3.7973
3.79782
3.79839
3.79898
3.79961
3.80025
3.80089
3.80152
3.80214
3.80272
3.80327
3.80377
3.80422
3.80462
3.80497
3.80526
3.80548
3.80565
3.80575
3.80579
3.80576
3.80567
3.80552
3.8053
3.80501
3.80466
3.80424
3.80375
3.8032
3.80258
3.8019
3.80114
3.80032
3.79944
3.79849
3.79747
3.7964
3.79526
3.79408
3.79284
3.79156
3.79025
3.78892
3.78758
3.78625
3.78496
3.78371
3.78254
3.78146
3.7805
3.77966
3.77896
3.77838
3.77794
3.77761
3.77736
3.77719
3.77707
3.77697
3.77689
3.77679
3.77667
3.77652
3.77633
3.7761
3.77583
3.77553
3.7752
3.77484
3.77448
3.77411
3.77376
3.77343
3.77313
3.77287
3.77265
3.77246
3.77231
3.77219
3.7721
3.77204
3.772
3.772
3.77203
3.7721
3.77221
3.77235
3.77253
3.77273
3.77293
3.77314
3.77334
3.77351
3.77365
3.77374
3.77379
3.79321
3.79322
3.79325
3.7933
3.79336
3.79346
3.79359
3.79375
3.79395
3.79418
3.79444
3.79473
3.79503
3.79535
3.79567
3.79599
3.79631
3.79663
3.79695
3.79728
3.79762
3.79798
3.79837
3.79878
3.79923
3.79971
3.80023
3.80077
3.80133
3.8019
3.80247
3.80303
3.80358
3.8041
3.80459
3.80503
3.80544
3.8058
3.80611
3.80636
3.80656
3.8067
3.80678
3.8068
3.80677
3.80667
3.80651
3.80629
3.80601
3.80567
3.80526
3.80479
3.80426
3.80367
3.80301
3.80229
3.80152
3.80068
3.79978
3.79882
3.79781
3.79675
3.79565
3.7945
3.79332
3.79211
3.79089
3.78967
3.78846
3.78728
3.78615
3.78508
3.78409
3.7832
3.7824
3.78172
3.78115
3.78068
3.7803
3.78
3.77977
3.77958
3.77941
3.77926
3.77911
3.77895
3.77877
3.77857
3.77833
3.77807
3.77778
3.77747
3.77715
3.77682
3.77649
3.77618
3.77588
3.7756
3.77536
3.77515
3.77497
3.77482
3.7747
3.77461
3.77454
3.7745
3.77449
3.77452
3.77457
3.77465
3.77476
3.7749
3.77505
3.77522
3.77538
3.77553
3.77567
3.77577
3.77585
3.77589
3.7954
3.79541
3.79544
3.79549
3.79557
3.79566
3.79579
3.79594
3.79613
3.79634
3.79658
3.79684
3.79711
3.7974
3.7977
3.798
3.7983
3.79861
3.79893
3.79925
3.79958
3.79994
3.80031
3.8007
3.80112
3.80157
3.80204
3.80253
3.80304
3.80355
3.80406
3.80456
3.80505
3.80551
3.80594
3.80634
3.8067
3.80702
3.80729
3.80752
3.80769
3.80781
3.80787
3.80788
3.80784
3.80773
3.80757
3.80735
3.80708
3.80674
3.80635
3.8059
3.80539
3.80482
3.80419
3.80351
3.80277
3.80197
3.80112
3.80023
3.79928
3.79829
3.79725
3.79619
3.7951
3.79398
3.79286
3.79174
3.79064
3.78956
3.78852
3.78754
3.78663
3.78579
3.78504
3.78438
3.78381
3.78332
3.78292
3.78258
3.7823
3.78205
3.78184
3.78164
3.78145
3.78126
3.78105
3.78083
3.78059
3.78033
3.78006
3.77977
3.77947
3.77916
3.77887
3.77858
3.7783
3.77805
3.77782
3.77762
3.77745
3.7773
3.77718
3.77709
3.77702
3.77697
3.77696
3.77697
3.777
3.77707
3.77715
3.77726
3.77737
3.7775
3.77763
3.77774
3.77785
3.77793
3.77799
3.77802
3.79756
3.79758
3.79761
3.79767
3.79774
3.79784
3.79796
3.7981
3.79828
3.79847
3.79869
3.79893
3.79918
3.79945
3.79972
3.8
3.80029
3.80059
3.80089
3.8012
3.80153
3.80187
3.80222
3.8026
3.80299
3.80341
3.80384
3.80428
3.80474
3.8052
3.80565
3.8061
3.80654
3.80695
3.80733
3.80769
3.80801
3.80829
3.80853
3.80872
3.80887
3.80897
3.80902
3.80901
3.80896
3.80885
3.80869
3.80847
3.8082
3.80787
3.80749
3.80706
3.80657
3.80602
3.80542
3.80477
3.80407
3.80332
3.80252
3.80168
3.80079
3.79986
3.7989
3.79791
3.7969
3.79587
3.79483
3.7938
3.79279
3.7918
3.79084
3.78993
3.78908
3.7883
3.78759
3.78695
3.78638
3.78589
3.78547
3.7851
3.78478
3.7845
3.78425
3.78402
3.78379
3.78357
3.78334
3.78311
3.78287
3.78261
3.78234
3.78207
3.78179
3.78151
3.78123
3.78096
3.78071
3.78047
3.78026
3.78007
3.7799
3.77975
3.77963
3.77954
3.77947
3.77942
3.77939
3.77939
3.77941
3.77946
3.77952
3.7796
3.77969
3.77978
3.77988
3.77997
3.78005
3.78011
3.78016
3.78018
3.79972
3.79973
3.79977
3.79982
3.79989
3.79999
3.8001
3.80024
3.8004
3.80058
3.80078
3.801
3.80123
3.80148
3.80174
3.802
3.80228
3.80256
3.80285
3.80315
3.80346
3.80378
3.80412
3.80447
3.80484
3.80522
3.80562
3.80602
3.80644
3.80685
3.80726
3.80766
3.80805
3.80841
3.80876
3.80907
3.80936
3.8096
3.80981
3.80998
3.8101
3.81018
3.81021
3.8102
3.81013
3.81002
3.80986
3.80964
3.80938
3.80906
3.80869
3.80827
3.8078
3.80728
3.80671
3.80609
3.80543
3.80472
3.80396
3.80317
3.80234
3.80147
3.80057
3.79965
3.79871
3.79776
3.7968
3.79585
3.79491
3.794
3.79311
3.79227
3.79147
3.79074
3.79006
3.78944
3.78889
3.78839
3.78796
3.78757
3.78723
3.78692
3.78664
3.78638
3.78613
3.78589
3.78565
3.7854
3.78515
3.7849
3.78464
3.78437
3.78411
3.78384
3.78358
3.78333
3.78309
3.78287
3.78267
3.78248
3.78232
3.78218
3.78206
3.78197
3.78189
3.78184
3.7818
3.78179
3.7818
3.78183
3.78187
3.78193
3.78199
3.78206
3.78214
3.78221
3.78227
3.78232
3.78235
3.78237
3.80185
3.80187
3.8019
3.80195
3.80202
3.80211
3.80222
3.80235
3.8025
3.80267
3.80286
3.80306
3.80328
3.8035
3.80374
3.80399
3.80425
3.80452
3.80479
3.80508
3.80537
3.80568
3.806
3.80633
3.80667
3.80702
3.80739
3.80776
3.80813
3.8085
3.80887
3.80923
3.80957
3.8099
3.81021
3.81049
3.81074
3.81095
3.81113
3.81128
3.81138
3.81144
3.81146
3.81143
3.81136
3.81124
3.81108
3.81086
3.8106
3.8103
3.80994
3.80954
3.80909
3.80859
3.80805
3.80746
3.80683
3.80616
3.80545
3.8047
3.80392
3.80311
3.80227
3.80141
3.80053
3.79965
3.79876
3.79788
3.79701
3.79616
3.79534
3.79455
3.79381
3.79311
3.79246
3.79187
3.79133
3.79084
3.7904
3.79
3.78964
3.78931
3.78901
3.78873
3.78846
3.7882
3.78795
3.7877
3.78744
3.78719
3.78693
3.78668
3.78642
3.78617
3.78592
3.78569
3.78546
3.78525
3.78506
3.78488
3.78473
3.78459
3.78447
3.78437
3.78429
3.78423
3.78419
3.78417
3.78417
3.78418
3.78421
3.78425
3.78429
3.78435
3.7844
3.78445
3.78449
3.78453
3.78456
3.78457
3.80397
3.80398
3.80402
3.80407
3.80414
3.80422
3.80432
3.80445
3.80459
3.80474
3.80492
3.8051
3.8053
3.80552
3.80574
3.80598
3.80622
3.80647
3.80673
3.807
3.80728
3.80757
3.80787
3.80817
3.80849
3.80882
3.80915
3.80949
3.80983
3.81016
3.81049
3.81081
3.81112
3.81141
3.81168
3.81193
3.81215
3.81234
3.81249
3.81261
3.8127
3.81274
3.81275
3.81271
3.81263
3.81251
3.81234
3.81213
3.81188
3.81158
3.81124
3.81085
3.81042
3.80994
3.80943
3.80887
3.80827
3.80764
3.80697
3.80626
3.80553
3.80477
3.80398
3.80318
3.80237
3.80155
3.80072
3.7999
3.79909
3.7983
3.79754
3.7968
3.7961
3.79544
3.79482
3.79424
3.79372
3.79323
3.79279
3.79239
3.79202
3.79168
3.79136
3.79107
3.79079
3.79052
3.79025
3.78999
3.78974
3.78948
3.78923
3.78898
3.78874
3.78849
3.78826
3.78803
3.78782
3.78762
3.78743
3.78726
3.78711
3.78697
3.78686
3.78676
3.78668
3.78661
3.78657
3.78654
3.78652
3.78652
3.78654
3.78656
3.78659
3.78662
3.78666
3.7867
3.78673
3.78676
3.78678
3.78679
3.80607
3.80608
3.80612
3.80616
3.80623
3.80631
3.80641
3.80652
3.80665
3.8068
3.80696
3.80713
3.80732
3.80752
3.80773
3.80795
3.80818
3.80841
3.80866
3.80891
3.80917
3.80945
3.80972
3.81001
3.8103
3.8106
3.81091
3.81122
3.81152
3.81183
3.81212
3.81241
3.81268
3.81294
3.81318
3.8134
3.81359
3.81375
3.81389
3.81399
3.81405
3.81408
3.81408
3.81403
3.81395
3.81382
3.81365
3.81345
3.8132
3.81291
3.81258
3.8122
3.81179
3.81134
3.81085
3.81032
3.80975
3.80915
3.80852
3.80786
3.80717
3.80645
3.80572
3.80497
3.80421
3.80344
3.80267
3.80191
3.80116
3.80042
3.7997
3.79901
3.79835
3.79772
3.79713
3.79658
3.79606
3.79559
3.79515
3.79474
3.79437
3.79402
3.79369
3.79339
3.7931
3.79282
3.79255
3.79229
3.79203
3.79178
3.79153
3.79128
3.79104
3.79081
3.79058
3.79037
3.79016
3.78997
3.78979
3.78962
3.78947
3.78934
3.78922
3.78912
3.78904
3.78897
3.78892
3.78888
3.78886
3.78885
3.78885
3.78886
3.78888
3.7889
3.78893
3.78895
3.78897
3.78899
3.789
3.78901
3.80815
3.80817
3.8082
3.80824
3.8083
3.80838
3.80847
3.80858
3.8087
3.80884
3.80899
3.80915
3.80932
3.80951
3.80971
3.80991
3.81012
3.81035
3.81058
3.81082
3.81106
3.81131
3.81157
3.81184
3.81211
3.81239
3.81266
3.81294
3.81322
3.81349
3.81376
3.81402
3.81426
3.81449
3.8147
3.81489
3.81506
3.8152
3.81531
3.8154
3.81545
3.81546
3.81544
3.81539
3.8153
3.81517
3.81501
3.8148
3.81456
3.81428
3.81396
3.8136
3.8132
3.81277
3.8123
3.8118
3.81126
3.8107
3.8101
3.80948
3.80883
3.80816
3.80747
3.80677
3.80606
3.80534
3.80462
3.80391
3.8032
3.80251
3.80184
3.80119
3.80056
3.79996
3.7994
3.79887
3.79837
3.7979
3.79747
3.79706
3.79669
3.79634
3.79601
3.79569
3.7954
3.79511
3.79484
3.79458
3.79432
3.79406
3.79382
3.79358
3.79334
3.79312
3.7929
3.79269
3.79249
3.7923
3.79213
3.79197
3.79182
3.79169
3.79158
3.79147
3.79139
3.79132
3.79126
3.79122
3.79119
3.79117
3.79116
3.79116
3.79116
3.79117
3.79119
3.7912
3.79122
3.79123
3.79124
3.79124
3.81022
3.81024
3.81027
3.81031
3.81037
3.81044
3.81052
3.81062
3.81074
3.81086
3.811
3.81115
3.81132
3.81149
3.81167
3.81186
3.81206
3.81227
3.81249
3.81271
3.81294
3.81318
3.81342
3.81366
3.81391
3.81416
3.81442
3.81467
3.81492
3.81517
3.81541
3.81564
3.81586
3.81606
3.81625
3.81641
3.81656
3.81668
3.81677
3.81683
3.81687
3.81688
3.81685
3.81679
3.81669
3.81656
3.8164
3.81619
3.81596
3.81568
3.81538
3.81503
3.81465
3.81424
3.81379
3.81332
3.81281
3.81227
3.81171
3.81112
3.81051
3.80988
3.80924
3.80858
3.80791
3.80724
3.80657
3.8059
3.80524
3.80459
3.80395
3.80334
3.80274
3.80218
3.80164
3.80112
3.80064
3.80019
3.79976
3.79936
3.79898
3.79863
3.7983
3.79798
3.79768
3.7974
3.79712
3.79686
3.7966
3.79635
3.7961
3.79587
3.79564
3.79542
3.7952
3.795
3.79481
3.79463
3.79446
3.7943
3.79416
3.79403
3.79391
3.79381
3.79372
3.79365
3.79359
3.79354
3.7935
3.79347
3.79346
3.79345
3.79344
3.79344
3.79345
3.79346
3.79347
3.79347
3.79348
3.79348
3.81228
3.81229
3.81232
3.81236
3.81241
3.81248
3.81256
3.81265
3.81276
3.81288
3.81301
3.81315
3.8133
3.81346
3.81363
3.81381
3.814
3.81419
3.81439
3.8146
3.81481
3.81503
3.81525
3.81548
3.81571
3.81594
3.81617
3.8164
3.81663
3.81685
3.81707
3.81727
3.81747
3.81765
3.81781
3.81795
3.81808
3.81818
3.81825
3.8183
3.81833
3.81832
3.81828
3.81822
3.81812
3.81799
3.81782
3.81762
3.81739
3.81713
3.81683
3.8165
3.81614
3.81574
3.81532
3.81486
3.81438
3.81387
3.81334
3.81279
3.81221
3.81162
3.81101
3.81039
3.80977
3.80914
3.80851
3.80788
3.80726
3.80664
3.80605
3.80546
3.8049
3.80436
3.80384
3.80335
3.80288
3.80244
3.80202
3.80163
3.80126
3.80091
3.80057
3.80026
3.79996
3.79967
3.79939
3.79913
3.79887
3.79862
3.79838
3.79815
3.79792
3.79771
3.7975
3.7973
3.79711
3.79694
3.79677
3.79662
3.79648
3.79635
3.79623
3.79613
3.79604
3.79596
3.7959
3.79584
3.7958
3.79577
3.79574
3.79573
3.79572
3.79571
3.79571
3.79571
3.79571
3.79572
3.79572
3.79572
3.81432
3.81433
3.81436
3.81439
3.81444
3.81451
3.81458
3.81467
3.81477
3.81488
3.815
3.81513
3.81527
3.81542
3.81558
3.81575
3.81592
3.8161
3.81629
3.81648
3.81668
3.81688
3.81709
3.8173
3.81751
3.81772
3.81793
3.81814
3.81834
3.81854
3.81874
3.81892
3.81909
3.81925
3.81939
3.81951
3.81962
3.8197
3.81976
3.8198
3.81981
3.81979
3.81975
3.81968
3.81958
3.81944
3.81928
3.81908
3.81886
3.8186
3.81831
3.818
3.81765
3.81727
3.81687
3.81644
3.81598
3.8155
3.815
3.81447
3.81393
3.81337
3.8128
3.81222
3.81163
3.81104
3.81044
3.80985
3.80927
3.80869
3.80812
3.80757
3.80704
3.80652
3.80603
3.80555
3.8051
3.80467
3.80426
3.80388
3.80351
3.80316
3.80283
3.80252
3.80222
3.80193
3.80165
3.80139
3.80113
3.80089
3.80065
3.80042
3.8002
3.79999
3.79978
3.79959
3.79941
3.79923
3.79907
3.79892
3.79878
3.79866
3.79854
3.79844
3.79835
3.79827
3.7982
3.79814
3.79809
3.79806
3.79802
3.798
3.79799
3.79797
3.79797
3.79796
3.79796
3.79796
3.79796
3.79796
3.81634
3.81636
3.81638
3.81642
3.81646
3.81652
3.81659
3.81667
3.81677
3.81687
3.81698
3.8171
3.81723
3.81737
3.81752
3.81768
3.81784
3.81801
3.81818
3.81836
3.81854
3.81873
3.81892
3.81911
3.8193
3.8195
3.81969
3.81988
3.82006
3.82024
3.82041
3.82057
3.82073
3.82086
3.82099
3.82109
3.82118
3.82125
3.8213
3.82132
3.82132
3.8213
3.82125
3.82117
3.82106
3.82093
3.82077
3.82058
3.82036
3.82011
3.81983
3.81953
3.81919
3.81883
3.81845
3.81804
3.8176
3.81715
3.81667
3.81617
3.81566
3.81514
3.8146
3.81405
3.8135
3.81294
3.81238
3.81182
3.81127
3.81072
3.81019
3.80967
3.80916
3.80866
3.80819
3.80773
3.8073
3.80688
3.80648
3.8061
3.80574
3.8054
3.80507
3.80476
3.80446
3.80418
3.8039
3.80364
3.80339
3.80314
3.80291
3.80268
3.80247
3.80226
3.80206
3.80187
3.80169
3.80152
3.80136
3.80121
3.80108
3.80095
3.80084
3.80073
3.80064
3.80056
3.80049
3.80043
3.80038
3.80033
3.8003
3.80027
3.80025
3.80023
3.80022
3.80021
3.80021
3.8002
3.8002
3.8002
3.81836
3.81837
3.81839
3.81843
3.81847
3.81853
3.81859
3.81867
3.81875
3.81885
3.81895
3.81907
3.81919
3.81932
3.81945
3.8196
3.81975
3.8199
3.82006
3.82023
3.8204
3.82057
3.82074
3.82092
3.8211
3.82127
3.82145
3.82162
3.82178
3.82194
3.8221
3.82224
3.82237
3.82249
3.8226
3.82269
3.82276
3.82282
3.82285
3.82287
3.82286
3.82283
3.82277
3.82269
3.82258
3.82244
3.82228
3.8221
3.82188
3.82164
3.82137
3.82108
3.82076
3.82042
3.82005
3.81966
3.81925
3.81881
3.81836
3.81789
3.81741
3.81691
3.81641
3.81589
3.81537
3.81484
3.81431
3.81378
3.81326
3.81275
3.81224
3.81174
3.81126
3.81079
3.81033
3.80989
3.80947
3.80907
3.80868
3.80831
3.80796
3.80762
3.8073
3.80699
3.8067
3.80642
3.80614
3.80588
3.80563
3.80539
3.80516
3.80494
3.80472
3.80452
3.80433
3.80414
3.80396
3.8038
3.80364
3.80349
3.80336
3.80324
3.80312
3.80302
3.80292
3.80284
3.80277
3.8027
3.80265
3.8026
3.80256
3.80253
3.80251
3.80248
3.80247
3.80246
3.80245
3.80244
3.80244
3.80244
3.82036
3.82037
3.82039
3.82043
3.82047
3.82052
3.82058
3.82065
3.82073
3.82082
3.82091
3.82102
3.82113
3.82125
3.82138
3.82151
3.82165
3.8218
3.82194
3.8221
3.82225
3.82241
3.82257
3.82273
3.82289
3.82305
3.82321
3.82336
3.82351
3.82366
3.82379
3.82392
3.82403
3.82414
3.82423
3.82431
3.82437
3.82441
3.82443
3.82443
3.82442
3.82438
3.82432
3.82423
3.82412
3.82399
3.82383
3.82364
3.82344
3.8232
3.82294
3.82266
3.82236
3.82203
3.82168
3.8213
3.82091
3.8205
3.82007
3.81963
3.81917
3.8187
3.81822
3.81773
3.81724
3.81674
3.81624
3.81574
3.81525
3.81476
3.81428
3.81381
3.81334
3.81289
3.81246
3.81204
3.81163
3.81124
3.81086
3.8105
3.81016
3.80983
3.80951
3.80921
3.80892
3.80864
3.80837
3.80812
3.80787
3.80763
3.8074
3.80718
3.80697
3.80677
3.80658
3.8064
3.80623
3.80606
3.80591
3.80577
3.80563
3.80551
3.80539
3.80529
3.8052
3.80511
3.80504
3.80497
3.80491
3.80486
3.80482
3.80479
3.80476
3.80473
3.80471
3.8047
3.80469
3.80468
3.80467
3.80467
3.82236
3.82237
3.82239
3.82241
3.82245
3.8225
3.82256
3.82262
3.8227
3.82278
3.82287
3.82297
3.82307
3.82318
3.8233
3.82342
3.82355
3.82368
3.82382
3.82396
3.8241
3.82425
3.8244
3.82454
3.82469
3.82483
3.82497
3.82511
3.82525
3.82537
3.82549
3.82561
3.82571
3.8258
3.82587
3.82594
3.82598
3.82601
3.82603
3.82602
3.826
3.82595
3.82589
3.8258
3.82569
3.82555
3.8254
3.82522
3.82501
3.82479
3.82454
3.82427
3.82397
3.82366
3.82332
3.82297
3.8226
3.8222
3.8218
3.82138
3.82094
3.8205
3.82004
3.81958
3.81911
3.81864
3.81817
3.8177
3.81723
3.81677
3.81631
3.81586
3.81542
3.81499
3.81457
3.81417
3.81377
3.8134
3.81303
3.81268
3.81234
3.81202
3.81171
3.81141
3.81113
3.81085
3.81059
3.81034
3.81009
3.80986
3.80963
3.80942
3.80921
3.80902
3.80883
3.80865
3.80848
3.80832
3.80817
3.80802
3.80789
3.80777
3.80766
3.80755
3.80746
3.80737
3.8073
3.80723
3.80717
3.80712
3.80707
3.80704
3.807
3.80698
3.80695
3.80694
3.80692
3.80691
3.80691
3.8069
3.82434
3.82435
3.82437
3.82439
3.82443
3.82447
3.82453
3.82459
3.82465
3.82473
3.82481
3.8249
3.825
3.8251
3.82521
3.82533
3.82545
3.82557
3.82569
3.82582
3.82595
3.82609
3.82622
3.82635
3.82649
3.82662
3.82674
3.82687
3.82699
3.8271
3.82721
3.8273
3.82739
3.82747
3.82753
3.82758
3.82762
3.82764
3.82764
3.82763
3.8276
3.82755
3.82748
3.82739
3.82727
3.82714
3.82699
3.82681
3.82661
3.82639
3.82615
3.82589
3.82561
3.82531
3.82499
3.82465
3.8243
3.82392
3.82354
3.82314
3.82273
3.8223
3.82187
3.82144
3.82099
3.82055
3.8201
3.81965
3.81921
3.81877
3.81833
3.8179
3.81748
3.81707
3.81667
3.81628
3.8159
3.81554
3.81518
3.81484
3.81452
3.8142
3.8139
3.81361
3.81333
3.81306
3.8128
3.81255
3.81231
3.81208
3.81186
3.81165
3.81144
3.81125
3.81106
3.81089
3.81072
3.81056
3.81041
3.81027
3.81014
3.81002
3.80991
3.80981
3.80971
3.80963
3.80955
3.80948
3.80942
3.80937
3.80932
3.80928
3.80924
3.80921
3.80919
3.80917
3.80916
3.80915
3.80914
3.80913
3.82631
3.82632
3.82634
3.82636
3.8264
3.82644
3.82649
3.82654
3.82661
3.82668
3.82675
3.82684
3.82693
3.82702
3.82712
3.82723
3.82733
3.82745
3.82756
3.82768
3.8278
3.82792
3.82804
3.82816
3.82828
3.8284
3.82852
3.82863
3.82873
3.82883
3.82893
3.82901
3.82908
3.82915
3.8292
3.82924
3.82927
3.82928
3.82928
3.82926
3.82922
3.82916
3.82909
3.829
3.82888
3.82875
3.8286
3.82843
3.82823
3.82802
3.82779
3.82754
3.82727
3.82698
3.82667
3.82635
3.82601
3.82566
3.82529
3.82491
3.82452
3.82412
3.82371
3.8233
3.82288
3.82245
3.82203
3.8216
3.82118
3.82076
3.82034
3.81994
3.81953
3.81914
3.81876
3.81838
3.81802
3.81766
3.81732
3.81699
3.81667
3.81637
3.81607
3.81579
3.81551
3.81525
3.81499
3.81475
3.81451
3.81429
3.81407
3.81386
3.81366
3.81347
3.81329
3.81312
3.81295
3.8128
3.81265
3.81251
3.81239
3.81227
3.81215
3.81205
3.81196
3.81187
3.81179
3.81172
3.81166
3.81161
3.81156
3.81151
3.81148
3.81145
3.81142
3.8114
3.81138
3.81137
3.81136
3.81136
3.82828
3.82829
3.8283
3.82833
3.82836
3.82839
3.82844
3.82849
3.82855
3.82861
3.82869
3.82876
3.82884
3.82893
3.82902
3.82912
3.82922
3.82932
3.82943
3.82954
3.82965
3.82976
3.82987
3.82998
3.83008
3.83019
3.83029
3.83039
3.83048
3.83057
3.83065
3.83073
3.83079
3.83084
3.83088
3.83092
3.83093
3.83094
3.83093
3.8309
3.83086
3.8308
3.83072
3.83062
3.83051
3.83038
3.83023
3.83006
3.82988
3.82967
3.82945
3.8292
3.82894
3.82867
3.82837
3.82806
3.82774
3.8274
3.82705
3.82669
3.82632
3.82594
3.82555
3.82516
3.82476
3.82436
3.82396
3.82355
3.82315
3.82275
3.82235
3.82196
3.82158
3.8212
3.82083
3.82047
3.82012
3.81978
3.81945
3.81913
3.81882
3.81852
3.81823
3.81795
3.81769
3.81743
3.81718
3.81694
3.81671
3.81649
3.81627
3.81607
3.81588
3.81569
3.81551
3.81534
3.81518
3.81503
3.81488
3.81475
3.81462
3.8145
3.81439
3.81429
3.81419
3.81411
3.81403
3.81396
3.81389
3.81384
3.81379
3.81374
3.81371
3.81367
3.81365
3.81362
3.81361
3.81359
3.81359
3.81358
3.83024
3.83024
3.83026
3.83028
3.83031
3.83034
3.83038
3.83043
3.83049
3.83055
3.83061
3.83068
3.83076
3.83084
3.83092
3.83101
3.8311
3.8312
3.83129
3.83139
3.83149
3.83159
3.83169
3.83179
3.83189
3.83198
3.83207
3.83216
3.83224
3.83232
3.83239
3.83245
3.8325
3.83255
3.83258
3.8326
3.83261
3.83261
3.83259
3.83256
3.83251
3.83245
3.83237
3.83227
3.83216
3.83203
3.83188
3.83172
3.83153
3.83133
3.83112
3.83088
3.83064
3.83037
3.83009
3.82979
3.82949
3.82916
3.82883
3.82849
3.82813
3.82777
3.8274
3.82703
3.82665
3.82627
3.82588
3.8255
3.82511
3.82473
3.82436
3.82398
3.82361
3.82325
3.8229
3.82255
3.82222
3.82189
3.82157
3.82126
3.82096
3.82067
3.82039
3.82011
3.81985
3.8196
3.81936
3.81912
3.8189
3.81868
3.81847
3.81827
3.81808