/*--------------------------------*- C++ -*----------------------------------*\
| =========                 |                                                 |
| \\      /  F ield         | OpenFOAM: The Open Source CFD Toolbox           |
|  \\    /   O peration     | Version:  2406                                  |
|   \\  /    A nd           | Website:  www.openfoam.com                      |
|    \\/     M anipulation  |                                                 |
\*---------------------------------------------------------------------------*/
FoamFile
{
    version     2.0;
    format      ascii;
    arch        "LSB;label=32;scalar=64";
    class       volScalarField;
    location    "7.05";
    object      D;
}
// * * * * * * * * * * * * * * * * * * * * * * * * * * * * * * * * * * * * * //

dimensions      [0 2 -1 0 0 0 0];

internalField   nonuniform List<scalar> 
14400
(
6.66903e-05
6.65971e-05
6.64522e-05
6.62994e-05
6.61664e-05
6.60654e-05
6.60003e-05
6.59727e-05
6.59856e-05
6.60445e-05
6.6157e-05
6.63283e-05
6.65514e-05
6.6788e-05
6.69446e-05
6.68818e-05
6.65275e-05
6.60048e-05
6.54373e-05
6.4881e-05
6.43473e-05
6.38306e-05
6.33247e-05
6.28281e-05
6.23455e-05
6.18858e-05
6.14604e-05
6.10809e-05
6.07591e-05
6.05076e-05
6.03418e-05
6.02841e-05
6.03733e-05
6.06864e-05
6.14058e-05
6.31179e-05
6.90998e-05
0.000126722
0.00013824
0.00013824
0.00013824
0.00013824
0.00013824
0.00013824
0.00013824
0.00013824
0.00013824
0.00013824
0.00013824
0.00013824
0.00013824
0.00013824
0.00013824
0.00013824
0.00013824
0.00013824
0.00013824
0.00013824
0.00013824
0.000138239
0.000108844
6.79917e-05
6.30249e-05
6.16364e-05
6.11194e-05
6.0981e-05
6.1069e-05
6.13219e-05
6.17099e-05
6.22147e-05
6.28194e-05
6.35007e-05
6.42239e-05
6.49402e-05
6.55912e-05
6.61201e-05
6.64863e-05
6.66777e-05
6.67142e-05
6.66445e-05
6.65392e-05
6.64876e-05
6.66082e-05
6.70991e-05
6.84459e-05
7.2717e-05
9.62982e-05
0.000138186
0.000110335
7.34336e-05
6.7902e-05
6.60902e-05
6.52631e-05
6.48636e-05
6.46992e-05
6.46795e-05
6.47527e-05
6.48839e-05
6.50461e-05
6.52153e-05
6.53675e-05
6.54785e-05
6.55251e-05
6.54902e-05
6.53694e-05
6.51727e-05
6.49205e-05
6.46377e-05
6.43484e-05
6.40754e-05
6.38407e-05
6.36681e-05
6.35874e-05
6.36414e-05
6.39036e-05
6.45275e-05
6.59309e-05
6.98731e-05
8.9418e-05
0.000138102
6.66197e-05
6.64709e-05
6.62555e-05
6.60419e-05
6.58642e-05
6.5734e-05
6.56527e-05
6.56204e-05
6.56392e-05
6.57155e-05
6.58592e-05
6.60814e-05
6.63845e-05
6.67407e-05
6.70447e-05
6.70723e-05
6.66156e-05
6.5963e-05
6.53043e-05
6.46974e-05
6.41422e-05
6.36234e-05
6.31281e-05
6.26499e-05
6.21902e-05
6.17552e-05
6.13545e-05
6.09989e-05
6.06998e-05
6.04704e-05
6.03272e-05
6.02955e-05
6.042e-05
6.07924e-05
6.16424e-05
6.37545e-05
7.14211e-05
0.00013512
0.00013824
0.00013824
0.00013824
0.00013824
0.00013824
0.00013824
0.00013824
0.00013824
0.00013824
0.00013824
0.00013824
0.00013824
0.00013824
0.00013824
0.00013824
0.00013824
0.00013824
0.00013824
0.00013824
0.00013824
0.00013824
0.00013824
0.000119996
6.8877e-05
6.33106e-05
6.17661e-05
6.11771e-05
6.09941e-05
6.10476e-05
6.12686e-05
6.1623e-05
6.20899e-05
6.26506e-05
6.32815e-05
6.39494e-05
6.46098e-05
6.52105e-05
6.57019e-05
6.60487e-05
6.6241e-05
6.62977e-05
6.62638e-05
6.62057e-05
6.62096e-05
6.63944e-05
6.69672e-05
6.84636e-05
7.34001e-05
0.000105786
0.000138234
0.000123456
7.46778e-05
6.82286e-05
6.61567e-05
6.52129e-05
6.47463e-05
6.45365e-05
6.44828e-05
6.45297e-05
6.46418e-05
6.47924e-05
6.49582e-05
6.51151e-05
6.52366e-05
6.52948e-05
6.52672e-05
6.51469e-05
6.4947e-05
6.46935e-05
6.44149e-05
6.41366e-05
6.38808e-05
6.36688e-05
6.35234e-05
6.34747e-05
6.35675e-05
6.38822e-05
6.4592e-05
6.61988e-05
7.11513e-05
0.000104281
0.000138235
6.66709e-05
6.63623e-05
6.5976e-05
6.56319e-05
6.53662e-05
6.5181e-05
6.50701e-05
6.50288e-05
6.50576e-05
6.51642e-05
6.53638e-05
6.56799e-05
6.61416e-05
6.67657e-05
6.74822e-05
6.78917e-05
6.70096e-05
6.59836e-05
6.51081e-05
6.43917e-05
6.37906e-05
6.3264e-05
6.27843e-05
6.23363e-05
6.19151e-05
6.15227e-05
6.11656e-05
6.08528e-05
6.05955e-05
6.04075e-05
6.03082e-05
6.03282e-05
6.05246e-05
6.10248e-05
6.22037e-05
6.59068e-05
9.08985e-05
0.000138214
0.00013824
0.00013824
0.00013824
0.00013824
0.00013824
0.00013824
0.00013824
0.00013824
0.00013824
0.00013824
0.00013824
0.00013824
0.00013824
0.00013824
0.00013824
0.00013824
0.00013824
0.00013824
0.00013824
0.00013824
0.00013824
0.00013824
0.000134917
7.1733e-05
6.41422e-05
6.20909e-05
6.13154e-05
6.1033e-05
6.1016e-05
6.1175e-05
6.14666e-05
6.18645e-05
6.23471e-05
6.28902e-05
6.34635e-05
6.40292e-05
6.45457e-05
6.49741e-05
6.52881e-05
6.54817e-05
6.55723e-05
6.55999e-05
6.56245e-05
6.5729e-05
6.60363e-05
6.67791e-05
6.85935e-05
7.46386e-05
0.000121662
0.00013824
0.000137071
8.04744e-05
6.93639e-05
6.64125e-05
6.51766e-05
6.45674e-05
6.42696e-05
6.41538e-05
6.4155e-05
6.42353e-05
6.43686e-05
6.45328e-05
6.47038e-05
6.48512e-05
6.49371e-05
6.49248e-05
6.48013e-05
6.45876e-05
6.43234e-05
6.40455e-05
6.37817e-05
6.35533e-05
6.33795e-05
6.32823e-05
6.3293e-05
6.34626e-05
6.38883e-05
6.47957e-05
6.68838e-05
7.36331e-05
0.000126878
0.00013824
6.73813e-05
6.65715e-05
6.5807e-05
6.52312e-05
6.48284e-05
6.45642e-05
6.4412e-05
6.43578e-05
6.43991e-05
6.45451e-05
6.482e-05
6.52702e-05
6.59811e-05
6.71159e-05
6.90025e-05
7.20383e-05
6.83868e-05
6.62838e-05
6.49671e-05
6.40606e-05
6.33824e-05
6.28359e-05
6.23687e-05
6.19528e-05
6.15756e-05
6.12338e-05
6.09305e-05
6.06725e-05
6.04707e-05
6.03403e-05
6.03048e-05
6.04036e-05
6.07151e-05
6.1427e-05
6.31511e-05
6.9165e-05
0.000123261
0.00013824
0.00013824
0.00013824
0.00013824
0.00013824
0.00013824
0.00013824
0.00013824
0.00013824
0.00013824
0.00013824
0.00013824
0.00013824
0.00013824
0.00013824
0.00013824
0.00013824
0.00013824
0.00013824
0.00013824
0.00013824
0.00013824
0.00013824
0.000138234
9.77884e-05
6.67978e-05
6.27665e-05
6.15793e-05
6.11221e-05
6.09945e-05
6.10637e-05
6.12696e-05
6.15777e-05
6.19623e-05
6.2399e-05
6.28606e-05
6.33172e-05
6.37376e-05
6.40948e-05
6.43718e-05
6.45671e-05
6.46974e-05
6.47983e-05
6.49255e-05
6.51621e-05
6.56484e-05
6.6691e-05
6.92752e-05
7.86825e-05
0.000136246
0.00013824
0.00013824
0.000114922
7.27781e-05
6.71127e-05
6.52733e-05
6.44236e-05
6.39945e-05
6.37938e-05
6.37371e-05
6.37809e-05
6.38991e-05
6.40717e-05
6.42759e-05
6.44768e-05
6.46203e-05
6.46363e-05
6.44952e-05
6.42391e-05
6.39389e-05
6.36454e-05
6.33884e-05
6.3187e-05
6.30579e-05
6.30227e-05
6.31168e-05
6.34052e-05
6.40254e-05
6.53596e-05
6.91518e-05
9.12991e-05
0.000138182
0.00013824
7.12652e-05
6.77732e-05
6.6023e-05
6.50192e-05
6.44047e-05
6.403e-05
6.38223e-05
6.37504e-05
6.38064e-05
6.40027e-05
6.43781e-05
6.50208e-05
6.61376e-05
6.83507e-05
7.47472e-05
0.000112837
7.35342e-05
6.73049e-05
6.50371e-05
6.3811e-05
6.30109e-05
6.24239e-05
6.19575e-05
6.15666e-05
6.12297e-05
6.09382e-05
6.06912e-05
6.0494e-05
6.03573e-05
6.0299e-05
6.03494e-05
6.0564e-05
6.10627e-05
6.21886e-05
6.55772e-05
8.72238e-05
0.000138192
0.00013824
0.00013824
0.00013824
0.00013824
0.00013824
0.00013824
0.00013824
0.00013824
0.00013824
0.00013824
0.00013824
0.00013824
0.00013824
0.00013824
0.00013824
0.00013824
0.00013824
0.00013824
0.00013824
0.00013824
0.00013824
0.00013824
0.00013824
0.00013824
0.00013043
7.06122e-05
6.39094e-05
6.20409e-05
6.13033e-05
6.10148e-05
6.09658e-05
6.1068e-05
6.12744e-05
6.1554e-05
6.18813e-05
6.22325e-05
6.25841e-05
6.29144e-05
6.32059e-05
6.34497e-05
6.36485e-05
6.38193e-05
6.39964e-05
6.42355e-05
6.46292e-05
6.53579e-05
6.69126e-05
7.1758e-05
0.000107113
0.000138237
0.00013824
0.00013824
0.000137827
8.31864e-05
6.89041e-05
6.57198e-05
6.44538e-05
6.38295e-05
6.35156e-05
6.33896e-05
6.33964e-05
6.35089e-05
6.37104e-05
6.39842e-05
6.42962e-05
6.45711e-05
6.46496e-05
6.44476e-05
6.40744e-05
6.36805e-05
6.33355e-05
6.30649e-05
6.28808e-05
6.27969e-05
6.28354e-05
6.30419e-05
6.35138e-05
6.44769e-05
6.66464e-05
7.38641e-05
0.000131481
0.00013824
0.00013824
0.000104932
7.26987e-05
6.71856e-05
6.52292e-05
6.42458e-05
6.37019e-05
6.34131e-05
6.3315e-05
6.33906e-05
6.36585e-05
6.41857e-05
6.51533e-05
6.71097e-05
7.28713e-05
0.000114059
0.000138235
0.000102985
7.04193e-05
6.55522e-05
6.37587e-05
6.27637e-05
6.21022e-05
6.16158e-05
6.12356e-05
6.0929e-05
6.06817e-05
6.04894e-05
6.03559e-05
6.02931e-05
6.03241e-05
6.04931e-05
6.08881e-05
6.17188e-05
6.36765e-05
7.06298e-05
0.000132692
0.00013824
0.00013824
0.00013824
0.00013824
0.00013824
0.00013824
0.00013824
0.00013824
0.00013824
0.00013824
0.00013824
0.00013824
0.00013824
0.00013824
0.00013824
0.00013824
0.00013824
0.00013824
0.00013824
0.00013824
0.00013824
0.00013824
0.00013824
0.00013824
0.00013824
0.000138238
0.000103511
6.74456e-05
6.29899e-05
6.16658e-05
6.11259e-05
6.0921e-05
6.09015e-05
6.09987e-05
6.1173e-05
6.13967e-05
6.16479e-05
6.19083e-05
6.21628e-05
6.24012e-05
6.26203e-05
6.28265e-05
6.30387e-05
6.32935e-05
6.36547e-05
6.4241e-05
6.53139e-05
6.76648e-05
7.54358e-05
0.000133883
0.00013824
0.00013824
0.00013824
0.00013824
0.000131575
7.43221e-05
6.70936e-05
6.49052e-05
6.39336e-05
6.34458e-05
6.32269e-05
6.31944e-05
6.3318e-05
6.35868e-05
6.40065e-05
6.45719e-05
6.52311e-05
6.55171e-05
6.50762e-05
6.43417e-05
6.37129e-05
6.32428e-05
6.2919e-05
6.27334e-05
6.26946e-05
6.28272e-05
6.32013e-05
6.40131e-05
6.58317e-05
7.16019e-05
0.000115463
0.00013824
0.00013824
0.00013824
0.000138235
0.000106049
7.18006e-05
6.64135e-05
6.45793e-05
6.37243e-05
6.32952e-05
6.31531e-05
6.32594e-05
6.36486e-05
6.44574e-05
6.61517e-05
7.08328e-05
9.7752e-05
0.000138224
0.00013824
0.000136974
7.73052e-05
6.69294e-05
6.40804e-05
6.27443e-05
6.19434e-05
6.14018e-05
6.10095e-05
6.07186e-05
6.05068e-05
6.03665e-05
6.0301e-05
6.03258e-05
6.04755e-05
6.08268e-05
6.15606e-05
6.32371e-05
6.88987e-05
0.000118304
0.00013824
0.00013824
0.00013824
0.00013824
0.00013824
0.00013824
0.00013824
0.00013824
0.00013824
0.00013824
0.00013824
0.00013824
0.00013824
0.00013824
0.00013824
0.00013824
0.00013824
0.00013824
0.00013824
0.00013824
0.00013824
0.00013824
0.00013824
0.00013824
0.00013824
0.00013824
0.00013824
0.000137707
7.70206e-05
6.49446e-05
6.23649e-05
6.14073e-05
6.09831e-05
6.08147e-05
6.07926e-05
6.08614e-05
6.09885e-05
6.11519e-05
6.13361e-05
6.15305e-05
6.17298e-05
6.1935e-05
6.21556e-05
6.24143e-05
6.2755e-05
6.32627e-05
6.41224e-05
6.58705e-05
7.11669e-05
0.000111287
0.000138239
0.00013824
0.00013824
0.00013824
0.00013824
0.00013824
0.000122205
7.28362e-05
6.64995e-05
6.46253e-05
6.37848e-05
6.34059e-05
6.33186e-05
6.34868e-05
6.39074e-05
6.46733e-05
6.59566e-05
6.84658e-05
7.01773e-05
6.80562e-05
6.56532e-05
6.43315e-05
6.35584e-05
6.3097e-05
6.28723e-05
6.28871e-05
6.31679e-05
6.38435e-05
6.54887e-05
7.06288e-05
0.000103567
0.000138237
0.00013824
0.00013824
0.00013824
0.00013824
0.000138233
0.000102666
7.12858e-05
6.60477e-05
6.4413e-05
6.36644e-05
6.34332e-05
6.35989e-05
6.42503e-05
6.57745e-05
7.01823e-05
9.13417e-05
0.000138172
0.00013824
0.00013824
0.00013824
0.000127476
7.21367e-05
6.53495e-05
6.31537e-05
6.20506e-05
6.13853e-05
6.09433e-05
6.06468e-05
6.04605e-05
6.03721e-05
6.03869e-05
6.05291e-05
6.08595e-05
6.15456e-05
6.31126e-05
6.81795e-05
0.000105927
0.000138239
0.00013824
0.00013824
0.00013824
0.00013824
0.00013824
0.00013824
0.00013824
0.00013824
0.00013824
0.00013824
0.00013824
0.00013824
0.00013824
0.00013824
0.00013824
0.00013824
0.00013824
0.00013824
0.00013824
0.00013824
0.00013824
0.00013824
0.00013824
0.00013824
0.00013824
0.00013824
0.00013824
0.00013824
0.000131752
7.06445e-05
6.39342e-05
6.20449e-05
6.12457e-05
6.08684e-05
6.07023e-05
6.06578e-05
6.06904e-05
6.07742e-05
6.0894e-05
6.10419e-05
6.12155e-05
6.1419e-05
6.16657e-05
6.19847e-05
6.24351e-05
6.31448e-05
6.44431e-05
6.76535e-05
8.2977e-05
0.000137958
0.00013824
0.00013824
0.00013824
0.00013824
0.00013824
0.00013824
0.00013824
0.000120821
7.29157e-05
6.70006e-05
6.50689e-05
6.42882e-05
6.40738e-05
6.43955e-05
6.52331e-05
6.71778e-05
7.17128e-05
9.10237e-05
0.000113247
8.73836e-05
7.10726e-05
6.64982e-05
6.47946e-05
6.3931e-05
6.35532e-05
6.36718e-05
6.43077e-05
6.57194e-05
7.09647e-05
0.0001039
0.000138234
0.00013824
0.00013824
0.00013824
0.00013824
0.00013824
0.00013824
0.000138235
0.000109362
7.21492e-05
6.70675e-05
6.51196e-05
6.46542e-05
6.49706e-05
6.64682e-05
7.12631e-05
9.83136e-05
0.000138177
0.00013824
0.00013824
0.00013824
0.00013824
0.00013824
0.000114808
7.05333e-05
6.45892e-05
6.26436e-05
6.16952e-05
6.11249e-05
6.07876e-05
6.06152e-05
6.05864e-05
6.07161e-05
6.10556e-05
6.17311e-05
6.32575e-05
6.83049e-05
0.000103079
0.000138238
0.00013824
0.00013824
0.00013824
0.00013824
0.00013824
0.00013824
0.00013824
0.00013824
0.00013824
0.00013824
0.00013824
0.00013824
0.00013824
0.00013824
0.00013824
0.00013824
0.00013824
0.00013824
0.00013824
0.00013824
0.00013824
0.00013824
0.00013824
0.00013824
0.00013824
0.00013824
0.00013824
0.00013824
0.00013824
0.00013824
0.000122019
6.96052e-05
6.3647e-05
6.1916e-05
6.11684e-05
6.07957e-05
6.06097e-05
6.05378e-05
6.05419e-05
6.06033e-05
6.07144e-05
6.08752e-05
6.10931e-05
6.13864e-05
6.1797e-05
6.24171e-05
6.34795e-05
6.57051e-05
7.30191e-05
0.000132919
0.00013824
0.00013824
0.00013824
0.00013824
0.00013824
0.00013824
0.00013824
0.00013824
0.00013824
0.000129678
7.84788e-05
7.01166e-05
6.7394e-05
6.65279e-05
6.77417e-05
7.05475e-05
8.0265e-05
0.000124815
0.000138194
0.00013824
0.000138142
0.000120932
7.61994e-05
6.96946e-05
6.677e-05
6.55788e-05
6.61307e-05
6.85887e-05
7.29274e-05
0.000117416
0.000138237
0.00013824
0.00013824
0.00013824
0.00013824
0.00013824
0.00013824
0.00013824
0.00013824
0.000138239
0.000126548
8.20432e-05
7.09094e-05
6.95637e-05
7.04808e-05
7.68753e-05
0.000119931
0.00013823
0.00013824
0.00013824
0.00013824
0.00013824
0.00013824
0.00013824
0.00013824
0.000111069
7.01761e-05
6.44284e-05
6.26962e-05
6.17576e-05
6.13016e-05
6.11266e-05
6.1185e-05
6.15377e-05
6.23664e-05
6.40211e-05
6.93361e-05
0.000110401
0.000138238
0.00013824
0.00013824
0.00013824
0.00013824
0.00013824
0.00013824
0.00013824
0.00013824
0.00013824
0.00013824
0.00013824
0.00013824
0.00013824
0.00013824
0.00013824
0.00013824
0.00013824
0.00013824
0.00013824
0.00013824
0.00013824
0.00013824
0.00013824
0.00013824
0.00013824
0.00013824
0.00013824
0.00013824
0.00013824
0.00013824
0.00013824
0.00013824
0.000117049
6.93905e-05
6.36328e-05
6.19643e-05
6.12098e-05
6.07998e-05
6.05875e-05
6.04958e-05
6.0495e-05
6.05752e-05
6.07379e-05
6.09956e-05
6.13761e-05
6.19525e-05
6.29048e-05
6.48843e-05
7.12281e-05
0.000123296
0.00013824
0.00013824
0.00013824
0.00013824
0.00013824
0.00013824
0.00013824
0.00013824
0.00013824
0.00013824
0.00013824
0.000137511
0.00011341
8.48153e-05
7.67607e-05
8.83368e-05
0.000117342
0.000137774
0.00013824
0.00013824
0.00013824
0.00013824
0.00013824
0.000136918
0.000112097
8.17913e-05
7.30277e-05
7.70605e-05
0.000102831
0.000133549
0.00013824
0.00013824
0.00013824
0.00013824
0.00013824
0.00013824
0.00013824
0.00013824
0.00013824
0.00013824
0.00013824
0.00013824
0.000137962
0.00012433
0.000111663
0.000121302
0.000137221
0.00013824
0.00013824
0.00013824
0.00013824
0.00013824
0.00013824
0.00013824
0.00013824
0.00013824
0.00013824
0.000119524
7.13591e-05
6.62369e-05
6.35083e-05
6.26929e-05
6.24818e-05
6.27219e-05
6.37422e-05
6.70019e-05
7.37592e-05
0.000126045
0.00013824
0.00013824
0.00013824
0.00013824
0.00013824
0.00013824
0.00013824
0.00013824
0.00013824
0.00013824
0.00013824
0.00013824
0.00013824
0.00013824
0.00013824
0.00013824
0.00013824
0.00013824
0.00013824
0.00013824
0.00013824
0.00013824
0.00013824
0.00013824
0.00013824
0.00013824
0.00013824
0.00013824
0.00013824
0.00013824
0.00013824
0.00013824
0.00013824
0.00013824
0.00013824
0.000120032
6.99548e-05
6.41629e-05
6.23493e-05
6.14239e-05
6.09658e-05
6.07219e-05
6.06353e-05
6.06849e-05
6.08722e-05
6.12242e-05
6.17898e-05
6.27447e-05
6.45721e-05
7.06199e-05
0.000118041
0.00013824
0.00013824
0.00013824
0.00013824
0.00013824
0.00013824
0.00013824
0.00013824
0.00013824
0.00013824
0.00013824
0.00013824
0.00013824
0.00013824
0.00013806
0.000137011
0.000138155
0.00013824
0.00013824
0.00013824
0.00013824
0.00013824
0.00013824
0.00013824
0.00013824
0.00013824
0.000137928
0.000134596
0.000137279
0.000138237
0.00013824
0.00013824
0.00013824
0.00013824
0.00013824
0.00013824
0.00013824
0.00013824
0.00013824
0.00013824
0.00013824
0.00013824
0.00013824
0.00013824
0.00013824
0.00013824
0.00013824
0.00013824
0.00013824
0.00013824
0.00013824
0.00013824
0.00013824
0.00013824
0.00013824
0.00013824
0.00013824
0.00013824
0.00013824
0.000132869
9.21267e-05
6.99416e-05
6.77645e-05
6.73807e-05
6.82772e-05
7.26846e-05
0.000108466
0.000137148
0.00013824
0.00013824
0.00013824
0.00013824
0.00013824
0.00013824
0.00013824
0.00013824
0.00013824
0.00013824
0.00013824
0.00013824
0.00013824
0.00013824
0.00013824
0.00013824
0.00013824
0.00013824
0.00013824
0.00013824
0.00013824
0.00013824
0.00013824
0.00013824
0.00013824
0.00013824
0.00013824
0.00013824
0.00013824
0.00013824
0.00013824
0.00013824
0.00013824
0.00013824
0.00013824
0.00013824
0.00013824
0.000129614
7.36261e-05
6.63369e-05
6.31289e-05
6.20618e-05
6.14494e-05
6.11931e-05
6.12012e-05
6.14622e-05
6.20743e-05
6.31547e-05
6.5496e-05
7.12452e-05
0.000122173
0.00013824
0.00013824
0.00013824
0.00013824
0.00013824
0.00013824
0.00013824
0.00013824
0.00013824
0.00013824
0.00013824
0.00013824
0.00013824
0.00013824
0.00013824
0.00013824
0.00013824
0.00013824
0.00013824
0.00013824
0.00013824
0.00013824
0.00013824
0.00013824
0.00013824
0.00013824
0.00013824
0.00013824
0.00013824
0.00013824
0.00013824
0.00013824
0.00013824
0.00013824
0.00013824
0.00013824
0.00013824
0.00013824
0.00013824
0.00013824
0.00013824
0.00013824
0.00013824
0.00013824
0.00013824
0.00013824
0.00013824
0.00013824
0.00013824
0.00013824
0.00013824
0.00013824
0.00013824
0.00013824
0.00013824
0.00013824
0.00013824
0.00013824
0.00013824
0.00013824
0.00013824
0.000138221
0.000130126
0.000113072
0.000109647
0.000121549
0.000136687
0.00013824
0.00013824
0.00013824
0.00013824
0.00013824
0.00013824
0.00013824
0.00013824
0.00013824
0.00013824
0.00013824
0.00013824
0.00013824
0.00013824
0.00013824
0.00013824
0.00013824
0.00013824
0.00013824
0.00013824
0.00013824
0.00013824
0.00013824
0.00013824
0.00013824
0.00013824
0.00013824
0.00013824
0.00013824
0.00013824
0.00013824
0.00013824
0.00013824
0.00013824
0.00013824
0.00013824
0.00013824
0.00013824
0.00013824
0.00013824
0.000137087
9.83618e-05
6.94625e-05
6.59597e-05
6.35169e-05
6.2734e-05
6.2656e-05
6.3136e-05
6.48808e-05
6.84251e-05
8.14409e-05
0.000132308
0.00013824
0.00013824
0.00013824
0.00013824
0.00013824
0.00013824
0.00013824
0.00013824
0.00013824
0.00013824
0.00013824
0.00013824
0.00013824
0.00013824
0.00013824
0.00013824
0.00013824
0.00013824
0.00013824
0.00013824
0.00013824
0.00013824
0.00013824
0.00013824
0.00013824
0.00013824
0.00013824
0.00013824
0.00013824
0.00013824
0.00013824
0.00013824
0.00013824
0.00013824
0.00013824
0.00013824
0.00013824
0.00013824
0.00013824
0.00013824
0.00013824
0.00013824
0.00013824
0.00013824
0.00013824
0.00013824
0.00013824
0.00013824
0.00013824
0.00013824
0.00013824
0.00013824
0.00013824
0.00013824
0.00013824
0.00013824
0.00013824
0.00013824
0.00013824
0.00013824
0.00013824
0.00013824
0.00013824
0.00013824
0.00013824
0.00013824
0.00013824
0.00013824
0.00013824
0.00013824
0.00013824
0.00013824
0.00013824
0.00013824
0.00013824
0.00013824
0.00013824
0.00013824
0.00013824
0.00013824
0.00013824
0.00013824
0.00013824
0.00013824
0.00013824
0.00013824
0.00013824
0.00013824
0.00013824
0.00013824
0.00013824
0.00013824
0.00013824
0.00013824
0.00013824
0.00013824
0.00013824
0.00013824
0.00013824
0.00013824
0.00013824
0.00013824
0.00013824
0.00013824
0.00013824
0.00013824
0.00013824
0.00013824
0.00013824
0.000138236
0.000128469
9.66445e-05
7.18586e-05
6.84938e-05
6.81608e-05
6.93537e-05
8.07508e-05
0.000116812
0.000138053
0.00013824
0.00013824
0.00013824
0.00013824
0.00013824
0.00013824
0.00013824
0.00013824
0.00013824
0.00013824
0.00013824
0.00013824
0.00013824
0.00013824
0.00013824
0.00013824
0.00013824
0.00013824
0.00013824
0.00013824
0.00013824
0.00013824
0.00013824
0.00013824
0.00013824
0.00013824
0.00013824
0.00013824
0.00013824
0.00013824
0.00013824
0.00013824
0.00013824
0.00013824
0.00013824
0.00013824
0.00013824
0.00013824
0.00013824
0.00013824
0.00013824
0.00013824
0.00013824
0.00013824
0.00013824
0.00013824
0.00013824
0.00013824
0.00013824
0.00013824
0.00013824
0.00013824
0.00013824
0.00013824
0.00013824
0.00013824
0.00013824
0.00013824
0.00013824
0.00013824
0.00013824
0.00013824
0.00013824
0.00013824
0.00013824
0.00013824
0.00013824
0.00013824
0.00013824
0.00013824
0.00013824
0.00013824
0.00013824
0.00013824
0.00013824
0.00013824
0.00013824
0.00013824
0.00013824
0.00013824
0.00013824
0.00013824
0.00013824
0.00013824
0.00013824
0.00013824
0.00013824
0.00013824
0.00013824
0.00013824
0.00013824
0.00013824
0.00013824
0.00013824
0.00013824
0.00013824
0.00013824
0.00013824
0.00013824
0.00013824
0.00013824
0.00013824
0.00013824
0.00013824
0.00013824
0.00013824
0.00013824
0.00013824
0.00013824
0.00013824
0.00013824
0.00013824
0.000138233
0.00013629
0.000126529
0.000122883
0.000130578
0.000138038
0.00013824
0.00013824
0.00013824
0.00013824
0.00013824
0.00013824
0.00013824
0.00013824
0.00013824
0.00013824
0.00013824
0.00013824
0.00013824
0.00013824
0.00013824
0.00013824
0.00013824
0.00013824
0.00013824
0.00013824
0.00013824
0.00013824
0.00013824
0.00013824
0.00013824
0.00013824
0.00013824
0.00013824
0.00013824
0.00013824
0.00013824
0.00013824
0.00013824
0.00013824
0.00013824
0.00013824
0.00013824
0.00013824
0.00013824
0.00013824
0.00013824
0.00013824
0.00013824
0.00013824
0.00013824
0.00013824
0.00013824
0.00013824
0.00013824
0.00013824
0.00013824
0.00013824
0.00013824
0.00013824
0.00013824
0.00013824
0.00013824
0.00013824
0.00013824
0.00013824
0.00013824
0.00013824
0.00013824
0.00013824
0.00013824
0.00013824
0.00013824
0.00013824
0.00013824
0.00013824
0.00013824
0.00013824
0.00013824
0.00013824
0.00013824
0.00013824
0.00013824
0.00013824
0.00013824
0.00013824
0.00013824
0.00013824
0.00013824
0.00013824
0.00013824
0.00013824
0.00013824
0.00013824
0.00013824
0.00013824
0.00013824
0.00013824
0.00013824
0.00013824
0.00013824
0.00013824
0.00013824
0.00013824
0.00013824
0.00013824
0.00013824
0.00013824
0.00013824
0.00013824
0.00013824
0.00013824
0.00013824
0.00013824
0.00013824
0.00013824
0.00013824
0.00013824
0.00013824
0.00013824
0.00013824
0.00013824
0.00013824
0.00013824
0.00013824
0.00013824
0.00013824
0.00013824
0.00013824
0.00013824
0.00013824
0.00013824
0.00013824
0.00013824
0.00013824
0.00013824
0.00013824
0.00013824
0.00013824
0.00013824
0.00013824
0.00013824
0.00013824
0.00013824
0.00013824
0.00013824
0.00013824
0.00013824
0.00013824
0.00013824
0.00013824
0.00013824
0.00013824
0.00013824
0.00013824
0.00013824
0.00013824
0.00013824
0.00013824
0.00013824
0.00013824
0.00013824
0.00013824
0.00013824
0.00013824
0.00013824
0.00013824
0.00013824
0.00013824
0.00013824
0.00013824
0.00013824
0.00013824
0.00013824
0.00013824
0.00013824
0.00013824
0.00013824
0.00013824
0.00013824
0.00013824
0.00013824
0.00013824
0.00013824
0.00013824
0.00013824
0.00013824
0.00013824
0.00013824
0.00013824
0.00013824
0.00013824
0.00013824
0.00013824
0.00013824
0.00013824
0.00013824
0.00013824
0.00013824
0.00013824
0.00013824
0.00013824
0.00013824
0.00013824
0.00013824
0.00013824
0.00013824
0.00013824
0.00013824
0.00013824
0.00013824
0.00013824
0.00013824
0.00013824
0.00013824
0.00013824
0.00013824
0.00013824
0.00013824
0.00013824
0.00013824
0.00013824
0.00013824
0.00013824
0.00013824
0.00013824
0.00013824
0.00013824
0.00013824
0.00013824
0.00013824
0.00013824
0.00013824
0.00013824
0.00013824
0.00013824
0.00013824
0.00013824
0.00013824
0.00013824
0.00013824
0.00013824
0.00013824
0.00013824
0.00013824
0.00013824
0.00013824
0.00013824
0.00013824
0.00013824
0.00013824
0.00013824
0.00013824
0.00013824
0.00013824
0.00013824
0.00013824
0.00013824
0.00013824
0.00013824
0.00013824
0.00013824
0.00013824
0.00013824
0.00013824
0.00013824
0.00013824
0.00013824
0.00013824
0.00013824
0.00013824
0.00013824
0.00013824
0.00013824
0.00013824
0.00013824
0.00013824
0.00013824
0.00013824
0.00013824
0.00013824
0.00013824
0.00013824
0.00013824
0.00013824
0.00013824
0.00013824
0.00013824
0.00013824
0.00013824
0.00013824
0.00013824
0.00013824
0.00013824
0.00013824
0.00013824
0.00013824
0.00013824
0.00013824
0.00013824
0.00013824
0.00013824
0.00013824
0.00013824
0.00013824
0.00013824
0.00013824
0.00013824
0.00013824
0.00013824
0.00013824
0.00013824
0.00013824
0.00013824
0.00013824
0.00013824
0.00013824
0.00013824
0.00013824
0.00013824
0.00013824
0.00013824
0.00013824
0.00013824
0.00013824
0.00013824
0.00013824
0.00013824
0.00013824
0.00013824
0.00013824
0.00013824
0.00013824
0.00013824
0.00013824
0.00013824
0.00013824
0.00013824
0.00013824
0.00013824
0.00013824
0.00013824
0.00013824
0.00013824
0.00013824
0.00013824
0.00013824
0.00013824
0.00013824
0.00013824
0.00013824
0.00013824
0.00013824
0.00013824
0.00013824
0.00013824
0.00013824
0.00013824
0.00013824
0.00013824
0.00013824
0.00013824
0.00013824
0.00013824
0.00013824
0.00013824
0.00013824
0.00013824
0.00013824
0.00013824
0.00013824
0.00013824
0.00013824
0.00013824
0.00013824
0.00013824
0.00013824
0.00013824
0.00013824
0.00013824
0.00013824
0.00013824
0.00013824
0.00013824
0.00013824
0.00013824
0.00013824
0.00013824
0.00013824
0.00013824
0.00013824
0.00013824
0.00013824
0.00013824
0.00013824
0.00013824
0.00013824
0.00013824
0.00013824
0.00013824
0.00013824
0.00013824
0.00013824
0.00013824
0.00013824
0.00013824
0.00013824
0.00013824
0.00013824
0.00013824
0.00013824
0.00013824
0.00013824
0.00013824
0.00013824
0.00013824
0.00013824
0.00013824
0.00013824
0.00013824
0.00013824
0.00013824
0.00013824
0.00013824
0.00013824
0.00013824
0.00013824
0.00013824
0.00013824
0.00013824
0.00013824
0.00013824
0.00013824
0.00013824
0.00013824
0.00013824
0.00013824
0.00013824
0.00013824
0.00013824
0.00013824
0.00013824
0.00013824
0.00013824
0.00013824
0.00013824
0.00013824
0.00013824
0.00013824
0.00013824
0.00013824
0.00013824
0.00013824
0.00013824
0.00013824
0.00013824
0.00013824
0.00013824
0.00013824
0.00013824
0.00013824
0.00013824
0.00013824
0.00013824
0.00013824
0.00013824
0.00013824
0.00013824
0.00013824
0.00013824
0.00013824
0.00013824
0.00013824
0.00013824
0.00013824
0.00013824
0.00013824
0.00013824
0.00013824
0.00013824
0.00013824
0.00013824
0.00013824
0.00013824
0.00013824
0.00013824
0.00013824
0.00013824
0.00013824
0.00013824
0.00013824
0.00013824
0.00013824
0.00013824
0.00013824
0.00013824
0.00013824
0.00013824
0.00013824
0.00013824
0.00013824
0.00013824
0.00013824
0.00013824
0.00013824
0.00013824
0.00013824
0.00013824
0.00013824
0.00013824
0.00013824
0.00013824
0.00013824
0.00013824
0.00013824
0.00013824
0.00013824
0.00013824
0.00013824
0.00013824
0.00013824
0.00013824
0.00013824
0.00013824
0.00013824
0.00013824
0.00013824
0.00013824
0.00013824
0.00013824
0.00013824
0.00013824
0.00013824
0.00013824
0.00013824
0.00013824
0.00013824
0.00013824
0.00013824
0.00013824
0.00013824
0.00013824
0.00013824
0.00013824
0.00013824
0.00013824
0.00013824
0.00013824
0.00013824
0.00013824
0.00013824
0.00013824
0.00013824
0.00013824
0.00013824
0.00013824
0.00013824
0.00013824
0.00013824
0.00013824
0.00013824
0.00013824
0.00013824
0.00013824
0.00013824
0.00013824
0.00013824
0.00013824
0.00013824
0.00013824
0.00013824
0.00013824
0.00013824
0.00013824
0.00013824
0.00013824
0.00013824
0.00013824
0.00013824
0.00013824
0.00013824
0.00013824
0.00013824
0.00013824
0.00013824
0.00013824
0.00013824
0.00013824
0.00013824
0.00013824
0.00013824
0.00013824
0.00013824
0.00013824
0.00013824
0.00013824
0.00013824
0.00013824
0.00013824
0.00013824
0.00013824
0.00013824
0.00013824
0.00013824
0.00013824
0.00013824
0.00013824
0.00013824
0.00013824
0.00013824
0.00013824
0.00013824
0.00013824
0.00013824
0.00013824
0.00013824
0.00013824
0.00013824
0.00013824
0.00013824
0.00013824
0.00013824
0.00013824
0.00013824
0.00013824
0.00013824
0.00013824
0.00013824
0.00013824
0.00013824
0.00013824
0.00013824
0.00013824
0.00013824
0.00013824
0.00013824
0.00013824
0.00013824
0.00013824
0.00013824
0.00013824
0.00013824
0.00013824
0.00013824
0.00013824
0.00013824
0.00013824
0.00013824
0.00013824
0.00013824
0.00013824
0.00013824
0.00013824
0.00013824
0.00013824
0.00013824
0.00013824
0.00013824
0.00013824
0.00013824
0.00013824
0.00013824
0.00013824
0.00013824
0.00013824
0.00013824
0.00013824
0.00013824
0.00013824
0.00013824
0.00013824
0.00013824
0.00013824
0.00013824
0.00013824
0.00013824
0.00013824
0.00013824
0.00013824
0.00013824
0.00013824
0.00013824
0.00013824
0.00013824
0.00013824
0.00013824
0.00013824
0.00013824
0.00013824
0.00013824
0.00013824
0.00013824
0.00013824
0.00013824
0.00013824
0.00013824
0.00013824
0.00013824
0.00013824
0.00013824
0.00013824
0.00013824
0.00013824
0.00013824
0.00013824
0.00013824
0.00013824
0.00013824
0.00013824
0.00013824
0.00013824
0.00013824
0.00013824
0.00013824
0.00013824
0.00013824
0.00013824
0.00013824
0.00013824
0.00013824
0.00013824
0.00013824
0.00013824
0.00013824
0.00013824
0.00013824
0.00013824
0.00013824
0.00013824
0.00013824
0.00013824
0.00013824
0.00013824
0.00013824
0.00013824
0.00013824
0.00013824
0.00013824
0.00013824
0.00013824
0.00013824
0.00013824
0.00013824
0.00013824
0.00013824
0.00013824
0.00013824
0.00013824
0.00013824
0.00013824
0.00013824
0.00013824
0.00013824
0.00013824
0.00013824
0.00013824
0.00013824
0.00013824
0.00013824
0.00013824
0.00013824
0.00013824
0.00013824
0.00013824
0.00013824
0.00013824
0.00013824
0.00013824
0.00013824
0.00013824
0.00013824
0.00013824
0.00013824
0.00013824
0.00013824
0.00013824
0.00013824
0.00013824
0.00013824
0.00013824
0.00013824
0.00013824
0.00013824
0.00013824
0.00013824
0.00013824
0.00013824
0.00013824
0.00013824
0.00013824
0.00013824
0.00013824
0.00013824
0.00013824
0.00013824
0.00013824
0.00013824
0.00013824
0.00013824
0.00013824
0.00013824
0.00013824
0.00013824
0.00013824
0.00013824
0.00013824
0.00013824
0.00013824
0.00013824
0.00013824
0.00013824
0.00013824
0.00013824
0.00013824
0.00013824
0.00013824