/*--------------------------------*- C++ -*----------------------------------*\
| =========                 |                                                 |
| \\      /  F ield         | OpenFOAM: The Open Source CFD Toolbox           |
|  \\    /   O peration     | Version:  2406                                  |
|   \\  /    A nd           | Website:  www.openfoam.com                      |
|    \\/     M anipulation  |                                                 |
\*---------------------------------------------------------------------------*/
FoamFile
{
    version     2.0;
    format      ascii;
    arch        "LSB;label=32;scalar=64";
    class       volScalarField;
    location    "7.05";
    object      Da;
}
// * * * * * * * * * * * * * * * * * * * * * * * * * * * * * * * * * * * * * //

dimensions      [0 2 -1 0 0 0 0];

internalField   nonuniform List<scalar> 
14400
(
4.63851e-05
4.6344e-05
4.62801e-05
4.62127e-05
4.61541e-05
4.61095e-05
4.60809e-05
4.60687e-05
4.60744e-05
4.61004e-05
4.615e-05
4.62255e-05
4.63239e-05
4.64282e-05
4.64972e-05
4.64695e-05
4.63131e-05
4.60825e-05
4.58319e-05
4.55861e-05
4.53501e-05
4.51215e-05
4.48974e-05
4.46774e-05
4.44634e-05
4.42595e-05
4.40707e-05
4.39023e-05
4.37594e-05
4.36476e-05
4.35737e-05
4.35476e-05
4.35863e-05
4.37238e-05
4.40403e-05
4.4794e-05
4.7429e-05
7.27919e-05
7.8e-05
7.8e-05
7.8e-05
7.8e-05
7.8e-05
7.8e-05
7.8e-05
7.8e-05
7.8e-05
7.8e-05
7.8e-05
7.8e-05
7.8e-05
7.8e-05
7.8e-05
7.8e-05
7.8e-05
7.8e-05
7.8e-05
7.8e-05
7.8e-05
7.79997e-05
6.48827e-05
4.69448e-05
4.47562e-05
4.41441e-05
4.39164e-05
4.3856e-05
4.38956e-05
4.40082e-05
4.41806e-05
4.44049e-05
4.46734e-05
4.4976e-05
4.52971e-05
4.5615e-05
4.59039e-05
4.61383e-05
4.63004e-05
4.63848e-05
4.64003e-05
4.63686e-05
4.6321e-05
4.62971e-05
4.63493e-05
4.65653e-05
4.71595e-05
4.90446e-05
5.9442e-05
7.79759e-05
6.56402e-05
4.93601e-05
4.69171e-05
4.61168e-05
4.57517e-05
4.55755e-05
4.55032e-05
4.5495e-05
4.55277e-05
4.55861e-05
4.56582e-05
4.57332e-05
4.58007e-05
4.58499e-05
4.58706e-05
4.58551e-05
4.58016e-05
4.57144e-05
4.56026e-05
4.54772e-05
4.53489e-05
4.52277e-05
4.51235e-05
4.50467e-05
4.50106e-05
4.5034e-05
4.51494e-05
4.54247e-05
4.60441e-05
4.77828e-05
5.63836e-05
7.79375e-05
4.63533e-05
4.62876e-05
4.61925e-05
4.60982e-05
4.60198e-05
4.59623e-05
4.59265e-05
4.59122e-05
4.59205e-05
4.59542e-05
4.60176e-05
4.61157e-05
4.62495e-05
4.64066e-05
4.65407e-05
4.65529e-05
4.63514e-05
4.60633e-05
4.57724e-05
4.55043e-05
4.52588e-05
4.50293e-05
4.481e-05
4.45981e-05
4.43943e-05
4.42014e-05
4.40237e-05
4.38658e-05
4.3733e-05
4.3631e-05
4.35671e-05
4.35525e-05
4.36069e-05
4.37705e-05
4.41442e-05
4.50712e-05
4.84213e-05
7.65531e-05
7.8e-05
7.8e-05
7.8e-05
7.8e-05
7.8e-05
7.8e-05
7.8e-05
7.8e-05
7.8e-05
7.8e-05
7.8e-05
7.8e-05
7.8e-05
7.8e-05
7.8e-05
7.8e-05
7.8e-05
7.8e-05
7.8e-05
7.8e-05
7.8e-05
7.8e-05
6.98208e-05
4.73347e-05
4.48815e-05
4.4201e-05
4.39417e-05
4.38616e-05
4.3886e-05
4.39845e-05
4.4142e-05
4.43494e-05
4.45984e-05
4.48786e-05
4.51751e-05
4.54682e-05
4.57347e-05
4.59525e-05
4.6106e-05
4.61908e-05
4.62153e-05
4.61995e-05
4.61729e-05
4.61736e-05
4.62543e-05
4.65065e-05
4.71669e-05
4.93463e-05
6.3632e-05
7.79974e-05
7.14405e-05
4.99089e-05
4.70607e-05
4.61458e-05
4.57291e-05
4.55232e-05
4.54309e-05
4.54075e-05
4.54286e-05
4.54785e-05
4.55454e-05
4.56189e-05
4.56885e-05
4.57423e-05
4.57681e-05
4.57559e-05
4.57026e-05
4.5614e-05
4.55017e-05
4.53782e-05
4.52547e-05
4.51413e-05
4.50471e-05
4.49824e-05
4.49604e-05
4.5001e-05
4.51397e-05
4.54529e-05
4.61623e-05
4.83479e-05
6.29462e-05
7.79977e-05
4.63748e-05
4.62385e-05
4.60679e-05
4.59159e-05
4.57985e-05
4.57167e-05
4.56677e-05
4.56494e-05
4.56622e-05
4.57093e-05
4.57974e-05
4.59371e-05
4.6141e-05
4.64165e-05
4.67327e-05
4.69134e-05
4.65243e-05
4.60713e-05
4.56846e-05
4.5368e-05
4.51023e-05
4.48694e-05
4.46571e-05
4.44587e-05
4.4272e-05
4.40981e-05
4.39396e-05
4.38008e-05
4.36866e-05
4.3603e-05
4.35585e-05
4.35668e-05
4.36529e-05
4.3873e-05
4.43916e-05
4.60166e-05
5.69064e-05
7.79876e-05
7.8e-05
7.8e-05
7.8e-05
7.8e-05
7.8e-05
7.8e-05
7.8e-05
7.8e-05
7.8e-05
7.8e-05
7.8e-05
7.8e-05
7.8e-05
7.8e-05
7.8e-05
7.8e-05
7.8e-05
7.8e-05
7.8e-05
7.8e-05
7.8e-05
7.8e-05
7.64683e-05
4.85696e-05
4.52451e-05
4.43436e-05
4.40024e-05
4.38785e-05
4.38717e-05
4.39427e-05
4.40724e-05
4.42492e-05
4.44635e-05
4.47047e-05
4.49591e-05
4.52102e-05
4.54393e-05
4.56291e-05
4.57681e-05
4.58535e-05
4.58931e-05
4.59046e-05
4.59147e-05
4.59601e-05
4.60951e-05
4.64224e-05
4.72232e-05
4.98924e-05
7.06478e-05
7.8e-05
7.74751e-05
5.24497e-05
4.75599e-05
4.62578e-05
4.57122e-05
4.54434e-05
4.53121e-05
4.52613e-05
4.52621e-05
4.52979e-05
4.5357e-05
4.54298e-05
4.55056e-05
4.55709e-05
4.56089e-05
4.56034e-05
4.55487e-05
4.54541e-05
4.53371e-05
4.52139e-05
4.5097e-05
4.49957e-05
4.49185e-05
4.48752e-05
4.48796e-05
4.49541e-05
4.51419e-05
4.55424e-05
4.64641e-05
4.94432e-05
7.29427e-05
7.8e-05
4.66872e-05
4.63296e-05
4.59919e-05
4.57375e-05
4.55594e-05
4.54427e-05
4.53754e-05
4.53515e-05
4.53697e-05
4.54343e-05
4.55558e-05
4.57547e-05
4.60688e-05
4.65698e-05
4.74023e-05
4.87399e-05
4.71308e-05
4.62025e-05
4.56209e-05
4.52204e-05
4.49206e-05
4.4679e-05
4.44722e-05
4.42881e-05
4.4121e-05
4.39696e-05
4.38351e-05
4.37206e-05
4.3631e-05
4.35729e-05
4.35567e-05
4.35999e-05
4.37368e-05
4.40502e-05
4.48092e-05
4.74565e-05
7.12675e-05
7.8e-05
7.8e-05
7.8e-05
7.8e-05
7.8e-05
7.8e-05
7.8e-05
7.8e-05
7.8e-05
7.8e-05
7.8e-05
7.8e-05
7.8e-05
7.8e-05
7.8e-05
7.8e-05
7.8e-05
7.8e-05
7.8e-05
7.8e-05
7.8e-05
7.8e-05
7.8e-05
7.79969e-05
5.99577e-05
4.64127e-05
4.46412e-05
4.41185e-05
4.39174e-05
4.38618e-05
4.3893e-05
4.39848e-05
4.41217e-05
4.42925e-05
4.44864e-05
4.46913e-05
4.48939e-05
4.50803e-05
4.52385e-05
4.53611e-05
4.54473e-05
4.55046e-05
4.55487e-05
4.56043e-05
4.57082e-05
4.59224e-05
4.63822e-05
4.75219e-05
5.16644e-05
7.71064e-05
7.8e-05
7.79998e-05
6.7653e-05
4.9066e-05
4.65659e-05
4.57539e-05
4.53789e-05
4.51896e-05
4.51012e-05
4.50763e-05
4.50959e-05
4.51484e-05
4.52248e-05
4.53152e-05
4.54041e-05
4.54676e-05
4.54746e-05
4.54122e-05
4.52988e-05
4.51659e-05
4.5036e-05
4.49221e-05
4.48328e-05
4.47755e-05
4.47597e-05
4.4801e-05
4.49281e-05
4.52018e-05
4.57906e-05
4.74619e-05
5.71891e-05
7.79733e-05
7.8e-05
4.83985e-05
4.68588e-05
4.6086e-05
4.56425e-05
4.53709e-05
4.52053e-05
4.51135e-05
4.50817e-05
4.51065e-05
4.51933e-05
4.53592e-05
4.56432e-05
4.61366e-05
4.71138e-05
4.9935e-05
6.66895e-05
4.93993e-05
4.66516e-05
4.56503e-05
4.51087e-05
4.47551e-05
4.44957e-05
4.42894e-05
4.41164e-05
4.39673e-05
4.38381e-05
4.37287e-05
4.36412e-05
4.35804e-05
4.35542e-05
4.35761e-05
4.36704e-05
4.389e-05
4.43853e-05
4.5871e-05
5.52726e-05
7.79767e-05
7.8e-05
7.8e-05
7.8e-05
7.8e-05
7.8e-05
7.8e-05
7.8e-05
7.8e-05
7.8e-05
7.8e-05
7.8e-05
7.8e-05
7.8e-05
7.8e-05
7.8e-05
7.8e-05
7.8e-05
7.8e-05
7.8e-05
7.8e-05
7.8e-05
7.8e-05
7.8e-05
7.8e-05
7.44658e-05
4.80974e-05
4.51448e-05
4.43216e-05
4.39968e-05
4.38702e-05
4.38492e-05
4.3895e-05
4.39869e-05
4.41111e-05
4.42564e-05
4.44123e-05
4.45682e-05
4.47146e-05
4.48438e-05
4.49516e-05
4.50394e-05
4.51146e-05
4.51925e-05
4.52977e-05
4.54712e-05
4.57926e-05
4.64787e-05
4.86167e-05
6.41964e-05
7.79989e-05
7.8e-05
7.8e-05
7.78129e-05
5.36251e-05
4.73534e-05
4.595e-05
4.53912e-05
4.51156e-05
4.49772e-05
4.49217e-05
4.49249e-05
4.49747e-05
4.50639e-05
4.5185e-05
4.5323e-05
4.54444e-05
4.54792e-05
4.53897e-05
4.52247e-05
4.50505e-05
4.48979e-05
4.47781e-05
4.46965e-05
4.46592e-05
4.46761e-05
4.47671e-05
4.49754e-05
4.54006e-05
4.63582e-05
4.95428e-05
7.49761e-05
7.8e-05
7.8e-05
6.32101e-05
4.903e-05
4.6598e-05
4.5734e-05
4.52995e-05
4.50591e-05
4.49315e-05
4.48882e-05
4.49216e-05
4.504e-05
4.5273e-05
4.57005e-05
4.65644e-05
4.9107e-05
6.72581e-05
7.79977e-05
6.23485e-05
4.80215e-05
4.58757e-05
4.50842e-05
4.46447e-05
4.43524e-05
4.41374e-05
4.39692e-05
4.38335e-05
4.3724e-05
4.36388e-05
4.35795e-05
4.35515e-05
4.35649e-05
4.36392e-05
4.38132e-05
4.41793e-05
4.50415e-05
4.81007e-05
7.54631e-05
7.8e-05
7.8e-05
7.8e-05
7.8e-05
7.8e-05
7.8e-05
7.8e-05
7.8e-05
7.8e-05
7.8e-05
7.8e-05
7.8e-05
7.8e-05
7.8e-05
7.8e-05
7.8e-05
7.8e-05
7.8e-05
7.8e-05
7.8e-05
7.8e-05
7.8e-05
7.8e-05
7.8e-05
7.8e-05
7.79992e-05
6.24771e-05
4.66953e-05
4.47382e-05
4.4156e-05
4.39186e-05
4.38287e-05
4.38207e-05
4.38642e-05
4.39418e-05
4.40411e-05
4.41526e-05
4.42681e-05
4.43809e-05
4.44864e-05
4.45833e-05
4.46744e-05
4.4768e-05
4.48803e-05
4.50396e-05
4.52982e-05
4.57716e-05
4.6809e-05
5.02355e-05
7.60489e-05
7.8e-05
7.8e-05
7.8e-05
7.8e-05
7.50179e-05
4.97453e-05
4.65558e-05
4.55896e-05
4.51606e-05
4.49453e-05
4.48488e-05
4.48345e-05
4.48892e-05
4.50081e-05
4.51935e-05
4.54433e-05
4.57343e-05
4.58608e-05
4.56656e-05
4.53414e-05
4.50635e-05
4.48557e-05
4.47125e-05
4.46304e-05
4.46131e-05
4.46715e-05
4.48367e-05
4.51952e-05
4.5998e-05
4.8543e-05
6.78564e-05
7.79999e-05
7.8e-05
7.8e-05
7.79977e-05
6.3704e-05
4.86318e-05
4.62557e-05
4.54457e-05
4.50679e-05
4.48783e-05
4.48156e-05
4.48626e-05
4.50344e-05
4.53918e-05
4.61397e-05
4.82032e-05
6.0042e-05
7.79927e-05
7.8e-05
7.74237e-05
5.10305e-05
4.64801e-05
4.52249e-05
4.46351e-05
4.42812e-05
4.40419e-05
4.38684e-05
4.37397e-05
4.3646e-05
4.35838e-05
4.35546e-05
4.35653e-05
4.36312e-05
4.37861e-05
4.41097e-05
4.48485e-05
4.73402e-05
6.9015e-05
7.8e-05
7.8e-05
7.8e-05
7.8e-05
7.8e-05
7.8e-05
7.8e-05
7.8e-05
7.8e-05
7.8e-05
7.8e-05
7.8e-05
7.8e-05
7.8e-05
7.8e-05
7.8e-05
7.8e-05
7.8e-05
7.8e-05
7.8e-05
7.8e-05
7.8e-05
7.8e-05
7.8e-05
7.8e-05
7.8e-05
7.8e-05
7.77469e-05
5.08225e-05
4.55927e-05
4.44632e-05
4.40421e-05
4.38556e-05
4.37817e-05
4.37723e-05
4.38032e-05
4.38597e-05
4.39323e-05
4.4014e-05
4.41001e-05
4.41883e-05
4.4279e-05
4.43765e-05
4.44906e-05
4.4641e-05
4.4865e-05
4.52443e-05
4.60153e-05
4.83507e-05
6.60192e-05
7.79997e-05
7.8e-05
7.8e-05
7.8e-05
7.8e-05
7.8e-05
7.08452e-05
4.90892e-05
4.62925e-05
4.54646e-05
4.50939e-05
4.49267e-05
4.48883e-05
4.49626e-05
4.51484e-05
4.54863e-05
4.6053e-05
4.7157e-05
4.79146e-05
4.69755e-05
4.59186e-05
4.5335e-05
4.49938e-05
4.47899e-05
4.46905e-05
4.4697e-05
4.4821e-05
4.51193e-05
4.58456e-05
4.81113e-05
6.25865e-05
7.79985e-05
7.8e-05
7.8e-05
7.8e-05
7.8e-05
7.7997e-05
6.21993e-05
4.84028e-05
4.60928e-05
4.53705e-05
4.50404e-05
4.49384e-05
4.50114e-05
4.52986e-05
4.59718e-05
4.79137e-05
5.71992e-05
7.79687e-05
7.8e-05
7.8e-05
7.8e-05
7.3176e-05
4.87784e-05
4.57844e-05
4.4815e-05
4.43276e-05
4.40337e-05
4.38384e-05
4.37073e-05
4.36248e-05
4.35855e-05
4.35918e-05
4.36543e-05
4.37999e-05
4.41027e-05
4.47934e-05
4.70213e-05
6.35284e-05
7.79996e-05
7.8e-05
7.8e-05
7.8e-05
7.8e-05
7.8e-05
7.8e-05
7.8e-05
7.8e-05
7.8e-05
7.8e-05
7.8e-05
7.8e-05
7.8e-05
7.8e-05
7.8e-05
7.8e-05
7.8e-05
7.8e-05
7.8e-05
7.8e-05
7.8e-05
7.8e-05
7.8e-05
7.8e-05
7.8e-05
7.8e-05
7.8e-05
7.8e-05
7.50347e-05
4.81081e-05
4.51553e-05
4.43232e-05
4.39709e-05
4.38047e-05
4.37317e-05
4.37124e-05
4.37271e-05
4.37644e-05
4.38176e-05
4.38831e-05
4.39599e-05
4.40498e-05
4.41588e-05
4.42996e-05
4.44985e-05
4.48116e-05
4.53842e-05
4.67969e-05
5.35049e-05
7.78704e-05
7.8e-05
7.8e-05
7.8e-05
7.8e-05
7.8e-05
7.8e-05
7.8e-05
7.02228e-05
4.91218e-05
4.65082e-05
4.56592e-05
4.53147e-05
4.52201e-05
4.53623e-05
4.57321e-05
4.65864e-05
4.85901e-05
5.7044e-05
6.68809e-05
5.54369e-05
4.83063e-05
4.62868e-05
4.55378e-05
4.51564e-05
4.49895e-05
4.50418e-05
4.53228e-05
4.59457e-05
4.8259e-05
6.27247e-05
7.79974e-05
7.8e-05
7.8e-05
7.8e-05
7.8e-05
7.8e-05
7.8e-05
7.79976e-05
6.51485e-05
4.87832e-05
4.65364e-05
4.56814e-05
4.54766e-05
4.56156e-05
4.62726e-05
4.83906e-05
6.02643e-05
7.79711e-05
7.8e-05
7.8e-05
7.8e-05
7.8e-05
7.79999e-05
6.7537e-05
4.80683e-05
4.54474e-05
4.45884e-05
4.41696e-05
4.39178e-05
4.37687e-05
4.36924e-05
4.36794e-05
4.37361e-05
4.38855e-05
4.41829e-05
4.48566e-05
4.70767e-05
6.22659e-05
7.79989e-05
7.8e-05
7.8e-05
7.8e-05
7.8e-05
7.8e-05
7.8e-05
7.8e-05
7.8e-05
7.8e-05
7.8e-05
7.8e-05
7.8e-05
7.8e-05
7.8e-05
7.8e-05
7.8e-05
7.8e-05
7.8e-05
7.8e-05
7.8e-05
7.8e-05
7.8e-05
7.8e-05
7.8e-05
7.8e-05
7.8e-05
7.8e-05
7.8e-05
7.8e-05
7.8e-05
7.06668e-05
4.76534e-05
4.50294e-05
4.42661e-05
4.39362e-05
4.37721e-05
4.36903e-05
4.36589e-05
4.36609e-05
4.36882e-05
4.37374e-05
4.38085e-05
4.39048e-05
4.40343e-05
4.42157e-05
4.44894e-05
4.49584e-05
4.59401e-05
4.9163e-05
7.55989e-05
7.8e-05
7.8e-05
7.8e-05
7.8e-05
7.8e-05
7.8e-05
7.8e-05
7.8e-05
7.8e-05
7.41592e-05
5.15241e-05
4.78831e-05
4.66799e-05
4.62981e-05
4.68338e-05
4.80742e-05
5.23046e-05
7.20017e-05
7.79787e-05
7.79999e-05
7.79549e-05
7.02695e-05
5.05305e-05
4.7696e-05
4.64029e-05
4.58794e-05
4.61209e-05
4.72073e-05
4.91197e-05
6.86977e-05
7.79988e-05
7.8e-05
7.8e-05
7.8e-05
7.8e-05
7.8e-05
7.8e-05
7.8e-05
7.8e-05
7.79996e-05
7.27733e-05
5.3074e-05
4.82342e-05
4.76415e-05
4.80452e-05
5.08181e-05
6.98316e-05
7.79953e-05
7.8e-05
7.8e-05
7.8e-05
7.8e-05
7.8e-05
7.8e-05
7.79998e-05
6.58642e-05
4.79082e-05
4.53743e-05
4.46097e-05
4.41962e-05
4.3995e-05
4.39175e-05
4.39426e-05
4.40968e-05
4.44613e-05
4.51849e-05
4.75313e-05
6.55018e-05
7.79991e-05
7.8e-05
7.8e-05
7.8e-05
7.8e-05
7.8e-05
7.8e-05
7.8e-05
7.8e-05
7.8e-05
7.8e-05
7.8e-05
7.8e-05
7.8e-05
7.8e-05
7.8e-05
7.8e-05
7.8e-05
7.8e-05
7.8e-05
7.8e-05
7.8e-05
7.8e-05
7.8e-05
7.8e-05
7.8e-05
7.8e-05
7.8e-05
7.8e-05
7.8e-05
7.8e-05
7.8e-05
7.8e-05
6.84555e-05
4.75581e-05
4.5022e-05
4.42857e-05
4.39536e-05
4.37733e-05
4.36799e-05
4.36396e-05
4.36394e-05
4.3675e-05
4.37469e-05
4.38607e-05
4.40288e-05
4.42832e-05
4.47037e-05
4.55775e-05
4.8375e-05
7.12942e-05
7.8e-05
7.8e-05
7.8e-05
7.8e-05
7.8e-05
7.8e-05
7.8e-05
7.8e-05
7.8e-05
7.8e-05
7.8e-05
7.76647e-05
6.6946e-05
5.43035e-05
5.07728e-05
5.58555e-05
6.86895e-05
7.77854e-05
7.8e-05
7.8e-05
7.8e-05
7.8e-05
7.8e-05
7.73942e-05
6.63575e-05
5.29627e-05
4.91479e-05
5.08914e-05
6.22458e-05
7.58798e-05
7.8e-05
7.8e-05
7.8e-05
7.8e-05
7.8e-05
7.8e-05
7.8e-05
7.8e-05
7.8e-05
7.8e-05
7.8e-05
7.8e-05
7.78712e-05
7.17792e-05
6.61648e-05
7.04349e-05
7.75311e-05
7.8e-05
7.8e-05
7.8e-05
7.8e-05
7.8e-05
7.8e-05
7.8e-05
7.8e-05
7.8e-05
7.79998e-05
6.95938e-05
4.84244e-05
4.61633e-05
4.4967e-05
4.46081e-05
4.45146e-05
4.46189e-05
4.50618e-05
4.64958e-05
4.93993e-05
7.24682e-05
7.79999e-05
7.8e-05
7.8e-05
7.8e-05
7.8e-05
7.8e-05
7.8e-05
7.8e-05
7.8e-05
7.8e-05
7.8e-05
7.8e-05
7.8e-05
7.8e-05
7.8e-05
7.8e-05
7.8e-05
7.8e-05
7.8e-05
7.8e-05
7.8e-05
7.8e-05
7.8e-05
7.8e-05
7.8e-05
7.8e-05
7.8e-05
7.8e-05
7.8e-05
7.8e-05
7.8e-05
7.8e-05
7.8e-05
7.8e-05
7.8e-05
6.97734e-05
4.78037e-05
4.52475e-05
4.44539e-05
4.40476e-05
4.38459e-05
4.37384e-05
4.37004e-05
4.37225e-05
4.38052e-05
4.39605e-05
4.42101e-05
4.46308e-05
4.54377e-05
4.81045e-05
6.89486e-05
7.8e-05
7.8e-05
7.8e-05
7.8e-05
7.8e-05
7.8e-05
7.8e-05
7.8e-05
7.8e-05
7.8e-05
7.8e-05
7.8e-05
7.8e-05
7.79999e-05
7.7917e-05
7.74376e-05
7.79608e-05
7.8e-05
7.8e-05
7.8e-05
7.8e-05
7.8e-05
7.8e-05
7.8e-05
7.8e-05
7.79998e-05
7.78558e-05
7.63434e-05
7.75573e-05
7.79984e-05
7.8e-05
7.8e-05
7.8e-05
7.8e-05
7.8e-05
7.8e-05
7.8e-05
7.8e-05
7.8e-05
7.8e-05
7.8e-05
7.8e-05
7.8e-05
7.8e-05
7.8e-05
7.79998e-05
7.8e-05
7.8e-05
7.8e-05
7.8e-05
7.8e-05
7.8e-05
7.8e-05
7.8e-05
7.8e-05
7.8e-05
7.8e-05
7.8e-05
7.8e-05
7.55564e-05
5.74404e-05
4.77993e-05
4.68422e-05
4.6672e-05
4.70651e-05
4.89398e-05
6.4647e-05
7.7479e-05
7.8e-05
7.8e-05
7.8e-05
7.8e-05
7.8e-05
7.8e-05
7.8e-05
7.8e-05
7.8e-05
7.8e-05
7.8e-05
7.8e-05
7.8e-05
7.8e-05
7.8e-05
7.8e-05
7.8e-05
7.8e-05
7.8e-05
7.8e-05
7.8e-05
7.8e-05
7.8e-05
7.8e-05
7.8e-05
7.8e-05
7.8e-05
7.8e-05
7.8e-05
7.8e-05
7.8e-05
7.8e-05
7.8e-05
7.8e-05
7.8e-05
7.8e-05
7.8e-05
7.40565e-05
4.93438e-05
4.62018e-05
4.47981e-05
4.43277e-05
4.40575e-05
4.39454e-05
4.39494e-05
4.40643e-05
4.43335e-05
4.48099e-05
4.58354e-05
4.83746e-05
7.07665e-05
7.8e-05
7.8e-05
7.8e-05
7.8e-05
7.8e-05
7.8e-05
7.8e-05
7.8e-05
7.8e-05
7.8e-05
7.8e-05
7.8e-05
7.8e-05
7.8e-05
7.8e-05
7.8e-05
7.8e-05
7.8e-05
7.8e-05
7.8e-05
7.8e-05
7.8e-05
7.8e-05
7.8e-05
7.8e-05
7.8e-05
7.8e-05
7.8e-05
7.8e-05
7.8e-05
7.8e-05
7.8e-05
7.8e-05
7.8e-05
7.8e-05
7.8e-05
7.8e-05
7.8e-05
7.8e-05
7.8e-05
7.8e-05
7.8e-05
7.8e-05
7.8e-05
7.8e-05
7.8e-05
7.8e-05
7.8e-05
7.8e-05
7.8e-05
7.8e-05
7.8e-05
7.8e-05
7.8e-05
7.8e-05
7.8e-05
7.8e-05
7.8e-05
7.8e-05
7.8e-05
7.8e-05
7.79911e-05
7.43155e-05
6.67296e-05
6.52075e-05
7.04813e-05
7.72639e-05
7.79998e-05
7.8e-05
7.8e-05
7.8e-05
7.8e-05
7.8e-05
7.8e-05
7.8e-05
7.8e-05
7.8e-05
7.8e-05
7.8e-05
7.8e-05
7.8e-05
7.8e-05
7.8e-05
7.8e-05
7.8e-05
7.8e-05
7.8e-05
7.8e-05
7.8e-05
7.8e-05
7.8e-05
7.8e-05
7.8e-05
7.8e-05
7.8e-05
7.8e-05
7.8e-05
7.8e-05
7.8e-05
7.8e-05
7.8e-05
7.8e-05
7.8e-05
7.8e-05
7.8e-05
7.8e-05
7.8e-05
7.74509e-05
6.01587e-05
4.75863e-05
4.60374e-05
4.49619e-05
4.4623e-05
4.45898e-05
4.48001e-05
4.55611e-05
4.71271e-05
5.27478e-05
7.53011e-05
7.8e-05
7.8e-05
7.8e-05
7.8e-05
7.8e-05
7.8e-05
7.8e-05
7.8e-05
7.8e-05
7.8e-05
7.8e-05
7.8e-05
7.8e-05
7.8e-05
7.8e-05
7.8e-05
7.8e-05
7.8e-05
7.8e-05
7.8e-05
7.8e-05
7.8e-05
7.8e-05
7.8e-05
7.8e-05
7.8e-05
7.8e-05
7.8e-05
7.8e-05
7.8e-05
7.8e-05
7.8e-05
7.8e-05
7.8e-05
7.8e-05
7.8e-05
7.8e-05
7.8e-05
7.8e-05
7.8e-05
7.8e-05
7.8e-05
7.8e-05
7.8e-05
7.8e-05
7.8e-05
7.8e-05
7.8e-05
7.8e-05
7.8e-05
7.8e-05
7.8e-05
7.8e-05
7.8e-05
7.8e-05
7.8e-05
7.8e-05
7.8e-05
7.8e-05
7.8e-05
7.8e-05
7.8e-05
7.8e-05
7.8e-05
7.79999e-05
7.79998e-05
7.8e-05
7.8e-05
7.8e-05
7.8e-05
7.8e-05
7.8e-05
7.8e-05
7.8e-05
7.8e-05
7.8e-05
7.8e-05
7.8e-05
7.8e-05
7.8e-05
7.8e-05
7.8e-05
7.8e-05
7.8e-05
7.8e-05
7.8e-05
7.8e-05
7.8e-05
7.8e-05
7.8e-05
7.8e-05
7.8e-05
7.8e-05
7.8e-05
7.8e-05
7.8e-05
7.8e-05
7.8e-05
7.8e-05
7.8e-05
7.8e-05
7.8e-05
7.8e-05
7.8e-05
7.8e-05
7.8e-05
7.8e-05
7.8e-05
7.8e-05
7.7998e-05
7.35706e-05
5.9413e-05
4.85796e-05
4.71585e-05
4.70148e-05
4.75342e-05
5.24279e-05
6.83964e-05
7.79106e-05
7.8e-05
7.8e-05
7.8e-05
7.8e-05
7.8e-05
7.8e-05
7.8e-05
7.8e-05
7.8e-05
7.8e-05
7.8e-05
7.8e-05
7.8e-05
7.8e-05
7.8e-05
7.8e-05
7.8e-05
7.8e-05
7.8e-05
7.8e-05
7.8e-05
7.8e-05
7.8e-05
7.8e-05
7.8e-05
7.8e-05
7.8e-05
7.8e-05
7.8e-05
7.8e-05
7.8e-05
7.8e-05
7.8e-05
7.8e-05
7.8e-05
7.8e-05
7.8e-05
7.8e-05
7.8e-05
7.8e-05
7.8e-05
7.8e-05
7.8e-05
7.8e-05
7.8e-05
7.8e-05
7.8e-05
7.8e-05
7.8e-05
7.8e-05
7.8e-05
7.8e-05
7.8e-05
7.8e-05
7.8e-05
7.8e-05
7.8e-05
7.8e-05
7.8e-05
7.8e-05
7.8e-05
7.8e-05
7.8e-05
7.8e-05
7.8e-05
7.8e-05
7.8e-05
7.8e-05
7.8e-05
7.8e-05
7.8e-05
7.8e-05
7.8e-05
7.8e-05
7.8e-05
7.8e-05
7.8e-05
7.8e-05
7.8e-05
7.8e-05
7.8e-05
7.8e-05
7.8e-05
7.8e-05
7.8e-05
7.8e-05
7.8e-05
7.8e-05
7.8e-05
7.8e-05
7.8e-05
7.8e-05
7.8e-05
7.8e-05
7.8e-05
7.8e-05
7.8e-05
7.8e-05
7.8e-05
7.8e-05
7.8e-05
7.8e-05
7.8e-05
7.8e-05
7.8e-05
7.8e-05
7.8e-05
7.8e-05
7.8e-05
7.8e-05
7.8e-05
7.8e-05
7.79968e-05
7.7077e-05
7.26833e-05
7.10637e-05
7.4498e-05
7.79028e-05
7.8e-05
7.8e-05
7.8e-05
7.8e-05
7.8e-05
7.8e-05
7.8e-05
7.8e-05
7.8e-05
7.8e-05
7.8e-05
7.8e-05
7.8e-05
7.8e-05
7.8e-05
7.8e-05
7.8e-05
7.8e-05
7.8e-05
7.8e-05
7.8e-05
7.8e-05
7.8e-05
7.8e-05
7.8e-05
7.8e-05
7.8e-05
7.8e-05
7.8e-05
7.8e-05
7.8e-05
7.8e-05
7.8e-05
7.8e-05
7.8e-05
7.8e-05
7.8e-05
7.8e-05
7.8e-05
7.8e-05
7.8e-05
7.8e-05
7.8e-05
7.8e-05
7.8e-05
7.8e-05
7.8e-05
7.8e-05
7.8e-05
7.8e-05
7.8e-05
7.8e-05
7.8e-05
7.8e-05
7.8e-05
7.8e-05
7.8e-05
7.8e-05
7.8e-05
7.8e-05
7.8e-05
7.8e-05
7.8e-05
7.8e-05
7.8e-05
7.8e-05
7.8e-05
7.8e-05
7.8e-05
7.8e-05
7.8e-05
7.8e-05
7.8e-05
7.8e-05
7.8e-05
7.8e-05
7.8e-05
7.8e-05
7.8e-05
7.8e-05
7.8e-05
7.8e-05
7.8e-05
7.8e-05
7.8e-05
7.8e-05
7.8e-05
7.8e-05
7.8e-05
7.8e-05
7.8e-05
7.8e-05
7.8e-05
7.8e-05
7.8e-05
7.8e-05
7.8e-05
7.8e-05
7.8e-05
7.8e-05
7.8e-05
7.8e-05
7.8e-05
7.8e-05
7.8e-05
7.8e-05
7.8e-05
7.8e-05
7.8e-05
7.8e-05
7.8e-05
7.8e-05
7.8e-05
7.8e-05
7.8e-05
7.8e-05
7.8e-05
7.8e-05
7.8e-05
7.8e-05
7.8e-05
7.8e-05
7.8e-05
7.8e-05
7.8e-05
7.8e-05
7.8e-05
7.8e-05
7.8e-05
7.8e-05
7.8e-05
7.8e-05
7.8e-05
7.8e-05
7.8e-05
7.8e-05
7.8e-05
7.8e-05
7.8e-05
7.8e-05
7.8e-05
7.8e-05
7.8e-05
7.8e-05
7.8e-05
7.8e-05
7.8e-05
7.8e-05
7.8e-05
7.8e-05
7.8e-05
7.8e-05
7.8e-05
7.8e-05
7.8e-05
7.8e-05
7.8e-05
7.8e-05
7.8e-05
7.8e-05
7.8e-05
7.8e-05
7.8e-05
7.8e-05
7.8e-05
7.8e-05
7.8e-05
7.8e-05
7.8e-05
7.8e-05
7.8e-05
7.8e-05
7.8e-05
7.8e-05
7.8e-05
7.8e-05
7.8e-05
7.8e-05
7.8e-05
7.8e-05
7.8e-05
7.8e-05
7.8e-05
7.8e-05
7.8e-05
7.8e-05
7.8e-05
7.8e-05
7.8e-05
7.8e-05
7.8e-05
7.8e-05
7.8e-05
7.8e-05
7.8e-05
7.8e-05
7.8e-05
7.8e-05
7.8e-05
7.8e-05
7.8e-05
7.8e-05
7.8e-05
7.8e-05
7.8e-05
7.8e-05
7.8e-05
7.8e-05
7.8e-05
7.8e-05
7.8e-05
7.8e-05
7.8e-05
7.8e-05
7.8e-05
7.8e-05
7.8e-05
7.8e-05
7.8e-05
7.8e-05
7.8e-05
7.8e-05
7.8e-05
7.8e-05
7.8e-05
7.8e-05
7.8e-05
7.8e-05
7.8e-05
7.8e-05
7.8e-05
7.8e-05
7.8e-05
7.8e-05
7.8e-05
7.8e-05
7.8e-05
7.8e-05
7.8e-05
7.8e-05
7.8e-05
7.8e-05
7.8e-05
7.8e-05
7.8e-05
7.8e-05
7.8e-05
7.8e-05
7.8e-05
7.8e-05
7.8e-05
7.8e-05
7.8e-05
7.8e-05
7.8e-05
7.8e-05
7.8e-05
7.8e-05
7.8e-05
7.8e-05
7.8e-05
7.8e-05
7.8e-05
7.8e-05
7.8e-05
7.8e-05
7.8e-05
7.8e-05
7.8e-05
7.8e-05
7.8e-05
7.8e-05
7.8e-05
7.8e-05
7.8e-05
7.8e-05
7.8e-05
7.8e-05
7.8e-05
7.8e-05
7.8e-05
7.8e-05
7.8e-05
7.8e-05
7.8e-05
7.8e-05
7.8e-05
7.8e-05
7.8e-05
7.8e-05
7.8e-05
7.8e-05
7.8e-05
7.8e-05
7.8e-05
7.8e-05
7.8e-05
7.8e-05
7.8e-05
7.8e-05
7.8e-05
7.8e-05
7.8e-05
7.8e-05
7.8e-05
7.8e-05
7.8e-05
7.8e-05
7.8e-05
7.8e-05
7.8e-05
7.8e-05
7.8e-05
7.8e-05
7.8e-05
7.8e-05
7.8e-05
7.8e-05
7.8e-05
7.8e-05
7.8e-05
7.8e-05
7.8e-05
7.8e-05
7.8e-05
7.8e-05
7.8e-05
7.8e-05
7.8e-05
7.8e-05
7.8e-05
7.8e-05
7.8e-05
7.8e-05
7.8e-05
7.8e-05
7.8e-05
7.8e-05
7.8e-05
7.8e-05
7.8e-05
7.8e-05
7.8e-05
7.8e-05
7.8e-05
7.8e-05
7.8e-05
7.8e-05
7.8e-05
7.8e-05
7.8e-05
7.8e-05
7.8e-05
7.8e-05
7.8e-05
7.8e-05
7.8e-05
7.8e-05
7.8e-05
7.8e-05
7.8e-05
7.8e-05
7.8e-05
7.8e-05
7.8e-05
7.8e-05
7.8e-05
7.8e-05
7.8e-05
7.8e-05
7.8e-05
7.8e-05
7.8e-05
7.8e-05
7.8e-05
7.8e-05
7.8e-05
7.8e-05
7.8e-05
7.8e-05
7.8e-05
7.8e-05
7.8e-05
7.8e-05
7.8e-05
7.8e-05
7.8e-05
7.8e-05
7.8e-05
7.8e-05
7.8e-05
7.8e-05
7.8e-05
7.8e-05
7.8e-05
7.8e-05
7.8e-05
7.8e-05
7.8e-05
7.8e-05
7.8e-05
7.8e-05
7.8e-05
7.8e-05
7.8e-05
7.8e-05
7.8e-05
7.8e-05
7.8e-05
7.8e-05
7.8e-05
7.8e-05
7.8e-05
7.8e-05
7.8e-05
7.8e-05
7.8e-05
7.8e-05
7.8e-05
7.8e-05
7.8e-05
7.8e-05
7.8e-05
7.8e-05
7.8e-05
7.8e-05
7.8e-05
7.8e-05
7.8e-05
7.8e-05
7.8e-05
7.8e-05
7.8e-05
7.8e-05
7.8e-05
7.8e-05
7.8e-05
7.8e-05
7.8e-05
7.8e-05
7.8e-05
7.8e-05
7.8e-05
7.8e-05
7.8e-05
7.8e-05
7.8e-05
7.8e-05
7.8e-05
7.8e-05
7.8e-05
7.8e-05
7.8e-05
7.8e-05
7.8e-05
7.8e-05
7.8e-05
7.8e-05
7.8e-05
7.8e-05
7.8e-05
7.8e-05
7.8e-05
7.8e-05
7.8e-05
7.8e-05
7.8e-05
7.8e-05
7.8e-05
7.8e-05
7.8e-05
7.8e-05
7.8e-05
7.8e-05
7.8e-05
7.8e-05
7.8e-05
7.8e-05
7.8e-05
7.8e-05
7.8e-05
7.8e-05
7.8e-05
7.8e-05
7.8e-05
7.8e-05
7.8e-05
7.8e-05
7.8e-05
7.8e-05
7.8e-05
7.8e-05
7.8e-05
7.8e-05
7.8e-05
7.8e-05
7.8e-05
7.8e-05
7.8e-05
7.8e-05
7.8e-05
7.8e-05
7.8e-05
7.8e-05
7.8e-05
7.8e-05
7.8e-05
7.8e-05
7.8e-05
7.8e-05
7.8e-05
7.8e-05
7.8e-05
7.8e-05
7.8e-05
7.8e-05
7.8e-05
7.8e-05
7.8e-05
7.8e-05
7.8e-05
7.8e-05
7.8e-05
7.8e-05
7.8e-05
7.8e-05
7.8e-05
7.8e-05
7.8e-05
7.8e-05
7.8e-05
7.8e-05
7.8e-05
7.8e-05
7.8e-05
7.8e-05
7.8e-05
7.8e-05
7.8e-05
7.8e-05
7.8e-05
7.8e-05
7.8e-05
7.8e-05
7.8e-05
7.8e-05
7.8e-05
7.8e-05
7.8e-05
7.8e-05
7.8e-05
7.8e-05
7.8e-05
7.8e-05
7.8e-05
7.8e-05
7.8e-05
7.8e-05
7.8e-05
7.8e-05
7.8e-05
7.8e-05
7.8e-05
7.8e-05
7.8e-05
7.8e-05
7.8e-05
7.8e-05
7.8e-05
7.8e-05
7.8e-05
7.8e-05
7.8e-05
7.8e-05
7.8e-05
7.8e-05
7.8e-05
7.8e-05
7.8e-05
7.8e-05
7.8e-05
7.8e-05
7.8e-05
7.8e-05
7.8e-05
7.8e-05
7.8e-05
7.8e-05
7.8e-05
7.8e-05
7.8e-05
7.8e-05
7.8e-05
7.8e-05
7.8e-05
7.8e-05
7.8e-05
7.8e-05
7.8e-05
7.8e-05
7.8e-05
7.8e-05
7.8e-05
7.8e-05
7.8e-05
7.8e-05
7.8e-05
7.8e-05
7.8e-05
7.8e-05
7.8e-05
7.8e-05
7.8e-05
7.8e-05
7.8e-05
7.8e-05
7.8e-05
7.8e-05
7.8e-05
7.8e-05
7.8e-05
7.8e-05
7.8e-05
7.8e-05
7.8e-05
7.8e-05
7.8e-05
7.8e-05
7.8e-05
7.8e-05
7.8e-05
7.8e-05
7.8e-05
7.8e-05
7.8e-05
7.8e-05
7.8e-05
7.8e-05
7.8e-05
7.8e-05
7.8e-05
7.8e-05
7.8e-05
7.8e-05
7.8e-05
7.8e-05
7.8e-05
7.8e-05
7.8e-05
7.8e-05
7.8e-05
7.8e-05
7.8e-05
7.8e-05
7.8e-05
7.8e-05
7.8e-05
7.8e-05
7.8e-05
7.8e-05
7.8e-05
7.8e-05
7.8e-05
7.8e-05
7.8e-05
7.8e-05
7.8e-05
7.8e-05
7.8e-05
7.8e-05
7.8e-05
7.8e-05
7.8e-05
7.8e-05
7.8e-05
7.8e-05
7.8e-05
7.8e-05
7.8e-05
7.8e-05
7.8e-05
7.8e-05
7.8e-05
7.8e-05
7.8e-05
7.8e-05
7.8e-05
7.8e-05
7.8e-05
7.8e-05
7.8e-05
7.8e-05
7.8e-05
7.8e-05
7.8e-05
7.8e-05
7.8e-05
7.8e-05
7.8e-05
7.8e-05
7.8e-05
7.8e-05
7.8e-05
7.8e-05
7.8e-05
7.8e-05
7.8e-05
7.8e-05
7.8e-05
7.8e-05
7.8e-05
7.8e-05
7.8e-05
7.8e-05
7.8e-05
7.8e-05
7.8e-05
7.8e-05
7.8e-05
7.8e-05
7.8e-05
7.8e-05
7.8e-05
7.8e-05
7.8e-05
7.8e-05
7.8e-05
7.8e-05
7.8e-05
7.8e-05
7.8e-05
7.8e-05
7.8e-05
7.8e-05
7.8e-05
7.8e-05
7.8e-05
7.8e-05
7.8e-05
7.8e-05
7.8e-05
7.8e-05
7.8e-05
7.8e-05
7.8e-05
7.8e-05
7.8e-05
7.8e-05
7.8e-05
7.8e-05
7.8e-05
7.8e-05
7.8e-05
7.8e-05
7.8e-05
7.8e-05
7.8e-05
7.8e-05
7.8e-05
7.8e-05
7.8e-05
7.8e-05
7.8e-05
7.8e-05
7.8e-05
7.8e-05
7.8e-05
7.8e-05
7.8e-05
7.8e-05
7.8e-05
7.8e-05
7.8e-05
7.8e-05
7.8e-05
7.8e-05
7.8e-05
7.8e-05
7.8e-05
7.8e-05
7.8e-05
7.8e-05
7.8e-05
7.8e-05
7.8e-05
7.8e-05
7.8e-05
7.8e-05
7.8e-05
7.8e-05
7.8e-05
7.8e-05
7.8e-05
7.8e-05
7.8e-05
7.8e-05
7.8e-05
7.8e-05
7.8e-05
7.8e-05
7.8e-05
7.8e-05
7.8e-05
7.8e-05
7.8e-05
7.8e-05
7.8e-05
7.8e-05
7.8e-05
7.8e-05
7.8e-05
7.8e-05
7.8e-05
7.8e-05
7.8e-05
7.8e-05
7.8e-05
7.8e-05
7.8e-05
7.8e-05
7.8e-05
7.8e-05
7.8e-05
7.8e-05
7.8e-05
7.8e-05
7.8e-05
7.8e-05
7.8e-05
7.8e-05
7.8e-05
7.8e-05
7.8e-05
7.8e-05
7.8e-05
7.8e-05
7.8e-05
7.8e-05
7.8e-05
7.8e-05
7.8e-05
7.8e-05
7.8e-05
7.8e-05
7.8e-05
7.8e-05
7.8e-05
7.8e-05
7.8e-05
7.8e-05
7.8e-05
7.8e-05
7.8e-05
7.8e-05
7.8e-05
7.8e-05
7.8e-05
7.8e-05
7.8e-05
7.8e-05
7.8e-05
7.8e-05
7.8e-05
7.8e-05
7.8e-05
7.8e-05
7.8e-05
7.8e-05
7.8e-05
7.8e-05
7.8e-05
7.8e-05
7.8e-05
7.8e-05
7.8e-05
7.8e-05
7.8e-05
7.8e-05
7.8e-05
7.8e-05
7.8e-05
7.8e-05
7.8e-05
7.8e-05
7.8e-05
7.8e-05
7.8e-05
7.8e-05
7.8e-05
7.8e-05
7.8e-05
7.8e-05
7.8e-05
7.8e-05
7.8e-05
7.8e-05
7.8e-05
7.8e-05
7.8e-05
7.8e-05
7.8e-05
7.8e-05
7.8e-05
7.8e-05
7.8e-05
7.8e-05
7.8e-05
7.8e-05
7.8e-05
7.8e-05
7.8e-05
7.8e-05
7.8e-05
7.8e-05
7.8e-05
7.8e-05
7.8e-05
7.8e-05
7.8e-05
7.8e-05
7.8e-05
7.8e-05
7.8e-05
7.8e-05
7.8e-05
7.8e-05
7.8e-05
7.8e-05
7.8e-05
7.8e-05
7.8e-05
7.8e-05
7.8e-05
7.8e-05
7.8e-05
7.8e-05
7.8e-05
7.8e-05
7.8e-05
7.8e-05
7.8e-05
7.8e-05
7.8e-05
7.8e-05
7.8e-05
7.8e-05
7.8e-05
7.8e-05
7.8e-05
7.8e-05
7.8e-05
7.8e-05
7.8e-05
7.8e-05
7.8e-05
7.8e-05
7.8e-05
7.8e-05
7.8e-05
7.8e-05
7.8e-05
7.8e-05
7.8e-05
7.8e-05
7.8e-05
7.8e-05
7.8e-05
7.8e-05
7.8e-05
7.8e-05
7.8e-05
7.8e-05
7.8e-05
7.8e-05
7.8e-05
7.8e-05
7.8e-05
7.8e-05
7.8e-05
7.8e-05
7.8e-05
7.8e-05
7.8e-05
7.8e-05
7.8e-05
7.8e-05
7.8e-05
7.8e-05
7.8e-05
7.8e-05
7.8e-05
7.8e-05
7.8e-05
7.8e-05
7.8e-05
7.8e-05
7.8e-05
7.8e-05
7.8e-05
7.8e-05
7.8e-05
7.8e-05
7.8e-05
7.8e-05
7.8e-05
7.8e-05
7.8e-05
7.8e-05
7.8e-05
7.8e-05
7.8e-05
7.8e-05
7.8e-05
7.8e-05
7.8e-05
7.8e-05
7.8e-05
7.8e-05
7.8e-05
7.8e-05
7.8e-05
7.8e-05
7.8e-05
7.8e-05
7.8e-05
7.8e-05
7.8e-05
7.8e-05
7.8e-05
7.8e-05
7.8e-05
7.8e-05
7.8e-05
7.8e-05
7.8e-05
7.8e-05
7.8e-05
7.8e-05
7.8e-05
7.8e-05
7.8e-05
7.8e-05
7.8e-05
7.8e-05
7.8e-05
7.8e-05
7.8e-05
7.8e-05
7.8e-05
7.8e-05
7.8e-05
7.8e-05
7.8e-05
7.8e-05
7.8e-05
7.8e-05
7.8e-05
7.8e-05
7.8e-05
7.8e-05
7.8e-05
7.8e-05
7.8e-05
7.8e-05
7.8e-05
7.8e-05
7.8e-05
7.8e-05
7.8e-05
7.8e-05
7.8e-05
7.8e-05
7.8e-05
7.8e-05
7.8e-05
7.8e-05
7.8e-05
7.8e-05
7.8e-05
7.8e-05
7.8e-05
7.8e-05
7.8e-05
7.8e-05
7.8e-05
7.8e-05
7.8e-05
7.8e-05
7.8e-05
7.8e-05
7.8e-05
7.8e-05
7.8e-05
7.8e-05
7.8e-05
7.8e-05
7.8e-05
7.8e-05
7.8e-05
7.8e-05
7.8e-05
7.8e-05
7.8e-05
7.8e-05
7.8e-05
7.8e-05
7.8e-05
7.8e-05
7.8e-05
7.8e-05
7.8e-05
7.8e-05
7.8e-05
7.8e-05
7.8e-05
7.8e-05
7.8e-05
7.8e-05
7.8e-05
7.8e-05
7.8e-05
7.8e-05
7.8e-05
7.8e-05
7.8e-05
7.8e-05
7.8e-05
7.8e-05
7.8e-05
7.8e-05
7.8e-05
7.8e-05
7.8e-05
7.8e-05
7.8e-05
7.8e-05
7.8e-05
7.8e-05
7.8e-05
7.8e-05
7.8e-05
7.8e-05
7.8e-05
7.8e-05
7.8e-05
7.8e-05
7.8e-05
7.8e-05
7.8e-05
7.8e-05
7.8e-05
7.8e-05
7.8e-05
7.8e-05
7.8e-05
7.8e-05
7.8e-05
7.8e-05
7.8e-05
7.8e-05
7.8e-05
7.8e-05
7.8e-05
7.8e-05
7.8e-05
7.8e-05
7.8e-05
7.8e-05
7.8e-05
7.8e-05
7.8e-05
7.8e-05
7.8e-05
7.8e-05
7.8e-05
7.8e-05
7.8e-05
7.8e-05
7.8e-05
7.8e-05
7.8e-05
7.8e-05
7.8e-05
7.8e-05
7.8e-05
7.8e-05
7.8e-05
7.8e-05
7.8e-05
7.8e-05
7.8e-05
7.8e-05
7.8e-05
7.8e-05
7.8e-05
7.8e-05
7.8e-05
7.8e-05
7.8e-05
7.8e-05
7.8e-05
7.8e-05
7.8e-05
7.8e-05
7.8e-05
7.8e-05
7.8e-05
7.8e-05
7.8e-05
7.8e-05
7.8e-05
7.8e-05
7.8e-05
7.8e-05
7.8e-05
7.8e-05
7.8e-05
7.8e-05
7.8e-05
7.8e-05
7.8e-05
7.8e-05
7.8e-05
7.8e-05
7.8e-05
7.8e-05
7.8e-05
7.8e-05
7.8e-05
7.8e-05
7.8e-05
7.8e-05
7.8e-05
7.8e-05
7.8e-05
7.8e-05
7.8e-05
7.8e-05
7.8e-05
7.8e-05
7.8e-05
7.8e-05
7.8e-05
7.8e-05
7.8e-05
7.8e-05
7.8e-05
7.8e-05
7.8e-05
7.8e-05
7.8e-05
7.8e-05
7.8e-05
7.8e-05
7.8e-05
7.8e-05
7.8e-05
7.8e-05
7.8e-05
7.8e-05
7.8e-05
7.8e-05
7.8e-05
7.8e-05
7.8e-05
7.8e-05
7.8e-05
7.8e-05
7.8e-05
7.8e-05
7.8e-05
7.8e-05
7.8e-05
7.8e-05
7.8e-05
7.8e-05
7.8e-05
7.8e-05
7.8e-05
7.8e-05
7.8e-05
7.8e-05
7.8e-05
7.8e-05
7.8e-05
7.8e-05
7.8e-05
7.8e-05
7.8e-05
7.8e-05
7.8e-05
7.8e-05
7.8e-05
7.8e-05
7.8e-05
7.8e-05
7.8e-05
7.8e-05
7.8e-05
7.8e-05
7.8e-05
7.8e-05
7.8e-05
7.8e-05
7.8e-05
7.8e-05
7.8e-05
7.8e-05
7.8e-05
7.8e-05
7.8e-05
7.8e-05
7.8e-05
7.8e-05
7.8e-05
7.8e-05
7.8e-05
7.8e-05
7.8e-05
7.8e-05
7.8e-05
7.8e-05
7.8e-05
7.8e-05
7.8e-05
7.8e-05
7.8e-05
7.8e-05
7.8e-05
7.8e-05
7.8e-05
7.8e-05
7.8e-05
7.8e-05
7.8e-05
7.8e-05
7.8e-05
7.8e-05
7.8e-05
7.8e-05
7.8e-05
7.8e-05
7.8e-05
7.8e-05
7.8e-05
7.8e-05
7.8e-05
7.8e-05
7.8e-05
7.8e-05
7.8e-05
7.8e-05
7.8e-05
7.8e-05
7.8e-05
7.8e-05
7.8e-05
7.8e-05
7.8e-05
7.8e-05
7.8e-05
7.8e-05
7.8e-05
7.8e-05
7.8e-05
7.8e-05
7.8e-05
7.8e-05
7.8e-05
7.8e-05
7.8e-05
7.8e-05
7.8e-05
7.8e-05
7.8e-05
7.8e-05
7.8e-05
7.8e-05
7.8e-05
7.8e-05
7.8e-05
7.8e-05
7.8e-05
7.8e-05
7.8e-05
7.8e-05
7.8e-05
7.8e-05
7.8e-05
7.8e-05
7.8e-05
7.8e-05
7.8e-05
7.8e-05
7.8e-05
7.8e-05
7.8e-05
7.8e-05
7.8e-05
7.8e-05
7.8e-05
7.8e-05
7.8e-05
7.8e-05
7.8e-05
7.8e-05
7.8e-05
7.8e-05
7.8e-05
7.8e-05
7.8e-05
7.8e-05