/*--------------------------------*- C++ -*----------------------------------*\
| =========                 |                                                 |
| \\      /  F ield         | OpenFOAM: The Open Source CFD Toolbox           |
|  \\    /   O peration     | Version:  2406                                  |
|   \\  /    A nd           | Website:  www.openfoam.com                      |
|    \\/     M anipulation  |                                                 |
\*---------------------------------------------------------------------------*/
FoamFile
{
    version     2.0;
    format      ascii;
    arch        "LSB;label=32;scalar=64";
    class       volScalarField;
    location    "1.2";
    object      C_0;
}
// * * * * * * * * * * * * * * * * * * * * * * * * * * * * * * * * * * * * * //

dimensions      [1 -3 0 0 0 0 0];

internalField   nonuniform List<scalar> 
14400
(
3.06106
3.0589
3.05436
3.04693
3.03559
3.01578
2.98701
2.97353
2.99064
3.02231
3.04452
3.05828
3.06835
3.07576
3.08105
3.08451
3.08626
3.0863
3.08452
3.08059
3.07395
3.06351
3.04466
3.0174
3.00644
3.02656
3.06112
3.08596
3.10239
3.11551
3.12633
3.13546
3.14328
3.15002
3.15585
3.16091
3.16529
3.16905
3.17225
3.17493
3.17712
3.17885
3.18015
3.18103
3.18149
3.18156
3.18123
3.18052
3.17942
3.17792
3.17604
3.17376
3.17106
3.16795
3.1644
3.16041
3.15593
3.15095
3.14544
3.13935
3.13264
3.12524
3.11709
3.10807
3.09808
3.08695
3.07446
3.06033
3.0441
3.02513
3.00234
2.96987
2.9227
2.88062
2.8608
2.8567
2.86794
2.90125
2.94109
2.96741
2.98406
2.99644
3.00574
3.01264
3.01757
3.0208
3.02251
3.02277
3.02163
3.01905
3.01493
3.00909
3.00121
2.99073
2.97665
2.95437
2.92236
2.90389
2.91536
2.94174
2.95925
2.96835
2.97315
2.97454
2.97275
2.96754
2.95807
2.9402
2.91337
2.90135
2.91927
2.95085
2.97282
2.98663
2.99687
3.00456
3.01026
3.01432
3.01693
3.0182
3.06323
3.06127
3.05724
3.05084
3.04162
3.02904
3.01055
2.99899
3.01402
3.03522
3.05023
3.06196
3.07102
3.07788
3.08288
3.08621
3.08796
3.08814
3.08665
3.0833
3.07776
3.06955
3.05811
3.04104
3.03186
3.04979
3.07372
3.09125
3.10572
3.11779
3.12802
3.13678
3.14435
3.15092
3.15663
3.1616
3.1659
3.16961
3.17277
3.17541
3.17758
3.17929
3.18057
3.18143
3.18189
3.18195
3.18162
3.18091
3.17981
3.17832
3.17644
3.17416
3.17148
3.16838
3.16486
3.16088
3.15643
3.15149
3.14602
3.13998
3.13333
3.126
3.11794
3.10905
3.09921
3.0883
3.07611
3.06241
3.04685
3.02895
3.00803
2.98312
2.94904
2.91371
2.89909
2.89518
2.9013
2.92813
2.95522
2.97386
2.98833
2.99953
3.00813
3.0146
3.01927
3.02233
3.02394
3.02418
3.02306
3.02058
3.01665
3.01113
3.00381
2.99433
2.9822
2.96682
2.94528
2.92908
2.93868
2.95498
2.96558
2.97264
2.97657
2.97771
2.97616
2.97181
2.96435
2.95336
2.93664
2.9265
2.94216
2.9633
2.97836
2.99019
2.99942
3.00654
3.01191
3.01576
3.01826
3.01948
3.06734
3.06573
3.06249
3.05756
3.05101
3.04328
3.036
3.03169
3.03901
3.04895
3.05922
3.06832
3.07587
3.08186
3.08638
3.08949
3.09124
3.09164
3.09064
3.0882
3.08424
3.07883
3.07241
3.06674
3.06451
3.07438
3.08679
3.09961
3.11142
3.12193
3.13118
3.13929
3.14642
3.15267
3.15815
3.16295
3.16712
3.17072
3.17379
3.17637
3.17849
3.18016
3.18141
3.18225
3.18268
3.18273
3.1824
3.18168
3.18058
3.1791
3.17723
3.17497
3.17232
3.16925
3.16575
3.16182
3.15743
3.15255
3.14716
3.14121
3.13468
3.1275
3.11962
3.11096
3.10143
3.09092
3.07928
3.06635
3.05193
3.03577
3.0177
2.99775
2.97683
2.95566
2.94541
2.94174
2.94407
2.95732
2.97122
2.98448
2.99586
3.00521
3.01266
3.01838
3.02256
3.02532
3.02676
3.02693
3.02587
3.02356
3.01995
3.01499
3.00856
3.00057
2.99101
2.98021
2.96957
2.96124
2.96392
2.96951
2.97546
2.98005
2.98279
2.98357
2.98236
2.97919
2.97417
2.9678
2.96176
2.95859
2.96644
2.97667
2.98712
2.99637
3.00408
3.01028
3.01507
3.01857
3.02085
3.02198
3.07306
3.07183
3.06942
3.06591
3.06158
3.05705
3.05354
3.05295
3.05624
3.06234
3.06939
3.07622
3.08228
3.08733
3.09128
3.09413
3.09587
3.09652
3.09609
3.09461
3.09218
3.08909
3.08598
3.08413
3.0855
3.09102
3.09946
3.10897
3.11844
3.12733
3.13546
3.14279
3.14935
3.15519
3.16036
3.16492
3.1689
3.17236
3.17531
3.1778
3.17984
3.18145
3.18265
3.18345
3.18387
3.1839
3.18355
3.18283
3.18173
3.18026
3.17842
3.17618
3.17356
3.17053
3.16709
3.16323
3.15891
3.15413
3.14885
3.14304
3.13668
3.12971
3.12208
3.11375
3.10463
3.09466
3.08375
3.07179
3.05873
3.04452
3.02926
3.01335
2.99776
2.98438
2.97503
2.97137
2.9733
2.97932
2.98787
2.99696
3.00543
3.0128
3.0189
3.0237
3.02726
3.02962
3.03083
3.03092
3.02992
3.02782
3.02462
3.0203
3.01487
3.00839
3.00107
2.99343
2.98658
2.98229
2.98162
2.98371
2.98668
2.98931
2.99098
2.99141
2.99053
2.98842
2.98533
2.98191
2.97936
2.97956
2.9834
2.98984
2.99709
3.00407
3.01025
3.01542
3.01953
3.02258
3.0246
3.0256
3.08
3.07912
3.07743
3.07508
3.07236
3.0698
3.06816
3.06831
3.07066
3.07477
3.07977
3.08491
3.0897
3.09387
3.09729
3.09987
3.1016
3.10249
3.10258
3.10195
3.10078
3.09938
3.09829
3.0983
3.10033
3.10474
3.11105
3.11839
3.12602
3.13349
3.14054
3.14706
3.15301
3.15838
3.16318
3.16745
3.17121
3.17449
3.1773
3.17967
3.18162
3.18315
3.1843
3.18505
3.18543
3.18544
3.18508
3.18435
3.18326
3.18181
3.17998
3.17778
3.1752
3.17223
3.16886
3.16507
3.16086
3.15619
3.15106
3.14543
3.13927
3.13256
3.12525
3.11731
3.10869
3.09935
3.08924
3.07835
3.06668
3.05431
3.04148
3.02861
3.01649
3.00623
2.99892
2.99537
2.99557
2.99877
3.00398
3.01005
3.01611
3.02166
3.02643
3.03027
3.03316
3.03507
3.03602
3.03601
3.03507
3.03319
3.0304
3.02672
3.02222
3.01704
3.01144
3.00586
3.00104
2.99779
2.99657
2.997
2.99825
2.99954
3.0004
3.00056
2.99993
2.99861
2.99684
2.99513
2.99423
2.99498
2.99777
3.00217
3.00734
3.01258
3.01743
3.02163
3.02505
3.02763
3.02936
3.03023
3.08781
3.08722
3.0861
3.08461
3.08299
3.08163
3.08098
3.08148
3.08333
3.08632
3.09
3.09393
3.09774
3.10119
3.10412
3.10646
3.10817
3.10926
3.10979
3.10984
3.10961
3.10936
3.10948
3.11047
3.11276
3.11655
3.12161
3.1275
3.13377
3.14007
3.14616
3.15191
3.15724
3.16213
3.16654
3.1705
3.17401
3.17708
3.17973
3.18196
3.1838
3.18525
3.18632
3.18703
3.18737
3.18735
3.18697
3.18624
3.18516
3.18372
3.18192
3.17976
3.17723
3.17433
3.17104
3.16735
3.16325
3.15873
3.15377
3.14834
3.14243
3.13601
3.12906
3.12155
3.11347
3.10479
3.09552
3.08567
3.07532
3.06458
3.05372
3.04312
3.03335
3.02511
3.01907
3.01563
3.01482
3.01623
3.01924
3.02313
3.0273
3.03131
3.03487
3.03781
3.04003
3.04149
3.04216
3.04205
3.04114
3.03947
3.03706
3.03396
3.03027
3.02612
3.02177
3.01755
3.01391
3.01128
3.00986
3.00949
3.00976
3.01021
3.01052
3.01048
3.01003
3.00924
3.0083
3.00755
3.00743
3.00838
3.01054
3.01373
3.01752
3.02148
3.02525
3.0286
3.0314
3.03354
3.03499
3.03572
3.09622
3.09585
3.09515
3.09426
3.09337
3.09273
3.09263
3.09331
3.09485
3.09716
3.09999
3.10307
3.10614
3.10901
3.11154
3.11367
3.11535
3.1166
3.11746
3.11803
3.11846
3.11896
3.11982
3.12132
3.12371
3.12709
3.13135
3.13624
3.14149
3.14684
3.15211
3.15717
3.16193
3.16633
3.17036
3.174
3.17724
3.1801
3.18257
3.18465
3.18637
3.18773
3.18872
3.18936
3.18966
3.18961
3.18922
3.18848
3.18741
3.18599
3.18422
3.18211
3.17964
3.17681
3.17361
3.17004
3.16607
3.16171
3.15693
3.15173
3.14609
3.13999
3.13342
3.12637
3.11884
3.11084
3.10238
3.09351
3.08433
3.07498
3.0657
3.05679
3.04868
3.04181
3.03659
3.03327
3.03184
3.03209
3.03361
3.03594
3.03866
3.04141
3.04393
3.04605
3.04766
3.04869
3.04909
3.04886
3.04799
3.04649
3.04441
3.0418
3.03875
3.03541
3.03196
3.02865
3.02577
3.02355
3.0221
3.02135
3.02107
3.02102
3.02098
3.02082
3.02048
3.02001
3.01956
3.01933
3.01958
3.02054
3.02228
3.02469
3.02754
3.03055
3.03349
3.03614
3.03839
3.04014
3.04133
3.04194
3.10501
3.10479
3.10439
3.10391
3.1035
3.10331
3.10352
3.10427
3.10561
3.10748
3.10974
3.11222
3.11474
3.11717
3.11938
3.12132
3.12297
3.12432
3.12542
3.12635
3.12723
3.12822
3.12951
3.13128
3.13367
3.13675
3.14044
3.14462
3.1491
3.1537
3.15828
3.16273
3.16696
3.17092
3.17457
3.17789
3.18087
3.1835
3.18578
3.18772
3.18931
3.19056
3.19147
3.19205
3.19229
3.19221
3.1918
3.19106
3.19
3.1886
3.18687
3.18481
3.18241
3.17966
3.17657
3.17311
3.16929
3.1651
3.16053
3.15556
3.1502
3.14443
3.13826
3.13167
3.12469
3.11733
3.10963
3.10166
3.09351
3.08532
3.07729
3.06968
3.06277
3.05686
3.05222
3.049
3.0472
3.04667
3.04716
3.04837
3.04998
3.05173
3.05339
3.05481
3.05588
3.05651
3.05666
3.05631
3.05545
3.0541
3.05229
3.05007
3.04754
3.0448
3.04201
3.03934
3.03697
3.03505
3.03365
3.03272
3.03216
3.03182
3.03158
3.03133
3.03105
3.03077
3.03059
3.03062
3.03103
3.03192
3.03334
3.03521
3.03739
3.03971
3.04199
3.04409
3.04589
3.0473
3.04826
3.04876
3.11402
3.1139
3.11371
3.11351
3.11339
3.11347
3.11386
3.11464
3.11583
3.1174
3.11927
3.12133
3.12345
3.12553
3.12749
3.12928
3.13088
3.13229
3.13354
3.13471
3.13588
3.13717
3.13871
3.14061
3.14295
3.14578
3.14906
3.1527
3.15658
3.16058
3.16459
3.16851
3.17227
3.17582
3.17911
3.18212
3.18484
3.18725
3.18934
3.19112
3.19258
3.19372
3.19455
3.19506
3.19526
3.19514
3.19471
3.19397
3.19292
3.19155
3.18986
3.18785
3.18552
3.18286
3.17988
3.17655
3.17289
3.16887
3.16451
3.15979
3.15472
3.14929
3.1435
3.13737
3.13092
3.12417
3.11717
3.10999
3.10272
3.0955
3.08848
3.08185
3.07584
3.07065
3.06644
3.06331
3.06128
3.06023
3.06
3.06039
3.06117
3.06212
3.06309
3.06393
3.06452
3.06481
3.06473
3.06427
3.06341
3.06217
3.06057
3.05866
3.05652
3.05424
3.05193
3.04972
3.04772
3.04604
3.04471
3.04372
3.04303
3.04253
3.04216
3.04187
3.04162
3.04144
3.04139
3.04155
3.04199
3.04278
3.04394
3.04541
3.04711
3.04891
3.05069
3.05234
3.05376
3.05489
3.05567
3.05607
3.12313
3.12309
3.12304
3.12301
3.12309
3.12333
3.12382
3.12459
3.12567
3.12703
3.12862
3.13036
3.13218
3.134
3.13576
3.13743
3.13897
3.14041
3.14176
3.14308
3.14442
3.14589
3.14755
3.14948
3.15175
3.15437
3.15732
3.16053
3.16394
3.16745
3.17098
3.17444
3.17779
3.18096
3.18392
3.18665
3.18911
3.19131
3.19322
3.19484
3.19617
3.19721
3.19795
3.19839
3.19854
3.19839
3.19794
3.19719
3.19615
3.19481
3.19316
3.19121
3.18896
3.18639
3.18352
3.18033
3.17682
3.173
3.16885
3.16438
3.15959
3.15449
3.14908
3.14339
3.13743
3.13125
3.12488
3.1184
3.11189
3.10547
3.09926
3.09342
3.0881
3.08344
3.07957
3.07654
3.07436
3.07296
3.07223
3.07202
3.07217
3.07251
3.07292
3.07328
3.07348
3.07347
3.07319
3.07262
3.07175
3.07059
3.06915
3.06749
3.06565
3.06371
3.06176
3.05988
3.05816
3.05666
3.05542
3.05444
3.05369
3.05312
3.05268
3.05235
3.05212
3.05199
3.05199
3.05218
3.0526
3.05328
3.05422
3.05539
3.05671
3.05812
3.05951
3.06081
3.06194
3.06283
3.06346
3.06377
3.13229
3.1323
3.13233
3.13242
3.13261
3.13295
3.13348
3.13424
3.13522
3.13643
3.13781
3.13933
3.14092
3.14254
3.14414
3.14569
3.14718
3.14861
3.15001
3.15141
3.15285
3.1544
3.15611
3.15803
3.1602
3.16263
3.1653
3.16818
3.1712
3.1743
3.17742
3.1805
3.18348
3.18632
3.18898
3.19143
3.19366
3.19565
3.19738
3.19885
3.20005
3.20098
3.20164
3.20201
3.20211
3.20192
3.20146
3.20071
3.19968
3.19837
3.19677
3.19488
3.1927
3.19024
3.18748
3.18442
3.18108
3.17744
3.1735
3.16928
3.16478
3.16
3.15496
3.14968
3.14418
3.13851
3.1327
3.12684
3.12098
3.11522
3.10968
3.10446
3.09969
3.09546
3.09185
3.08892
3.08666
3.08503
3.08394
3.08329
3.08297
3.08284
3.08281
3.08277
3.08265
3.08239
3.08194
3.08128
3.08039
3.07928
3.07796
3.07648
3.07487
3.07319
3.07151
3.06988
3.06838
3.06703
3.06588
3.06493
3.06416
3.06356
3.06309
3.06274
3.06251
3.06239
3.06241
3.06259
3.06295
3.06352
3.06428
3.0652
3.06624
3.06734
3.06843
3.06945
3.07034
3.07105
3.07154
3.0718
3.14144
3.14148
3.14157
3.14172
3.14198
3.14237
3.14292
3.14365
3.14456
3.14564
3.14687
3.14821
3.14963
3.15109
3.15256
3.15401
3.15544
3.15685
3.15826
3.15969
3.16117
3.16274
3.16445
3.16633
3.16839
3.17065
3.17308
3.17567
3.17837
3.18114
3.18391
3.18665
3.18931
3.19185
3.19424
3.19644
3.19845
3.20025
3.20181
3.20313
3.20421
3.20503
3.2056
3.20591
3.20596
3.20574
3.20526
3.20451
3.2035
3.20221
3.20066
3.19883
3.19674
3.19437
3.19172
3.18881
3.18562
3.18217
3.17845
3.17447
3.17024
3.16577
3.16107
3.15617
3.1511
3.14589
3.14059
3.13526
3.12996
3.12477
3.11977
3.11507
3.11073
3.10684
3.10347
3.10063
3.09833
3.09654
3.0952
3.09424
3.09356
3.09308
3.0927
3.09235
3.09197
3.0915
3.0909
3.09015
3.08924
3.08817
3.08694
3.0856
3.08416
3.08268
3.0812
3.07977
3.07842
3.07721
3.07614
3.07523
3.07448
3.07387
3.07339
3.07302
3.07278
3.07265
3.07266
3.07281
3.07311
3.07356
3.07417
3.07489
3.07571
3.07657
3.07743
3.07823
3.07892
3.07948
3.07987
3.08007
3.15055
3.15061
3.15073
3.15093
3.15122
3.15164
3.15218
3.15288
3.15372
3.15471
3.15581
3.15702
3.1583
3.15963
3.16099
3.16235
3.16372
3.1651
3.16649
3.16791
3.16939
3.17095
3.17263
3.17443
3.17638
3.17848
3.18071
3.18305
3.18548
3.18796
3.19044
3.19288
3.19526
3.19753
3.19967
3.20165
3.20346
3.20507
3.20647
3.20766
3.20862
3.20934
3.20983
3.21007
3.21007
3.20983
3.20933
3.20858
3.20758
3.20633
3.20482
3.20306
3.20104
3.19877
3.19624
3.19347
3.19044
3.18717
3.18365
3.17991
3.17594
3.17176
3.16738
3.16284
3.15816
3.15337
3.14852
3.14365
3.13883
3.13411
3.12958
3.12529
3.12132
3.11772
3.11454
3.1118
3.10949
3.1076
3.10609
3.1049
3.10396
3.1032
3.10256
3.10197
3.10137
3.10073
3.10001
3.09919
3.09825
3.0972
3.09605
3.09481
3.0935
3.09217
3.09084
3.08956
3.08834
3.08723
3.08624
3.08538
3.08465
3.08404
3.08356
3.08319
3.08293
3.08279
3.08277
3.08287
3.0831
3.08346
3.08393
3.0845
3.08514
3.08581
3.08647
3.0871
3.08764
3.08808
3.08839
3.08855
3.15961
3.15968
3.15981
3.16003
3.16034
3.16076
3.1613
3.16196
3.16274
3.16365
3.16465
3.16575
3.16692
3.16815
3.16941
3.17069
3.172
3.17333
3.17468
3.17608
3.17753
3.17906
3.18067
3.1824
3.18423
3.18617
3.18822
3.19035
3.19255
3.19477
3.19699
3.19918
3.20131
3.20334
3.20526
3.20704
3.20866
3.2101
3.21135
3.21241
3.21325
3.21388
3.21429
3.21448
3.21444
3.21416
3.21365
3.2129
3.21192
3.2107
3.20924
3.20754
3.2056
3.20343
3.20102
3.19837
3.1955
3.1924
3.18909
3.18557
3.18184
3.17794
3.17387
3.16965
3.16532
3.16091
3.15645
3.15199
3.14759
3.14328
3.13913
3.1352
3.13154
3.12818
3.12517
3.12252
3.12023
3.11829
3.11666
3.11531
3.11418
3.11321
3.11237
3.11158
3.11082
3.11005
3.10923
3.10834
3.10738
3.10635
3.10524
3.10407
3.10287
3.10165
3.10044
3.09927
3.09816
3.09714
3.09621
3.09539
3.09469
3.09409
3.09361
3.09323
3.09296
3.0928
3.09275
3.0928
3.09297
3.09323
3.0936
3.09403
3.09453
3.09504
3.09556
3.09605
3.09647
3.09681
3.09705
3.09718
3.1686
3.16867
3.16881
3.16904
3.16936
3.16977
3.17029
3.17091
3.17164
3.17248
3.17341
3.17441
3.17549
3.17662
3.1778
3.17901
3.18025
3.18153
3.18284
3.18419
3.18559
3.18707
3.18861
3.19024
3.19196
3.19377
3.19565
3.19759
3.19958
3.20158
3.20358
3.20555
3.20745
3.20928
3.21099
3.21258
3.21403
3.21532
3.21643
3.21736
3.21811
3.21865
3.21899
3.21911
3.21903
3.21872
3.2182
3.21746
3.21649
3.2153
3.21389
3.21225
3.2104
3.20832
3.20602
3.20351
3.20079
3.19786
3.19473
3.19142
3.18793
3.18428
3.18049
3.17658
3.17257
3.16849
3.16439
3.16029
3.15624
3.15229
3.14847
3.14484
3.14144
3.1383
3.13544
3.13289
3.13063
3.12866
3.12696
3.12549
3.12422
3.12311
3.12211
3.12118
3.12029
3.1194
3.1185
3.11757
3.11659
3.11556
3.11449
3.11338
3.11225
3.11112
3.11
3.10892
3.1079
3.10694
3.10607
3.1053
3.10462
3.10404
3.10356
3.10317
3.10289
3.10271
3.10262
3.10263
3.10273
3.10292
3.10318
3.10351
3.10389
3.10428
3.10468
3.10505
3.10538
3.10565
3.10583
3.10593
3.17751
3.17759
3.17773
3.17796
3.17827
3.17868
3.17917
3.17976
3.18044
3.18122
3.18207
3.18301
3.184
3.18506
3.18616
3.1873
3.18848
3.18969
3.19094
3.19224
3.19359
3.195
3.19647
3.198
3.19961
3.20128
3.20301
3.20479
3.20659
3.2084
3.2102
3.21197
3.21368
3.21531
3.21685
3.21827
3.21956
3.2207
3.22169
3.22251
3.22316
3.22362
3.22389
3.22396
3.22383
3.22351
3.22297
3.22223
3.22129
3.22013
3.21876
3.21719
3.21541
3.21342
3.21124
3.20885
3.20627
3.20351
3.20056
3.19745
3.19418
3.19077
3.18724
3.1836
3.17988
3.17611
3.17231
3.16853
3.1648
3.16115
3.15763
3.15426
3.15109
3.14813
3.14541
3.14295
3.14073
3.13876
3.13702
3.13548
3.13411
3.13289
3.13177
3.13073
3.12974
3.12877
3.12781
3.12683
3.12584
3.12481
3.12377
3.1227
3.12163
3.12057
3.11952
3.11852
3.11756
3.11666
3.11584
3.1151
3.11444
3.11388
3.1134
3.11301
3.11272
3.11251
3.11239
3.11235
3.1124
3.11252
3.11271
3.11295
3.11322
3.11352
3.11382
3.1141
3.11436
3.11456
3.1147
3.11477
3.18635
3.18643
3.18657
3.1868
3.1871
3.18748
3.18795
3.18851
3.18915
3.18987
3.19067
3.19153
3.19246
3.19344
3.19447
3.19555
3.19666
3.19781
3.19901
3.20025
3.20153
3.20286
3.20425
3.2057
3.20719
3.20874
3.21033
3.21195
3.21359
3.21523
3.21685
3.21844
3.21998
3.22144
3.22282
3.22409
3.22523
3.22625
3.22712
3.22784
3.22839
3.22877
3.22898
3.229
3.22884
3.22849
3.22795
3.22722
3.22629
3.22517
3.22385
3.22233
3.22063
3.21873
3.21665
3.21439
3.21195
3.20934
3.20656
3.20364
3.20057
3.19738
3.19408
3.1907
3.18724
3.18374
3.18023
3.17673
3.17327
3.16989
3.16662
3.16348
3.16051
3.15772
3.15513
3.15276
3.15059
3.14864
3.14688
3.14529
3.14386
3.14256
3.14136
3.14024
3.13917
3.13814
3.13713
3.13612
3.13511
3.13409
3.13306
3.13203
3.13101
3.13
3.12901
3.12806
3.12715
3.12631
3.12552
3.12481
3.12418
3.12363
3.12316
3.12276
3.12246
3.12223
3.12208
3.122
3.122
3.12206
3.12218
3.12234
3.12254
3.12275
3.12298
3.12319
3.12338
3.12353
3.12364
3.12369
3.19512
3.19519
3.19533
3.19555
3.19584
3.19621
3.19665
3.19718
3.19777
3.19845
3.19919
3.19999
3.20086
3.20178
3.20274
3.20375
3.2048
3.2059
3.20703
3.2082
3.20942
3.21068
3.21198
3.21333
3.21472
3.21615
3.21762
3.2191
3.22059
3.22208
3.22354
3.22497
3.22635
3.22766
3.22889
3.23002
3.23104
3.23194
3.2327
3.23332
3.23379
3.23411
3.23425
3.23423
3.23404
3.23367
3.23312
3.2324
3.23149
3.23039
3.22912
3.22767
3.22604
3.22423
3.22225
3.2201
3.21779
3.21532
3.21271
3.20996
3.20709
3.2041
3.20102
3.19786
3.19465
3.19139
3.18813
3.18488
3.18167
3.17852
3.17547
3.17254
3.16975
3.16711
3.16464
3.16235
3.16025
3.15832
3.15655
3.15495
3.15347
3.15212
3.15087
3.14969
3.14857
3.14749
3.14644
3.14541
3.14439
3.14337
3.14236
3.14136
3.14037
3.1394
3.13846
3.13755
3.13669
3.13588
3.13514
3.13445
3.13384
3.1333
3.13283
3.13243
3.13211
3.13186
3.13169
3.13158
3.13153
3.13154
3.1316
3.1317
3.13183
3.13198
3.13214
3.13229
3.13243
3.13254
3.13262
3.13266
3.20382
3.20388
3.20402
3.20423
3.20451
3.20485
3.20527
3.20576
3.20632
3.20695
3.20764
3.2084
3.2092
3.21006
3.21097
3.21192
3.21291
3.21394
3.215
3.21611
3.21726
3.21844
3.21966
3.22092
3.22221
3.22354
3.22488
3.22623
3.22759
3.22894
3.23026
3.23155
3.23279
3.23397
3.23506
3.23607
3.23697
3.23776
3.23842
3.23896
3.23935
3.2396
3.2397
3.23964
3.23941
3.23903
3.23847
3.23775
3.23686
3.2358
3.23458
3.23318
3.23162
3.22989
3.22801
3.22597
3.22379
3.22146
3.219
3.21641
3.21371
3.21092
3.20803
3.20508
3.20208
3.19905
3.19601
3.19299
3.18999
3.18706
3.18421
3.18146
3.17882
3.17632
3.17397
3.17177
3.16972
3.16783
3.16608
3.16446
3.16297
3.16159
3.16029
3.15908
3.15792
3.15681
3.15574
3.15469
3.15366
3.15265
3.15165
3.15067
3.14971
3.14878
3.14787
3.147
3.14618
3.1454
3.14468
3.14402
3.14342
3.14289
3.14242
3.14203
3.14169
3.14143
3.14123
3.14109
3.141
3.14097
3.14098
3.14103
3.14111
3.1412
3.14131
3.14141
3.14151
3.14159
3.14164
3.14167
3.21244
3.21251
3.21264
3.21283
3.2131
3.21343
3.21382
3.21428
3.21481
3.21539
3.21604
3.21674
3.2175
3.2183
3.21915
3.22004
3.22097
3.22194
3.22294
3.22398
3.22506
3.22617
3.22731
3.22848
3.22968
3.23089
3.23213
3.23337
3.2346
3.23582
3.23702
3.23818
3.23929
3.24034
3.24132
3.24221
3.24301
3.2437
3.24428
3.24473
3.24506
3.24525
3.2453
3.2452
3.24495
3.24455
3.24399
3.24328
3.24241
3.24138
3.2402
3.23886
3.23736
3.23572
3.23393
3.23199
3.22992
3.22772
3.2254
3.22297
3.22044
3.21781
3.21511
3.21236
3.20955
3.20672
3.20388
3.20106
3.19826
3.19552
3.19284
3.19025
3.18777
3.18539
3.18315
3.18103
3.17904
3.17719
3.17546
3.17386
3.17236
3.17096
3.16965
3.1684
3.16722
3.16609
3.165
3.16395
3.16292
3.16191
3.16093
3.15997
3.15903
3.15812
3.15724
3.15641
3.15561
3.15486
3.15416
3.15352
3.15294
3.15241
3.15195
3.15155
3.15121
3.15093
3.15071
3.15054
3.15042
3.15035
3.15032
3.15033
3.15036
3.15041
3.15047
3.15054
3.1506
3.15066
3.15069
3.15071
3.221
3.22106
3.22119
3.22137
3.22162
3.22193
3.2223
3.22273
3.22323
3.22377
3.22438
3.22503
3.22574
3.22649
3.22728
3.22812
3.22899
3.2299
3.23084
3.23182
3.23282
3.23386
3.23492
3.23601
3.23712
3.23824
3.23937
3.2405
3.24163
3.24273
3.24382
3.24486
3.24586
3.2468
3.24766
3.24845
3.24916
3.24976
3.25025
3.25064
3.2509
3.25103
3.25104
3.25091
3.25064
3.25022
3.24967
3.24896
3.24811
3.24712
3.24597
3.24469
3.24326
3.24169
3.23999
3.23815
3.23619
3.23411
3.23192
3.22963
3.22725
3.22479
3.22225
3.21967
3.21705
3.2144
3.21174
3.2091
3.20648
3.2039
3.20139
3.19895
3.19659
3.19434
3.19219
3.19016
3.18823
3.18643
3.18473
3.18314
3.18165
3.18025
3.17892
3.17767
3.17648
3.17534
3.17424
3.17318
3.17215
3.17115
3.17018
3.16923
3.16832
3.16743
3.16658
3.16577
3.165
3.16427
3.16359
3.16297
3.16239
3.16188
3.16142
3.16101
3.16066
3.16037
3.16013
3.15994
3.1598
3.15969
3.15963
3.1596
3.1596
3.15961
3.15964
3.15967
3.15971
3.15974
3.15976
3.15977
3.2295
3.22956
3.22967
3.22985
3.23008
3.23037
3.23072
3.23113
3.23159
3.2321
3.23266
3.23328
3.23394
3.23464
3.23538
3.23616
3.23698
3.23783
3.23871
3.23962
3.24056
3.24153
3.24251
3.24352
3.24454
3.24557
3.24661
3.24764
3.24866
3.24967
3.25064
3.25158
3.25248
3.25332
3.25409
3.25478
3.2554
3.25592
3.25634
3.25666
3.25686
3.25695
3.25692
3.25676
3.25646
3.25604
3.25548
3.25479
3.25396
3.25299
3.25189
3.25066
3.24929
3.24779
3.24617
3.24443
3.24257
3.24061
3.23854
3.23638
3.23414
3.23182
3.22945
3.22702
3.22456
3.22208
3.21959
3.21711
3.21465
3.21223
3.20986
3.20755
3.20532
3.20318
3.20112
3.19917
3.19731
3.19555
3.19389
3.19232
3.19085
3.18945
3.18813
3.18687
3.18568
3.18453
3.18343
3.18237
3.18135
3.18036
3.1794
3.17847
3.17757
3.17671
3.17588
3.17509
3.17434
3.17363
3.17297
3.17236
3.17179
3.17128
3.17082
3.17042
3.17006
3.16976
3.1695
3.16929
3.16913
3.169
3.16891
3.16884
3.16881
3.16879
3.16879
3.1688
3.16881
3.16882
3.16884
3.16884
3.23794
3.23799
3.2381
3.23827
3.23848
3.23876
3.23908
3.23946
3.23989
3.24037
3.2409
3.24147
3.24209
3.24274
3.24344
3.24417
3.24493
3.24572
3.24655
3.2474
3.24827
3.24917
3.25008
3.25101
3.25195
3.2529
3.25385
3.25479
3.25572
3.25663
3.25751
3.25835
3.25915
3.2599
3.26058
3.2612
3.26173
3.26218
3.26254
3.26279
3.26295
3.26299
3.26292
3.26273
3.26242
3.26199
3.26144
3.26075
3.25994
3.25901
3.25795
3.25676
3.25545
3.25402
3.25248
3.25083
3.24907
3.24721
3.24525
3.24322
3.2411
3.23892
3.23669
3.23441
3.2321
3.22977
3.22743
3.22509
3.22278
3.2205
3.21826
3.21608
3.21396
3.21192
3.20996
3.20808
3.20628
3.20458
3.20296
3.20142
3.19996
3.19858
3.19727
3.19602
3.19483
3.19368
3.19259
3.19153
3.19052
3.18953
3.18859
3.18767
3.18679
3.18594
3.18513
3.18436
3.18363
3.18294
3.18229
3.18169
3.18114
3.18063
3.18018
3.17977
3.17941
3.17909
3.17883
3.1786
3.17841
3.17826
3.17815
3.17806
3.178
3.17796
3.17793
3.17792
3.17791
3.17791
3.17791
3.17792
3.24632
3.24637
3.24647
3.24663
3.24683
3.24709
3.24739
3.24775
3.24815
3.2486
3.24909
3.24962
3.2502
3.25081
3.25146
3.25214
3.25285
3.25359
3.25436
3.25515
3.25596
3.25679
3.25764
3.25849
3.25936
3.26023
3.26109
3.26195
3.2628
3.26362
3.26441
3.26517
3.26588
3.26654
3.26715
3.26768
3.26815
3.26853
3.26883
3.26903
3.26914
3.26914
3.26904
3.26883
3.26851
3.26807
3.26751
3.26684
3.26605
3.26515
3.26412
3.26298
3.26173
3.26037
3.2589
3.25732
3.25566
3.25389
3.25205
3.25012
3.24813
3.24608
3.24397
3.24183
3.23965
3.23746
3.23526
3.23306
3.23088
3.22873
3.22661
3.22454
3.22253
3.22058
3.2187
3.2169
3.21517
3.21351
3.21194
3.21043
3.209
3.20764
3.20634
3.20511
3.20392
3.20279
3.2017
3.20065
3.19965
3.19868
3.19774
3.19684
3.19598
3.19515
3.19435
3.1936
3.19288
3.19221
3.19157
3.19098
3.19044
3.18994
3.18948
3.18907
3.18871
3.18839
3.18811
3.18787
3.18766
3.1875
3.18736
3.18725
3.18717
3.18711
3.18707
3.18703
3.18701
3.187
3.18699
3.18699
3.25465
3.25469
3.25479
3.25494
3.25513
3.25537
3.25565
3.25598
3.25636
3.25678
3.25723
3.25773
3.25827
3.25884
3.25944
3.26008
3.26074
3.26143
3.26214
3.26287
3.26363
3.2644
3.26518
3.26597
3.26676
3.26756
3.26835
3.26913
3.26989
3.27063
3.27135
3.27203
3.27266
3.27325
3.27378
3.27425
3.27464
3.27497
3.27521
3.27536
3.27543
3.2754
3.27527
3.27504
3.2747
3.27426
3.27371
3.27305
3.27228
3.2714
3.27041
3.26932
3.26812
3.26682
3.26542
3.26392
3.26234
3.26067
3.25892
3.2571
3.25522
3.25328
3.2513
3.24928
3.24723
3.24516
3.24308
3.24101
3.23895
3.23692
3.23491
3.23295
3.23104
3.22918
3.22738
3.22564
3.22397
3.22237
3.22084
3.21938
3.21798
3.21664
3.21536
3.21414
3.21297
3.21185
3.21077
3.20973
3.20874
3.20778
3.20686
3.20597
3.20512
3.20431
3.20353
3.20279
3.20209
3.20143
3.20081
3.20023
3.19969
3.19919
3.19874
3.19833
3.19796
3.19763
3.19735
3.19709
3.19688
3.1967
3.19655
3.19642
3.19632
3.19624
3.19618
3.19614
3.1961
3.19608
3.19607
3.19606
3.26293
3.26297
3.26306
3.2632
3.26338
3.2636
3.26387
3.26417
3.26452
3.26491
3.26534
3.2658
3.2663
3.26683
3.26739
3.26798
3.2686
3.26924
3.2699
3.27058
3.27128
3.27199
3.27271
3.27343
3.27416
3.27489
3.27561
3.27632
3.27701
3.27768
3.27832
3.27892
3.27949
3.28001
3.28047
3.28087
3.28121
3.28148
3.28168
3.28179
3.28182
3.28175
3.2816
3.28135
3.281
3.28056
3.28001
3.27936
3.27861
3.27776
3.27681
3.27576
3.27461
3.27336
3.27203
3.27061
3.2691
3.26752
3.26586
3.26414
3.26236
3.26053
3.25866
3.25675
3.25482
3.25286
3.25091
3.24895
3.247
3.24507
3.24317
3.24131
3.23948
3.23771
3.23599
3.23432
3.23271
3.23116
3.22968
3.22825
3.22688
3.22557
3.22432
3.22312
3.22196
3.22086
3.21979
3.21877
3.21779
3.21685
3.21594
3.21507
3.21424
3.21344
3.21267
3.21195
3.21126
3.21061
3.21
3.20943
3.2089
3.20841
3.20796
3.20755
3.20717
3.20684
3.20655
3.20629
3.20606
3.20587
3.2057
3.20556
3.20545
3.20535
3.20528
3.20522
3.20518
3.20515
3.20513
3.20512
3.27116
3.2712
3.27129
3.27141
3.27158
3.27179
3.27204
3.27232
3.27265
3.27301
3.27341
3.27384
3.2743
3.2748
3.27532
3.27587
3.27644
3.27703
3.27764
3.27827
3.27892
3.27957
3.28023
3.2809
3.28156
3.28223
3.28288
3.28352
3.28415
3.28475
3.28532
3.28586
3.28636
3.28682
3.28722
3.28757
3.28785
3.28807
3.28822
3.2883
3.28829
3.2882
3.28802
3.28776
3.2874
3.28696
3.28641
3.28578
3.28505
3.28422
3.2833
3.28229
3.28119
3.28
3.27873
3.27737
3.27594
3.27444
3.27287
3.27124
3.26955
3.26782
3.26605
3.26425
3.26242
3.26058
3.25872
3.25687
3.25503
3.2532
3.2514
3.24962
3.24788
3.24619
3.24454
3.24294
3.24139
3.23989
3.23845
3.23706
3.23573
3.23445
3.23322
3.23204
3.23091
3.22982
3.22878
3.22777
3.22681
3.22588
3.22499
3.22413
3.22331
3.22253
3.22178
3.22107
3.22039
3.21975
3.21915
3.21859
3.21806
3.21758
3.21713
3.21672
3.21635
3.21601
3.21571
3.21544
3.21521
3.215
3.21483
3.21468
3.21455
3.21445
3.21436
3.2143
3.21425
3.21421
3.21418
3.21417
3.27935
3.27939
3.27947
3.27958
3.27974
3.27994
3.28017
3.28043
3.28074
3.28107
3.28144
3.28184
3.28227
3.28273
3.28322
3.28372
3.28425
3.2848
3.28537
3.28595
3.28654
3.28714
3.28775
3.28836
3.28897
3.28957
3.29017
3.29075
3.29131
3.29185
3.29236
3.29284
3.29328
3.29368
3.29403
3.29432
3.29456
3.29474
3.29484
3.29488
3.29485
3.29473
3.29454
3.29426
3.2939
3.29345
3.29291
3.29229
3.29157
3.29077
3.28989
3.28891
3.28786
3.28672
3.2855
3.28421
3.28285
3.28142
3.27994
3.27839
3.27679
3.27515
3.27348
3.27177
3.27004
3.2683
3.26654
3.26479
3.26304
3.2613
3.25959
3.2579
3.25624
3.25462
3.25304
3.2515
3.25001
3.24856
3.24717
3.24582
3.24453
3.24328
3.24208
3.24092
3.23981
3.23875
3.23772
3.23673
3.23578
3.23487
3.23399
3.23315
3.23235
3.23158
3.23084
3.23014
3.22948
3.22885
3.22826
3.22771
3.22719
3.22671
3.22627
3.22586
3.22548
3.22514
3.22484
3.22457
3.22433
3.22411
3.22393
3.22377
3.22363
3.22352
3.22343
3.22335
3.22329
3.22325
3.22322
3.22321
3.2875
3.28754
3.28761
3.28772
3.28786
3.28804
3.28826
3.28851
3.28879
3.2891
3.28945
3.28982
3.29022
3.29064
3.29109
3.29156
3.29205
3.29255
3.29308
3.29361
3.29416
3.29471
3.29526
3.29582
3.29637
3.29692
3.29746
3.29799
3.29849
3.29897
3.29943
3.29985
3.30024
3.30059
3.30089
3.30113
3.30133
3.30146
3.30154
3.30154
3.30148
3.30134
3.30113
3.30084
3.30047
3.30003
3.2995
3.29888
3.29819
3.29741
3.29656
3.29562
3.29461
3.29352
3.29236
3.29113
3.28983
3.28847
3.28706
3.28559
3.28408
3.28252
3.28093
3.27932
3.27768
3.27602
3.27436
3.2727
3.27104
3.26939
3.26775
3.26614
3.26456
3.26301
3.26149
3.26002
3.25858
3.25719
3.25584
3.25453
3.25327
3.25206
3.25089
3.24976
3.24867
3.24763
3.24662
3.24565
3.24472
3.24382
3.24296
3.24214
3.24135
3.24059
3.23987
3.23919
3.23854
3.23792
3.23734
3.23679
3.23628
3.2358
3.23536
3.23496
3.23458
3.23424
3.23394
3.23366
3.23341
3.23319
3.233
3.23283
3.23269
3.23257
3.23247
3.23239
3.23233
3.23228
3.23225
3.23224
3.29561
3.29565
3.29571
3.29582
3.29595
3.29612
3.29632
3.29655
3.29681
3.2971
3.29742
3.29776
3.29813
3.29852
3.29894
3.29937
3.29982
3.30029
3.30077
3.30126
3.30176
3.30227
3.30278
3.30328
3.30379
3.30429
3.30477
3.30524
3.3057
3.30613
3.30653
3.3069
3.30724
3.30754
3.30779
3.308
3.30815
3.30825
3.30829
3.30827
3.30818
3.30803
3.3078
3.3075
3.30713
3.30668
3.30616
3.30556
3.30488
3.30413
3.30331
3.3024
3.30143
3.30039
3.29928
3.2981
3.29687
3.29557
3.29423
3.29283
3.2914
3.28992
3.28842
3.28688
3.28533
3.28376
3.28218
3.2806
3.27902
3.27745
3.2759
3.27436
3.27285
3.27136
3.26991
3.26849
3.26711
3.26577
3.26446
3.2632
3.26197
3.26079
3.25965
3.25855
3.25749
3.25647
3.25548
3.25453
3.25362
3.25274
3.2519
3.25109
3.25032
3.24958
3.24887
3.24819
3.24755
3.24695
3.24638
3.24584
3.24533
3.24486
3.24443
3.24402
3.24365
3.24331
3.243
3.24272
3.24247
3.24225
3.24205
3.24188
3.24173
3.2416
3.2415
3.24141
3.24134
3.24129
3.24126
3.24124
3.30369
3.30372
3.30378
3.30388
3.304
3.30416
3.30434
3.30456
3.3048
3.30507
3.30536
3.30568
3.30602
3.30638
3.30677
3.30717
3.30758
3.30801
3.30845
3.30891
3.30936
3.30983
3.31029
3.31075
3.31121
3.31166
3.31209
3.31252
3.31292
3.31331
3.31366
3.31399
3.31428
3.31454
3.31475
3.31492
3.31504
3.3151
3.31511
3.31506
3.31496
3.31478
3.31454
3.31424
3.31386
3.31342
3.3129
3.31231
3.31166
3.31093
3.31013
3.30926
3.30832
3.30732
3.30626
3.30514
3.30396
3.30273
3.30145
3.30012
3.29876
3.29736
3.29592
3.29447
3.29299
3.2915
3.29
3.2885
3.287
3.2855
3.28402
3.28255
3.28111
3.27969
3.27829
3.27693
3.2756
3.2743
3.27304
3.27182
3.27063
3.26949
3.26838
3.2673