/*--------------------------------*- C++ -*----------------------------------*\
| =========                 |                                                 |
| \\      /  F ield         | OpenFOAM: The Open Source CFD Toolbox           |
|  \\    /   O peration     | Version:  2406                                  |
|   \\  /    A nd           | Website:  www.openfoam.com                      |
|    \\/     M anipulation  |                                                 |
\*---------------------------------------------------------------------------*/
FoamFile
{
    version     2.0;
    format      ascii;
    arch        "LSB;label=32;scalar=64";
    class       volScalarField;
    location    "8.8";
    object      C;
}
// * * * * * * * * * * * * * * * * * * * * * * * * * * * * * * * * * * * * * //

dimensions      [1 -3 0 0 0 0 0];

internalField   nonuniform List<scalar> 
14400
(
0.217733
0.216897
0.21542
0.213608
0.211777
0.210206
0.209102
0.208596
0.208737
0.20949
0.210738
0.212273
0.213797
0.214933
0.215266
0.214439
0.212322
0.209148
0.205352
0.201409
0.197751
0.194742
0.192688
0.191854
0.192485
0.194829
0.199141
0.205693
0.214769
0.226664
0.241683
0.260144
0.282376
0.308715
0.339475
0.374896
0.414952
0.458363
0.494561
0.519205
0.538176
0.554393
0.568093
0.579457
0.588624
0.595701
0.600765
0.603873
0.60506
0.604347
0.601733
0.597203
0.590725
0.582247
0.571695
0.558971
0.543947
0.526454
0.506276
0.479293
0.440869
0.397369
0.357476
0.322309
0.291844
0.265814
0.243883
0.225703
0.21093
0.199225
0.190251
0.183682
0.179219
0.17661
0.175661
0.176238
0.178256
0.181672
0.186479
0.192687
0.200317
0.209374
0.219812
0.23149
0.244072
0.256837
0.267974
0.274039
0.273061
0.266985
0.25869
0.250028
0.241752
0.234256
0.227752
0.222334
0.218009
0.214721
0.212363
0.210791
0.209841
0.209344
0.209152
0.209171
0.209377
0.209835
0.21068
0.2121
0.214304
0.217504
0.221894
0.227637
0.234853
0.243605
0.253879
0.265547
0.27831
0.291555
0.303946
0.311603
0.223296
0.222251
0.220445
0.218278
0.21613
0.214313
0.213052
0.212483
0.212659
0.213547
0.215026
0.216884
0.218803
0.220358
0.221033
0.220311
0.217929
0.21428
0.209961
0.205538
0.20148
0.198164
0.195893
0.194926
0.195503
0.197863
0.202257
0.208947
0.218211
0.230341
0.24564
0.264426
0.287029
0.31378
0.344986
0.380847
0.42123
0.46461
0.499124
0.522273
0.540931
0.55691
0.570428
0.581653
0.590715
0.597713
0.602721
0.605792
0.606962
0.606247
0.603648
0.599152
0.592726
0.584321
0.573867
0.561272
0.546415
0.52914
0.509249
0.483846
0.446924
0.403139
0.362821
0.327195
0.296279
0.269824
0.247501
0.228963
0.213867
0.201873
0.192651
0.18588
0.181265
0.178557
0.177563
0.178147
0.180225
0.183757
0.188737
0.195181
0.203115
0.212549
0.223448
0.235677
0.248925
0.262471
0.27409
0.279921
0.279619
0.273438
0.264654
0.255509
0.24681
0.238963
0.232185
0.226569
0.222121
0.218781
0.216435
0.214927
0.214072
0.213677
0.213563
0.213611
0.21379
0.214175
0.214928
0.216266
0.218424
0.221632
0.226094
0.231981
0.239417
0.248468
0.259124
0.271268
0.284607
0.298494
0.31117
0.317985
0.234935
0.233394
0.230853
0.227922
0.225109
0.222785
0.221201
0.220505
0.22075
0.221905
0.223851
0.226367
0.229109
0.231575
0.233059
0.23265
0.229597
0.224865
0.219423
0.214003
0.209133
0.205196
0.202486
0.20125
0.201711
0.204097
0.208641
0.215594
0.225224
0.237814
0.253665
0.273093
0.29643
0.324005
0.356109
0.392874
0.433872
0.476317
0.507206
0.528306
0.546365
0.561888
0.575057
0.586013
0.59487
0.601715
0.606614
0.609614
0.610748
0.61003
0.607462
0.60303
0.596705
0.588443
0.57818
0.565834
0.5513
0.534442
0.515092
0.492042
0.458227
0.4146
0.373583
0.337058
0.305241
0.27794
0.25484
0.235596
0.219863
0.207305
0.197595
0.190423
0.185506
0.1826
0.181514
0.182113
0.184314
0.18808
0.193409
0.200327
0.208868
0.219051
0.230849
0.24414
0.258612
0.273477
0.285609
0.291013
0.291571
0.2861
0.276631
0.266604
0.257091
0.248565
0.241257
0.235263
0.230586
0.22716
0.224859
0.223502
0.222867
0.222703
0.222768
0.222883
0.222996
0.223208
0.223746
0.22489
0.226929
0.230128
0.234714
0.24087
0.248725
0.258351
0.26974
0.282779
0.297174
0.31217
0.324651
0.329722
0.253654
0.25112
0.247259
0.243055
0.239179
0.236066
0.233985
0.233089
0.233434
0.234989
0.237636
0.241155
0.245191
0.249184
0.252215
0.252667
0.248116
0.241418
0.23413
0.227155
0.221048
0.216174
0.212801
0.21115
0.211423
0.213824
0.218569
0.225892
0.236047
0.249307
0.265968
0.286346
0.310767
0.339557
0.372993
0.411165
0.453312
0.491651
0.517441
0.537116
0.554335
0.56922
0.581897
0.592473
0.601038
0.607663
0.612405
0.615303
0.616385
0.615664
0.61314
0.608801
0.602623
0.594565
0.584576
0.572585
0.558507
0.542238
0.523658
0.50261
0.473557
0.432023
0.389968
0.352073
0.318908
0.290348
0.266097
0.245813
0.229149
0.215768
0.20535
0.197596
0.192236
0.189038
0.187816
0.188439
0.190827
0.194947
0.200806
0.208435
0.217878
0.229163
0.24227
0.257071
0.273192
0.289526
0.301421
0.306408
0.307684
0.304465
0.294745
0.283538
0.272878
0.263385
0.255325
0.248801
0.243817
0.240305
0.23812
0.237053
0.23682
0.237085
0.237487
0.237727
0.237704
0.237583
0.237711
0.238486
0.240278
0.243408
0.248133
0.254651
0.263095
0.273536
0.285956
0.300212
0.315911
0.331814
0.34227
0.345812
0.28088
0.276368
0.270335
0.264234
0.258856
0.254655
0.251899
0.250731
0.251203
0.253284
0.256858
0.261715
0.267511
0.273695
0.279255
0.281501
0.274125
0.264353
0.25445
0.245374
0.237625
0.231509
0.227251
0.225034
0.225032
0.227424
0.232404
0.240186
0.251009
0.265136
0.282854
0.304471
0.330303
0.360648
0.395703
0.435256
0.477156
0.508462
0.529906
0.548382
0.564637
0.578761
0.590838
0.600944
0.609144
0.615495
0.620039
0.622808
0.623825
0.6231
0.620632
0.616412
0.610419
0.60262
0.592973
0.581423
0.567906
0.552347
0.534666
0.514786
0.490807
0.455016
0.411971
0.372403
0.33751
0.30731
0.281554
0.259913
0.242041
0.227602
0.21628
0.207786
0.201863
0.198292
0.1969
0.197562
0.200205
0.204802
0.211365
0.219933
0.230554
0.243265
0.258047
0.274757
0.292889
0.310376
0.320527
0.325292
0.327165
0.326174
0.318684
0.306459
0.294472
0.283802
0.274814
0.267643
0.262309
0.258746
0.256803
0.256232
0.256682
0.25769
0.258701
0.259167
0.25888
0.258141
0.257543
0.257673
0.259018
0.261965
0.266804
0.273744
0.282917
0.294379
0.308076
0.323781
0.340806
0.355893
0.362662
0.365305
0.31762
0.309645
0.30048
0.291866
0.284567
0.279003
0.275402
0.273893
0.27452
0.277244
0.281947
0.288415
0.296291
0.304941
0.312654
0.313325
0.306678
0.293525
0.280539
0.268967
0.259247
0.251624
0.246272
0.24334
0.242972
0.245321
0.25056
0.258882
0.27051
0.285691
0.304704
0.32784
0.355385
0.387576
0.424471
0.465262
0.501604
0.525574
0.544705
0.561868
0.577071
0.59035
0.60175
0.61132
0.619101
0.625133
0.629447
0.632066
0.633007
0.632278
0.629877
0.625797
0.62002
0.612523
0.603272
0.592228
0.579346
0.564577
0.547872
0.529192
0.508475
0.480181
0.439235
0.39822
0.361335
0.329153
0.30156
0.278263
0.258925
0.24321
0.230808
0.221437
0.214853
0.210851
0.20927
0.209998
0.212969
0.218163
0.225596
0.23531
0.247359
0.261776
0.27853
0.297417
0.317607
0.334288
0.342272
0.347056
0.349453
0.349594
0.34626
0.335233
0.32212
0.310184
0.300156
0.292254
0.286551
0.283007
0.281477
0.281691
0.283229
0.285474
0.28759
0.288475
0.287672
0.285805
0.283985
0.283073
0.283691
0.286287
0.291182
0.29858
0.308595
0.321253
0.336403
0.353559
0.371083
0.38128
0.385368
0.387441
0.354591
0.349174
0.337361
0.326047
0.316579
0.309456
0.304876
0.302971
0.30378
0.307253
0.313243
0.321495
0.331485
0.341898
0.346359
0.344684
0.340788
0.327948
0.312318
0.298165
0.286274
0.27693
0.2703
0.266513
0.265692
0.267968
0.273491
0.282436
0.295003
0.311427
0.331967
0.356889
0.386411
0.420593
0.458932
0.497995
0.524731
0.543939
0.561474
0.577313
0.591428
0.603816
0.614494
0.623483
0.630807
0.636489
0.640549
0.643003
0.643861
0.643127
0.640802
0.636878
0.631343
0.624179
0.615364
0.604872
0.592674
0.578743
0.563055
0.545598
0.526374
0.50438
0.471783
0.429798
0.390715
0.356253
0.326522
0.30129
0.28024
0.263044
0.249395
0.239023
0.231695
0.227217
0.225444
0.226273
0.229649
0.235557
0.244016
0.255071
0.268769
0.28513
0.30407
0.325165
0.34655
0.359627
0.366454
0.371205
0.373997
0.374964
0.37432
0.368831
0.355854
0.342818
0.331739
0.323055
0.316977
0.313535
0.312627
0.313974
0.317124
0.321307
0.325443
0.327134
0.325311
0.321421
0.317668
0.315214
0.314762
0.316804
0.321679
0.329557
0.340491
0.354472
0.371109
0.389111
0.401592
0.406848
0.410022
0.41165
0.387956
0.386818
0.379502
0.366529
0.354974
0.346257
0.340613
0.338278
0.339296
0.343602
0.350962
0.360978
0.372312
0.379103
0.379108
0.377283
0.374459
0.366491
0.349739
0.333223
0.319073
0.30785
0.299783
0.295017
0.293665
0.295845
0.301689
0.311346
0.324995
0.342847
0.365136
0.392094
0.423816
0.460012
0.498763
0.52725
0.546513
0.563922
0.579938
0.594484
0.60751
0.618994
0.628927
0.637311
0.644155
0.649467
0.653258
0.655535
0.656305
0.655568
0.653325
0.64957
0.644294
0.637487
0.629134
0.619221
0.607735
0.594665
0.580007
0.56377
0.54598
0.526682
0.50271
0.466483
0.425803
0.388975
0.356886
0.329474
0.30648
0.287599
0.27254
0.261043
0.252887
0.247893
0.245927
0.246898
0.250758
0.257497
0.267137
0.279716
0.295265
0.313765
0.335025
0.358143
0.377144
0.38629
0.392645
0.397312
0.400368
0.40194
0.402212
0.401299
0.394854
0.381671
0.369809
0.36035
0.353904
0.350635
0.350558
0.353364
0.358649
0.36541
0.372778
0.375768
0.372256
0.36526
0.358858
0.354404
0.352547
0.353817
0.358608
0.366982
0.378801
0.394049
0.411302
0.424146
0.430248
0.43376
0.436221
0.437487
0.421355
0.421123
0.419428
0.412048
0.399458
0.389486
0.38276
0.380001
0.381236
0.386402
0.394988
0.405951
0.412969
0.414027
0.412731
0.410868
0.408293
0.404513
0.392553
0.374372
0.358015
0.344819
0.335188
0.329338
0.32739
0.329464
0.33568
0.346155
0.361029
0.38048
0.404691
0.43385
0.467729
0.504681
0.533354
0.552674
0.569528
0.585297
0.599873
0.613173
0.625136
0.635723
0.644909
0.652681
0.659034
0.663966
0.66748
0.669576
0.670254
0.669517
0.66736
0.663782
0.658777
0.652339
0.644463
0.635144
0.62438
0.612174
0.598539
0.583497
0.567092
0.549389
0.530471
0.504721
0.46627
0.427621
0.393122
0.363339
0.338189
0.317425
0.300783
0.288027
0.278953
0.273397
0.271234
0.272385
0.276808
0.284498
0.295473
0.309753
0.327328
0.348066
0.371384
0.394471
0.407368
0.414645
0.420525
0.42503
0.428222
0.430215
0.431171
0.431305
0.430526
0.424811
0.413935
0.404082
0.397361
0.394284
0.395217
0.399559
0.406952
0.415149
0.419346
0.420658
0.419447
0.415176
0.406782
0.400497
0.397054
0.397344
0.402044
0.410951
0.423211
0.438841
0.449978
0.455767
0.459043
0.461723
0.463614
0.46459
0.454985
0.454932
0.454905
0.453652
0.448056
0.438533
0.431005
0.427993
0.429352
0.435075
0.44375
0.448812
0.449627
0.448349
0.446921
0.445164
0.442968
0.440284
0.435004
0.420912
0.403269
0.388231
0.37697
0.369969
0.367375
0.369347
0.376008
0.387424
0.403657
0.424832
0.450969
0.482182
0.516793
0.543971
0.562607
0.578495
0.593629
0.607864
0.621084
0.633199
0.644139
0.653852
0.662304
0.669469
0.675333
0.679885
0.68312
0.685032
0.685621
0.684883
0.682817
0.679421
0.674692
0.66863
0.661236
0.652513
0.642467
0.631113
0.618475
0.604588
0.589503
0.573291
0.556045
0.537691
0.511027
0.472393
0.435692
0.403431
0.375955
0.353117
0.334713
0.320553
0.310457
0.304278
0.301907
0.303274
0.30834
0.317099
0.329559
0.345702
0.365434
0.388402
0.413035
0.429714
0.437826
0.444378
0.44978
0.45406
0.457277
0.459527
0.460951
0.461731
0.462105
0.462115
0.458557
0.452641
0.446314
0.443394
0.44542
0.450385
0.454815
0.457484
0.457628
0.457599
0.458439
0.458653
0.456288
0.451951
0.447364
0.44661
0.451252
0.460614
0.471177
0.479096
0.483298
0.48597
0.488436
0.490473
0.491921
0.492671
0.488667
0.488716
0.488875
0.489267
0.489366
0.486641
0.483035
0.48067
0.481627
0.484257
0.486279
0.485679
0.484172
0.482822
0.48144
0.4799
0.478131
0.476116
0.473909
0.467997
0.454221
0.43828
0.425474
0.417364
0.414082
0.415964
0.423178
0.43568
0.453342
0.476249
0.503725
0.53545
0.559485
0.576347
0.590917
0.605071
0.618629
0.631446
0.643401
0.6544
0.664367
0.673243
0.680985
0.687559
0.692944
0.697122
0.700081
0.701813
0.702314
0.701578
0.699604
0.696392
0.691941
0.686254
0.679338
0.671202
0.661861
0.651337
0.639661
0.626876
0.61304
0.598227
0.582525
0.56604
0.548343
0.522035
0.48472
0.450182
0.420354
0.395296
0.37495
0.359234
0.348002
0.341128
0.338528
0.340139
0.34592
0.355854
0.369932
0.388034
0.409826
0.434109
0.453237
0.462735
0.46945
0.47526
0.480156
0.484154
0.487298
0.489667
0.491373
0.492564
0.493425
0.494176
0.495074
0.494409
0.492652
0.491611
0.492112
0.493244
0.493341
0.492387
0.492045
0.49224
0.493055
0.494458
0.49649
0.496962
0.496857
0.497955
0.501288
0.506006
0.510319
0.512405
0.514359
0.516381
0.518257
0.519814
0.520925
0.521502
0.522299
0.522391
0.52261
0.52303
0.523745
0.52487
0.52504
0.524472
0.524219
0.523513
0.521563
0.519933
0.518561
0.517325
0.516118
0.514867
0.513537
0.512142
0.510746
0.509464
0.504575
0.494041
0.480533
0.471771
0.467756
0.469558
0.477476
0.491231
0.510066
0.534155
0.559892
0.579675
0.593768
0.606751
0.619644
0.632241
0.644371
0.655888
0.666675
0.676634
0.685686
0.693768
0.700832
0.70684
0.711762
0.715577
0.718269
0.719827
0.720242
0.719511
0.71763
0.7146
0.710424
0.705108
0.698661
0.691098
0.682439
0.672712
0.661955
0.650216
0.637556
0.62405
0.60979
0.594881
0.579444
0.562859
0.538282
0.503413
0.471796
0.444542
0.4221
0.404697
0.392217
0.38456
0.381695
0.383578
0.390128
0.401301
0.417072
0.437013
0.459842
0.479516
0.489877
0.49623
0.50198
0.507057
0.511431
0.5151
0.518094
0.520469
0.52231
0.523728
0.524855
0.525836
0.526808
0.527842
0.528848
0.52915
0.528538
0.527434
0.52656
0.52603
0.525924
0.526262
0.527082
0.528397
0.530241
0.53266
0.535489
0.537925
0.539883
0.541182
0.542339
0.543777
0.545353
0.546938
0.548395
0.549602
0.550462
0.550909
0.555841
0.555937
0.556146
0.556497
0.557009
0.557652
0.558222
0.558404
0.557695
0.55649
0.555165
0.553927
0.552814
0.551798
0.55084
0.549911
0.54901
0.548169
0.547466
0.547031
0.54706
0.544927
0.539616
0.532355
0.527725
0.529561
0.538242
0.55315
0.57134
0.588748
0.603471
0.614561
0.625802
0.637244
0.648667
0.65988
0.670724
0.681061
0.690776
0.699774
0.707974
0.715312
0.721737
0.727206
0.731687
0.735155
0.737591
0.738982
0.739318
0.738593
0.736806
0.733956
0.730048
0.725092
0.719099
0.712088
0.704084
0.695118
0.685232
0.674477
0.662917
0.650629
0.637704
0.624249
0.61039
0.596272
0.581502
0.559847
0.529803
0.501132
0.47657
0.45749
0.443693
0.435141
0.431965
0.434152
0.441485
0.453805
0.471171
0.491933
0.509637
0.519535
0.525074
0.530328
0.535182
0.539558
0.54341
0.546723
0.549509
0.551805
0.55367
0.555182
0.55643
0.557504
0.558473
0.559355
0.560064
0.560379
0.560224
0.559806
0.559429
0.559249
0.559358
0.559802
0.560614
0.561807
0.563379
0.565292
0.567401
0.569415
0.571076
0.572445
0.573708
0.57501
0.576337
0.577623
0.578784
0.579737
0.580413
0.580764
0.589286
0.58937
0.589541
0.589803
0.590142
0.590504
0.590764
0.590751
0.590313
0.589564
0.588681
0.587796
0.586969
0.586214
0.585533
0.584928
0.584421
0.584057
0.583919
0.584128
0.584863
0.586366
0.587881
0.587757
0.588564
0.592259
0.59955
0.609416
0.62
0.629419
0.638228
0.64772
0.657634
0.667757
0.677898
0.687889
0.697584
0.706856
0.715596
0.723711
0.731124
0.73777
0.743596
0.748559
0.752624
0.755764
0.757959
0.759192
0.759454
0.758739
0.757043
0.754368
0.750721
0.746112
0.740556
0.734073
0.72669
0.718444
0.709377
0.699542
0.689006
0.677844
0.666147
0.654023
0.641594
0.629004
0.61642
0.603868
0.586333
0.563649
0.53791
0.517824
0.502802
0.49319
0.489636
0.492202
0.500238
0.512988
0.530846
0.544075
0.551853
0.556177
0.560555
0.564825
0.568863
0.572582
0.575928
0.578872
0.581414
0.583572
0.585384
0.586901
0.588179
0.589275
0.590227
0.591039
0.591671
0.592051
0.592172
0.592138
0.592102
0.592181
0.592455
0.592975
0.593766
0.594838
0.596175
0.597728
0.599394
0.601024
0.602499
0.603816
0.605036
0.606218
0.607362
0.608433
0.60938
0.610148
0.61069
0.61097
0.622649
0.622715
0.622844
0.623031
0.623251
0.623459
0.623579
0.623525
0.623242
0.622771
0.6222
0.621608
0.621051
0.620557
0.620149
0.619848
0.619688
0.61972
0.620023
0.620701
0.621893
0.623768
0.626502
0.630359
0.63485
0.639622
0.644997
0.650685
0.656941
0.664136
0.672025
0.680459
0.689258
0.698251
0.707279
0.716195
0.724868
0.733183
0.74104
0.748351
0.755041
0.761048
0.766319
0.77081
0.774487
0.777319
0.779288
0.780374
0.780569
0.779864
0.778258
0.775754
0.772357
0.76808
0.762938
0.756956
0.750161
0.742591
0.734289
0.72531
0.71572
0.705593
0.695019
0.684101
0.672959
0.661729
0.650573
0.639676
0.629266
0.616923
0.60151
0.584237
0.568703
0.55798
0.553982
0.556923
0.565186
0.57489
0.582533
0.586791
0.589566
0.59276
0.596145
0.599554
0.602863
0.60598
0.608846
0.611424
0.613703
0.615685
0.617393
0.618857
0.620112
0.621192
0.622121
0.622904
0.62353
0.623982
0.624275
0.624471
0.624658
0.624916
0.625308
0.625875
0.626638
0.627604
0.628755
0.630051
0.631423
0.632788
0.634081
0.635281
0.636404
0.637464
0.638459
0.639367
0.640155
0.640786
0.641228
0.641455
0.655945
0.655995
0.656092
0.656224
0.656372
0.656502
0.656568
0.656527
0.656358
0.65608
0.655739
0.655387
0.655068
0.654815
0.654658
0.654627
0.654762
0.655114
0.655751
0.65676
0.658242
0.66031
0.663065
0.666571
0.670691
0.675274
0.680222
0.685631
0.691583
0.698158
0.705278
0.712831
0.720688
0.728712
0.736772
0.744742
0.752509
0.759969
0.76703
0.773611
0.779642
0.785063
0.789822
0.793877
0.797192
0.79974
0.801497
0.802449
0.802582
0.80189
0.800373
0.798031
0.794873
0.790911
0.786162
0.780651
0.774408
0.767468
0.759878
0.751691
0.74297
0.733789
0.724235
0.714404
0.704411
0.694382
0.684466
0.674832
0.665674
0.657215
0.649434
0.640071
0.630841
0.623566
0.6196
0.619165
0.621124
0.623412
0.623885
0.625019
0.626855
0.62915
0.631711
0.634385
0.637054
0.63963
0.642051
0.644277
0.646286
0.648074
0.649647
0.651021
0.652219
0.653259
0.654159
0.654926
0.655563
0.656072
0.656475
0.656814
0.657143
0.657519
0.657986
0.658577
0.659309
0.660185
0.661191
0.662297
0.663459
0.664625
0.665755
0.666826
0.667833
0.668775
0.669643
0.670422
0.671087
0.671614
0.67198
0.672168
0.689191
0.68923
0.689304
0.689403
0.689512
0.689607
0.689664
0.689659
0.689583
0.689451
0.689289
0.689133
0.689018
0.688977
0.68904
0.689241
0.689619
0.690222
0.691108
0.692344
0.694005
0.696164
0.698878
0.702168
0.705981
0.710249
0.714927
0.720035
0.7256
0.731636
0.738096
0.7449
0.75195
0.759137
0.766354
0.773493
0.780457
0.787154
0.793499
0.799421
0.804853
0.809738
0.814029
0.817682
0.820665
0.82295
0.824514
0.825341
0.825419
0.824743
0.823311
0.821125
0.818193
0.814528
0.810149
0.80508
0.79935
0.792997
0.786064
0.778605
0.77068
0.76236
0.753726
0.744871
0.735897
0.726923
0.718078
0.70951
0.701378
0.693851
0.68709
0.681303
0.676486
0.672322
0.66881
0.665956
0.663657
0.662322
0.66203
0.662543
0.663684
0.665276
0.667164
0.66922
0.671337
0.673434
0.675452
0.677346
0.679092
0.680677
0.682098
0.683363
0.684482
0.685468
0.686331
0.68708
0.687722
0.688269
0.68874
0.689165
0.689582
0.69003
0.690541
0.691138
0.691835
0.692635
0.693526
0.694487
0.69549
0.696499
0.697487
0.698434
0.699327
0.700159
0.700917
0.701589
0.702158
0.702603
0.702911
0.703068
0.722397
0.72243
0.72249
0.722572
0.722664
0.722752
0.722821
0.72286
0.722866
0.722851
0.722833
0.722838
0.722896
0.723035
0.723285
0.723678
0.724252
0.725048
0.726115
0.727504
0.72927
0.731462
0.734115
0.737241
0.740817
0.744813
0.749202
0.75398
0.759147
0.76469
0.77057
0.776724
0.783074
0.789534
0.796012
0.802421
0.808673
0.814689
0.820394
0.825721
0.83061
0.835009
0.838872
0.842158
0.844837
0.84688
0.848267
0.848981
0.849012
0.848353
0.847002
0.844964
0.842245
0.83886
0.834827
0.830169
0.824916
0.819104
0.812777
0.805984
0.798785
0.791245
0.78344
0.775455
0.767384
0.759333
0.751414
0.743753
0.736478
0.72972
0.723598
0.718214
0.713578
0.709611
0.706253
0.703478
0.701348
0.699973
0.69937
0.69944
0.700061
0.701105
0.702451
0.703992
0.705639
0.707319
0.708975
0.710564
0.712059
0.713442
0.714706
0.715851
0.716879
0.717798
0.718616
0.719339
0.719977
0.720542
0.72105
0.721524
0.721991
0.722478
0.723008
0.723599
0.72426
0.724993
0.72579
0.726637
0.727513
0.728395
0.729262
0.730096
0.730884
0.731615
0.732278
0.732861
0.73335
0.733731
0.733992
0.734126
0.755572
0.755601
0.755656
0.755732
0.755821
0.755916
0.756008
0.756093
0.756172
0.756253
0.756353
0.756491
0.756692
0.756981
0.757385
0.757935
0.758662
0.759604
0.760799
0.762287
0.764109
0.766299
0.768881
0.771862
0.775235
0.778983
0.783088
0.787537
0.792318
0.797408
0.80277
0.808352
0.814089
0.819911
0.825741
0.831504
0.837125
0.842534
0.847665
0.852458
0.856858
0.860816
0.86429
0.867243
0.869644
0.871468
0.872693
0.873306
0.873294
0.872653
0.871382
0.869483
0.866965
0.86384
0.860128
0.855852
0.85104
0.845727
0.839955
0.833771
0.82723
0.820395
0.813333
0.806124
0.798852
0.791609
0.784494
0.77761
0.771062
0.764952
0.759368
0.754375
0.749995
0.746209
0.742993
0.740344
0.738285
0.736851
0.736037
0.735786
0.736016
0.736632
0.737542
0.73866
0.73991
0.741228
0.742564
0.743876
0.745137
0.746327
0.747435
0.748454
0.749385
0.750231
0.750995
0.751684
0.752306
0.752871
0.753393
0.75389
0.75438
0.754883
0.755415
0.75599
0.756613
0.757287
0.758006
0.758758
0.759531
0.760306
0.761068
0.761803
0.762497
0.76314
0.76372
0.764227
0.76465
0.764978
0.765202
0.765316
0.788718
0.788746
0.7888
0.788877
0.788973
0.789083
0.789203
0.789333
0.789475
0.789637
0.789834
0.790082
0.7904
0.790811
0.79134
0.792014
0.792859
0.793907
0.795189
0.796737
0.798581
0.800745
0.803247
0.806093
0.809279
0.812796
0.816628
0.820762
0.825179
0.829854
0.83475
0.839824
0.84502
0.850279
0.855537
0.860728
0.865789
0.870658
0.875276
0.879589
0.883547
0.887107
0.890229
0.89288
0.895029
0.896653
0.897732
0.898253
0.898206
0.897585
0.896388
0.894621
0.89229
0.889409
0.885995
0.882071
0.877665
0.87281
0.867545
0.861915
0.855971
0.84977
0.843375
0.836857
0.830291
0.823758
0.817342
0.81113
0.805209
0.799657
0.794546
0.789924
0.785819
0.782234
0.779167
0.776619
0.774598
0.77311
0.772141
0.771652
0.771583
0.771865
0.772425
0.773195
0.774111
0.77512
0.776175
0.77724
0.778287
0.779295
0.780251
0.781146
0.781977
0.782745
0.78345
0.784096
0.784692
0.785243
0.785763
0.786263
0.786757
0.787259
0.787781
0.788331
0.788916
0.789536
0.790186
0.79086
0.791545
0.79223
0.792903
0.79355
0.794162
0.794727
0.795235
0.795677
0.796045
0.796329
0.796522
0.79662
0.821835
0.821864
0.821921
0.822004
0.822111
0.822239
0.822388
0.822559
0.822757
0.822988
0.823265
0.823601
0.824014
0.824524
0.825152
0.82592
0.826853
0.827975
0.829313
0.830891
0.832731
0.834853
0.837268
0.839982
0.842993
0.846292
0.849868
0.853705
0.857783
0.862077
0.866554
0.871173
0.875889
0.880649
0.885399
0.890083
0.894646
0.899032
0.903191
0.907073
0.910635
0.913837
0.916641
0.919017
0.920938
0.922382
0.92333
0.92377
0.923692
0.923091
0.921966
0.920322
0.918165
0.915509
0.912371
0.908772
0.904739
0.900302
0.8955
0.890372
0.884968
0.879338
0.87354
0.867638
0.861697
0.855789
0.849985
0.84436
0.838985
0.833924
0.829234
0.824958
0.821123
0.817743
0.814823
0.812367
0.810377
0.808848
0.807766
0.807098
0.8068
0.806819
0.807098
0.807583
0.808221
0.808965
0.809777
0.810623
0.811475
0.812315
0.813127
0.813902
0.814634
0.81532
0.815962
0.81656
0.81712
0.817648
0.818152
0.818641
0.819125
0.819614
0.820117
0.820639
0.821185
0.821754
0.822344
0.822949
0.82356
0.824168
0.824763
0.825334
0.825873
0.82637
0.826816
0.827203
0.827523
0.82777
0.827938
0.828023
0.854924
0.854955
0.855016
0.855107
0.855227
0.855375
0.855552
0.85576
0.856005
0.856293
0.856635
0.857043
0.857533
0.85812
0.858823
0.859662
0.860657
0.861828
0.863196
0.864781
0.8666
0.868667
0.870991
0.873575
0.876418
0.879512
0.882847
0.886406
0.890171
0.894117
0.898214
0.902426
0.906713
0.911029
0.915328
0.91956
0.923678
0.927634
0.931382
0.934879
0.938084
0.940962
0.94348
0.945609
0.947325
0.948606
0.949437
0.949805
0.9497
0.94912
0.948064
0.946534
0.94454
0.942093
0.939208
0.935908
0.932215
0.928161
0.923779
0.919108
0.91419
0.909073
0.90381
0.898457
0.893071
0.887715
0.882451
0.877341
0.872446
0.867819
0.863508
0.85955
0.855972
0.852791
0.850015
0.847649
0.845693
0.844141
0.842977
0.842175
0.8417
0.841512
0.841566
0.841818
0.842223
0.842744
0.843345
0.843997
0.844676
0.845362
0.84604
0.8467
0.847335
0.847942
0.848517
0.849063
0.849581
0.850077
0.850556
0.851023
0.851488
0.851956
0.852433
0.852924
0.85343
0.853952
0.854487
0.855031
0.855577
0.856118
0.856646
0.857151
0.857626
0.858064
0.858455
0.858795
0.859075
0.85929
0.859436
0.85951
0.887981
0.888015
0.888081
0.888181
0.888314
0.888481
0.888684
0.888925
0.889209
0.889545
0.889939
0.890405
0.890953
0.8916
0.892359
0.893248
0.894284
0.895483
0.896863
0.898438
0.900222
0.902225
0.904453
0.90691
0.909591
0.912492
0.9156
0.918902
0.922379
0.926007
0.92976
0.933605
0.937507
0.941426
0.945322
0.949152
0.952873
0.956444
0.959824
0.962975
0.965861
0.968448
0.970709
0.972615
0.974146
0.975282
0.976007
0.976311
0.976185
0.975626
0.974634
0.973212
0.971368
0.969113
0.966462
0.963435
0.960054
0.956348
0.952348
0.948089
0.94361
0.938956
0.934172
0.929307
0.924415
0.919549
0.914762
0.910108
0.905638
0.901398
0.897429
0.893763
0.890425
0.887433
0.884797
0.882521
0.880606
0.879045
0.877825
0.876923
0.876314
0.875964
0.875837
0.875898
0.876111
0.876442
0.876863
0.877346
0.87787
0.878417
0.878972
0.879524
0.880066
0.880593
0.881102
0.881592
0.882065
0.882523
0.88297
0.88341
0.883848
0.884288
0.884736
0.885192
0.885659
0.886136
0.886622
0.887111
0.8876
0.888082
0.88855
0.888998
0.889418
0.889803
0.890148
0.890446
0.890691
0.890879
0.891007
0.891072
0.921005
0.921041
0.921113
0.921222
0.921368
0.921552
0.921777
0.922046
0.922363
0.922737
0.923173
0.923682
0.924276
0.924966
0.925765
0.926688
0.927748
0.928959
0.930334
0.931886
0.933624
0.935557
0.937688
0.940019
0.942546
0.945263
0.94816
0.951223
0.954434
0.957772
0.961213
0.964727
0.968283
0.971847
0.975382
0.978852
0.982218
0.985445
0.988496
0.991336
0.993935
0.996262
0.998291
0.999997
1.00136
1.00237
1.003
1.00325
1.0031
1.00257
1.00163
1.00031
0.998607
0.996528
0.994092
0.991314
0.988219
0.984829
0.981175
0.97729
0.973207
0.968968
0.964613
0.960186
0.955734
0.951303
0.94694
0.942691
0.9386
0.934707
0.931046
0.927647
0.924533
0.921719
0.919218
0.917033
0.915166
0.913609
0.912353
0.91138
0.910668
0.910191
0.90992
0.909826
0.909879
0.910051
0.910317
0.910654
0.911041
0.911463
0.911906
0.912358
0.912812
0.913262
0.913705
0.914139
0.914564
0.914981
0.915391
0.915798
0.916205
0.916614
0.917029
0.91745
0.917878
0.918313
0.918752
0.919193
0.91963
0.92006
0.920476
0.920872
0.921244
0.921584
0.921887
0.922149
0.922364
0.922529
0.922641
0.922698
0.953993
0.954032
0.954109
0.954226
0.954383
0.954582
0.954826
0.955118
0.955462
0.955865
0.956334
0.956876
0.957502
0.958223
0.959048
0.95999
0.96106
0.96227
0.963629
0.965147
0.966833
0.96869
0.970723
0.972931
0.97531
0.977854
0.980554
0.983395
0.986362
0.989436
0.992592
0.995807
0.999052
1.0023
1.00551
1.00865
1.0117
1.01462
1.01738
1.01994
1.02228
1.02437
1.02619
1.02772
1.02894
1.02983
1.03037
1.03057
1.03042
1.0299
1.02902
1.0278
1.02622
1.0243
1.02206
1.01951
1.01668
1.01357
1.01024
1.00669
1.00296
0.999095
0.995125
0.99109
0.987031
0.982988
0.979004
0.975117
0.971365
0.967783
0.964402
0.961247
0.958339
0.955694
0.953322
0.951228
0.949413
0.947873
0.946599
0.945576
0.944788
0.944213
0.943827
0.943607
0.943528
0.943567
0.943701
0.943911
0.944179
0.944489
0.94483
0.94519
0.945562
0.945939
0.946318
0.946696
0.947071
0.947444
0.947816
0.948187
0.948559
0.948935
0.949315
0.9497
0.95009
0.950485
0.950881
0.951277
0.951668
0.952051
0.952421
0.952772
0.953101
0.953401
0.953668
0.953898
0.954088
0.954233
0.954331
0.95438
0.986943
0.986984
0.987066
0.987189
0.987356
0.987568
0.987827
0.988137
0.988502
0.988928
0.98942
0.989986
0.990635
0.991374
0.992214
0.993164
0.994233
0.99543
0.996764
0.998242
0.999869
1.00165
1.00358
1.00567
1.00791
1.01029
1.01281
1.01544
1.01818
1.02102
1.02391
1.02686
1.02982
1.03278
1.0357
1.03856
1.04132
1.04396
1.04645
1.04876
1.05087
1.05276
1.05439
1.05576
1.05684
1.05762
1.0581
1.05825
1.05809
1.05759
1.05677
1.05563
1.05417
1.0524
1.05034
1.048
1.0454
1.04256
1.0395
1.03626
1.03286
1.02933
1.0257
1.02202
1.01831
1.01462
1.01097
1.00741
1.00396
1.00066
0.997531
0.994599
0.991883
0.989396
0.987148
0.985144
0.983387
0.981872
0.980593
0.979538
0.978694
0.978044
0.977568
0.977246
0.977059
0.976986
0.977009
0.97711
0.977273
0.977485
0.977734
0.97801
0.978306
0.978614
0.978931
0.979254
0.97958
0.979909
0.98024
0.980574
0.980911
0.981252
0.981597
0.981946
0.982299
0.982655
0.983011
0.983365
0.983715
0.984056
0.984384
0.984695
0.984986
0.985251
0.985486
0.985689
0.985855
0.985983
0.986069
0.986112
1.01985
1.01989
1.01998
1.02011
1.02028
1.02051
1.02078
1.0211
1.02148
1.02192
1.02243
1.02301
1.02368
1.02443
1.02527
1.02622
1.02728
1.02845
1.02976
1.03119
1.03275
1.03445
1.03629
1.03826
1.04037
1.04259
1.04494
1.04738
1.04992
1.05253
1.05519
1.05789
1.0606
1.06329
1.06595
1.06855
1.07106
1.07345
1.0757
1.07779
1.07969
1.08139
1.08286
1.08408
1.08504
1.08573
1.08614
1.08626
1.08608
1.08561
1.08484
1.08378
1.08242
1.08079
1.0789
1.07675
1.07436
1.07176
1.06896
1.06599
1.06288
1.05965
1.05634
1.05297
1.04958
1.0462
1.04285
1.03958
1.03641
1.03336
1.03046
1.02774
1.0252
1.02286
1.02073
1.01881
1.01712
1.01563
1.01436
1.01329
1.01241
1.0117
1.01115
1.01075
1.01048
1.01031
1.01024
1.01025
1.01032
1.01044
1.01061
1.01081
1.01104
1.01128
1.01154
1.01181
1.01209
1.01237
1.01266
1.01296
1.01326
1.01356
1.01387
1.01419
1.0145
1.01482
1.01514
1.01546
1.01577
1.01607
1.01636
1.01664
1.0169
1.01713
1.01734
1.01752
1.01766
1.01777
1.01785
1.01789
1.05272
1.05276
1.05285
1.05298
1.05317
1.05339
1.05368
1.05401
1.0544
1.05485
1.05537
1.05596
1.05663
1.05738
1.05822
1.05916
1.0602
1.06135
1.06262
1.064
1.0655
1.06712
1.06886
1.07072
1.0727
1.07478
1.07696
1.07923
1.08158
1.08398
1.08643
1.08891
1.09139
1.09385
1.09627
1.09863
1.10091
1.10308
1.10512
1.10701
1.10872
1.11025
1.11157
1.11266
1.11352
1.11412
1.11447
1.11456
1.11438
1.11392
1.1132
1.11221
1.11096
1.10945
1.10771
1.10573
1.10354
1.10115
1.09859
1.09587
1.09302
1.09006
1.08703
1.08395
1.08084
1.07774
1.07467
1.07166
1.06873
1.06591
1.06323