/*--------------------------------*- C++ -*----------------------------------*\
| =========                 |                                                 |
| \\      /  F ield         | OpenFOAM: The Open Source CFD Toolbox           |
|  \\    /   O peration     | Version:  2406                                  |
|   \\  /    A nd           | Website:  www.openfoam.com                      |
|    \\/     M anipulation  |                                                 |
\*---------------------------------------------------------------------------*/
FoamFile
{
    version     2.0;
    format      ascii;
    arch        "LSB;label=32;scalar=64";
    class       volScalarField;
    location    "8.8";
    object      Da;
}
// * * * * * * * * * * * * * * * * * * * * * * * * * * * * * * * * * * * * * //

dimensions      [0 2 -1 0 0 0 0];

internalField   nonuniform List<scalar> 
14400
(
5.00568e-05
5.00468e-05
5.00374e-05
5.00374e-05
5.00479e-05
5.00642e-05
5.00794e-05
5.00885e-05
5.00902e-05
5.00883e-05
5.00907e-05
5.01074e-05
5.01456e-05
5.02033e-05
5.02604e-05
5.02797e-05
5.02336e-05
5.01466e-05
5.0042e-05
4.99196e-05
4.97608e-05
4.95398e-05
4.92327e-05
4.88255e-05
4.83205e-05
4.77402e-05
4.71243e-05
4.65186e-05
4.59619e-05
4.54788e-05
4.50805e-05
4.47707e-05
4.45517e-05
4.44313e-05
4.44322e-05
4.46192e-05
4.52098e-05
4.74024e-05
6.49916e-05
7.79996e-05
7.8e-05
7.8e-05
7.8e-05
7.8e-05
7.8e-05
7.8e-05
7.8e-05
7.8e-05
7.8e-05
7.8e-05
7.8e-05
7.8e-05
7.8e-05
7.8e-05
7.8e-05
7.8e-05
7.8e-05
7.8e-05
7.79957e-05
6.0564e-05
4.72569e-05
4.53624e-05
4.48707e-05
4.47709e-05
4.48734e-05
4.51274e-05
4.55234e-05
4.60679e-05
4.67693e-05
4.76209e-05
4.85816e-05
4.95705e-05
5.04891e-05
5.12548e-05
5.1817e-05
5.21551e-05
5.22696e-05
5.21754e-05
5.18998e-05
5.14837e-05
5.09842e-05
5.04745e-05
5.00435e-05
4.98043e-05
4.99515e-05
5.10803e-05
5.66128e-05
7.76528e-05
6.07403e-05
5.09267e-05
4.90216e-05
4.84255e-05
4.82472e-05
4.82697e-05
4.84064e-05
4.86091e-05
4.88448e-05
4.9088e-05
4.93185e-05
4.95204e-05
4.96806e-05
4.97882e-05
4.98335e-05
4.98087e-05
4.97105e-05
4.95417e-05
4.93095e-05
4.90246e-05
4.87001e-05
4.83524e-05
4.80009e-05
4.76683e-05
4.73791e-05
4.71605e-05
4.70466e-05
4.70904e-05
4.74035e-05
4.83149e-05
5.14521e-05
7.49476e-05
4.9733e-05
4.96926e-05
4.96402e-05
4.95984e-05
4.95745e-05
4.95659e-05
4.95664e-05
4.95711e-05
4.95787e-05
4.9593e-05
4.96222e-05
4.96776e-05
4.97681e-05
4.98914e-05
5.00169e-05
5.00731e-05
4.99887e-05
4.98396e-05
4.96812e-05
4.95212e-05
4.93405e-05
4.9112e-05
4.88116e-05
4.84257e-05
4.79568e-05
4.74251e-05
4.6865e-05
4.63152e-05
4.58085e-05
4.5367e-05
4.5002e-05
4.4719e-05
4.45226e-05
4.44235e-05
4.44486e-05
4.46711e-05
4.5334e-05
4.77982e-05
6.9858e-05
7.8e-05
7.8e-05
7.8e-05
7.8e-05
7.8e-05
7.8e-05
7.8e-05
7.8e-05
7.8e-05
7.8e-05
7.8e-05
7.8e-05
7.8e-05
7.8e-05
7.8e-05
7.8e-05
7.8e-05
7.8e-05
7.8e-05
7.79996e-05
6.52093e-05
4.76143e-05
4.54531e-05
4.49022e-05
4.47713e-05
4.48486e-05
4.50763e-05
4.54403e-05
4.59429e-05
4.65895e-05
4.73741e-05
4.82627e-05
4.91864e-05
5.00556e-05
5.07891e-05
5.13334e-05
5.16636e-05
5.17775e-05
5.16891e-05
5.14268e-05
5.10336e-05
5.05681e-05
5.01034e-05
4.97264e-05
4.95507e-05
4.97911e-05
5.12319e-05
5.95061e-05
7.79345e-05
6.58715e-05
5.12621e-05
4.89711e-05
4.82742e-05
4.80343e-05
4.80054e-05
4.80945e-05
4.82532e-05
4.84504e-05
4.8663e-05
4.88728e-05
4.90647e-05
4.92246e-05
4.93382e-05
4.93911e-05
4.93708e-05
4.92725e-05
4.91021e-05
4.88723e-05
4.85985e-05
4.82958e-05
4.79801e-05
4.76686e-05
4.73805e-05
4.71374e-05
4.69652e-05
4.6899e-05
4.69997e-05
4.74093e-05
4.86136e-05
5.33422e-05
7.73793e-05
4.92337e-05
4.91221e-05
4.89801e-05
4.88591e-05
4.87745e-05
4.87238e-05
4.86995e-05
4.86961e-05
4.87122e-05
4.87516e-05
4.88242e-05
4.89451e-05
4.91307e-05
4.93876e-05
4.96771e-05
4.98433e-05
4.96338e-05
4.93304e-05
4.90584e-05
4.88259e-05
4.86055e-05
4.83652e-05
4.80795e-05
4.77348e-05
4.73316e-05
4.68847e-05
4.64189e-05
4.59622e-05
4.55394e-05
4.51686e-05
4.48617e-05
4.46266e-05
4.44724e-05
4.44152e-05
4.44927e-05
4.48046e-05
4.56974e-05
4.90483e-05
7.64157e-05
7.8e-05
7.8e-05
7.8e-05
7.8e-05
7.8e-05
7.8e-05
7.8e-05
7.8e-05
7.8e-05
7.8e-05
7.8e-05
7.8e-05
7.8e-05
7.8e-05
7.8e-05
7.8e-05
7.8e-05
7.8e-05
7.8e-05
7.8e-05
7.27589e-05
4.83679e-05
4.56909e-05
4.49875e-05
4.47831e-05
4.4808e-05
4.49852e-05
4.52905e-05
4.57187e-05
4.62694e-05
4.69358e-05
4.76928e-05
4.84897e-05
4.92548e-05
4.99149e-05
5.04145e-05
5.07235e-05
5.08352e-05
5.07623e-05
5.05341e-05
5.01955e-05
4.98056e-05
4.94346e-05
4.91647e-05
4.91097e-05
4.95152e-05
5.14764e-05
6.53443e-05
7.79976e-05
7.34721e-05
5.19653e-05
4.89818e-05
4.80557e-05
4.76914e-05
4.75691e-05
4.7577e-05
4.76623e-05
4.77952e-05
4.79559e-05
4.81292e-05
4.83019e-05
4.84592e-05
4.85825e-05
4.86491e-05
4.86377e-05
4.85401e-05
4.83684e-05
4.81453e-05
4.7893e-05
4.76288e-05
4.73669e-05
4.71205e-05
4.69041e-05
4.67358e-05
4.66401e-05
4.66558e-05
4.68592e-05
4.74579e-05
4.9425e-05
6.2044e-05
7.79933e-05
4.88117e-05
4.85517e-05
4.82619e-05
4.80329e-05
4.78752e-05
4.77772e-05
4.77257e-05
4.77127e-05
4.77362e-05
4.78007e-05
4.79187e-05
4.81135e-05
4.84212e-05
4.88889e-05
4.95319e-05
5.00815e-05
4.94204e-05
4.87887e-05
4.83354e-05
4.80041e-05
4.77348e-05
4.74831e-05
4.7219e-05
4.69263e-05
4.66014e-05
4.62515e-05
4.58912e-05
4.55384e-05
4.52106e-05
4.49225e-05
4.46861e-05
4.45124e-05
4.44154e-05
4.44205e-05
4.45857e-05
4.50884e-05
4.68553e-05
6.00761e-05
7.79961e-05
7.8e-05
7.8e-05
7.8e-05
7.8e-05
7.8e-05
7.8e-05
7.8e-05
7.8e-05
7.8e-05
7.8e-05
7.8e-05
7.8e-05
7.8e-05
7.8e-05
7.8e-05
7.8e-05
7.8e-05
7.8e-05
7.8e-05
7.8e-05
7.78515e-05
5.28005e-05
4.64e-05
4.51826e-05
4.48268e-05
4.47672e-05
4.4873e-05
4.51014e-05
4.54366e-05
4.58709e-05
4.63948e-05
4.69889e-05
4.76182e-05
4.82324e-05
4.87749e-05
4.91965e-05
4.94659e-05
4.95733e-05
4.95291e-05
4.93614e-05
4.91134e-05
4.88395e-05
4.86036e-05
4.84838e-05
4.86029e-05
4.92616e-05
5.18739e-05
7.25392e-05
7.8e-05
7.79194e-05
5.74357e-05
4.95177e-05
4.79213e-05
4.73416e-05
4.70925e-05
4.70027e-05
4.70053e-05
4.70679e-05
4.71719e-05
4.73046e-05
4.74552e-05
4.76096e-05
4.77455e-05
4.78313e-05
4.78324e-05
4.77353e-05
4.75606e-05
4.73448e-05
4.71171e-05
4.68955e-05
4.66913e-05
4.65139e-05
4.6374e-05
4.62877e-05
4.62806e-05
4.63996e-05
4.67495e-05
4.76436e-05
5.06167e-05
7.32689e-05
7.8e-05
4.88815e-05
4.82244e-05
4.76785e-05
4.73087e-05
4.70715e-05
4.69268e-05
4.68494e-05
4.68269e-05
4.68562e-05
4.69426e-05
4.71026e-05
4.73721e-05
4.78249e-05
4.86297e-05
5.02249e-05
5.3432e-05
4.97895e-05
4.83999e-05
4.7676e-05
4.72259e-05
4.69051e-05
4.66427e-05
4.63998e-05
4.61557e-05
4.59017e-05
4.56383e-05
4.53722e-05
4.51139e-05
4.48752e-05
4.46681e-05
4.45047e-05
4.43989e-05
4.43715e-05
4.44611e-05
4.47608e-05
4.55722e-05
4.85243e-05
7.43252e-05
7.8e-05
7.8e-05
7.8e-05
7.8e-05
7.8e-05
7.8e-05
7.8e-05
7.8e-05
7.8e-05
7.8e-05
7.8e-05
7.8e-05
7.8e-05
7.8e-05
7.8e-05
7.8e-05
7.8e-05
7.8e-05
7.8e-05
7.8e-05
7.8e-05
7.8e-05
6.84548e-05
4.78679e-05
4.55382e-05
4.49276e-05
4.4747e-05
4.47627e-05
4.49032e-05
4.51393e-05
4.54556e-05
4.58388e-05
4.62719e-05
4.67299e-05
4.71797e-05
4.75834e-05
4.79055e-05
4.81213e-05
4.82216e-05
4.82146e-05
4.81239e-05
4.79856e-05
4.78461e-05
4.77625e-05
4.78161e-05
4.81695e-05
4.93642e-05
5.4756e-05
7.76642e-05
7.8e-05
7.8e-05
7.24427e-05
5.09499e-05
4.80401e-05
4.71084e-05
4.66923e-05
4.64952e-05
4.64171e-05
4.64163e-05
4.64717e-05
4.65714e-05
4.67067e-05
4.68656e-05
4.70242e-05
4.71415e-05
4.71599e-05
4.70566e-05
4.68658e-05
4.66462e-05
4.64333e-05
4.62443e-05
4.60874e-05
4.59686e-05
4.58968e-05
4.58884e-05
4.59748e-05
4.62223e-05
4.68138e-05
4.85908e-05
5.94278e-05
7.79846e-05
7.8e-05
5.12536e-05
4.85173e-05
4.73931e-05
4.68066e-05
4.64691e-05
4.62723e-05
4.61672e-05
4.61346e-05
4.61697e-05
4.62789e-05
4.64845e-05
4.6843e-05
4.7497e-05
4.89721e-05
5.4798e-05
7.54826e-05
5.18569e-05
4.83842e-05
4.72074e-05
4.66038e-05
4.62235e-05
4.59453e-05
4.57153e-05
4.55064e-05
4.53055e-05
4.51082e-05
4.49161e-05
4.47345e-05
4.45715e-05
4.44373e-05
4.43445e-05
4.4311e-05
4.43675e-05
4.45796e-05
4.51434e-05
4.70714e-05
6.21661e-05
7.79988e-05
7.8e-05
7.8e-05
7.8e-05
7.8e-05
7.8e-05
7.8e-05
7.8e-05
7.8e-05
7.8e-05
7.8e-05
7.8e-05
7.8e-05
7.8e-05
7.8e-05
7.8e-05
7.8e-05
7.8e-05
7.8e-05
7.8e-05
7.8e-05
7.8e-05
7.8e-05
7.77797e-05
5.19672e-05
4.63027e-05
4.51513e-05
4.47811e-05
4.46813e-05
4.47245e-05
4.48622e-05
4.50696e-05
4.53293e-05
4.56248e-05
4.59374e-05
4.6245e-05
4.65239e-05
4.67523e-05
4.69149e-05
4.70066e-05
4.7034e-05
4.70155e-05
4.69795e-05
4.6965e-05
4.70272e-05
4.72609e-05
4.79067e-05
5.01497e-05
6.71811e-05
7.79996e-05
7.8e-05
7.8e-05
7.7991e-05
6.08752e-05
4.91247e-05
4.71594e-05
4.64639e-05
4.61349e-05
4.59742e-05
4.59172e-05
4.5935e-05
4.60145e-05
4.61494e-05
4.63327e-05
4.65417e-05
4.67277e-05
4.67778e-05
4.66462e-05
4.63983e-05
4.61443e-05
4.59233e-05
4.57484e-05
4.56223e-05
4.55484e-05
4.55352e-05
4.56032e-05
4.57983e-05
4.62279e-05
4.72304e-05
5.06373e-05
7.60384e-05
7.8e-05
7.8e-05
7.41477e-05
5.09183e-05
4.76748e-05
4.66247e-05
4.61191e-05
4.58467e-05
4.57034e-05
4.56575e-05
4.57009e-05
4.58423e-05
4.61151e-05
4.66214e-05
4.76632e-05
5.08349e-05
7.44162e-05
7.79994e-05
6.58186e-05
4.94104e-05
4.70458e-05
4.61943e-05
4.57297e-05
4.54216e-05
4.51906e-05
4.5001e-05
4.48348e-05
4.46837e-05
4.4546e-05
4.44239e-05
4.43235e-05
4.42541e-05
4.42304e-05
4.42771e-05
4.44423e-05
4.48456e-05
4.59357e-05
5.07293e-05
7.76283e-05
7.8e-05
7.8e-05
7.8e-05
7.8e-05
7.8e-05
7.8e-05
7.8e-05
7.8e-05
7.8e-05
7.8e-05
7.8e-05
7.8e-05
7.8e-05
7.8e-05
7.8e-05
7.8e-05
7.8e-05
7.8e-05
7.8e-05
7.8e-05
7.8e-05
7.8e-05
7.8e-05
7.8e-05
7.21915e-05
4.83465e-05
4.56623e-05
4.49277e-05
4.46611e-05
4.45913e-05
4.4631e-05
4.47409e-05
4.48978e-05
4.50848e-05
4.52863e-05
4.54872e-05
4.56726e-05
4.58302e-05
4.5952e-05
4.60365e-05
4.60903e-05
4.61283e-05
4.61744e-05
4.62655e-05
4.64637e-05
4.68993e-05
4.79608e-05
5.17113e-05
7.67792e-05
7.8e-05
7.8e-05
7.8e-05
7.8e-05
7.75322e-05
5.26313e-05
4.77776e-05
4.65216e-05
4.59913e-05
4.57242e-05
4.56081e-05
4.55955e-05
4.56691e-05
4.58273e-05
4.6078e-05
4.64095e-05
4.68054e-05
4.69475e-05
4.67048e-05
4.626e-05
4.58985e-05
4.5627e-05
4.54396e-05
4.53263e-05
4.52872e-05
4.53311e-05
4.54901e-05
4.58549e-05
4.66942e-05
4.94062e-05
7.02215e-05
7.8e-05
7.8e-05
7.8e-05
7.8e-05
7.14264e-05
4.98998e-05
4.70135e-05
4.60981e-05
4.56829e-05
4.5471e-05
4.54027e-05
4.5461e-05
4.56618e-05
4.60661e-05
4.69458e-05
4.95984e-05
6.80357e-05
7.79999e-05
7.8e-05
7.73897e-05
5.19172e-05
4.73308e-05
4.60467e-05
4.54392e-05
4.50729e-05
4.48219e-05
4.46354e-05
4.44879e-05
4.43675e-05
4.42693e-05
4.41942e-05
4.41474e-05
4.41397e-05
4.41908e-05
4.43406e-05
4.46813e-05
4.5502e-05
4.84074e-05
7.43787e-05
7.8e-05
7.8e-05
7.8e-05
7.8e-05
7.8e-05
7.8e-05
7.8e-05
7.8e-05
7.8e-05
7.8e-05
7.8e-05
7.8e-05
7.8e-05
7.8e-05
7.8e-05
7.8e-05
7.8e-05
7.8e-05
7.8e-05
7.8e-05
7.8e-05
7.8e-05
7.8e-05
7.8e-05
7.8e-05
7.79981e-05
6.14412e-05
4.72456e-05
4.53236e-05
4.47494e-05
4.45302e-05
4.44656e-05
4.44855e-05
4.45565e-05
4.4659e-05
4.47786e-05
4.49038e-05
4.50248e-05
4.51345e-05
4.52293e-05
4.53104e-05
4.53849e-05
4.54669e-05
4.558e-05
4.57656e-05
4.61094e-05
4.68522e-05
4.91762e-05
6.67866e-05
7.79997e-05
7.8e-05
7.8e-05
7.8e-05
7.8e-05
7.8e-05
7.60258e-05
5.0607e-05
4.72303e-05
4.62203e-05
4.57432e-05
4.55392e-05
4.54944e-05
4.55815e-05
4.58089e-05
4.62474e-05
4.69392e-05
4.85108e-05
4.92277e-05
4.82396e-05
4.67278e-05
4.60296e-05
4.56061e-05
4.53595e-05
4.52351e-05
4.52278e-05
4.53464e-05
4.56518e-05
4.64073e-05
4.88391e-05
6.51247e-05
7.79995e-05
7.8e-05
7.8e-05
7.8e-05
7.8e-05
7.79999e-05
6.87858e-05
4.93958e-05
4.66955e-05
4.59144e-05
4.5532e-05
4.54164e-05
4.55076e-05
4.58521e-05
4.65955e-05
4.90297e-05
6.41872e-05
7.79989e-05
7.8e-05
7.8e-05
7.8e-05
7.15263e-05
4.92092e-05
4.63523e-05
4.53989e-05
4.49076e-05
4.46058e-05
4.44036e-05
4.42608e-05
4.41589e-05
4.40907e-05
4.40558e-05
4.40609e-05
4.41219e-05
4.42705e-05
4.45916e-05
4.53466e-05
4.79189e-05
6.94374e-05
7.8e-05
7.8e-05
7.8e-05
7.8e-05
7.8e-05
7.8e-05
7.8e-05
7.8e-05
7.8e-05
7.8e-05
7.8e-05
7.8e-05
7.8e-05
7.8e-05
7.8e-05
7.8e-05
7.8e-05
7.8e-05
7.8e-05
7.8e-05
7.8e-05
7.8e-05
7.8e-05
7.8e-05
7.8e-05
7.8e-05
7.8e-05
7.78734e-05
5.27375e-05
4.63025e-05
4.50299e-05
4.45793e-05
4.43882e-05
4.43164e-05
4.43101e-05
4.43433e-05
4.44006e-05
4.44714e-05
4.45483e-05
4.46267e-05
4.47054e-05
4.47877e-05
4.48819e-05
4.5004e-05
4.51821e-05
4.54715e-05
4.60084e-05
4.72969e-05
5.27598e-05
7.76997e-05
7.8e-05
7.8e-05
7.8e-05
7.8e-05
7.8e-05
7.8e-05
7.8e-05
7.55472e-05
5.07806e-05
4.75553e-05
4.62862e-05
4.58755e-05
4.57703e-05
4.59195e-05
4.63501e-05
4.75991e-05
4.98724e-05
6.5049e-05
7.32293e-05
6.22314e-05
4.93488e-05
4.70799e-05
4.6085e-05
4.56469e-05
4.54517e-05
4.54945e-05
4.57742e-05
4.64298e-05
4.88596e-05
6.49761e-05
7.79991e-05
7.8e-05
7.8e-05
7.8e-05
7.8e-05
7.8e-05
7.8e-05
7.79999e-05
7.05718e-05
4.96486e-05
4.72968e-05
4.6157e-05
4.59095e-05
4.60927e-05
4.70151e-05
4.92598e-05
6.61849e-05
7.79988e-05
7.8e-05
7.8e-05
7.8e-05
7.8e-05
7.79986e-05
6.28096e-05
4.80537e-05
4.57872e-05
4.49778e-05
4.45596e-05
4.43139e-05
4.41596e-05
4.40662e-05
4.40233e-05
4.40299e-05
4.40971e-05
4.42568e-05
4.45718e-05
4.53015e-05
4.77754e-05
6.68864e-05
7.79999e-05
7.8e-05
7.8e-05
7.8e-05
7.8e-05
7.8e-05
7.8e-05
7.8e-05
7.8e-05
7.8e-05
7.8e-05
7.8e-05
7.8e-05
7.8e-05
7.8e-05
7.8e-05
7.8e-05
7.8e-05
7.8e-05
7.8e-05
7.8e-05
7.8e-05
7.8e-05
7.8e-05
7.8e-05
7.8e-05
7.8e-05
7.8e-05
7.8e-05
7.67737e-05
4.92371e-05
4.57624e-05
4.48259e-05
4.44401e-05
4.42547e-05
4.41664e-05
4.41349e-05
4.41396e-05
4.41684e-05
4.42134e-05
4.42712e-05
4.43419e-05
4.44306e-05
4.45485e-05
4.47172e-05
4.49785e-05
4.54252e-05
4.63428e-05
4.92623e-05
7.31265e-05
7.8e-05
7.8e-05
7.8e-05
7.8e-05
7.8e-05
7.8e-05
7.8e-05
7.8e-05
7.8e-05
7.70112e-05
5.68063e-05
4.87775e-05
4.74865e-05
4.70833e-05
4.76252e-05
4.8937e-05
5.77621e-05
7.56952e-05
7.79995e-05
7.8e-05
7.79978e-05
7.37232e-05
5.34269e-05
4.83752e-05
4.69916e-05
4.63731e-05
4.66225e-05
4.7702e-05
4.97949e-05
7.04209e-05
7.79995e-05
7.8e-05
7.8e-05
7.8e-05
7.8e-05
7.8e-05
7.8e-05
7.8e-05
7.8e-05
7.8e-05
7.5458e-05
5.74262e-05
4.89026e-05
4.81735e-05
4.86903e-05
5.43794e-05
7.32287e-05
7.79998e-05
7.8e-05
7.8e-05
7.8e-05
7.8e-05
7.8e-05
7.8e-05
7.79859e-05
5.80317e-05
4.74903e-05
4.54901e-05
4.47598e-05
4.44125e-05
4.42183e-05
4.41215e-05
4.41069e-05
4.41714e-05
4.43395e-05
4.47131e-05
4.54469e-05
4.79708e-05
6.80228e-05
7.79999e-05
7.8e-05
7.8e-05
7.8e-05
7.8e-05
7.8e-05
7.8e-05
7.8e-05
7.8e-05
7.8e-05
7.8e-05
7.8e-05
7.8e-05
7.8e-05
7.8e-05
7.8e-05
7.8e-05
7.8e-05
7.8e-05
7.8e-05
7.8e-05
7.8e-05
7.8e-05
7.8e-05
7.8e-05
7.8e-05
7.8e-05
7.8e-05
7.8e-05
7.8e-05
7.8e-05
7.48137e-05
4.8549e-05
4.55745e-05
4.4729e-05
4.43512e-05
4.41488e-05
4.40412e-05
4.39927e-05
4.39835e-05
4.40028e-05
4.40466e-05
4.4116e-05
4.42182e-05
4.43706e-05
4.46087e-05
4.50117e-05
4.58097e-05
4.81702e-05
6.50124e-05
7.79996e-05
7.8e-05
7.8e-05
7.8e-05
7.8e-05
7.8e-05
7.8e-05
7.8e-05
7.8e-05
7.8e-05
7.8e-05
7.79709e-05
7.08243e-05
5.87322e-05
5.43674e-05
6.03762e-05
7.22692e-05
7.79818e-05
7.8e-05
7.8e-05
7.8e-05
7.8e-05
7.8e-05
7.78541e-05
6.88416e-05
5.53403e-05
5.01884e-05
5.23473e-05
6.38395e-05
7.65492e-05
7.8e-05
7.8e-05
7.8e-05
7.8e-05
7.8e-05
7.8e-05
7.8e-05
7.8e-05
7.8e-05
7.8e-05
7.8e-05
7.8e-05
7.7981e-05
7.41656e-05
6.90201e-05
7.29975e-05
7.79165e-05
7.8e-05
7.8e-05
7.8e-05
7.8e-05
7.8e-05
7.8e-05
7.8e-05
7.8e-05
7.8e-05
7.79799e-05
5.87964e-05
4.76309e-05
4.55002e-05
4.48751e-05
4.45535e-05
4.4424e-05
4.44646e-05
4.46617e-05
4.50718e-05
4.63702e-05
4.89873e-05
7.26603e-05
7.8e-05
7.8e-05
7.8e-05
7.8e-05
7.8e-05
7.8e-05
7.8e-05
7.8e-05
7.8e-05
7.8e-05
7.8e-05
7.8e-05
7.8e-05
7.8e-05
7.8e-05
7.8e-05
7.8e-05
7.8e-05
7.8e-05
7.8e-05
7.8e-05
7.8e-05
7.8e-05
7.8e-05
7.8e-05
7.8e-05
7.8e-05
7.8e-05
7.8e-05
7.8e-05
7.8e-05
7.8e-05
7.8e-05
7.40557e-05
4.85279e-05
4.56468e-05
4.47606e-05
4.43248e-05
4.40946e-05
4.39756e-05
4.39236e-05
4.39175e-05
4.39512e-05
4.40267e-05
4.41549e-05
4.43659e-05
4.47335e-05
4.54646e-05
4.74895e-05
5.92298e-05
7.79928e-05
7.8e-05
7.8e-05
7.8e-05
7.8e-05
7.8e-05
7.8e-05
7.8e-05
7.8e-05
7.8e-05
7.8e-05
7.8e-05
7.8e-05
7.8e-05
7.79872e-05
7.7897e-05
7.79942e-05
7.8e-05
7.8e-05
7.8e-05
7.8e-05
7.8e-05
7.8e-05
7.8e-05
7.8e-05
7.8e-05
7.79439e-05
7.70605e-05
7.77542e-05
7.79991e-05
7.8e-05
7.8e-05
7.8e-05
7.8e-05
7.8e-05
7.8e-05
7.8e-05
7.8e-05
7.8e-05
7.8e-05
7.8e-05
7.8e-05
7.8e-05
7.8e-05
7.8e-05
7.8e-05
7.8e-05
7.8e-05
7.8e-05
7.8e-05
7.8e-05
7.8e-05
7.8e-05
7.8e-05
7.8e-05
7.8e-05
7.8e-05
7.8e-05
7.79924e-05
6.58918e-05
4.84614e-05
4.66955e-05
4.5656e-05
4.53374e-05
4.562e-05
4.64853e-05
4.78427e-05
5.91331e-05
7.6984e-05
7.8e-05
7.8e-05
7.8e-05
7.8e-05
7.8e-05
7.8e-05
7.8e-05
7.8e-05
7.8e-05
7.8e-05
7.8e-05
7.8e-05
7.8e-05
7.8e-05
7.8e-05
7.8e-05
7.8e-05
7.8e-05
7.8e-05
7.8e-05
7.8e-05
7.8e-05
7.8e-05
7.8e-05
7.8e-05
7.8e-05
7.8e-05
7.8e-05
7.8e-05
7.8e-05
7.8e-05
7.8e-05
7.8e-05
7.8e-05
7.8e-05
7.55388e-05
4.96621e-05
4.62385e-05
4.4927e-05
4.43967e-05
4.41489e-05
4.40315e-05
4.39898e-05
4.40149e-05
4.41107e-05
4.42923e-05
4.46254e-05
4.53265e-05
4.73487e-05
5.7856e-05
7.7982e-05
7.8e-05
7.8e-05
7.8e-05
7.8e-05
7.8e-05
7.8e-05
7.8e-05
7.8e-05
7.8e-05
7.8e-05
7.8e-05
7.8e-05
7.8e-05
7.8e-05
7.8e-05
7.8e-05
7.8e-05
7.8e-05
7.8e-05
7.8e-05
7.8e-05
7.8e-05
7.8e-05
7.8e-05
7.8e-05
7.8e-05
7.8e-05
7.8e-05
7.8e-05
7.8e-05
7.8e-05
7.8e-05
7.8e-05
7.8e-05
7.8e-05
7.8e-05
7.8e-05
7.8e-05
7.8e-05
7.8e-05
7.8e-05
7.8e-05
7.8e-05
7.8e-05
7.8e-05
7.8e-05
7.8e-05
7.8e-05
7.8e-05
7.8e-05
7.8e-05
7.8e-05
7.8e-05
7.8e-05
7.8e-05
7.8e-05
7.8e-05
7.8e-05
7.8e-05
7.79998e-05
7.49719e-05
6.13185e-05
5.08265e-05
4.88601e-05
5.12745e-05
6.08378e-05
7.34078e-05
7.7996e-05
7.8e-05
7.8e-05
7.8e-05
7.8e-05
7.8e-05
7.8e-05
7.8e-05
7.8e-05
7.8e-05
7.8e-05
7.8e-05
7.8e-05
7.8e-05
7.8e-05
7.8e-05
7.8e-05
7.8e-05
7.8e-05
7.8e-05
7.8e-05
7.8e-05
7.8e-05
7.8e-05
7.8e-05
7.8e-05
7.8e-05
7.8e-05
7.8e-05
7.8e-05
7.8e-05
7.8e-05
7.8e-05
7.8e-05
7.8e-05
7.8e-05
7.8e-05
7.8e-05
7.7408e-05
5.63098e-05
4.72622e-05
4.5341e-05
4.47318e-05
4.44642e-05
4.43374e-05
4.435e-05
4.4513e-05
4.48386e-05
4.55262e-05
4.77695e-05
6.15237e-05
7.79872e-05
7.8e-05
7.8e-05
7.8e-05
7.8e-05
7.8e-05
7.8e-05
7.8e-05
7.8e-05
7.8e-05
7.8e-05
7.8e-05
7.8e-05
7.8e-05
7.8e-05
7.8e-05
7.8e-05
7.8e-05
7.8e-05
7.8e-05
7.8e-05
7.8e-05
7.8e-05
7.8e-05
7.8e-05
7.8e-05
7.8e-05
7.8e-05
7.8e-05
7.8e-05
7.8e-05
7.8e-05
7.8e-05
7.8e-05
7.8e-05
7.8e-05
7.8e-05
7.8e-05
7.8e-05
7.8e-05
7.8e-05
7.8e-05
7.8e-05
7.8e-05
7.8e-05
7.8e-05
7.8e-05
7.8e-05
7.8e-05
7.8e-05
7.8e-05
7.8e-05
7.8e-05
7.8e-05
7.8e-05
7.8e-05
7.8e-05
7.8e-05
7.8e-05
7.8e-05
7.8e-05
7.8e-05
7.8e-05
7.79981e-05
7.76863e-05
7.68765e-05
7.7774e-05
7.79978e-05
7.8e-05
7.8e-05
7.8e-05
7.8e-05
7.8e-05
7.8e-05
7.8e-05
7.8e-05
7.8e-05
7.8e-05
7.8e-05
7.8e-05
7.8e-05
7.8e-05
7.8e-05
7.8e-05
7.8e-05
7.8e-05
7.8e-05
7.8e-05
7.8e-05
7.8e-05
7.8e-05
7.8e-05
7.8e-05
7.8e-05
7.8e-05
7.8e-05
7.8e-05
7.8e-05
7.8e-05
7.8e-05
7.8e-05
7.8e-05
7.8e-05
7.8e-05
7.8e-05
7.8e-05
7.8e-05
7.8e-05
7.79845e-05
6.89269e-05
4.94266e-05
4.69929e-05
4.6039e-05
4.5459e-05
4.54194e-05
4.59667e-05
4.70165e-05
4.94372e-05
7.03587e-05
7.79984e-05
7.8e-05
7.8e-05
7.8e-05
7.8e-05
7.8e-05
7.8e-05
7.8e-05
7.8e-05
7.8e-05
7.8e-05
7.8e-05
7.8e-05
7.8e-05
7.8e-05
7.8e-05
7.8e-05
7.8e-05
7.8e-05
7.8e-05
7.8e-05
7.8e-05
7.8e-05
7.8e-05
7.8e-05
7.8e-05
7.8e-05
7.8e-05
7.8e-05
7.8e-05
7.8e-05
7.8e-05
7.8e-05
7.8e-05
7.8e-05
7.8e-05
7.8e-05
7.8e-05
7.8e-05
7.8e-05
7.8e-05
7.8e-05
7.8e-05
7.8e-05
7.8e-05
7.8e-05
7.8e-05
7.8e-05
7.8e-05
7.8e-05
7.8e-05
7.8e-05
7.8e-05
7.8e-05
7.8e-05
7.8e-05
7.8e-05
7.8e-05
7.8e-05
7.8e-05
7.8e-05
7.8e-05
7.8e-05
7.8e-05
7.8e-05
7.8e-05
7.8e-05
7.8e-05
7.8e-05
7.8e-05
7.8e-05
7.8e-05
7.8e-05
7.8e-05
7.8e-05
7.8e-05
7.8e-05
7.8e-05
7.8e-05
7.8e-05
7.8e-05
7.8e-05
7.8e-05
7.8e-05
7.8e-05
7.8e-05
7.8e-05
7.8e-05
7.8e-05
7.8e-05
7.8e-05
7.8e-05
7.8e-05
7.8e-05
7.8e-05
7.8e-05
7.8e-05
7.8e-05
7.8e-05
7.8e-05
7.8e-05
7.8e-05
7.8e-05
7.8e-05
7.8e-05
7.8e-05
7.8e-05
7.8e-05
7.8e-05
7.8e-05
7.8e-05
7.73992e-05
6.79274e-05
5.67047e-05
5.06852e-05
5.01321e-05
5.50548e-05
6.67239e-05
7.72821e-05
7.8e-05
7.8e-05
7.8e-05
7.8e-05
7.8e-05
7.8e-05
7.8e-05
7.8e-05
7.8e-05
7.8e-05
7.8e-05
7.8e-05
7.8e-05
7.8e-05
7.8e-05
7.8e-05
7.8e-05
7.8e-05
7.8e-05
7.8e-05
7.8e-05
7.8e-05
7.8e-05
7.8e-05
7.8e-05
7.8e-05
7.8e-05
7.8e-05
7.8e-05
7.8e-05
7.8e-05
7.8e-05
7.8e-05
7.8e-05
7.8e-05
7.8e-05
7.8e-05
7.8e-05
7.8e-05
7.8e-05
7.8e-05
7.8e-05
7.8e-05
7.8e-05
7.8e-05
7.8e-05
7.8e-05
7.8e-05
7.8e-05
7.8e-05
7.8e-05
7.8e-05
7.8e-05
7.8e-05
7.8e-05
7.8e-05
7.8e-05
7.8e-05
7.8e-05
7.8e-05
7.8e-05
7.8e-05
7.8e-05
7.8e-05
7.8e-05
7.8e-05
7.8e-05
7.8e-05
7.8e-05
7.8e-05
7.8e-05
7.8e-05
7.8e-05
7.8e-05
7.8e-05
7.8e-05
7.8e-05
7.8e-05
7.8e-05
7.8e-05
7.8e-05
7.8e-05
7.8e-05
7.8e-05
7.8e-05
7.8e-05
7.8e-05
7.8e-05
7.8e-05
7.8e-05
7.8e-05
7.8e-05
7.8e-05
7.8e-05
7.8e-05
7.8e-05
7.8e-05
7.8e-05
7.8e-05
7.8e-05
7.8e-05
7.8e-05
7.8e-05
7.8e-05
7.8e-05
7.8e-05
7.8e-05
7.8e-05
7.8e-05
7.8e-05
7.8e-05
7.8e-05
7.8e-05
7.8e-05
7.79855e-05
7.77065e-05
7.7583e-05
7.79666e-05
7.79999e-05
7.8e-05
7.8e-05
7.8e-05
7.8e-05
7.8e-05
7.8e-05
7.8e-05
7.8e-05
7.8e-05
7.8e-05
7.8e-05
7.8e-05
7.8e-05
7.8e-05
7.8e-05
7.8e-05
7.8e-05
7.8e-05
7.8e-05
7.8e-05
7.8e-05
7.8e-05
7.8e-05
7.8e-05
7.8e-05
7.8e-05
7.8e-05
7.8e-05
7.8e-05
7.8e-05
7.8e-05
7.8e-05
7.8e-05
7.8e-05
7.8e-05
7.8e-05
7.8e-05
7.8e-05
7.8e-05
7.8e-05
7.8e-05
7.8e-05
7.8e-05
7.8e-05
7.8e-05
7.8e-05
7.8e-05
7.8e-05
7.8e-05
7.8e-05
7.8e-05
7.8e-05
7.8e-05
7.8e-05
7.8e-05
7.8e-05
7.8e-05
7.8e-05
7.8e-05
7.8e-05
7.8e-05
7.8e-05
7.8e-05
7.8e-05
7.8e-05
7.8e-05
7.8e-05
7.8e-05
7.8e-05
7.8e-05
7.8e-05
7.8e-05
7.8e-05
7.8e-05
7.8e-05
7.8e-05
7.8e-05
7.8e-05
7.8e-05
7.8e-05
7.8e-05
7.8e-05
7.8e-05
7.8e-05
7.8e-05
7.8e-05
7.8e-05
7.8e-05
7.8e-05
7.8e-05
7.8e-05
7.8e-05
7.8e-05
7.8e-05
7.8e-05
7.8e-05
7.8e-05
7.8e-05
7.8e-05
7.8e-05
7.8e-05
7.8e-05
7.8e-05
7.8e-05
7.8e-05
7.8e-05
7.8e-05
7.8e-05
7.8e-05
7.8e-05
7.8e-05
7.8e-05
7.8e-05
7.8e-05
7.8e-05
7.8e-05
7.8e-05
7.8e-05
7.8e-05
7.8e-05
7.8e-05
7.8e-05
7.8e-05
7.8e-05
7.8e-05
7.8e-05
7.8e-05
7.8e-05
7.8e-05
7.8e-05
7.8e-05
7.8e-05
7.8e-05
7.8e-05
7.8e-05
7.8e-05
7.8e-05
7.8e-05
7.8e-05
7.8e-05
7.8e-05
7.8e-05
7.8e-05
7.8e-05
7.8e-05
7.8e-05
7.8e-05
7.8e-05
7.8e-05
7.8e-05
7.8e-05
7.8e-05
7.8e-05
7.8e-05
7.8e-05
7.8e-05
7.8e-05
7.8e-05
7.8e-05
7.8e-05
7.8e-05
7.8e-05
7.8e-05
7.8e-05
7.8e-05
7.8e-05
7.8e-05
7.8e-05
7.8e-05
7.8e-05
7.8e-05
7.8e-05
7.8e-05
7.8e-05
7.8e-05
7.8e-05
7.8e-05
7.8e-05
7.8e-05
7.8e-05
7.8e-05
7.8e-05
7.8e-05
7.8e-05
7.8e-05
7.8e-05
7.8e-05
7.8e-05
7.8e-05
7.8e-05
7.8e-05
7.8e-05
7.8e-05
7.8e-05
7.8e-05
7.8e-05
7.8e-05
7.8e-05
7.8e-05
7.8e-05
7.8e-05
7.8e-05
7.8e-05
7.8e-05
7.8e-05
7.8e-05
7.8e-05
7.8e-05
7.8e-05
7.8e-05
7.8e-05
7.8e-05
7.8e-05
7.8e-05
7.8e-05
7.8e-05
7.8e-05
7.8e-05
7.8e-05
7.8e-05
7.8e-05
7.8e-05
7.8e-05
7.8e-05
7.8e-05
7.8e-05
7.8e-05
7.8e-05
7.8e-05
7.8e-05
7.8e-05
7.8e-05
7.8e-05
7.8e-05
7.8e-05
7.8e-05
7.8e-05
7.8e-05
7.8e-05
7.8e-05
7.8e-05
7.8e-05
7.8e-05
7.8e-05
7.8e-05
7.8e-05
7.8e-05
7.8e-05
7.8e-05
7.8e-05
7.8e-05
7.8e-05
7.8e-05
7.8e-05
7.8e-05
7.8e-05
7.8e-05
7.8e-05
7.8e-05
7.8e-05
7.8e-05
7.8e-05
7.8e-05
7.8e-05
7.8e-05
7.8e-05
7.8e-05
7.8e-05
7.8e-05
7.8e-05
7.8e-05
7.8e-05
7.8e-05
7.8e-05
7.8e-05
7.8e-05
7.8e-05
7.8e-05
7.8e-05
7.8e-05
7.8e-05
7.8e-05
7.8e-05
7.8e-05
7.8e-05
7.8e-05
7.8e-05
7.8e-05
7.8e-05
7.8e-05
7.8e-05
7.8e-05
7.8e-05
7.8e-05
7.8e-05
7.8e-05
7.8e-05
7.8e-05
7.8e-05
7.8e-05
7.8e-05
7.8e-05
7.8e-05
7.8e-05
7.8e-05
7.8e-05
7.8e-05
7.8e-05
7.8e-05
7.8e-05
7.8e-05
7.8e-05
7.8e-05
7.8e-05
7.8e-05
7.8e-05
7.8e-05
7.8e-05
7.8e-05
7.8e-05
7.8e-05
7.8e-05
7.8e-05
7.8e-05
7.8e-05
7.8e-05
7.8e-05
7.8e-05
7.8e-05
7.8e-05
7.8e-05
7.8e-05
7.8e-05
7.8e-05
7.8e-05
7.8e-05
7.8e-05
7.8e-05
7.8e-05
7.8e-05
7.8e-05
7.8e-05
7.8e-05
7.8e-05
7.8e-05
7.8e-05
7.8e-05
7.8e-05
7.8e-05
7.8e-05
7.8e-05
7.8e-05
7.8e-05
7.8e-05
7.8e-05
7.8e-05
7.8e-05
7.8e-05
7.8e-05
7.8e-05
7.8e-05
7.8e-05
7.8e-05
7.8e-05
7.8e-05
7.8e-05
7.8e-05
7.8e-05
7.8e-05
7.8e-05
7.8e-05
7.8e-05
7.8e-05
7.8e-05
7.8e-05
7.8e-05
7.8e-05
7.8e-05
7.8e-05
7.8e-05
7.8e-05
7.8e-05
7.8e-05
7.8e-05
7.8e-05
7.8e-05
7.8e-05
7.8e-05
7.8e-05
7.8e-05
7.8e-05
7.8e-05
7.8e-05
7.8e-05
7.8e-05
7.8e-05
7.8e-05
7.8e-05
7.8e-05
7.8e-05
7.8e-05
7.8e-05
7.8e-05
7.8e-05
7.8e-05
7.8e-05
7.8e-05
7.8e-05
7.8e-05
7.8e-05
7.8e-05
7.8e-05
7.8e-05
7.8e-05
7.8e-05
7.8e-05
7.8e-05
7.8e-05
7.8e-05
7.8e-05
7.8e-05
7.8e-05
7.8e-05
7.8e-05
7.8e-05
7.8e-05
7.8e-05
7.8e-05
7.8e-05
7.8e-05
7.8e-05
7.8e-05
7.8e-05
7.8e-05
7.8e-05
7.8e-05
7.8e-05
7.8e-05
7.8e-05
7.8e-05
7.8e-05
7.8e-05
7.8e-05
7.8e-05
7.8e-05
7.8e-05
7.8e-05
7.8e-05
7.8e-05
7.8e-05
7.8e-05
7.8e-05
7.8e-05
7.8e-05
7.8e-05
7.8e-05
7.8e-05
7.8e-05
7.8e-05
7.8e-05
7.8e-05
7.8e-05
7.8e-05
7.8e-05
7.8e-05
7.8e-05
7.8e-05
7.8e-05
7.8e-05
7.8e-05
7.8e-05
7.8e-05
7.8e-05
7.8e-05
7.8e-05
7.8e-05
7.8e-05
7.8e-05
7.8e-05
7.8e-05
7.8e-05
7.8e-05
7.8e-05
7.8e-05
7.8e-05
7.8e-05
7.8e-05
7.8e-05
7.8e-05
7.8e-05
7.8e-05
7.8e-05
7.8e-05
7.8e-05
7.8e-05
7.8e-05
7.8e-05
7.8e-05
7.8e-05
7.8e-05
7.8e-05
7.8e-05
7.8e-05
7.8e-05
7.8e-05
7.8e-05
7.8e-05
7.8e-05
7.8e-05
7.8e-05
7.8e-05
7.8e-05
7.8e-05
7.8e-05
7.8e-05
7.8e-05
7.8e-05
7.8e-05
7.8e-05
7.8e-05
7.8e-05
7.8e-05
7.8e-05
7.8e-05
7.8e-05
7.8e-05
7.8e-05
7.8e-05
7.8e-05
7.8e-05
7.8e-05
7.8e-05
7.8e-05
7.8e-05
7.8e-05
7.8e-05
7.8e-05
7.8e-05
7.8e-05
7.8e-05
7.8e-05
7.8e-05
7.8e-05
7.8e-05
7.8e-05
7.8e-05
7.8e-05
7.8e-05
7.8e-05
7.8e-05
7.8e-05
7.8e-05
7.8e-05
7.8e-05
7.8e-05
7.8e-05
7.8e-05
7.8e-05
7.8e-05
7.8e-05
7.8e-05
7.8e-05
7.8e-05
7.8e-05
7.8e-05
7.8e-05
7.8e-05
7.8e-05
7.8e-05
7.8e-05
7.8e-05
7.8e-05
7.8e-05
7.8e-05
7.8e-05
7.8e-05
7.8e-05
7.8e-05
7.8e-05
7.8e-05
7.8e-05
7.8e-05
7.8e-05
7.8e-05
7.8e-05
7.8e-05
7.8e-05
7.8e-05
7.8e-05
7.8e-05
7.8e-05
7.8e-05
7.8e-05
7.8e-05
7.8e-05
7.8e-05
7.8e-05
7.8e-05
7.8e-05
7.8e-05
7.8e-05
7.8e-05
7.8e-05
7.8e-05
7.8e-05
7.8e-05
7.8e-05
7.8e-05
7.8e-05
7.8e-05
7.8e-05
7.8e-05
7.8e-05
7.8e-05
7.8e-05
7.8e-05
7.8e-05
7.8e-05
7.8e-05
7.8e-05
7.8e-05
7.8e-05
7.8e-05
7.8e-05
7.8e-05
7.8e-05
7.8e-05
7.8e-05
7.8e-05
7.8e-05
7.8e-05
7.8e-05
7.8e-05
7.8e-05
7.8e-05
7.8e-05
7.8e-05
7.8e-05
7.8e-05
7.8e-05
7.8e-05
7.8e-05
7.8e-05
7.8e-05
7.8e-05
7.8e-05
7.8e-05
7.8e-05
7.8e-05
7.8e-05
7.8e-05
7.8e-05
7.8e-05
7.8e-05
7.8e-05
7.8e-05
7.8e-05
7.8e-05
7.8e-05
7.8e-05
7.8e-05
7.8e-05
7.8e-05
7.8e-05
7.8e-05
7.8e-05
7.8e-05
7.8e-05
7.8e-05
7.8e-05
7.8e-05
7.8e-05
7.8e-05
7.8e-05
7.8e-05
7.8e-05
7.8e-05
7.8e-05
7.8e-05
7.8e-05
7.8e-05
7.8e-05
7.8e-05
7.8e-05
7.8e-05
7.8e-05
7.8e-05
7.8e-05
7.8e-05
7.8e-05
7.8e-05
7.8e-05
7.8e-05
7.8e-05
7.8e-05
7.8e-05
7.8e-05
7.8e-05
7.8e-05
7.8e-05
7.8e-05
7.8e-05
7.8e-05
7.8e-05
7.8e-05
7.8e-05
7.8e-05
7.8e-05
7.8e-05
7.8e-05
7.8e-05
7.8e-05
7.8e-05
7.8e-05
7.8e-05
7.8e-05
7.8e-05
7.8e-05
7.8e-05
7.8e-05
7.8e-05
7.8e-05
7.8e-05
7.8e-05
7.8e-05
7.8e-05
7.8e-05
7.8e-05
7.8e-05
7.8e-05
7.8e-05
7.8e-05
7.8e-05
7.8e-05
7.8e-05
7.8e-05
7.8e-05
7.8e-05
7.8e-05
7.8e-05
7.8e-05
7.8e-05
7.8e-05
7.8e-05
7.8e-05
7.8e-05
7.8e-05
7.8e-05
7.8e-05
7.8e-05
7.8e-05
7.8e-05
7.8e-05
7.8e-05
7.8e-05
7.8e-05
7.8e-05
7.8e-05
7.8e-05
7.8e-05
7.8e-05
7.8e-05
7.8e-05
7.8e-05
7.8e-05
7.8e-05
7.8e-05
7.8e-05
7.8e-05
7.8e-05
7.8e-05
7.8e-05
7.8e-05
7.8e-05
7.8e-05
7.8e-05
7.8e-05
7.8e-05
7.8e-05
7.8e-05
7.8e-05
7.8e-05
7.8e-05
7.8e-05
7.8e-05
7.8e-05
7.8e-05
7.8e-05
7.8e-05
7.8e-05
7.8e-05
7.8e-05
7.8e-05
7.8e-05
7.8e-05
7.8e-05
7.8e-05
7.8e-05
7.8e-05
7.8e-05
7.8e-05
7.8e-05
7.8e-05
7.8e-05
7.8e-05
7.8e-05
7.8e-05
7.8e-05
7.8e-05
7.8e-05
7.8e-05
7.8e-05
7.8e-05
7.8e-05
7.8e-05
7.8e-05
7.8e-05
7.8e-05
7.8e-05
7.8e-05
7.8e-05
7.8e-05
7.8e-05
7.8e-05
7.8e-05
7.8e-05
7.8e-05
7.8e-05
7.8e-05
7.8e-05
7.8e-05
7.8e-05
7.8e-05
7.8e-05
7.8e-05
7.8e-05
7.8e-05
7.8e-05
7.8e-05
7.8e-05
7.8e-05
7.8e-05
7.8e-05
7.8e-05
7.8e-05
7.8e-05
7.8e-05
7.8e-05
7.8e-05
7.8e-05
7.8e-05
7.8e-05
7.8e-05
7.8e-05
7.8e-05
7.8e-05
7.8e-05
7.8e-05
7.8e-05
7.8e-05
7.8e-05
7.8e-05
7.8e-05
7.8e-05
7.8e-05
7.8e-05
7.8e-05
7.8e-05
7.8e-05
7.8e-05
7.8e-05
7.8e-05
7.8e-05
7.8e-05
7.8e-05
7.8e-05
7.8e-05
7.8e-05
7.8e-05
7.8e-05
7.8e-05
7.8e-05
7.8e-05
7.8e-05
7.8e-05
7.8e-05
7.8e-05
7.8e-05
7.8e-05
7.8e-05
7.8e-05
7.8e-05
7.8e-05
7.8e-05
7.8e-05
7.8e-05
7.8e-05
7.8e-05
7.8e-05
7.8e-05
7.8e-05
7.8e-05
7.8e-05
7.8e-05
7.8e-05
7.8e-05
7.8e-05
7.8e-05
7.8e-05
7.8e-05
7.8e-05
7.8e-05
7.8e-05
7.8e-05
7.8e-05
7.8e-05
7.8e-05
7.8e-05
7.8e-05
7.8e-05
7.8e-05
7.8e-05
7.8e-05
7.8e-05
7.8e-05
7.8e-05
7.8e-05
7.8e-05
7.8e-05
7.8e-05
7.8e-05
7.8e-05
7.8e-05
7.8e-05
7.8e-05
7.8e-05
7.8e-05
7.8e-05
7.8e-05
7.8e-05
7.8e-05
7.8e-05
7.8e-05
7.8e-05
7.8e-05
7.8e-05
7.8e-05
7.8e-05
7.8e-05
7.8e-05
7.8e-05
7.8e-05
7.8e-05
7.8e-05
7.8e-05
7.8e-05
7.8e-05
7.8e-05
7.8e-05
7.8e-05
7.8e-05
7.8e-05
7.8e-05
7.8e-05
7.8e-05
7.8e-05
7.8e-05
7.8e-05
7.8e-05
7.8e-05
7.8e-05
7.8e-05
7.8e-05
7.8e-05
7.8e-05
7.8e-05
7.8e-05
7.8e-05
7.8e-05
7.8e-05
7.8e-05
7.8e-05
7.8e-05
7.8e-05
7.8e-05
7.8e-05
7.8e-05
7.8e-05
7.8e-05
7.8e-05
7.8e-05
7.8e-05
7.8e-05
7.8e-05
7.8e-05
7.8e-05
7.8e-05
7.8e-05
7.8e-05
7.8e-05
7.8e-05
7.8e-05
7.8e-05
7.8e-05
7.8e-05
7.8e-05
7.8e-05
7.8e-05
7.8e-05
7.8e-05
7.8e-05
7.8e-05
7.8e-05
7.8e-05
7.8e-05
7.8e-05
7.8e-05
7.8e-05
7.8e-05
7.8e-05
7.8e-05
7.8e-05
7.8e-05
7.8e-05
7.8e-05
7.8e-05
7.8e-05
7.8e-05
7.8e-05
7.8e-05
7.8e-05
7.8e-05
7.8e-05
7.8e-05
7.8e-05
7.8e-05
7.8e-05
7.8e-05
7.8e-05
7.8e-05
7.8e-05
7.8e-05
7.8e-05
7.8e-05
7.8e-05
7.8e-05
7.8e-05
7.8e-05
7.8e-05
7.8e-05
7.8e-05
7.8e-05
7.8e-05
7.8e-05
7.8e-05
7.8e-05
7.8e-05
7.8e-05
7.8e-05
7.8e-05
7.8e-05
7.8e-05
7.8e-05
7.8e-05
7.8e-05
7.8e-05
7.8e-05
7.8e-05
7.8e-05
7.8e-05
7.8e-05
7.8e-05
7.8e-05
7.8e-05
7.8e-05
7.8e-05
7.8e-05
7.8e-05
7.8e-05
7.8e-05
7.8e-05
7.8e-05
7.8e-05
7.8e-05
7.8e-05
7.8e-05
7.8e-05
7.8e-05
7.8e-05
7.8e-05
7.8e-05
7.8e-05
7.8e-05
7.8e-05
7.8e-05
7.8e-05
7.8e-05
7.8e-05
7.8e-05
7.8e-05
7.8e-05
7.8e-05
7.8e-05
7.8e-05