/*--------------------------------*- C++ -*----------------------------------*\
| =========                 |                                                 |
| \\      /  F ield         | OpenFOAM: The Open Source CFD Toolbox           |
|  \\    /   O peration     | Version:  2406                                  |
|   \\  /    A nd           | Website:  www.openfoam.com                      |
|    \\/     M anipulation  |                                                 |
\*---------------------------------------------------------------------------*/
FoamFile
{
    version     2.0;
    format      ascii;
    arch        "LSB;label=32;scalar=64";
    class       volScalarField;
    location    "9.6";
    object      C_0_0;
}
// * * * * * * * * * * * * * * * * * * * * * * * * * * * * * * * * * * * * * //

dimensions      [1 -3 0 0 0 0 0];

internalField   nonuniform List<scalar> 
14400
(
0.213048
0.212307
0.210994
0.209371
0.207716
0.206272
0.205223
0.204681
0.204688
0.205215
0.206155
0.207322
0.208457
0.20923
0.209286
0.208325
0.206241
0.203228
0.199654
0.195925
0.19241
0.189423
0.187224
0.186037
0.186069
0.187535
0.190669
0.195735
0.203026
0.212856
0.225543
0.241407
0.260766
0.283938
0.311227
0.342869
0.378896
0.418622
0.458169
0.486897
0.506338
0.52291
0.536911
0.548532
0.557915
0.565171
0.570381
0.573605
0.57488
0.574226
0.571646
0.567126
0.560632
0.552115
0.5415
0.528691
0.513557
0.495931
0.475415
0.444946
0.40386
0.364089
0.328284
0.296931
0.269958
0.247116
0.228095
0.212563
0.200172
0.190558
0.183352
0.178207
0.174834
0.173009
0.172575
0.173426
0.175498
0.178762
0.183216
0.188875
0.195762
0.203891
0.213234
0.223673
0.234917
0.246331
0.256405
0.262066
0.261179
0.255852
0.248627
0.24105
0.233794
0.227219
0.221518
0.216775
0.212996
0.210127
0.208073
0.206704
0.205873
0.205431
0.205251
0.205247
0.205403
0.205773
0.20648
0.207688
0.209585
0.212364
0.216205
0.221262
0.227655
0.235449
0.244639
0.25511
0.266588
0.278531
0.289795
0.296996
0.217876
0.216954
0.215351
0.213411
0.211471
0.209803
0.208609
0.208009
0.208047
0.208693
0.209839
0.211291
0.212769
0.213899
0.214238
0.213353
0.211035
0.207604
0.203563
0.199398
0.195518
0.192246
0.189842
0.188528
0.188507
0.189989
0.193205
0.198413
0.2059
0.215971
0.228941
0.245124
0.264843
0.288416
0.316151
0.348294
0.3849
0.425207
0.463279
0.490096
0.509158
0.52548
0.539293
0.550769
0.560042
0.567216
0.572368
0.575553
0.576808
0.576152
0.573587
0.569098
0.562657
0.554212
0.543695
0.531014
0.516048
0.498641
0.478558
0.449806
0.409912
0.369596
0.333195
0.301316
0.273873
0.250605
0.231194
0.215306
0.202592
0.192695
0.185254
0.179928
0.176427
0.174524
0.174059
0.174925
0.177058
0.180432
0.185046
0.190925
0.198098
0.206588
0.216375
0.227353
0.239248
0.251425
0.262035
0.267569
0.267285
0.26175
0.254025
0.245974
0.238303
0.231382
0.225408
0.220464
0.216555
0.213626
0.211571
0.210251
0.2095
0.209145
0.20903
0.209051
0.209182
0.20949
0.210119
0.211262
0.213129
0.215931
0.219857
0.225072
0.231696
0.239799
0.249376
0.260321
0.272362
0.28492
0.296591
0.303293
0.228044
0.226692
0.22444
0.221817
0.219273
0.217142
0.21565
0.214928
0.215026
0.215911
0.217474
0.219511
0.221709
0.223619
0.224625
0.22397
0.221072
0.216687
0.211636
0.206563
0.201932
0.198082
0.195266
0.193695
0.193565
0.195077
0.19845
0.203932
0.211798
0.222338
0.235858
0.252671
0.273097
0.297458
0.326056
0.359119
0.396642
0.437572
0.472571
0.496279
0.514711
0.530561
0.544011
0.555208
0.564269
0.571284
0.576322
0.579432
0.580648
0.579987
0.57745
0.573025
0.566683
0.558381
0.548055
0.535623
0.520981
0.503995
0.484503
0.458803
0.421644
0.380441
0.342997
0.310135
0.281784
0.257681
0.237503
0.220913
0.207564
0.197108
0.189198
0.183505
0.179741
0.177678
0.177148
0.178043
0.180299
0.183895
0.188838
0.195164
0.202915
0.212126
0.222791
0.234814
0.247928
0.261446
0.272754
0.278002
0.278536
0.273353
0.264902
0.255985
0.247521
0.239931
0.233426
0.228095
0.223943
0.220907
0.21887
0.217668
0.217099
0.216941
0.216979
0.217056
0.217129
0.217291
0.21774
0.218728
0.220514
0.223341
0.227423
0.232933
0.239999
0.248692
0.259012
0.270857
0.283958
0.297662
0.309609
0.314844
0.244564
0.242358
0.23894
0.23517
0.231655
0.228794
0.226838
0.225926
0.226108
0.227352
0.229546
0.232483
0.235827
0.239056
0.241343
0.241344
0.237173
0.231047
0.224321
0.217813
0.212028
0.207297
0.203856
0.201896
0.201595
0.203136
0.206725
0.212593
0.220995
0.232208
0.246526
0.26426
0.285727
0.311247
0.3411
0.37544
0.413967
0.454442
0.484596
0.50526
0.522847
0.53804
0.550981
0.561784
0.570542
0.577329
0.582202
0.585205
0.586365
0.585697
0.583202
0.578868
0.572671
0.564573
0.55452
0.542444
0.528257
0.511855
0.493104
0.470657
0.437741
0.396329
0.357719
0.323516
0.293858
0.268533
0.247232
0.229615
0.215339
0.204065
0.195461
0.189215
0.185047
0.182732
0.182098
0.183035
0.185481
0.189418
0.194869
0.201878
0.210503
0.220793
0.23275
0.246275
0.261047
0.276139
0.287645
0.292588
0.293842
0.2905
0.281467
0.271376
0.261792
0.253251
0.245994
0.24012
0.235637
0.232479
0.230514
0.229546
0.229317
0.229524
0.229848
0.230032
0.229987
0.229868
0.229975
0.230663
0.232266
0.235081
0.23935
0.245259
0.252941
0.262467
0.27383
0.28691
0.30136
0.316183
0.327011
0.330663
0.268899
0.264997
0.259642
0.254143
0.24924
0.245364
0.242771
0.241595
0.241882
0.2436
0.246636
0.250786
0.255719
0.260895
0.26535
0.267002
0.260182
0.251246
0.242096
0.233616
0.226279
0.220372
0.216093
0.213603
0.213053
0.214607
0.218448
0.224786
0.233856
0.245921
0.261264
0.28019
0.303013
0.330043
0.361527
0.397526
0.43731
0.47373
0.498048
0.51682
0.533376
0.547773
0.56009
0.570405
0.578785
0.585286
0.589954
0.592821
0.593911
0.593234
0.590792
0.586574
0.580561
0.57272
0.563009
0.551374
0.53775
0.522062
0.504228
0.484157
0.456822
0.417501
0.377601
0.341695
0.310347
0.283437
0.260676
0.241731
0.226261
0.213934
0.204434
0.197463
0.192758
0.190101
0.189324
0.190317
0.193022
0.19743
0.203569
0.211498
0.221287
0.232991
0.24662
0.262057
0.278869
0.295451
0.30581
0.310596
0.312461
0.311354
0.303629
0.292408
0.281514
0.271808
0.263615
0.257074
0.252209
0.248956
0.247171
0.246622
0.24698
0.247827
0.248667
0.249044
0.248766
0.248125
0.247621
0.24777
0.249018
0.251724
0.256164
0.262537
0.270972
0.281529
0.294181
0.308752
0.324669
0.339705
0.347237
0.349902
0.302431
0.295359
0.287107
0.279266
0.272562
0.267395
0.263999
0.262491
0.262905
0.265202
0.269269
0.274901
0.281776
0.289324
0.29616
0.296797
0.289651
0.277379
0.265258
0.254376
0.245148
0.237799
0.232481
0.229319
0.228434
0.229966
0.234075
0.240948
0.250802
0.263881
0.280458
0.300828
0.325298
0.354147
0.387527
0.42512
0.464597
0.493333
0.513156
0.530597
0.546063
0.559584
0.571202
0.580962
0.588907
0.595078
0.599506
0.602215
0.603222
0.602536
0.600157
0.596076
0.590277
0.582736
0.573421
0.562293
0.549307
0.534414
0.51757
0.498741
0.47661
0.443674
0.402756
0.364919
0.331562
0.302734
0.2782
0.257644
0.240735
0.227148
0.216576
0.208738
0.203386
0.200315
0.199367
0.200439
0.203477
0.20848
0.215484
0.224553
0.235764
0.249178
0.264796
0.282468
0.301536
0.318178
0.326614
0.331491
0.333937
0.334081
0.3302
0.31917
0.307061
0.296065
0.286793
0.279489
0.274213
0.270926
0.269486
0.269625
0.270939
0.272866
0.274633
0.275384
0.274625
0.273041
0.271492
0.270746
0.271381
0.273826
0.278382
0.285251
0.294545
0.306287
0.320399
0.336578
0.353645
0.365219
0.369664
0.3718
0.338412
0.332264
0.321194
0.310738
0.301965
0.295294
0.290962
0.289069
0.289632
0.292601
0.297848
0.305124
0.314026
0.323541
0.328616
0.326992
0.32213
0.308807
0.293854
0.280389
0.269039
0.260034
0.253499
0.24953
0.248224
0.249695
0.254081
0.261548
0.272293
0.286542
0.304551
0.326599
0.35297
0.383894
0.419373
0.458294
0.490967
0.512444
0.530255
0.546347
0.560696
0.5733
0.584172
0.593332
0.600805
0.606613
0.610776
0.613311
0.614228
0.613532
0.611224
0.607296
0.601736
0.594527
0.585648
0.575071
0.562769
0.548718
0.532897
0.515303
0.495956
0.470585
0.432846
0.393401
0.357854
0.326823
0.300222
0.277789
0.259211
0.244172
0.232375
0.223552
0.21747
0.213937
0.212808
0.21399
0.217437
0.223152
0.231177
0.241581
0.254441
0.269808
0.287645
0.307636
0.328388
0.342633
0.349878
0.354816
0.357717
0.358702
0.357911
0.351405
0.338718
0.326428
0.315969
0.30783
0.302126
0.298887
0.297998
0.299173
0.301932
0.305607
0.309011
0.310561
0.308759
0.305534
0.302304
0.300186
0.29988
0.301868
0.306461
0.313841
0.324075
0.337089
0.352645
0.369966
0.38444
0.39088
0.394155
0.395834
0.371787
0.369658
0.360716
0.348401
0.337612
0.329334
0.323995
0.321687
0.322426
0.326139
0.332663
0.341543
0.351926
0.359994
0.360643
0.358536
0.355062
0.344898
0.327905
0.311918
0.298327
0.287507
0.279605
0.27471
0.272904
0.27428
0.278957
0.287082
0.298832
0.314408
0.334038
0.357965
0.386415
0.419448
0.456403
0.491792
0.515175
0.532823
0.549073
0.56384
0.577073
0.588747
0.598853
0.60739
0.614366
0.619791
0.623675
0.626024
0.626845
0.626141
0.62391
0.620147
0.614844
0.60799
0.599571
0.589573
0.577982
0.564791
0.549997
0.533612
0.515668
0.495812
0.466986
0.427287
0.389601
0.356141
0.327205
0.302641
0.282171
0.265495
0.252327
0.242412
0.23553
0.231501
0.230194
0.231524
0.235454
0.241992
0.251182
0.263094
0.277798
0.295325
0.31556
0.337846
0.35802
0.368542
0.375249
0.38018
0.38341
0.385064
0.385314
0.383725
0.375927
0.363047
0.351424
0.342455
0.336302
0.33319
0.333076
0.335672
0.340382
0.34664
0.352561
0.355777
0.351854
0.346182
0.3405
0.336498
0.334897
0.336231
0.340773
0.348668
0.359902
0.374127
0.390563
0.406192
0.414089
0.417705
0.420242
0.421548
0.404718
0.404376
0.401148
0.391446
0.379455
0.36963
0.363319
0.3606
0.361543
0.36602
0.373831
0.383751
0.392833
0.395089
0.393584
0.391353
0.38822
0.382601
0.367266
0.349216
0.333392
0.320654
0.311268
0.305345
0.30297
0.304228
0.309222
0.318081
0.33096
0.348027
0.369455
0.395415
0.426012
0.460833
0.496982
0.521523
0.538632
0.554598
0.569373
0.582866
0.59501
0.605764
0.615102
0.623009
0.62948
0.634512
0.638107
0.640266
0.640989
0.640277
0.638128
0.634538
0.629503
0.623016
0.615073
0.605667
0.594797
0.582466
0.568687
0.553482
0.536888
0.518953
0.497993
0.466263
0.427097
0.391107
0.359627
0.332708
0.310133
0.291634
0.276946
0.265829
0.258076
0.253521
0.25204
0.253558
0.258045
0.265512
0.276004
0.289584
0.3063
0.32612
0.348709
0.372419
0.387981
0.396062
0.402397
0.407243
0.41068
0.412831
0.413861
0.413995
0.412143
0.404922
0.392978
0.383523
0.376877
0.373952
0.374794
0.379153
0.385877
0.394928
0.400509
0.402139
0.400363
0.394185
0.385842
0.37973
0.376575
0.377123
0.381532
0.389898
0.402133
0.416983
0.431367
0.439409
0.442836
0.445607
0.447559
0.448568
0.43799
0.43786
0.43768
0.434525
0.426533
0.415827
0.408911
0.405811
0.406984
0.412019
0.420674
0.427999
0.430418
0.428972
0.427249
0.42507
0.422313
0.418937
0.410472
0.39232
0.374596
0.359921
0.348974
0.341942
0.338946
0.340076
0.345425
0.355103
0.369244
0.387967
0.411334
0.439351
0.471887
0.506968
0.531423
0.547833
0.563148
0.577562
0.590957
0.60324
0.614337
0.624196
0.632781
0.640065
0.646032
0.650671
0.653976
0.655942
0.656568
0.65585
0.653786
0.650374
0.645613
0.6395
0.632037
0.623225
0.613072
0.60159
0.588803
0.574741
0.55945
0.542988
0.525429
0.503208
0.469499
0.431883
0.397916
0.368512
0.343652
0.323147
0.306782
0.294342
0.285639
0.280517
0.278863
0.280608
0.285727
0.294232
0.30616
0.321554
0.340409
0.362554
0.387092
0.40777
0.417944
0.425127
0.431034
0.435713
0.439238
0.441718
0.443302
0.444193
0.444649
0.443612
0.438632
0.430432
0.423385
0.420777
0.422508
0.428625
0.435374
0.439497
0.441026
0.441053
0.441662
0.440164
0.435982
0.42901
0.424513
0.424393
0.428559
0.437019
0.449692
0.460249
0.466823
0.469656
0.472219
0.474327
0.475821
0.476595
0.471391
0.471392
0.471461
0.471743
0.470066
0.465533
0.459639
0.456212
0.457624
0.462027
0.465516
0.466485
0.464752
0.463115
0.46137
0.459366
0.457013
0.45428
0.450992
0.440725
0.422178
0.405684
0.393197
0.385003
0.381361
0.382371
0.38812
0.398698
0.414223
0.434745
0.460048
0.489587
0.522201
0.545127
0.560488
0.574836
0.588567
0.601545
0.613654
0.624799
0.634902
0.643904
0.65176
0.658437
0.663911
0.668163
0.671183
0.67296
0.67349
0.672768
0.670792
0.66756
0.663074
0.657335
0.650349
0.642124
0.632675
0.622021
0.610193
0.59723
0.583183
0.568118
0.552117
0.535279
0.51242
0.478015
0.442367
0.410571
0.383312
0.360627
0.342423
0.32853
0.318786
0.313051
0.311218
0.313225
0.319049
0.328698
0.342187
0.35952
0.38054
0.404593
0.428532
0.441579
0.449023
0.455468
0.460899
0.465338
0.468841
0.471499
0.473438
0.474824
0.475864
0.476812
0.477377
0.475441
0.472914
0.471586
0.472695
0.474831
0.476444
0.475982
0.475553
0.475725
0.476509
0.47796
0.478857
0.47777
0.47638
0.476466
0.480128
0.486305
0.492236
0.496071
0.49805
0.500125
0.502056
0.50366
0.504803
0.505397
0.504793
0.504855
0.505024
0.505392
0.506095
0.506474
0.505025
0.503688
0.503583
0.5039
0.502682
0.500669
0.498959
0.497367
0.49575
0.494009
0.492093
0.489995
0.487758
0.484629
0.474856
0.457811
0.444242
0.434925
0.430676
0.431599
0.4378
0.449306
0.466231
0.488553
0.515078
0.542806
0.56293
0.576597
0.589689
0.602457
0.614738
0.626396
0.637315
0.647399
0.656567
0.664758
0.671919
0.678014
0.683011
0.686889
0.689631
0.691226
0.691664
0.690941
0.689053
0.686002
0.681788
0.676417
0.6699
0.662248
0.653481
0.643627
0.632719
0.620802
0.607933
0.594183
0.579636
0.564393
0.548542
0.526029
0.492652
0.459258
0.429673
0.404676
0.384486
0.369005
0.358127
0.351724
0.349699
0.351995
0.358591
0.369481
0.384628
0.403985
0.427062
0.451843
0.467091
0.474572
0.481089
0.486823
0.491756
0.495898
0.49929
0.502
0.504127
0.5058
0.50717
0.508411
0.509699
0.511221
0.512193
0.512312
0.512257
0.511327
0.510212
0.509612
0.50946
0.509786
0.510616
0.511984
0.513921
0.516533
0.518462
0.52012
0.522547
0.52507
0.526288
0.5276
0.529144
0.530739
0.532221
0.533454
0.534335
0.534793
0.538133
0.53821
0.538387
0.538705
0.5392
0.539851
0.540575
0.540679
0.53966
0.537903
0.536159
0.534534
0.533049
0.531644
0.530254
0.528829
0.527354
0.525847
0.524376
0.523063
0.521057
0.513875
0.501578
0.491609
0.487041
0.487953
0.494665
0.506934
0.524709
0.54784
0.568378
0.584458
0.596025
0.607638
0.619213
0.630563
0.641532
0.651987
0.661812
0.670914
0.679211
0.686639
0.693146
0.698687
0.703231
0.706751
0.709228
0.710648
0.711
0.710278
0.708479
0.705605
0.701658
0.696647
0.690584
0.683486
0.675376
0.666286
0.656252
0.645326
0.633566
0.621045
0.60785
0.594081
0.579854
0.565254
0.544285
0.51404
0.483056
0.455775
0.433556
0.416376
0.404284
0.397161
0.394923
0.39752
0.404929
0.417128
0.433883
0.455108
0.478966
0.494572
0.502144
0.50831
0.513938
0.518979
0.523403
0.527209
0.53042
0.533083
0.535272
0.537077
0.538605
0.539964
0.541242
0.542469
0.543475
0.544037
0.543899
0.543462
0.543013
0.542795
0.542889
0.543342
0.544186
0.54544
0.547107
0.549163
0.551439
0.553657
0.555278
0.55649
0.557664
0.558893
0.560186
0.561466
0.562635
0.563601
0.564289
0.564646
0.571397
0.571465
0.571609
0.57184
0.572148
0.572486
0.572725
0.572587
0.571888
0.570769
0.569515
0.568261
0.567058
0.565906
0.564791
0.563701
0.562646
0.561665
0.560834
0.560278
0.56018
0.560315
0.557155
0.552701
0.549097
0.550151
0.557424
0.569677
0.584228
0.597859
0.608961
0.618495
0.628496
0.638718
0.648961
0.659051
0.668842
0.678206
0.687033
0.695232
0.702724
0.709444
0.715336
0.720358
0.724474
0.727656
0.729882
0.731137
0.731409
0.730691
0.728981
0.72628
0.722593
0.717929
0.712304
0.705736
0.698253
0.689887
0.68068
0.670683
0.65996
0.648582
0.636638
0.624228
0.61147
0.598497
0.585442
0.567341
0.542373
0.513855
0.490017
0.471111
0.457812
0.449939
0.447455
0.450332
0.458507
0.472007
0.489736
0.511321
0.525167
0.532076
0.537449
0.542585
0.547376
0.551751
0.55567
0.559115
0.562096
0.564642
0.5668
0.568633
0.57021
0.571596
0.572838
0.573936
0.574817
0.57539
0.575604
0.57561
0.575581
0.575668
0.575958
0.576507
0.577344
0.578481
0.579904
0.581564
0.583343
0.58507
0.586551
0.587814
0.588983
0.590122
0.591241
0.592303
0.593252
0.594026
0.594573
0.594857
0.604592
0.604644
0.604747
0.604895
0.605069
0.605218
0.605253
0.605049
0.604537
0.60377
0.602872
0.601936
0.601014
0.600133
0.599303
0.598538
0.597865
0.597333
0.597019
0.597036
0.597539
0.598734
0.600908
0.602401
0.603642
0.606838
0.61281
0.620688
0.628808
0.635807
0.643551
0.651936
0.660745
0.669779
0.678861
0.687839
0.696578
0.70496
0.712883
0.720258
0.72701
0.733074
0.738398
0.742935
0.746651
0.749516
0.751508
0.752609
0.752807
0.752097
0.750474
0.747941
0.744504
0.740173
0.734965
0.728902
0.722011
0.714328
0.705896
0.696768
0.687007
0.676685
0.665891
0.654723
0.6433
0.631756
0.620251
0.608978
0.594966
0.576279
0.553235
0.533075
0.518937
0.510333
0.507555
0.510628
0.519166
0.533539
0.549109
0.559466
0.564511
0.568703
0.57299
0.577205
0.581229
0.584981
0.588409
0.591486
0.594208
0.596587
0.598653
0.600444
0.602004
0.603373
0.604578
0.605618
0.606469
0.607101
0.607517
0.607793
0.608034
0.608335
0.608769
0.609384
0.610204
0.611236
0.612465
0.613845
0.615299
0.616727
0.618042
0.619232
0.620332
0.621372
0.622353
0.623255
0.624043
0.624677
0.625122
0.625351
0.637736
0.637771
0.637838
0.637926
0.638014
0.638063
0.638018
0.63782
0.63744
0.636902
0.636267
0.635595
0.634932
0.634308
0.633749
0.633282
0.632943
0.632782
0.632871
0.633307
0.634207
0.635712
0.637962
0.641013
0.644926
0.649222
0.653743
0.658641
0.66423
0.670545
0.677495
0.684955
0.692771
0.700789
0.708865
0.716866
0.724671
0.732174
0.73928
0.745907
0.751983
0.757446
0.762245
0.766335
0.769679
0.77225
0.774024
0.774983
0.775116
0.774414
0.772877
0.770506
0.767308
0.763294
0.758482
0.752895
0.746562
0.739519
0.73181
0.723487
0.714614
0.705262
0.695516
0.685475
0.675251
0.664975
0.654801
0.644911
0.635528
0.625866
0.613292
0.59935
0.586188
0.577051
0.573918
0.57695
0.583924
0.591184
0.596888
0.599306
0.602068
0.605236
0.608604
0.612016
0.615354
0.618534
0.621498
0.624213
0.626662
0.628846
0.63078
0.632486
0.63399
0.635316
0.636481
0.63749
0.63834
0.639027
0.639569
0.640013
0.640426
0.64087
0.641401
0.642054
0.642851
0.643795
0.644874
0.646052
0.647281
0.648499
0.649658
0.650738
0.651743
0.65268
0.653544
0.654321
0.654987
0.655517
0.655886
0.656075
0.670844
0.670867
0.670908
0.670958
0.670998
0.671002
0.670937
0.670774
0.670501
0.670131
0.6697
0.669247
0.668809
0.668418
0.668105
0.667899
0.667842
0.667981
0.668379
0.669113
0.67027
0.671944
0.674211
0.677105
0.680606
0.684555
0.688872
0.693606
0.698857
0.704648
0.710931
0.717617
0.724594
0.731743
0.738945
0.746088
0.753066
0.759784
0.766157
0.772107
0.777569
0.782483
0.786801
0.790479
0.793482
0.795781
0.797354
0.798183
0.798257
0.797568
0.796114
0.793898
0.790927
0.787213
0.782775
0.777635
0.771823
0.765375
0.758336
0.750757
0.742699
0.734232
0.725437
0.716409
0.707253
0.698092
0.689066
0.680335
0.672084
0.664518
0.657911
0.650952
0.643514
0.63749
0.634242
0.633913
0.635153
0.635708
0.636034
0.637304
0.63922
0.641568
0.644174
0.6469
0.649637
0.652303
0.654838
0.657205
0.65938
0.661357
0.663136
0.66473
0.666153
0.667419
0.66854
0.669523
0.670373
0.671098
0.671718
0.672266
0.672785
0.67332
0.673909
0.674581
0.67535
0.676221
0.677182
0.67821
0.679272
0.68033
0.681352
0.682319
0.683223
0.68406
0.684822
0.685498
0.686069
0.686518
0.686829
0.686987
0.703929
0.703944
0.70397
0.703999
0.704018
0.704009
0.703954
0.703838
0.703657
0.703422
0.703154
0.702883
0.702639
0.702452
0.702351
0.702369
0.702544
0.70292
0.70355
0.704495
0.705818
0.707581
0.709833
0.712591
0.715839
0.719516
0.723585
0.728052
0.732944
0.738261
0.743964
0.749986
0.756245
0.762643
0.769085
0.775474
0.781721
0.78774
0.793455
0.798796
0.803702
0.808117
0.811996
0.815297
0.817987
0.820038
0.821428
0.82214
0.822162
0.821487
0.820114
0.818046
0.815289
0.811858
0.807769
0.803046
0.797719
0.791824
0.785402
0.778506
0.771192
0.763529
0.755593
0.747471
0.739262
0.731075
0.723035
0.715279
0.707955
0.701217
0.695212
0.689997
0.685746
0.682205
0.679196
0.676676
0.674831
0.673984
0.673952
0.674657
0.675939
0.677641
0.679625
0.681774
0.683991
0.686201
0.688347
0.690388
0.692298
0.694063
0.695678
0.697146
0.698473
0.699667
0.700736
0.701689
0.702531
0.703276
0.703939
0.704546
0.705128
0.705715
0.706336
0.707009
0.707749
0.708555
0.709423
0.710334
0.711268
0.712198
0.713102
0.713963
0.71477
0.715514
0.716187
0.716778
0.717273
0.717659
0.717924
0.718059
0.737
0.737011
0.73703
0.737051
0.737065
0.737063
0.737032
0.736967
0.736868
0.736744
0.736611
0.736492
0.736413
0.736399
0.736478
0.736682
0.737045
0.737605
0.738408
0.739499
0.740926
0.742731
0.744947
0.747587
0.750641
0.754086
0.757899
0.762073
0.766607
0.771487
0.776676
0.782121
0.787755
0.793501
0.799277
0.805004
0.810603
0.816
0.821127
0.82592
0.830324
0.834288
0.837769
0.840727
0.843132
0.844957
0.84618
0.846786
0.846762
0.846104
0.844809
0.842881
0.840326
0.837159
0.833396
0.829062
0.824184
0.818797
0.812944
0.806672
0.800036
0.793099
0.785934
0.77862
0.771247
0.763911
0.756721
0.749791
0.74324
0.737182
0.73172
0.726919
0.722826
0.71937
0.716477
0.714139
0.712429
0.711442
0.711134
0.711433
0.712237
0.713432
0.714912
0.71658
0.718353
0.720164
0.72196
0.723702
0.725361
0.726919
0.728368
0.729702
0.730925
0.732039
0.73305
0.733964
0.734788
0.735534
0.736216
0.736852
0.737466
0.738078
0.738709
0.739373
0.740079
0.74083
0.741619
0.742437
0.743267
0.744092
0.744894
0.74566
0.746379
0.74704
0.747635
0.748154
0.748586
0.74892
0.749149
0.749265
0.770059
0.770069
0.770087
0.770109
0.77013
0.770143
0.770145
0.770131
0.770105
0.770075
0.770055
0.770063
0.770121
0.770252
0.770481
0.770836
0.771348
0.772049
0.772977
0.774166
0.775654
0.777471
0.779639
0.782167
0.785054
0.788287
0.791851
0.795735
0.799926
0.804402
0.809132
0.814068
0.819154
0.824327
0.829519
0.834661
0.839687
0.844531
0.849132
0.853434
0.857387
0.860943
0.864063
0.866711
0.868857
0.870477
0.871549
0.87206
0.871998
0.871358
0.870138
0.868342
0.865977
0.863056
0.859596
0.855621
0.851157
0.846238
0.840905
0.835201
0.829179
0.822899
0.816424
0.809829
0.803193
0.796602
0.790147
0.783925
0.77803
0.772552
0.767569
0.763132
0.75927
0.755968
0.753202
0.750972
0.749304
0.748223
0.747707
0.747705
0.748143
0.74894
0.750011
0.75128
0.752676
0.754141
0.755628
0.757098
0.758524
0.759886
0.76117
0.762371
0.763486
0.764515
0.765461
0.766328
0.767124
0.767856
0.768537
0.769181
0.769804
0.770422
0.771048
0.771694
0.772366
0.773065
0.773788
0.774527
0.775271
0.776007
0.776723
0.777406
0.778045
0.778633
0.77916
0.779617
0.779995
0.780287
0.780486
0.780587
0.803108
0.803119
0.80314
0.803169
0.803202
0.803237
0.803272
0.803306
0.803345
0.803396
0.80347
0.803584
0.803756
0.804006
0.804357
0.804833
0.80546
0.806268
0.807283
0.808537
0.810054
0.81186
0.813969
0.816389
0.819121
0.822156
0.825483
0.829089
0.832958
0.837066
0.841381
0.845864
0.850466
0.855134
0.85981
0.864435
0.868952
0.873304
0.877436
0.881298
0.884845
0.888035
0.890829
0.893197
0.895109
0.896543
0.897481
0.897907
0.897812
0.897191
0.896043
0.894371
0.892183
0.889491
0.886312
0.882667
0.878584
0.874095
0.869235
0.864048
0.858582
0.852891
0.847035
0.841079
0.835095
0.829156
0.823341
0.817731
0.812403
0.807429
0.80287
0.79877
0.795155
0.79203
0.789392
0.787244
0.785592
0.78444
0.783767
0.783536
0.783691
0.784172
0.784913
0.785851
0.78693
0.788098
0.789312
0.790539
0.791752
0.792929
0.794057
0.795126
0.796133
0.797074
0.79795
0.798765
0.799522
0.80023
0.800896
0.801532
0.802148
0.802757
0.803368
0.803989
0.804625
0.805276
0.80594
0.806612
0.807283
0.807944
0.808584
0.809194
0.809764
0.810287
0.810754
0.811158
0.811491
0.811748
0.811922
0.81201
0.836146
0.836159
0.836186
0.836224
0.836273
0.836331
0.836398
0.836478
0.836573
0.836692
0.836846
0.837048
0.837313
0.83766
0.838108
0.838679
0.839394
0.840277
0.841352
0.842642
0.844167
0.845945
0.847987
0.8503
0.852884
0.855733
0.858837
0.862182
0.865751
0.869521
0.873463
0.87754
0.881712
0.885932
0.890151
0.894318
0.898383
0.902296
0.906009
0.909478
0.912661
0.915521
0.918023
0.920137
0.921839
0.923107
0.923923
0.924275
0.924153
0.923552
0.922472
0.920917
0.918893
0.916413
0.913493
0.910153
0.906419
0.902321
0.897892
0.893174
0.88821
0.883049
0.877746
0.872359
0.86695
0.861585
0.856331
0.851255
0.846422
0.841891
0.837712
0.833923
0.830549
0.827604
0.825093
0.823018
0.821381
0.820176
0.819386
0.818979
0.818915
0.819144
0.819618
0.820283
0.821094
0.822007
0.822985
0.823995
0.825014
0.826021
0.827001
0.827945
0.828844
0.829697
0.830501
0.831258
0.831971
0.832645
0.833286
0.833901
0.8345
0.83509
0.835678
0.836269
0.836868
0.837474
0.838086
0.838698
0.839306
0.839901
0.840475
0.841021
0.841531
0.841996
0.842412
0.842769
0.843064
0.84329
0.843444
0.843521
0.86917
0.869187
0.86922
0.869269
0.869334
0.869415
0.869514
0.869633
0.869777
0.869955
0.870174
0.870448
0.870789
0.871213
0.871737
0.87238
0.873159
0.874095
0.875206
0.876512
0.878027
0.879765
0.881735
0.883941
0.886383
0.889055
0.891949
0.895051
0.898344
0.901805
0.905409
0.909123
0.91291
0.916732
0.920544
0.924303
0.927966
0.931488
0.934827
0.937944
0.940801
0.943364
0.945603
0.947491
0.949004
0.950122
0.95083
0.951116
0.950972
0.950392
0.949377
0.947931
0.94606
0.943775
0.941093
0.938033
0.934618
0.930876
0.92684
0.922546
0.918034
0.913349
0.908541
0.90366
0.898762
0.893904
0.889143
0.884537
0.88014
0.876001
0.872163
0.86866
0.865516
0.862745
0.860357
0.858355
0.856738
0.855498
0.85462
0.85408
0.853843
0.853873
0.854129
0.85457
0.855157
0.855852
0.856624
0.857444
0.858289
0.85914
0.859983
0.860807
0.861603
0.862368
0.863099
0.863796
0.864459
0.865093
0.8657
0.866288
0.866861
0.867424
0.867984
0.868543
0.869104
0.869667
0.87023
0.870789
0.871341
0.871878
0.872395
0.872885
0.873341
0.873756
0.874126
0.874444
0.874706
0.874906
0.875041
0.87511
0.902178
0.902198
0.902238
0.902298
0.902379
0.902482
0.902609
0.902762
0.902949
0.903175
0.903448
0.90378
0.904181
0.904666
0.905248
0.905943
0.906768
0.907737
0.908867
0.910172
0.911664
0.913353
0.915246
0.917346
0.919651
0.922156
0.924853
0.927729
0.930767
0.933947
0.937245
0.940631
0.944075
0.94754
0.95099
0.954386
0.957689
0.960862
0.963867
0.966669
0.969234
0.971532
0.973535
0.975219
0.976563
0.977548
0.97816
0.978388
0.978225
0.977667
0.976714
0.975369
0.973639
0.971535
0.969072
0.966268
0.963144
0.959727
0.956046
0.952135
0.948031
0.943774
0.939407
0.934978
0.930534
0.926124
0.9218
0.917609
0.913599
0.90981
0.90628
0.903039
0.900108
0.897504
0.895236
0.893307
0.891717
0.890459
0.889518
0.888876
0.888505
0.888376
0.888457
0.888712
0.88911
0.88962
0.890214
0.890866
0.891557
0.892267
0.892984
0.893695
0.894394
0.895074
0.895732
0.896366
0.896977
0.897566
0.898135
0.898689
0.89923
0.899763
0.90029
0.900815
0.901338
0.901859
0.902377
0.902889
0.90339
0.903876
0.904342
0.904782
0.905191
0.905563
0.905893
0.906176
0.906408
0.906586
0.906706
0.906767
0.935165
0.935188
0.935235
0.935306
0.935402
0.935524
0.935676
0.93586
0.936081
0.936347
0.936664
0.937042
0.93749
0.938021
0.938646
0.939379
0.940232
0.94122
0.942353
0.943645
0.945104
0.946738
0.948551
0.950545
0.952718
0.955066
0.957578
0.960244
0.963048
0.965971
0.968991
0.972083
0.975217
0.978363
0.981489
0.98456
0.987544
0.990405
0.993111
0.99563
0.997934
0.999994
1.00179
1.00329
1.00448
1.00535
1.00587
1.00605
1.00587
1.00534
1.00444
1.00319
1.00159
0.999655
0.997392
0.994821
0.991963
0.988841
0.985482
0.981917
0.97818
0.974307
0.970337
0.96631
0.96227
0.95826
0.954323
0.950502
0.946835
0.94336
0.940108
0.937106
0.934374
0.931927
0.929774
0.92792
0.926364
0.925101
0.924118
0.9234
0.922926
0.922671
0.922608
0.922711
0.922952
0.923305
0.923745
0.924252
0.924805
0.925388
0.92599
0.926597
0.927203
0.927802
0.928388
0.92896
0.929517
0.930059
0.930586
0.931102
0.931608
0.932107
0.9326
0.933089
0.933574
0.934055
0.934531
0.934998
0.935454
0.935894
0.936315
0.936711
0.937078
0.937411
0.937706
0.937959
0.938166
0.938324
0.938431
0.938484
0.96813
0.968156
0.968209
0.968289
0.968399
0.968538
0.968711
0.96892
0.96917
0.969468
0.969819
0.970233
0.970716
0.971281
0.971936
0.972693
0.973563
0.974556
0.975682
0.976951
0.978369
0.979943
0.981674
0.983565
0.985612
0.987809
0.99015
0.992622
0.99521
0.997899
1.00067
1.00349
1.00635
1.00921
1.01204
1.01482
1.01752
1.0201
1.02254
1.02481
1.02688
1.02873
1.03033
1.03167
1.03272
1.03348
1.03394
1.03407
1.03388
1.03337
1.03253
1.03136
1.02988
1.0281
1.02602
1.02366
1.02105
1.01819
1.01512
1.01187
1.00847
1.00494
1.00132
0.997656
0.993977
0.990323
0.986732
0.983239
0.979881
0.976687
0.973687
0.970903
0.968355
0.966055
0.964014
0.962235
0.96072
0.959462
0.958453
0.95768
0.957126
0.956772
0.956595
0.956573
0.956683
0.956902
0.957211
0.95759
0.958022
0.958492
0.958989
0.959501
0.960021
0.960541
0.961059
0.96157
0.962072
0.962565
0.963049
0.963525
0.963994
0.964456
0.964914
0.965366
0.965814
0.966257
0.966692
0.967119
0.967533
0.967932
0.968312
0.968669
0.968998
0.969297
0.969561
0.969787
0.969972
0.970113
0.970208
0.970256
1.00107
1.0011
1.00116
1.00124
1.00136
1.00152
1.00171
1.00194
1.00221
1.00254
1.00291
1.00335
1.00386
1.00445
1.00512
1.00589
1.00677
1.00776
1.00887
1.01011
1.01148
1.01299
1.01464
1.01643
1.01835
1.02041
1.02259
1.02488
1.02727
1.02975
1.03229
1.03487
1.03747
1.04008
1.04265
1.04517
1.04761
1.04994
1.05214
1.05418
1.05604
1.0577
1.05913
1.06033
1.06126
1.06193
1.06231
1.06241
1.06221
1.06172
1.06093
1.05985
1.05848
1.05684
1.05493
1.05276
1.05037
1.04775
1.04495
1.04198
1.03887
1.03566
1.03236
1.02902
1.02566
1.02232
1.01904
1.01584
1.01276
1.00982
1.00705
1.00447
1.00209
0.999925
0.997991
0.996288
0.994817
0.993574
0.992552
0.991742
0.991128
0.990696
0.990427
0.990302
0.990303
0.99041
0.990606
0.990875
0.991201
0.99157
0.991972
0.992397
0.992837
0.993284
0.993736
0.994187
0.994636
0.995081
0.99552
0.995955
0.996385
0.996811
0.997232
0.997648
0.99806
0.998465
0.998863
0.999252
0.999628
0.999989
1.00033
1.00065
1.00095
1.00122
1.00145
1.00166
1.00182
1.00195
1.00203
1.00208
1.03398
1.03401
1.03407
1.03417
1.0343
1.03446
1.03467
1.03491
1.03521
1.03555
1.03594
1.0364
1.03693
1.03753
1.03822
1.03899
1.03986
1.04084
1.04193
1.04313
1.04445
1.0459
1.04746
1.04916
1.05097
1.05289
1.05492
1.05704
1.05925
1.06153
1.06386
1.06622
1.0686
1.07097
1.07331
1.0756
1.07781
1.07992
1.0819
1.08374
1.08541
1.0869
1.08818
1.08924
1.09007
1.09065
1.09098
1.09105
1.09084
1.09037
1.08963
1.08863
1.08736