/*--------------------------------*- C++ -*----------------------------------*\
| =========                 |                                                 |
| \\      /  F ield         | OpenFOAM: The Open Source CFD Toolbox           |
|  \\    /   O peration     | Version:  2406                                  |
|   \\  /    A nd           | Website:  www.openfoam.com                      |
|    \\/     M anipulation  |                                                 |
\*---------------------------------------------------------------------------*/
FoamFile
{
    version     2.0;
    format      ascii;
    arch        "LSB;label=32;scalar=64";
    class       volScalarField;
    location    "5.15";
    object      C_0;
}
// * * * * * * * * * * * * * * * * * * * * * * * * * * * * * * * * * * * * * //

dimensions      [1 -3 0 0 0 0 0];

internalField   nonuniform List<scalar> 
14400
(
0.312342
0.309773
0.305574
0.300835
0.296481
0.293205
0.291486
0.291619
0.293744
0.297853
0.303787
0.31121
0.319546
0.327888
0.33484
0.338344
0.335663
0.329343
0.321635
0.314177
0.308098
0.304187
0.303026
0.305072
0.310709
0.320291
0.334159
0.352662
0.37616
0.405023
0.439616
0.48025
0.52706
0.579659
0.635655
0.677412
0.704716
0.727823
0.748043
0.765676
0.780956
0.794065
0.805147
0.814315
0.821658
0.827245
0.831126
0.833337
0.8339
0.832825
0.830108
0.825735
0.819675
0.811888
0.802315
0.790882
0.777491
0.762021
0.744321
0.724197
0.701408
0.675642
0.641855
0.592634
0.535237
0.482622
0.436284
0.396186
0.361986
0.333268
0.309622
0.290668
0.276073
0.265553
0.258876
0.255855
0.256349
0.260253
0.267494
0.278018
0.291772
0.30868
0.32859
0.351163
0.375601
0.399684
0.41559
0.421358
0.420782
0.411792
0.394774
0.375433
0.357073
0.340686
0.326659
0.315128
0.306074
0.299369
0.294784
0.292002
0.290625
0.290211
0.290326
0.290643
0.291049
0.291701
0.292971
0.295333
0.299273
0.305232
0.313582
0.324615
0.338538
0.355457
0.375336
0.397888
0.422226
0.44543
0.460146
0.465647
0.324438
0.320946
0.315651
0.309958
0.304872
0.301087
0.29906
0.299071
0.301252
0.305596
0.311957
0.320027
0.32929
0.338933
0.347673
0.353286
0.348829
0.34061
0.331429
0.322899
0.316046
0.311582
0.31004
0.311848
0.317374
0.326958
0.340936
0.35965
0.383458
0.412727
0.447824
0.489056
0.536534
0.589587
0.6437
0.681972
0.707987
0.73071
0.75063
0.76803
0.783127
0.796091
0.80706
0.81614
0.823415
0.82895
0.832795
0.834984
0.835538
0.834466
0.831765
0.82742
0.821403
0.813674
0.804176
0.792839
0.779569
0.764252
0.746744
0.726864
0.704383
0.679009
0.647657
0.601244
0.543761
0.490724
0.443868
0.403258
0.368592
0.339469
0.315484
0.29626
0.281462
0.270809
0.264066
0.261049
0.261615
0.265662
0.273119
0.283934
0.298061
0.315431
0.335906
0.359173
0.38437
0.408063
0.422183
0.427635
0.427456
0.420629
0.40458
0.384672
0.365749
0.348904
0.33454
0.322797
0.313661
0.307007
0.302604
0.300119
0.299123
0.299108
0.299541
0.299977
0.300252
0.300579
0.301447
0.303427
0.307067
0.312843
0.321138
0.332246
0.346372
0.36362
0.383961
0.40712
0.432133
0.454052
0.466157
0.47113
0.349366
0.343497
0.335811
0.328178
0.321649
0.316869
0.314243
0.314018
0.31631
0.32111
0.328289
0.337581
0.348537
0.360449
0.372003
0.379044
0.374105
0.362574
0.350729
0.340231
0.331928
0.32641
0.324133
0.325481
0.330791
0.340385
0.354586
0.373724
0.398148
0.428218
0.464288
0.50665
0.555381
0.609507
0.657413
0.689601
0.714446
0.7364
0.755738
0.772686
0.787429
0.800114
0.810862
0.819769
0.826911
0.832346
0.836121
0.838267
0.838803
0.837737
0.835066
0.830777
0.824843
0.817227
0.807877
0.796728
0.783695
0.768674
0.751539
0.73213
0.710252
0.685653
0.657518
0.616833
0.560722
0.507035
0.459152
0.417515
0.381915
0.351982
0.327318
0.307551
0.292348
0.281426
0.274552
0.271541
0.272252
0.276586
0.284474
0.295868
0.310728
0.32899
0.350522
0.374994
0.401331
0.423284
0.434466
0.439535
0.439914
0.435543
0.42299
0.402867
0.383055
0.365369
0.35036
0.338203
0.328908
0.322364
0.318341
0.316488
0.316318
0.317195
0.31837
0.319098
0.319056
0.318623
0.318593
0.319746
0.322754
0.328146
0.336323
0.347575
0.362091
0.379956
0.401113
0.425153
0.450438
0.468467
0.477369
0.481584
0.387207
0.377143
0.365789
0.355347
0.346764
0.340577
0.337101
0.336542
0.339001
0.344459
0.35279
0.363754
0.376905
0.391395
0.404789
0.408719
0.406273
0.393674
0.378955
0.365988
0.355743
0.348758
0.34544
0.346129
0.351136
0.360758
0.375299
0.395075
0.420415
0.451657
0.489105
0.532922
0.58267
0.635227
0.673473
0.700295
0.723794
0.744706
0.763235
0.779548
0.793788
0.806075
0.816506
0.825164
0.832112
0.837403
0.841076
0.843159
0.843669
0.842612
0.839986
0.835778
0.829966
0.822514
0.813378
0.8025
0.789807
0.775212
0.758607
0.739866
0.71884
0.695361
0.669266
0.636077
0.586707
0.53179
0.482322
0.439159
0.402169
0.371022
0.345339
0.324756
0.308943
0.297615
0.290542
0.28754
0.288471
0.293236
0.301768
0.314024
0.32996
0.349505
0.372479
0.398366
0.425171
0.442826
0.451486
0.456124
0.456993
0.454234
0.446808
0.429667
0.408919
0.39012
0.374219
0.361468
0.351946
0.345579
0.342158
0.341328
0.342545
0.344997
0.347606
0.348929
0.348246
0.346351
0.34474
0.344509
0.346497
0.351283
0.359271
0.370726
0.385798
0.404507
0.426712
0.451583
0.474028
0.486112
0.49284
0.496254
0.425365
0.418974
0.404593
0.39108
0.380101
0.372237
0.367716
0.36675
0.369435
0.375731
0.385472
0.398429
0.413967
0.430413
0.439344
0.440293
0.439558
0.431939
0.415501
0.400031
0.387548
0.37878
0.374166
0.37403
0.378663
0.388343
0.403351
0.42398
0.450525
0.483279
0.522454
0.568022
0.618561
0.660784
0.689648
0.713837
0.735728
0.755397
0.772947
0.788483
0.802101
0.81389
0.823924
0.832267
0.838971
0.844078
0.847622
0.849624
0.850101
0.849056
0.846488
0.842385
0.836727
0.829485
0.820621
0.810087
0.797823
0.783758
0.767811
0.749886
0.729881
0.707685
0.683192
0.655918
0.617558
0.564211
0.513433
0.468435
0.429651
0.396903
0.369866
0.348193
0.33156
0.319687
0.312347
0.309358
0.310583
0.315923
0.325312
0.338705
0.356047
0.377223
0.401951
0.429287
0.453109
0.465123
0.472288
0.476482
0.477702
0.476095
0.471991
0.46209
0.44271
0.423078
0.406218
0.392726
0.382918
0.376796
0.37421
0.374829
0.378117
0.383046
0.388288
0.390744
0.388852
0.384279
0.380194
0.377906
0.37845
0.382399
0.390129
0.401845
0.417609
0.437241
0.460338
0.484357
0.49869
0.506322
0.511624
0.514339
0.459574
0.458368
0.450078
0.434711
0.421427
0.411858
0.406157
0.404727
0.407707
0.415007
0.426267
0.441282
0.458338
0.469543
0.472696
0.473429
0.473046
0.470735
0.459477
0.442223
0.427444
0.416681
0.410576
0.409481
0.413694
0.423474
0.439081
0.460774
0.488777
0.523286
0.564183
0.610451
0.653615
0.683732
0.707596
0.729677
0.749884
0.768206
0.784673
0.799334
0.812245
0.823461
0.833033
0.841008
0.847426
0.852317
0.855708
0.857616
0.858053
0.857024
0.854524
0.850545
0.845071
0.838078
0.829535
0.819404
0.807639
0.794187
0.778991
0.761987
0.743112
0.722307
0.699529
0.674767
0.646105
0.60437
0.552744
0.505652
0.464724
0.430018
0.401303
0.378271
0.36061
0.348049
0.340369
0.337396
0.338992
0.345053
0.355507
0.370302
0.389347
0.412401
0.438775
0.465826
0.481657
0.489977
0.49606
0.499815
0.501236
0.50045
0.497718
0.493361
0.482667
0.463801
0.446356
0.432022
0.421895
0.416069
0.414513
0.416927
0.422958
0.431006
0.440372
0.443804
0.440837
0.432073
0.424883
0.419884
0.41864
0.421552
0.428982
0.440996
0.457538
0.477797
0.500665
0.51524
0.522864
0.528828
0.532996
0.535137
0.494212
0.493917
0.492203
0.484342
0.470051
0.459338
0.452344
0.450413
0.453759
0.462236
0.474656
0.490787
0.50143
0.505505
0.506896
0.507681
0.507761
0.507127
0.503493
0.491401
0.475335
0.462609
0.454937
0.452794
0.456572
0.466508
0.482837
0.505789
0.535406
0.5717
0.61328
0.653866
0.683245
0.705874
0.727328
0.747389
0.765925
0.78287
0.798205
0.811935
0.824083
0.834674
0.843739
0.851308
0.857406
0.862057
0.865276
0.867079
0.867473
0.86646
0.864039
0.860202
0.854935
0.848221
0.840037
0.830354
0.819141
0.806361
0.79198
0.77596
0.758273
0.738901
0.717849
0.695158
0.670926
0.641311
0.598719
0.550748
0.507699
0.470791
0.440119
0.415479
0.396586
0.383188
0.375093
0.372139
0.374185
0.381106
0.392816
0.409246
0.430243
0.455284
0.482554
0.501024
0.510111
0.51701
0.52216
0.525481
0.526976
0.526752
0.525014
0.522062
0.518124
0.508704
0.493785
0.478927
0.468656
0.463132
0.46271
0.466807
0.475576
0.483722
0.487992
0.489334
0.48855
0.484882
0.477375
0.469671
0.466722
0.468481
0.475619
0.487805
0.50479
0.523171
0.535842
0.542702
0.548471
0.55313
0.556396
0.558077
0.529145
0.529079
0.529032
0.528111
0.522663
0.51372
0.505503
0.503228
0.506875
0.516535
0.527955
0.53579
0.539049
0.54046
0.541704
0.542636
0.543191
0.543386
0.543327
0.539995
0.530063
0.516343
0.507365
0.504172
0.507575
0.517725
0.534837
0.55918
0.590178
0.627275
0.661867
0.688306
0.709041
0.729185
0.748453
0.766627
0.783555
0.799145
0.813341
0.82612
0.837476
0.847413
0.855943
0.863079
0.868835
0.873226
0.876262
0.877951
0.878299
0.877306
0.874971
0.871287
0.866246
0.859835
0.852037
0.842835
0.832208
0.820138
0.806606
0.791601
0.775119
0.757175
0.737807
0.71709
0.695149
0.672173
0.643176
0.602583
0.558665
0.519589
0.486786
0.460349
0.44004
0.425647
0.417051
0.41412
0.416701
0.424607
0.437703
0.455883
0.478799
0.504653
0.52354
0.533255
0.540135
0.54579
0.550091
0.552972
0.554436
0.554566
0.553527
0.551556
0.548961
0.546068
0.539706
0.530861
0.521686
0.516427
0.517104
0.521115
0.52478
0.526746
0.526185
0.526097
0.526909
0.528169
0.526873
0.524044
0.521047
0.521654
0.52856
0.539863
0.551295
0.56036
0.565687
0.570707
0.575189
0.578825
0.58138
0.582697
0.564144
0.564223
0.564448
0.564961
0.56573
0.563841
0.561395
0.560639
0.563308
0.567824
0.571903
0.573261
0.574335
0.57558
0.576825
0.577969
0.578981
0.5799
0.580842
0.582011
0.580924
0.575676
0.567105
0.563292
0.566634
0.577039
0.594679
0.620081
0.65038
0.677094
0.69869
0.71708
0.735418
0.753372
0.770673
0.787109
0.802526
0.816812
0.829895
0.841729
0.852288
0.86156
0.869539
0.876228
0.88163
0.88575
0.888594
0.890165
0.890465
0.889494
0.88725
0.88373
0.878928
0.872834
0.865441
0.856739
0.84672
0.835376
0.822706
0.808717
0.793427
0.776873
0.759115
0.740247
0.720406
0.69978
0.678602
0.652068
0.616363
0.576366
0.541594
0.513365
0.49152
0.475956
0.46676
0.463858
0.467077
0.476046
0.490478
0.510142
0.533714
0.550679
0.559801
0.565948
0.571383
0.575922
0.579443
0.58188
0.583229
0.583551
0.582971
0.581673
0.579895
0.577924
0.576099
0.573378
0.569369
0.566222
0.565165
0.565067
0.563792
0.562378
0.561743
0.561771
0.562513
0.563945
0.566225
0.568333
0.569463
0.571867
0.576684
0.582597
0.587472
0.591292
0.595334
0.599251
0.602753
0.605599
0.607602
0.608636
0.599065
0.59922
0.599576
0.600221
0.601282
0.602942
0.604684
0.605713
0.6069
0.607408
0.607654
0.608395
0.60945
0.610699
0.612045
0.613434
0.614863
0.616389
0.618131
0.620288
0.623154
0.625735
0.626178
0.627441
0.631894
0.642511
0.659157
0.67869
0.69761
0.713835
0.729663
0.745896
0.762178
0.778213
0.793757
0.808612
0.822625
0.835682
0.847697
0.858613
0.868388
0.876998
0.884426
0.890664
0.895706
0.899552
0.902199
0.903649
0.903901
0.902954
0.900807
0.897456
0.8929
0.887134
0.880155
0.871962
0.862555
0.851939
0.840125
0.827134
0.813
0.797774
0.781531
0.764376
0.74645
0.727933
0.709052
0.690075
0.667712
0.638855
0.603916
0.574683
0.551398
0.534452
0.524565
0.521678
0.525662
0.535624
0.550647
0.569937
0.582889
0.589883
0.59473
0.599353
0.603526
0.607074
0.60988
0.611875
0.613048
0.613437
0.613133
0.612271
0.611021
0.60958
0.608141
0.606824
0.605696
0.604209
0.602076
0.599876
0.598228
0.597134
0.596638
0.59673
0.597428
0.598743
0.600716
0.60334
0.606661
0.610075
0.613017
0.615709
0.618684
0.621861
0.625105
0.62821
0.630974
0.633216
0.634793
0.635607
0.63383
0.634016
0.634414
0.635068
0.636025
0.637296
0.638717
0.640047
0.640903
0.641575
0.642281
0.643213
0.644373
0.645722
0.647223
0.648859
0.65065
0.652661
0.655005
0.657857
0.661456
0.666118
0.672267
0.678441
0.685716
0.695811
0.708022
0.720445
0.732792
0.746167
0.760228
0.774663
0.789186
0.803546
0.817529
0.830956
0.843682
0.855593
0.866599
0.876636
0.885654
0.893618
0.900504
0.906295
0.91098
0.91455
0.917002
0.918332
0.918536
0.917615
0.915566
0.912388
0.908081
0.902645
0.896083
0.888398
0.879599
0.8697
0.858722
0.846695
0.833665
0.819692
0.80486
0.789277
0.773083
0.756452
0.739594
0.722762
0.706257
0.688951
0.667303
0.642608
0.618929
0.600662
0.590199
0.587131
0.591742
0.601852
0.612061
0.619749
0.623413
0.626526
0.629882
0.633209
0.636292
0.638969
0.641126
0.642694
0.643651
0.644017
0.643854
0.643255
0.642339
0.641235
0.640061
0.638889
0.637715
0.636384
0.634844
0.633327
0.632107
0.631294
0.630944
0.631083
0.631727
0.632884
0.634555
0.636708
0.639262
0.641954
0.644552
0.647084
0.649692
0.652364
0.655013
0.657511
0.659716
0.661497
0.662748
0.663393
0.668409
0.668601
0.668996
0.669611
0.670453
0.671499
0.672654
0.673787
0.67478
0.675707
0.676682
0.677804
0.679106
0.680594
0.682265
0.684128
0.686218
0.688599
0.691372
0.694678
0.698694
0.703626
0.709667
0.716861
0.725198
0.734207
0.743858
0.754405
0.765743
0.777812
0.790419
0.803341
0.816356
0.829256
0.841857
0.854002
0.865555
0.876407
0.886471
0.895678
0.903973
0.911316
0.917677
0.923032
0.927367
0.930668
0.932927
0.934138
0.934298
0.933403
0.931454
0.928449
0.924391
0.919283
0.913133
0.905948
0.897744
0.88854
0.878366
0.86726
0.855272
0.842469
0.828939
0.814789
0.800154
0.785197
0.77011
0.755121
0.740492
0.726524
0.713489
0.69888
0.683831
0.670447
0.660958
0.656512
0.656127
0.658064
0.659836
0.66
0.661138
0.662926
0.665064
0.667308
0.669465
0.671385
0.67296
0.674123
0.674843
0.675127
0.67501
0.674556
0.673844
0.67296
0.67198
0.670954
0.669892
0.668763
0.667587
0.666479
0.665582
0.66499
0.664761
0.66493
0.665512
0.66651
0.667912
0.669676
0.671725
0.673922
0.676151
0.678384
0.680637
0.682888
0.685074
0.687105
0.688882
0.690309
0.691309
0.691823
0.702796
0.702982
0.703358
0.703925
0.704679
0.705593
0.706611
0.707669
0.708721
0.709792
0.710937
0.712213
0.713655
0.715283
0.717113
0.71917
0.721494
0.724144
0.727207
0.730789
0.735018
0.740022
0.745908
0.752707
0.760379
0.768767
0.777821
0.787571
0.797965
0.808919
0.820295
0.831927
0.84364
0.855264
0.866643
0.877638
0.888128
0.898011
0.907201
0.915631
0.923244
0.929996
0.935854
0.940791
0.944787
0.947827
0.949899
0.950997
0.951114
0.950247
0.948396
0.945563
0.94175
0.936965
0.931216
0.924517
0.916887
0.908352
0.898943
0.888705
0.877693
0.865975
0.853637
0.840786
0.827548
0.814071
0.800529
0.78712
0.774066
0.761605
0.749987
0.73946
0.730249
0.721819
0.714391
0.708803
0.704453
0.700927
0.698894
0.698094
0.698214
0.698977
0.700139
0.701495
0.702874
0.704145
0.705207
0.705994
0.706473
0.706637
0.706504
0.706115
0.705521
0.704781
0.703946
0.703056
0.702133
0.701191
0.700263
0.699422
0.698751
0.698321
0.698182
0.698364
0.698881
0.699734
0.700906
0.702361
0.704038
0.705857
0.707746
0.709663
0.711585
0.713478
0.715289
0.716953
0.718396
0.71955
0.720354
0.720767
0.736997
0.737173
0.737527
0.738054
0.738746
0.739582
0.74053
0.741557
0.742644
0.743802
0.745061
0.746456
0.748017
0.749769
0.751736
0.753947
0.756443
0.759278
0.762521
0.766254
0.770564
0.775538
0.781236
0.787679
0.794843
0.802661
0.811087
0.820093
0.829625
0.839603
0.849916
0.860433
0.871013
0.881517
0.891813
0.901779
0.911308
0.920306
0.928692
0.9364
0.943375
0.949571
0.954953
0.959491
0.963164
0.965953
0.967847
0.968835
0.968912
0.968075
0.966322
0.963656
0.960083
0.95561
0.950249
0.944018
0.936937
0.929036
0.92035
0.910926
0.900819
0.890099
0.87885
0.867171
0.855179
0.843009
0.830815
0.818765
0.807045
0.795845
0.785356
0.77575
0.767148
0.759542
0.752955
0.747275
0.742647
0.739107
0.736689
0.735267
0.734647
0.734628
0.735021
0.735657
0.736393
0.737113
0.737728
0.738175
0.738418
0.738442
0.738255
0.737878
0.737345
0.736696
0.735967
0.735191
0.734395
0.733604
0.732853
0.732192
0.731679
0.731363
0.731282
0.731462
0.731914
0.732637
0.733617
0.734822
0.736209
0.737724
0.739314
0.740937
0.742561
0.744148
0.745652
0.747022
0.748201
0.749139
0.749791
0.750125
0.771021
0.771188
0.771522
0.772019
0.772669
0.773458
0.774369
0.775384
0.776497
0.777712
0.77905
0.780534
0.782189
0.78404
0.786113
0.788438
0.791053
0.794004
0.797346
0.80114
0.805449
0.810329
0.815819
0.821932
0.828653
0.835947
0.843773
0.852089
0.86084
0.869953
0.879333
0.888874
0.898462
0.907978
0.917312
0.926358
0.935019
0.943212
0.950861
0.957903
0.964284
0.96996
0.974895
0.979057
0.982423
0.984976
0.9867
0.987585
0.987626
0.986817
0.98516
0.982657
0.979315
0.975142
0.970153
0.964367
0.957807
0.950504
0.942496
0.933828
0.924558
0.914753
0.904492
0.893868
0.882988
0.871973
0.860956
0.850081
0.839502
0.829374
0.819842
0.811036
0.803046
0.795908
0.789643
0.784241
0.779742
0.776163
0.773489
0.771637
0.770479
0.769868
0.76966
0.769719
0.769928
0.770186
0.770416
0.77056
0.770581
0.77046
0.770195
0.769797
0.769287
0.76869
0.768034
0.767346
0.766651
0.765976
0.765352
0.764817
0.76441
0.764169
0.764121
0.764288
0.764676
0.765285
0.766102
0.767102
0.768253
0.769515
0.770847
0.772212
0.773575
0.774901
0.77615
0.77728
0.778248
0.779014
0.779545
0.779817
0.804877
0.805037
0.805356
0.805829
0.806451
0.807213
0.808103
0.809115
0.810245
0.8115
0.812891
0.81444
0.816165
0.818089
0.820238
0.822639
0.825326
0.828338
0.831718
0.835511
0.839763
0.84451
0.849778
0.855576
0.861892
0.868701
0.875967
0.88365
0.891694
0.900034
0.908589
0.91727
0.925981
0.934623
0.9431
0.95132
0.9592
0.966661
0.973636
0.980066
0.985899
0.991092
0.995608
0.999418
1.0025
1.00483
1.00639
1.00718
1.00719
1.00641
1.00484
1.0025
0.999376
0.99549
0.990855
0.98549
0.97942
0.972677
0.9653
0.957333
0.948832
0.939862
0.930496
0.920821
0.910933
0.900938
0.890953
0.881102
0.87151
0.862305
0.853603
0.845506
0.838091
0.831402
0.825469
0.820302
0.815917
0.812314
0.809468
0.807314
0.805763
0.804706
0.804031
0.803632
0.803412
0.803288
0.80319
0.803068
0.802886
0.802621
0.802268
0.801828
0.801314
0.800742
0.800133
0.799507
0.798887
0.798297
0.797762
0.797312
0.796976
0.79678
0.796747
0.796891
0.797218
0.797725
0.798403
0.799232
0.800186
0.801235
0.802346
0.803487
0.804627
0.805731
0.806767
0.8077
0.808496
0.809124
0.809558
0.80978
0.838573
0.838727
0.839034
0.839492
0.840095
0.840838
0.841717
0.842727
0.84387
0.845149
0.846577
0.848169
0.849941
0.851914
0.85411
0.856554
0.859276
0.862305
0.865677
0.869424
0.87358
0.878169
0.883208
0.888701
0.894637
0.900996
0.907747
0.914849
0.922253
0.929899
0.937719
0.945636
0.953569
0.961432
0.969144
0.976624
0.983798
0.990596
0.996957
1.00283
1.00815
1.0129
1.01703
1.02051
1.02332
1.02544
1.02686
1.02756
1.02753
1.02679
1.02531
1.02311
1.0202
1.01659
1.01229
1.00732
1.00171
0.995486
0.988693
0.981372
0.973576
0.965366
0.956811
0.947988
0.938984
0.929894
0.920818
0.911862
0.903132
0.894732
0.886758
0.879295
0.872408
0.866142
0.860527
0.855581
0.851311
0.84771
0.844752
0.842389
0.840552
0.83916
0.838127
0.837367
0.836802
0.836362
0.835989
0.835637
0.835272
0.834872
0.834427
0.833934
0.833399
0.832833
0.832248
0.831663
0.831094
0.830562
0.830088
0.829693
0.829401
0.82923
0.829197
0.829311
0.829578
0.829995
0.830553
0.831236
0.832025
0.832893
0.833816
0.834765
0.835712
0.836629
0.837487
0.838258
0.838913
0.839428
0.839784
0.839966
0.872114
0.872264
0.872563
0.873008
0.873598
0.874329
0.875199
0.876208
0.877356
0.878651
0.8801
0.881717
0.883516
0.885516
0.887734
0.890193
0.892916
0.89593
0.899259
0.90293
0.906964
0.911379
0.916185
0.921382
0.92696
0.9329
0.939174
0.945745
0.952569
0.959591
0.966753
0.973988
0.981225
0.988393
0.995419
1.00223
1.00877
1.01497
1.02077
1.02613
1.03099
1.03532
1.03909
1.04227
1.04483
1.04676
1.04804
1.04866
1.04861
1.04789
1.0465
1.04444
1.04173
1.03837
1.03438
1.02979
1.0246
1.01887
1.01261
1.00589
0.998735
0.991216
0.983392
0.975335
0.967122
0.958835
0.950563
0.942395
0.934423
0.926732
0.919404
0.912509
0.906103
0.90023
0.894918
0.890184
0.886035
0.882461
0.879442
0.876938
0.874897
0.873256
0.871948
0.870906
0.870066
0.869369
0.868767
0.868218
0.867692
0.867169
0.866634
0.866082
0.865516
0.86494
0.864365
0.863802
0.863265
0.86277
0.862334
0.861973
0.861704
0.861542
0.861498
0.861579
0.861789
0.862124
0.862577
0.863135
0.863782
0.864498
0.86526
0.866045
0.866828
0.867587
0.868295
0.86893
0.869469
0.869892
0.870184
0.870333
0.905506
0.905652
0.905944
0.90638
0.906959
0.907681
0.908543
0.909548
0.910697
0.911997
0.913455
0.915082
0.916892
0.918898
0.921117
0.923567
0.926268
0.929239
0.9325
0.936071
0.939966
0.944198
0.94877
0.953681
0.958921
0.964471
0.970305
0.97639
0.982685
0.989144
0.995714
1.00234
1.00895
1.0155
1.02191
1.02812
1.03408
1.03974
1.04503
1.04992
1.05436
1.05831
1.06175
1.06465
1.06698
1.06873
1.06988
1.07042
1.07035
1.06966
1.06835
1.06643
1.06391
1.06079
1.05709
1.05284
1.04805
1.04276
1.03701
1.03082
1.02426
1.01737
1.01021
1.00284
0.995332
0.987762
0.980203
0.972734
0.965432
0.95837
0.951617
0.945232
0.939266
0.933756
0.92873
0.924203
0.920182
0.916659
0.913617
0.911024
0.908841
0.907019
0.905505
0.904244
0.903186
0.902282
0.90149
0.900776
0.900111
0.899476
0.898857
0.898246
0.897642
0.897048
0.896469
0.895914
0.895394
0.894919
0.894504
0.89416
0.893901
0.893735
0.893673
0.893719
0.893873
0.894135
0.894496
0.894946
0.895472
0.896056
0.89668
0.897325
0.89797
0.898594
0.899177
0.899698
0.90014
0.900487
0.900726
0.900848
0.938752
0.938895
0.939181
0.939609
0.940179
0.940891
0.941745
0.942743
0.943888
0.945185
0.946641
0.948266
0.950071
0.952067
0.954269
0.95669
0.959348
0.962257
0.965432
0.968888
0.972633
0.976676
0.981017
0.985653
0.990572
0.995757
1.00118
1.00682
1.01264
1.01859
1.02462
1.03069
1.03675
1.04273
1.04859
1.05426
1.05971
1.06487
1.0697
1.07416
1.07821
1.08182
1.08496
1.08759
1.08971
1.0913
1.09233
1.09281
1.09271
1.09205
1.09082
1.08903
1.08668
1.08378
1.08036
1.07642
1.072
1.06713
1.06183
1.05614
1.05012
1.04379
1.03723
1.03048
1.02361
1.01668
1.00975
1.00291
0.996201
0.989699
0.983461
0.977537
0.971972
0.966798
0.962042
0.957717
0.95383
0.950376
0.947341
0.944701
0.942425
0.940474
0.938806
0.93738
0.936152
0.935082
0.934137
0.933284
0.932501
0.931767
0.931071
0.930402
0.929759
0.92914
0.928549
0.927992
0.927476
0.92701
0.926603
0.926264
0.926002
0.925826
0.925741
0.925749
0.925852
0.926046
0.926326
0.926682
0.927102
0.927574
0.928081
0.928606
0.929132
0.929642
0.930119
0.930546
0.930907
0.931191
0.931386
0.931486
0.971854
0.971994
0.972275
0.972696
0.973257
0.973959
0.974803
0.975791
0.976926
0.978213
0.979659
0.981271
0.983058
0.98503
0.9872
0.989578
0.992177
0.995009
0.998085
1.00141
1.005
1.00885
1.01297
1.01734
1.02196
1.0268
1.03185
1.03708
1.04246
1.04794
1.05349
1.05907
1.06462
1.07009
1.07545
1.08064
1.08561
1.09032
1.09473
1.09881
1.1025
1.1058
1.10865
1.11106
1.11298
1.11442
1.11534
1.11575
1.11564
1.11501
1.11385
1.11218
1.10999
1.1073
1.10413
1.10049
1.09641
1.09192
1.08704
1.08181
1.07627
1.07046
1.06443
1.05824
1.05194
1.04558
1.03923
1.03294
1.02676
1.02077
1.01499
1.00948
1.00429
0.999424
0.994922
0.990794
0.987046
0.983675
0.980671
0.978015
0.975683
0.973645
0.971868
0.970317
0.968958
0.967759
0.96669
0.965724
0.964841
0.964022
0.963256
0.962534
0.96185
0.961204
0.960595
0.960029
0.959509
0.959041
0.958633
0.95829
0.958019
0.957826
0.957714
0.957685
0.957739
0.957872
0.958079
0.958352
0.958682
0.959056
0.959462
0.959885
0.960311
0.960724
0.961111
0.961458
0.961752
0.961983
0.962141
0.962222
1.00482
1.00495
1.00523
1.00564
1.00619
1.00689
1.00772
1.00869
1.00981
1.01108
1.01251
1.0141
1.01586
1.0178
1.01992
1.02224
1.02477
1.02752
1.03048
1.03368
1.03711
1.04077
1.04466
1.04878
1.05311
1.05764
1.06234
1.06719
1.07217
1.07723
1.08234
1.08746
1.09256
1.09758
1.10248
1.10723
1.11177
1.11608
1.12011
1.12383
1.1272
1.13021
1.13281
1.135
1.13674
1.13804
1.13887
1.13922
1.1391
1.13849
1.1374
1.13584
1.1338
1.13131
1.12837
1.12501
1.12124
1.11709
1.11259
1.10778
1.10268
1.09734
1.09181
1.08612
1.08033
1.07449
1.06864
1.06285
1.05715
1.05161
1.04625
1.04112
1.03626
1.03169
1.02743
1.02349
1.01988
1.01661
1.01365
1.011
1.00865
1.00655
1.0047
1.00306
1.00161
1.00031
0.999139
0.998081
0.997115
0.996225
0.995398
0.994626
0.993904
0.993229
0.9926
0.992019
0.991489
0.991013
0.990597
0.990244
0.989959
0.989745
0.989604
0.989538
0.989546
0.989623
0.989766
0.989967
0.990217
0.990508
0.990827
0.991162
0.991502
0.991833
0.992144
0.992423
0.99266
0.992846
0.992975
0.99304
1.03764
1.03777
1.03805
1.03845
1.03899
1.03967
1.04049
1.04145
1.04255
1.0438
1.0452
1.04676
1.04848
1.05038
1.05245
1.05471
1.05715
1.0598
1.06265
1.06571
1.06898
1.07246
1.07614
1.08001
1.08407
1.0883
1.09268
1.09719
1.10179
1.10647
1.11118
1.11589
1.12057
1.12518
1.12967
1.13402
1.13818
1.14211
1.1458
1.14919
1.15227
1.15501
1.15739
1.15937
1.16096
1.16213
1.16287
1.16317
1.16303
1.16245
1.16143
1.15996
1.15807
1.15576
1.15304
1.14992
1.14644
1.14261
1.13847
1.13403
1.12934
1.12442
1.11933
1.1141
1.10877
1.10339
1.09801
1.09266
1.0874
1.08226
1.07728
1.0725
1.06795
1.06364
1.05961
1.05586
1.05239
1.04922
1.04632
1.04371
1.04134
1.03923
1.03733
1.03562
1.0341
1.03272
1.03148
1.03035
1.02931
1.02836
1.02748
1.02667
1.02591
1.02521
1.02456
1.02396
1.02341
1.02293
1.0225
1.02213
1.02183
1.02159
1.02142
1.02132
1.02128
1.02131
1.02139
1.02153
1.02171
1.02193
1.02217
1.02243
1.0227
1.02296
1.02321
1.02343
1.02362
1.02377
1.02387
1.02392
1.07033
1.07046
1.07073
1.07112
1.07165
1.07232
1.07312
1.07406
1.07514
1.07636
1.07773
1.07925
1.08093
1.08278
1.08479
1.08697
1.08934
1.09188
1.09462
1.09754
1.10064
1.10394
1.10741
1.11106
1.11486
1.11881
1.12289
1.12708
1.13134
1.13567
1.14001
1.14435
1.14866
1.15288
1.15701
1.16099
1.1648
1.1684
1.17177
1.17487
1.17769
1.18018
1.18235
1.18415
1.18559
1.18664
1.1873
1.18756
1.18741
1.18686
1.18589
1.18453
1.18276
1.18061
1.17809
1.17521
1.17199
1.16846
1.16463
1.16054
1.15621
1.15169
1.14699
1.14217
1.13726
1.1323
1.12733
1.12239
1.11752
1.11275
1.10812
1.10365
1.09938
1.09533
1.09151
1.08794
1.08461
1.08154
1.07872
1.07615
1.0738
1.07168
1.06975
1.06801
1.06643
1.065
1.0637
1.06252
1.06143
1.06043
1.05951
1.05865
1.05786
1.05713
1.05646
1.05584
1.05528
1.05478
1.05434
1.05395
1.05363
1.05337
1.05317
1.05303
1.05296
1.05294
1.05297
1.05305
1.05317
1.05333
1.05351
1.0537
1.0539
1.05411
1.0543
1.05447
1.05462
1.05474
1.05482
1.05486
1.10289
1.10302
1.10327
1.10366
1.10418
1.10483
1.10561
1.10653
1.10758
1.10877
1.11011
1.11159
1.11322
1.11501
1.11696
1.11906
1.12134
1.12378
1.12639
1.12917
1.13212
1.13524
1.13852
1.14194
1.14551
1.1492
1.153
1.15689
1.16084
1.16484
1.16885
1.17285
1.17681
1.1807
1.18449
1.18814
1.19163
1.19493
1.19801
1.20085
1.20341
1.20569
1.20766
1.20931
1.21061
1.21156
1.21214
1.21236
1.2122
1.21167
1.21076
1.20948
1.20784
1.20584
1.2035
1.20084
1.19786
1.19459
1.19106
1.18728
1.18329
1.17911
1.17478
1.17034
1.1658
1.16122
1.15663
1.15205
1.14753
1.1431
1.13878
1.13461
1.1306
1.12678
1.12317
1.11976
1.11658
1.11362
1.11088
1.10836
1.10604
1.10392
1.10199
1.10023
1.09862
1.09716
1.09582
1.09459
1.09346
1.09242
1.09146
1.09058
1.08976
1.089
1.08831
1.08767
1.0871
1.08658
1.08611
1.08571
1.08537
1.08508
1.08486
1.08469
1.08457
1.08451
1.0845
1.08453
1.0846
1.0847
1.08482
1.08496
1.08511
1.08526
1.0854
1.08554
1.08565
1.08574
1.0858
1.08583
1.13531
1.13544
1.13569
1.13607
1.13657
1.13721
1.13797
1.13886
1.13988
1.14104
1.14234
1.14378
1.14536
1.14708
1.14896
1.15099
1.15317
1.1555
1.15799
1.16064
1.16344
1.16638
1.16947
1.17269
1.17603
1.17947
1.18301
1.18663
1.1903
1.194
1.19771
1.2014
1.20504
1.20862
1.2121
1.21545
1.21865
1.22167
1.22449
1.22709
1.22943
1.23151
1.2333
1.2348
1.23598
1.23683
1.23735
1.23753
1.23736
1.23685
1.236
1.2348
1.23327
1.23142
1.22925
1.22677
1.22402
1.221
1.21773
1.21424
1.21055
1.20669
1.20269
1.19858
1.19439
1.19016
1.1859
1.18166
1.17746
1.17333
1.1693
1.1654
1.16163
1.15803
1.15461
1.15137
1.14832
1.14547
1.14282
1.14036
1.13808
1.13599
1.13406
1.1323
1.13067
1.12918
1.12782
1.12656
1.1254
1.12433
1.12334
1.12243
1.12159
1.12081
1.1201
1.11944
1.11885
1.11831
1.11783
1.11741
1.11705
1.11674
1.11649
1.11629
1.11614
1.11604
1.11599
1.11597
1.11599
1.11604
1.11612
1.11621
1.11631
1.11642
1.11652
1.11662
1.1167
1.11677
1.11682
1.11684
1.16762
1.16774
1.16798
1.16835
1.16884
1.16946
1.1702
1.17106
1.17205
1.17318
1.17443
1.17582
1.17735
1.17901
1.18081
1.18276
1.18484
1.18707
1.18944
1.19196
1.1946
1.19738
1.20029
1.20331
1.20644
1.20966
1.21296
1.21632
1.21972
1.22315
1.22658
1.22998
1.23334
1.23664
1.23983
1.24291
1.24585
1.24862
1.2512
1.25357
1.25572
1.25761
1.25925
1.2606
1.26167
1.26244
1.2629
1.26304
1.26287
1.26238
1.26158
1.26046
1.25903
1.2573
1.25529
1.253
1.25044
1.24764
1.24462
1.24139
1.23798
1.23441
1.23072
1.22691
1.22303
1.21911
1.21516
1.21122
1.20731
1.20347
1.1997
1.19604
1.19251
1.18911
1.18586
1.18278
1.17987
1.17713
1.17456
1.17217
1.16995
1.16789
1.16598
1.16422
1.16259
1.16109
1.15971
1.15843
1.15725
1.15616
1.15515
1.15421
1.15335
1.15256
1.15183
1.15116
1.15054
1.14999
1.1495
1.14906
1.14867
1.14834
1.14806
1.14783
1.14766
1.14752
1.14743
1.14738
1.14736
1.14737
1.1474
1.14745
1.14751
1.14758
1.14765
1.14772
1.14778
1.14782
1.14786
1.14787
1.1998
1.19992
1.20015
1.20051
1.20098
1.20158
1.2023
1.20313
1.20409
1.20518
1.20639
1.20773
1.2092
1.21079
1.21252
1.21438
1.21638
1.2185
1.22075
1.22313
1.22564
1.22826
1.23099
1.23383
1.23676
1.23976
1.24284
1.24596
1.24912
1.2523
1.25547
1.25862
1.26172
1.26475
1.26769
1.27052
1.27321
1.27575
1.27812
1.28029
1.28225
1.28398
1.28547
1.2867
1.28766
1.28835
1.28876
1.28887
1.2887
1.28823
1.28747
1.28642
1.28509
1.28348
1.28161
1.27948
1.27711
1.27452
1.27172
1.26873
1.26557
1.26227
1.25884
1.25532
1.25172
1.24808
1.24441
1.24075
1.23711
1.23352
1.23
1.22656
1.22324
1.22003
1.21696
1.21403
1.21124
1.20861
1.20614
1.20382
1.20165
1.19963
1.19775
1.196
1.19438
1.19288
1.19149
1.1902
1.18901
1.1879
1.18688
1.18593
1.18505
1.18424
1.18349
1.18281
1.18218
1.18161
1.1811
1.18064
1.18024
1.17989
1.17959
1.17933
1.17913
1.17896
1.17884
1.17875
1.17869
1.17867
1.17866
1.17868
1.1787
1.17874
1.17878
1.17882
1.17886
1.17889
1.17891
1.17892
1.23186
1.23197
1.2322
1.23255
1.23301
1.23358
1.23427
1.23508
1.23601
1.23706
1.23822
1.23951
1.24092
1.24245
1.2441
1.24588
1.24778
1.2498
1.25194
1.25419
1.25655
1.25902
1.26159
1.26425
1.26699
1.2698
1.27267