/*--------------------------------*- C++ -*----------------------------------*\
| =========                 |                                                 |
| \\      /  F ield         | OpenFOAM: The Open Source CFD Toolbox           |
|  \\    /   O peration     | Version:  2406                                  |
|   \\  /    A nd           | Website:  www.openfoam.com                      |
|    \\/     M anipulation  |                                                 |
\*---------------------------------------------------------------------------*/
FoamFile
{
    version     2.0;
    format      ascii;
    arch        "LSB;label=32;scalar=64";
    class       volScalarField;
    location    "5.15";
    object      C_0_0;
}
// * * * * * * * * * * * * * * * * * * * * * * * * * * * * * * * * * * * * * //

dimensions      [1 -3 0 0 0 0 0];

internalField   nonuniform List<scalar> 
14400
(
0.312692
0.310114
0.305901
0.301148
0.296783
0.2935
0.291777
0.291912
0.294043
0.298163
0.304114
0.311559
0.319922
0.328297
0.335281
0.338809
0.336118
0.329777
0.322046
0.314569
0.308475
0.304555
0.303391
0.305439
0.311085
0.320682
0.334572
0.353103
0.376636
0.40554
0.440181
0.480867
0.527731
0.580373
0.636364
0.678043
0.705294
0.72839
0.7486
0.766225
0.781498
0.794601
0.805678
0.814842
0.822182
0.827765
0.831644
0.833854
0.834416
0.833341
0.830624
0.826251
0.820193
0.812407
0.802837
0.791406
0.778019
0.762555
0.74486
0.724743
0.701961
0.676205
0.642498
0.593354
0.5359
0.483223
0.436827
0.396678
0.362431
0.333674
0.309993
0.291011
0.276393
0.265856
0.259166
0.256138
0.256628
0.260535
0.267783
0.278318
0.29209
0.30902
0.328956
0.35156
0.376029
0.400126
0.416023
0.421788
0.421212
0.412231
0.395203
0.375833
0.357445
0.341033
0.326985
0.315437
0.306371
0.299658
0.295069
0.292285
0.290909
0.290498
0.290616
0.290933
0.291338
0.291988
0.293256
0.295617
0.299558
0.305521
0.31388
0.324925
0.338865
0.355805
0.375709
0.39829
0.422657
0.445862
0.46056
0.466058
0.324809
0.321301
0.315989
0.31028
0.305182
0.301389
0.299358
0.29937
0.301557
0.305912
0.31229
0.320383
0.329674
0.339351
0.348126
0.35377
0.3493
0.341055
0.33185
0.323299
0.316431
0.311957
0.310412
0.312223
0.317757
0.327356
0.341356
0.3601
0.383943
0.413255
0.448399
0.489686
0.537223
0.590333
0.644392
0.682576
0.708564
0.731275
0.751186
0.768577
0.783667
0.796627
0.80759
0.816666
0.823938
0.82947
0.833313
0.835501
0.836054
0.834981
0.83228
0.827936
0.82192
0.814192
0.804697
0.793363
0.780097
0.764785
0.747282
0.727408
0.704935
0.67957
0.648284
0.601949
0.544427
0.491334
0.444421
0.403759
0.369046
0.339883
0.315863
0.29661
0.281789
0.271118
0.264363
0.261338
0.261901
0.26595
0.273414
0.284242
0.298386
0.315778
0.33628
0.359579
0.384809
0.408506
0.422612
0.428062
0.427883
0.421063
0.405012
0.385079
0.366128
0.349259
0.334874
0.323113
0.313965
0.307303
0.302895
0.300411
0.299418
0.299406
0.299842
0.30028
0.300553
0.300877
0.301741
0.303719
0.30736
0.31314
0.321442
0.332563
0.346706
0.363975
0.384341
0.407528
0.432568
0.454479
0.466567
0.471538
0.349774
0.343878
0.336168
0.328516
0.321973
0.317184
0.314554
0.31433
0.316628
0.32144
0.328636
0.33795
0.348935
0.36088
0.37247
0.379514
0.374595
0.363037
0.351166
0.340647
0.332328
0.3268
0.32452
0.32587
0.331189
0.340799
0.355022
0.37419
0.398651
0.428765
0.464884
0.5073
0.556085
0.610257
0.65807
0.690181
0.715016
0.736961
0.75629
0.773231
0.787968
0.800648
0.811391
0.820294
0.827432
0.832865
0.836638
0.838782
0.839317
0.838251
0.83558
0.831292
0.825359
0.817744
0.808397
0.79725
0.784221
0.769205
0.752074
0.732672
0.710801
0.686211
0.658117
0.617515
0.561405
0.507666
0.459725
0.418035
0.382387
0.352412
0.327713
0.307916
0.29269
0.281749
0.274862
0.271843
0.272552
0.276888
0.284782
0.296189
0.311066
0.329351
0.35091
0.375413
0.401777
0.423722
0.434892
0.439959
0.440338
0.435969
0.423428
0.403288
0.38345
0.365739
0.350708
0.338533
0.329226
0.322674
0.318648
0.316796
0.316632
0.317515
0.318696
0.319427
0.319382
0.318944
0.318907
0.320055
0.323062
0.328457
0.336642
0.347906
0.362439
0.380325
0.401507
0.425573
0.450874
0.46888
0.477774
0.481988
0.387623
0.377546
0.366168
0.355705
0.347109
0.340912
0.337432
0.336874
0.339338
0.344808
0.353155
0.364143
0.377321
0.391841
0.405247
0.409166
0.406745
0.394155
0.379415
0.366428
0.356167
0.349171
0.345848
0.34654
0.351555
0.361194
0.375759
0.395566
0.420946
0.452234
0.489733
0.533601
0.583388
0.635933
0.674088
0.70087
0.724358
0.745262
0.763783
0.78009
0.794324
0.806605
0.817033
0.825686
0.832632
0.83792
0.841592
0.843673
0.844181
0.843124
0.840499
0.836291
0.83048
0.82303
0.813896
0.803021
0.790331
0.775739
0.759139
0.740404
0.719385
0.695913
0.669826
0.636714
0.587429
0.532453
0.482925
0.439707
0.402668
0.371477
0.345758
0.325144
0.309306
0.297959
0.290873
0.287863
0.288791
0.293558
0.302097
0.314365
0.33032
0.349887
0.37289
0.398805
0.425628
0.443256
0.451909
0.456545
0.457412
0.45465
0.447236
0.430112
0.409339
0.390514
0.37459
0.361819
0.352284
0.34591
0.342487
0.341661
0.342887
0.345349
0.347969
0.3493
0.348609
0.346704
0.345081
0.344842
0.346826
0.351614
0.359609
0.371077
0.386167
0.404897
0.427127
0.452024
0.474447
0.48651
0.493239
0.496653
0.425756
0.419385
0.404992
0.391463
0.380471
0.372599
0.368073
0.367107
0.369798
0.376106
0.385863
0.398842
0.414407
0.430875
0.439788
0.440737
0.440008
0.43243
0.415989
0.400502
0.388003
0.379223
0.374603
0.374469
0.379112
0.388809
0.403842
0.424505
0.451092
0.483897
0.523128
0.568749
0.619316
0.661426
0.690222
0.714402
0.736285
0.755946
0.77349
0.78902
0.802633
0.814418
0.824448
0.832787
0.839488
0.844593
0.848135
0.850136
0.850611
0.849566
0.846998
0.842895
0.837238
0.829998
0.821137
0.810605
0.798344
0.784282
0.768339
0.75042
0.73042
0.708231
0.683744
0.656502
0.618231
0.564892
0.514072
0.469021
0.430186
0.397392
0.370316
0.348611
0.331952
0.32006
0.312705
0.309708
0.31093
0.316272
0.325669
0.339075
0.356435
0.377634
0.402392
0.429756
0.453555
0.465544
0.472708
0.4769
0.478117
0.476507
0.472397
0.462514
0.443151
0.423501
0.406617
0.393104
0.383281
0.377153
0.374566
0.375192
0.378494
0.38344
0.388696
0.391172
0.38926
0.384674
0.380571
0.378269
0.378807
0.382756
0.390493
0.402221
0.418004
0.437655
0.460767
0.484777
0.499083
0.506715
0.512017
0.514732
0.459952
0.458763
0.450499
0.435119
0.421827
0.412251
0.406546
0.405115
0.408101
0.415413
0.426687
0.441726
0.458807
0.46999
0.473131
0.47387
0.473494
0.471211
0.460001
0.442735
0.427938
0.417161
0.41105
0.409955
0.414177
0.423976
0.43961
0.461339
0.489388
0.523954
0.564913
0.611226
0.654261
0.684297
0.708157
0.730231
0.750433
0.768749
0.78521
0.799866
0.812772
0.823984
0.833553
0.841525
0.84794
0.852829
0.856218
0.858125
0.858562
0.857531
0.855032
0.851054
0.84558
0.838589
0.830047
0.819918
0.808156
0.794708
0.779515
0.762516
0.743645
0.722845
0.700072
0.675316
0.646716
0.605085
0.553432
0.506287
0.465304
0.430549
0.401793
0.378727
0.361039
0.348457
0.340763
0.337781
0.339373
0.345436
0.355898
0.370706
0.38977
0.412847
0.439244
0.466292
0.482084
0.490399
0.496478
0.50023
0.501648
0.500858
0.498121
0.493763
0.483089
0.46425
0.446787
0.432429
0.422289
0.416456
0.414901
0.417323
0.423374
0.431445
0.440812
0.444228
0.441278
0.43251
0.425299
0.42028
0.419028
0.42194
0.429375
0.441401
0.457964
0.478234
0.501087
0.515636
0.523251
0.529216
0.533385
0.535526
0.494591
0.494296
0.492604
0.484768
0.470484
0.459767
0.452768
0.450834
0.454188
0.462678
0.475105
0.491255
0.501874
0.505931
0.507329
0.50812
0.508206
0.507578
0.503986
0.491955
0.475873
0.463131
0.455455
0.453311
0.457097
0.467051
0.483409
0.506401
0.536063
0.572418
0.614051
0.654505
0.683799
0.706426
0.727877
0.747934
0.766465
0.783406
0.798736
0.812462
0.824605
0.835193
0.844255
0.851821
0.857917
0.862565
0.865784
0.867585
0.867978
0.866965
0.864544
0.860707
0.855441
0.848728
0.840545
0.830865
0.819654
0.806877
0.792499
0.776483
0.758799
0.739431
0.718383
0.695696
0.671467
0.641927
0.599457
0.551442
0.508333
0.471372
0.440656
0.415981
0.397059
0.383639
0.375528
0.372565
0.374608
0.381531
0.393248
0.409691
0.430706
0.45577
0.483053
0.501473
0.510536
0.51743
0.522577
0.525894
0.527385
0.527157
0.525415
0.522458
0.518523
0.509124
0.494244
0.47936
0.46908
0.463553
0.463129
0.467229
0.476022
0.484133
0.488387
0.489716
0.488945
0.485294
0.477823
0.470094
0.467142
0.468904
0.476044
0.488237
0.505247
0.523588
0.536235
0.543082
0.548853
0.553513
0.556779
0.55846
0.529525
0.529459
0.529412
0.528512
0.523085
0.514179
0.50596
0.503676
0.507336
0.517014
0.52841
0.536226
0.539466
0.540883
0.542135
0.543073
0.543634
0.543836
0.543784
0.540502
0.530636
0.516904
0.507935
0.504735
0.508144
0.518313
0.535457
0.559845
0.590871
0.62802
0.662496
0.68885
0.709584
0.729726
0.748992
0.767162
0.784087
0.799673
0.813866
0.826641
0.837993
0.847927
0.856454
0.863587
0.869342
0.873731
0.876766
0.878454
0.878801
0.877807
0.875472
0.871789
0.866749
0.860338
0.852542
0.843341
0.832717
0.820649
0.80712
0.792117
0.775638
0.757697
0.738333
0.717619
0.695679
0.672703
0.643789
0.603323
0.559355
0.520221
0.487377
0.460903
0.440565
0.426149
0.417536
0.414596
0.417174
0.425082
0.438184
0.456373
0.479308
0.505181
0.524008
0.533684
0.540558
0.546209
0.550506
0.553383
0.554843
0.554969
0.553925
0.551949
0.54935
0.546457
0.54012
0.531297
0.522138
0.516882
0.517549
0.521536
0.525177
0.527115
0.526544
0.526458
0.527268
0.52854
0.527271
0.524465
0.521494
0.52211
0.529012
0.540299
0.551702
0.560739
0.56606
0.571083
0.575566
0.579203
0.581759
0.583077
0.564524
0.564603
0.564828
0.56534
0.566121
0.564253
0.561823
0.561081
0.563748
0.568257
0.572324
0.573669
0.57475
0.576001
0.577253
0.578404
0.579422
0.580348
0.581298
0.582475
0.58144
0.576246
0.567736
0.563895
0.567245
0.57767
0.595341
0.620804
0.651062
0.677704
0.699224
0.717613
0.73595
0.753903
0.771202
0.787636
0.803049
0.817332
0.830412
0.842244
0.8528
0.862069
0.870046
0.876732
0.882133
0.886251
0.889094
0.890664
0.890963
0.889992
0.887748
0.884228
0.879426
0.873334
0.865942
0.857241
0.847223
0.835881
0.823214
0.809227
0.79394
0.777388
0.759632
0.740766
0.720927
0.7003
0.679123
0.652673
0.617086
0.577041
0.542245
0.513979
0.492105
0.476515
0.4673
0.464389
0.467606
0.476577
0.491017
0.510675
0.53426
0.55116
0.560233
0.566375
0.571805
0.57634
0.579856
0.582289
0.583633
0.583951
0.583367
0.582065
0.580282
0.578306
0.576477
0.573773
0.569773
0.566627
0.565564
0.565451
0.564153
0.562739
0.562103
0.562131
0.562873
0.564305
0.566584
0.568715
0.56986
0.572268
0.577082
0.582983
0.587837
0.591659
0.595703
0.599623
0.603126
0.605973
0.607977
0.609011
0.599445
0.5996
0.599956
0.600602
0.601662
0.60332
0.605074
0.606116
0.607301
0.607799
0.608054
0.608801
0.609864
0.611119
0.612471
0.613867
0.615302
0.616834
0.618584
0.620749
0.623624
0.626248
0.626732
0.628041
0.632536
0.643167
0.65981
0.679302
0.698173
0.714358
0.730186
0.746418
0.7627
0.778734
0.794277
0.80913
0.823141
0.836195
0.848208
0.859121
0.868894
0.877502
0.884928
0.891164
0.896204
0.900048
0.902695
0.904144
0.904395
0.903448
0.9013
0.89795
0.893394
0.887628
0.880651
0.872459
0.863053
0.852439
0.840627
0.827638
0.813506
0.798281
0.78204
0.764887
0.746961
0.728445
0.709564
0.690588
0.668303
0.639528
0.604626
0.575353
0.552049
0.535072
0.52516
0.522266
0.526255
0.53621
0.551248
0.570482
0.583377
0.590321
0.595161
0.599778
0.603946
0.60749
0.610291
0.612282
0.613451
0.613836
0.613527
0.612661
0.611407
0.609961
0.608517
0.607194
0.606061
0.60457
0.602435
0.600237
0.598588
0.597494
0.596997
0.597089
0.597787
0.599102
0.601073
0.603696
0.607014
0.610429
0.613371
0.616067
0.619046
0.622225
0.625471
0.628578
0.631343
0.633586
0.635164
0.635978
0.634211
0.634397
0.634795
0.635449
0.636406
0.637677
0.639099
0.64043
0.641291
0.641968
0.642681
0.643619
0.644785
0.64614
0.647647
0.649289
0.651086
0.653103
0.655455
0.658313
0.66192
0.666589
0.672749
0.678972
0.686272
0.696371
0.708566
0.720951
0.733301
0.746678
0.76074
0.775175
0.789698
0.804058
0.81804
0.831466
0.84419
0.856099
0.867103
0.877138
0.886154
0.894116
0.901
0.90679
0.911473
0.915042
0.917493
0.918822
0.919026
0.918104
0.916055
0.912877
0.908571
0.903135
0.896574
0.88889
0.880092
0.870195
0.859218
0.847192
0.834163
0.820192
0.805361
0.789779
0.773586
0.756955
0.740097
0.723265
0.70676
0.6895
0.667908
0.643288
0.619638
0.60133
0.590831
0.587762
0.592393
0.602454
0.612589
0.62023
0.623854
0.626961
0.630311
0.633632
0.63671
0.639383
0.641535
0.643098
0.644051
0.644414
0.644246
0.643643
0.642723
0.641615
0.640437
0.639259
0.638082
0.636747
0.635205
0.633687
0.632468
0.631653
0.631303
0.631441
0.632084
0.633241
0.634911
0.637064
0.639616
0.642308
0.644907
0.647442
0.650052
0.652726
0.655377
0.657876
0.660082
0.661864
0.663115
0.66376
0.66879
0.668982
0.669377
0.669992
0.670836
0.671882
0.673038
0.674174
0.67517
0.676102
0.677082
0.678209
0.679517
0.68101
0.682687
0.684556
0.686651
0.689038
0.691818
0.69513
0.699153
0.704091
0.710139
0.717336
0.725677
0.734691
0.744348
0.7549
0.766242
0.778313
0.790921
0.803844
0.816859
0.829759
0.84236
0.854503
0.866055
0.876906
0.886969
0.896173
0.904467
0.911808
0.918168
0.923522
0.927855
0.931155
0.933413
0.934624
0.934783
0.933888
0.931938
0.928934
0.924876
0.919769
0.913619
0.906435
0.898231
0.889029
0.878856
0.867751
0.855764
0.842962
0.829433
0.815283
0.800649
0.785691
0.770605
0.755615
0.740985
0.727016
0.713984
0.69942
0.684408
0.671046
0.661556
0.657084
0.656668
0.658569
0.66029
0.660442
0.661575
0.663357
0.665489
0.667728
0.66988
0.671796
0.673367
0.674525
0.675242
0.675521
0.675401
0.674942
0.674226
0.673339
0.672355
0.671325
0.670259
0.669128
0.66795
0.66684
0.665942
0.665349
0.66512
0.665288
0.665869
0.666867
0.668268
0.670031
0.672079
0.674276
0.676506
0.678741
0.680996
0.683248
0.685435
0.687467
0.689245
0.690673
0.691673
0.692187
0.703177
0.703364
0.70374
0.704308
0.705063
0.705977
0.706997
0.708058
0.709113
0.710187
0.711337
0.712617
0.714064
0.715697
0.717533
0.719595
0.721924
0.72458
0.727648
0.731236
0.735471
0.740481
0.746372
0.753175
0.760852
0.769244
0.778302
0.788057
0.798454
0.80941
0.820788
0.832421
0.844134
0.855759
0.867137
0.878132
0.888621
0.898502
0.907692
0.91612
0.923732
0.930483
0.93634
0.941276
0.945271
0.948309
0.950381
0.951478
0.951594
0.950727
0.948876
0.946043
0.942231
0.937445
0.931697
0.924999
0.91737
0.908835
0.899427
0.88919
0.878178
0.86646
0.854124
0.841273
0.828034
0.814557
0.801015
0.787605
0.774549
0.762087
0.750465
0.739931
0.730719
0.722311
0.714894
0.70929
0.704906
0.701371
0.699336
0.698531
0.698646
0.699404
0.700561
0.701912
0.703287
0.704553
0.705611
0.706394
0.706869
0.707029
0.706893
0.706499
0.705902
0.705158
0.704319
0.703426
0.7025
0.701555
0.700626
0.699782
0.699111
0.69868
0.69854
0.698721
0.699237
0.700089
0.701261
0.702715
0.704392
0.706212
0.708101
0.710019
0.711942
0.713835
0.715648
0.717313
0.718757
0.719911
0.720715
0.721129
0.737378
0.737555
0.737909
0.738437
0.73913
0.739967
0.740917
0.741946
0.743036
0.744198
0.745461
0.74686
0.748425
0.750182
0.752153
0.754369
0.75687
0.75971
0.762958
0.766696
0.771012
0.775991
0.781694
0.788142
0.795309
0.803131
0.811561
0.820571
0.830106
0.840086
0.850401
0.860918
0.871499
0.882004
0.8923
0.902266
0.911794
0.92079
0.929176
0.936883
0.943857
0.950052
0.955433
0.95997
0.963642
0.966431
0.968323
0.969311
0.969388
0.96855
0.966797
0.964131
0.960558
0.956085
0.950725
0.944494
0.937414
0.929513
0.920828
0.911404
0.901298
0.890578
0.879329
0.86765
0.855658
0.843488
0.831293
0.819242
0.807519
0.796317
0.785825
0.776215
0.76761
0.759999
0.753407
0.747724
0.743092
0.739547
0.737126
0.735699
0.735075
0.735051
0.73544
0.736071
0.736803
0.737518
0.738129
0.738572
0.738811
0.738832
0.738641
0.738261
0.737725
0.737071
0.736339
0.73556
0.734761
0.733968
0.733215
0.732553
0.732038
0.731721
0.731639
0.731818
0.732269
0.732992
0.733971
0.735176
0.736563
0.738077
0.739667
0.741292
0.742916
0.744504
0.746009
0.747379
0.748559
0.749497
0.750149
0.750484
0.771402
0.77157
0.771905
0.772402
0.773053
0.773843
0.774756
0.775774
0.776889
0.778107
0.779448
0.780936
0.782595
0.784451
0.786528
0.788857
0.791477
0.794432
0.797779
0.801578
0.805892
0.810776
0.816271
0.822388
0.829113
0.83641
0.844239
0.852559
0.861313
0.870427
0.879809
0.889352
0.89894
0.908457
0.917791
0.926837
0.935498
0.94369
0.951338
0.958379
0.96476
0.970436
0.975369
0.97953
0.982896
0.985448
0.987171
0.988056
0.988096
0.987287
0.98563
0.983127
0.979785
0.975612
0.970624
0.964837
0.958278
0.950975
0.942967
0.9343
0.92503
0.915225
0.904964
0.89434
0.88346
0.872444
0.861426
0.85055
0.839969
0.829838
0.820304
0.811494
0.8035
0.796359
0.79009
0.784684
0.780181
0.776598
0.773921
0.772065
0.770902
0.770287
0.770075
0.77013
0.770334
0.770589
0.770815
0.770955
0.770972
0.770848
0.770579
0.770178
0.769664
0.769064
0.768405
0.767714
0.767017
0.766339
0.765713
0.765176
0.764768
0.764526
0.764477
0.764643
0.76503
0.765639
0.766455
0.767455
0.768605
0.769867
0.771199
0.772565
0.773929
0.775255
0.776505
0.777635
0.778603
0.77937
0.779901
0.780173
0.805258
0.805419
0.805738
0.806212
0.806835
0.807598
0.808491
0.809504
0.810637
0.811894
0.813289
0.814841
0.816569
0.818498
0.82065
0.823056
0.825747
0.828763
0.832147
0.835945
0.8402
0.844952
0.850224
0.856025
0.862345
0.869157
0.876427
0.884113
0.892159
0.900501
0.909058
0.91774
0.926452
0.935094
0.943572
0.951792
0.959672
0.967133
0.974107
0.980536
0.986369
0.991561
0.996077
0.999886
1.00296
1.00529
1.00686
1.00765
1.00765
1.00687
1.00531
1.00296
0.999841
0.995955
0.99132
0.985955
0.979885
0.973143
0.965765
0.957799
0.949298
0.940328
0.930962
0.921287
0.911398
0.901402
0.891416
0.881563
0.871969
0.862762
0.854057
0.845958
0.838539
0.831847
0.82591
0.820739
0.816351
0.812745
0.809894
0.807737
0.806182
0.80512
0.804442
0.804039
0.803816
0.803687
0.803586
0.80346
0.803274
0.803007
0.80265
0.802207
0.80169
0.801115
0.800503
0.799875
0.799252
0.79866
0.798123
0.797671
0.797333
0.797136
0.797102
0.797245
0.797571
0.798078
0.798755
0.799583
0.800537
0.801586
0.802697
0.803839
0.804978
0.806083
0.80712
0.808053
0.808849
0.809478
0.809912
0.810134
0.838954
0.839109
0.839416
0.839874
0.840479
0.841223
0.842104
0.843116
0.84426
0.845543
0.846974
0.848568
0.850344
0.85232
0.85452
0.856968
0.859693
0.862726
0.866102
0.869854
0.874013
0.878606
0.883649
0.889145
0.895084
0.901447
0.9082
0.915304
0.922711
0.930359
0.938181
0.946099
0.954032
0.961897
0.969609
0.977089
0.984263
0.991061
0.997422
1.00329
1.00862
1.01336
1.01749
1.02097
1.02378
1.0259
1.02732
1.02802
1.02799
1.02725
1.02577
1.02357
1.02066
1.01705
1.01275
1.00778
1.00217
0.995945
0.989152
0.981832
0.974036
0.965826
0.95727
0.948446
0.939442
0.930351
0.921273
0.912316
0.903584
0.895182
0.887206
0.87974
0.87285
0.86658
0.860963
0.856013
0.851739
0.848135
0.845174
0.842807
0.840967
0.839571
0.838534
0.83777
0.837201
0.836758
0.836382
0.836026
0.835658
0.835255
0.834807
0.834311
0.833773
0.833204
0.832617
0.832029
0.831458
0.830924
0.830447
0.830051
0.829757
0.829585
0.82955
0.829664
0.82993
0.830346
0.830903
0.831586
0.832374
0.833243
0.834166
0.835115
0.836062
0.836979
0.837838
0.838608
0.839264
0.839779
0.840135
0.840317
0.872495
0.872645
0.872944
0.87339
0.873981
0.874713
0.875585
0.876595
0.877746
0.879043
0.880495
0.882114
0.883917
0.885919
0.888141
0.890603
0.89333
0.896347
0.89968
0.903354
0.907392
0.911811
0.91662
0.92182
0.927401
0.933345
0.939621
0.946194
0.95302
0.960044
0.967208
0.974444
0.981682
0.988851
0.995877
1.00269
1.00923
1.01543
1.02123
1.02658
1.03145
1.03578
1.03955
1.04273
1.04529
1.04722
1.0485
1.04911
1.04906
1.04834
1.04695
1.0449
1.04219
1.03883
1.03484
1.03024
1.02506
1.01932
1.01307
1.00634
0.999188
0.991669
0.983845
0.975787
0.967573
0.959285
0.951012
0.942843
0.934868
0.927176
0.919845
0.912947
0.906539
0.900663
0.895348
0.890611
0.886458
0.882882
0.879859
0.877352
0.875307
0.873663
0.872352
0.871306
0.870462
0.869762
0.869156
0.868605
0.868076
0.867549
0.867011
0.866457
0.865888
0.865309
0.864731
0.864166
0.863627
0.86313
0.862692
0.862329
0.862059
0.861895
0.86185
0.86193
0.862139
0.862474
0.862926
0.863484
0.864131
0.864846
0.865608
0.866393
0.867176
0.867935
0.868643
0.869278
0.869817
0.870241
0.870532
0.870681
0.905886
0.906032
0.906324
0.906761
0.907342
0.908064
0.908928
0.909934
0.911086
0.912387
0.913848
0.915478
0.91729
0.919299
0.921521
0.923974
0.926678
0.929653
0.932918
0.936492
0.94039
0.944625
0.9492
0.954114
0.959357
0.964909
0.970745
0.976832
0.98313
0.98959
0.996162
1.00279
1.0094
1.01595
1.02236
1.02857
1.03454
1.04019
1.04548
1.05037
1.05481
1.05877
1.06221
1.0651
1.06743
1.06918
1.07033
1.07087
1.0708
1.07011
1.0688
1.06688
1.06436
1.06124
1.05754
1.05329
1.0485
1.04321
1.03746
1.03127
1.02471
1.01782
1.01065
1.00328
0.995777
0.988206
0.980646
0.973175
0.965871
0.958807
0.952052
0.945665
0.939696
0.934183
0.929154
0.924625
0.9206
0.917075
0.914029
0.911433
0.909247
0.907421
0.905904
0.90464
0.903579
0.902672
0.901877
0.90116
0.900492
0.899854
0.899231
0.898618
0.898012
0.897415
0.896834
0.896277
0.895754
0.895278
0.894861
0.894515
0.894254
0.894088
0.894024
0.894069
0.894222
0.894483
0.894843
0.895293
0.895818
0.896402
0.897027
0.897671
0.898316
0.89894
0.899523
0.900044
0.900487
0.900834
0.901073
0.901195
0.93913
0.939274
0.93956
0.939989
0.94056
0.941273
0.942128
0.943128
0.944274
0.945573
0.947032
0.948659
0.950466
0.952465
0.95467
0.957095
0.959755
0.962667
0.965846
0.969304
0.973052
0.977098
0.981442
0.98608
0.991002
0.996189
1.00162
1.00726
1.01308
1.01903
1.02506
1.03114
1.03719
1.04318
1.04903
1.05471
1.06015
1.06531
1.07014
1.0746
1.07866
1.08226
1.0854
1.08804
1.09016
1.09174
1.09278
1.09325
1.09316
1.09249
1.09126
1.08947
1.08712
1.08422
1.0808
1.07687
1.07245
1.06757
1.06227
1.05659
1.05056
1.04423
1.03767
1.03092
1.02405
1.01711
1.01019
1.00334
0.996633
0.99013
0.98389
0.977964
0.972396
0.96722
0.962461
0.958134
0.954244
0.950787
0.947749
0.945106
0.942826
0.940872
0.939202
0.937772
0.936541
0.935469
0.93452
0.933665
0.932879
0.932142
0.931443
0.930772
0.930126
0.929505
0.928912
0.928352
0.927834
0.927366
0.926957
0.926617
0.926354
0.926177
0.92609
0.926097
0.926199
0.926393
0.926671
0.927027
0.927447
0.927918
0.928425
0.92895
0.929476
0.929986
0.930463
0.93089
0.931251
0.931535
0.93173
0.93183
0.972231
0.972372
0.972653
0.973074
0.973636
0.974339
0.975185
0.976174
0.977311
0.9786
0.980047
0.981661
0.983451
0.985426
0.987598
0.989979
0.992581
0.995415
0.998494
1.00183
1.00542
1.00927
1.01339
1.01776
1.02238
1.02723
1.03228
1.03751
1.04289
1.04837
1.05393
1.0595
1.06505
1.07053
1.07589
1.08108
1.08605
1.09076
1.09517
1.09925
1.10294
1.10624
1.1091
1.1115
1.11342
1.11486
1.11578
1.11619
1.11608
1.11545
1.11429
1.11261
1.11043
1.10774
1.10457
1.10093
1.09685
1.09235
1.08747
1.08224
1.0767
1.07089
1.06487
1.05868
1.05237
1.04601
1.03966
1.03337
1.02719
1.02119
1.01541
1.00991
1.0047
0.99984
0.995336
0.991205
0.987454
0.984081
0.981074
0.978415
0.97608
0.974039
0.972259
0.970706
0.969344
0.968142
0.96707
0.966101
0.965215
0.964394
0.963626
0.962901
0.962215
0.961566
0.960956
0.960387
0.959865
0.959396
0.958985
0.958641
0.958369
0.958175
0.958062
0.958032
0.958084
0.958216
0.958423
0.958696
0.959025
0.959399
0.959805
0.960227
0.960653
0.961066
0.961453
0.9618
0.962094
0.962324
0.962483
0.962564
1.00519
1.00533
1.00561
1.00602
1.00657
1.00726
1.0081
1.00907
1.01019
1.01147
1.0129
1.01449
1.01625
1.01819
1.02032
1.02264
1.02517
1.02792
1.03089
1.03409
1.03752
1.04118
1.04508
1.0492
1.05353
1.05806
1.06276
1.06762
1.07259
1.07766
1.08277
1.08789
1.09299
1.09801
1.10291
1.10766
1.11221
1.11651
1.12054
1.12426
1.12764
1.13064
1.13325
1.13543
1.13718
1.13847
1.1393
1.13966
1.13953
1.13892
1.13783
1.13627
1.13423
1.13174
1.1288
1.12544
1.12167
1.11752
1.11302
1.10821
1.10311
1.09777
1.09223
1.08655
1.08076
1.07491
1.06907
1.06327
1.05758
1.05203
1.04667
1.04154
1.03668
1.0321
1.02784
1.0239
1.02029
1.01701
1.01405
1.0114
1.00904
1.00695
1.00509
1.00345
1.00199
1.00069
0.999516
0.998456
0.997487
0.996594
0.995765
0.994991
0.994267
0.993589
0.992958
0.992375
0.991843
0.991366
0.990948
0.990593
0.990307
0.990092
0.98995
0.989883
0.989889
0.989966
0.990108
0.990308
0.990558
0.990848
0.991167
0.991502
0.991841
0.992173
0.992484
0.992763
0.993
0.993186
0.993314
0.993379
1.03801
1.03815
1.03842
1.03883
1.03937
1.04005
1.04087
1.04183
1.04293
1.04418
1.04558
1.04714
1.04887
1.05077
1.05284
1.0551
1.05755
1.0602
1.06305
1.06612
1.06939
1.07286
1.07655
1.08042
1.08449
1.08872
1.0931
1.0976
1.10221
1.10689
1.1116
1.11632
1.121
1.1256
1.1301
1.13444
1.1386
1.14254
1.14623
1.14962
1.1527
1.15544
1.15782
1.1598
1.16139
1.16256
1.1633
1.1636
1.16346
1.16288
1.16185
1.16039
1.1585
1.15618
1.15346
1.15035
1.14687
1.14304
1.13889
1.13445
1.12976
1.12485
1.11975
1.11452
1.10919
1.10381
1.09842
1.09308
1.08781
1.08267
1.07769
1.07291
1.06836
1.06405
1.06001
1.05626
1.05279
1.04961
1.04672
1.0441
1.04173
1.03961
1.03771
1.036
1.03447
1.0331
1.03185
1.03072
1.02968
1.02873
1.02785
1.02703
1.02627
1.02557
1.02491
1.02431
1.02377
1.02328
1.02285
1.02248
1.02217
1.02193
1.02176
1.02166
1.02162
1.02165
1.02173
1.02187
1.02205
1.02227
1.02251
1.02277
1.02304
1.0233
1.02355
1.02377
1.02396
1.02411
1.02421
1.02426
1.0707
1.07083
1.0711
1.0715
1.07203
1.07269
1.07349
1.07443
1.07551
1.07674
1.07811
1.07964
1.08132
1.08316
1.08518
1.08736
1.08973
1.09228
1.09501
1.09794
1.10105
1.10434
1.10782
1.11146
1.11527
1.11922
1.1233
1.12749
1.13176
1.13608
1.14043
1.14477
1.14908
1.15331
1.15743
1.16141
1.16522
1.16883
1.17219
1.1753
1.17811
1.18061
1.18277
1.18458
1.18601
1.18707
1.18773
1.18798
1.18784
1.18728
1.18631
1.18495
1.18318
1.18104
1.17851
1.17563
1.17241
1.16888
1.16505
1.16096
1.15663
1.1521
1.14741
1.14259
1.13768
1.13271
1.12774
1.1228
1.11793
1.11315
1.10852
1.10406
1.09979
1.09573
1.09191
1.08833
1.08501
1.08193
1.07911
1.07653
1.07419
1.07206
1.07013
1.06839
1.06681
1.06538
1.06407
1.06288
1.0618
1.06079
1.05987
1.05901
1.05822
1.05749
1.05681
1.0562
1.05563
1.05513
1.05468
1.0543
1.05397
1.05371
1.05351
1.05337
1.0533
1.05328
1.05331
1.05339
1.05351
1.05366
1.05384
1.05404
1.05424
1.05444
1.05463
1.05481
1.05495
1.05507
1.05515
1.05519
1.10326
1.10339
1.10364
1.10403
1.10455
1.1052
1.10598
1.1069
1.10796
1.10915
1.11049
1.11197
1.1136
1.11539
1.11734
1.11945
1.12173
1.12417
1.12678
1.12957
1.13252
1.13564
1.13892
1.14234
1.14591
1.1496
1.15341
1.1573
1.16125
1.16525
1.16927
1.17327
1.17723
1.18112
1.1849
1.18856
1.19205
1.19535
1.19843
1.20126
1.20383
1.20611
1.20808
1.20972
1.21103
1.21197
1.21256
1.21278
1.21262
1.21208
1.21118
1.2099
1.20826
1.20626
1.20392
1.20125
1.19828
1.19501
1.19147
1.18769
1.1837
1.17952
1.1752
1.17075
1.16621
1.16163
1.15703
1.15246
1.14793
1.1435
1.13918
1.13501
1.131
1.12718
1.12356
1.12015
1.11697
1.11401
1.11126
1.10874
1.10642
1.1043
1.10237
1.1006
1.09899
1.09753
1.09618
1.09495
1.09382
1.09278
1.09182
1.09093
1.09011
1.08936
1.08866
1.08802
1.08744
1.08692
1.08646
1.08605
1.08571
1.08542
1.0852
1.08503
1.08491
1.08485
1.08484
1.08487
1.08493
1.08503
1.08515
1.08529
1.08544
1.08559
1.08574
1.08587
1.08598
1.08607
1.08613
1.08617
1.13568
1.13581
1.13606
1.13644
1.13694
1.13758
1.13834
1.13923
1.14026
1.14142
1.14272
1.14415
1.14574
1.14746
1.14934
1.15137
1.15355
1.15589
1.15838
1.16103
1.16383
1.16678
1.16986
1.17308
1.17643
1.17988
1.18342
1.18703
1.1907
1.1944
1.19811
1.20181
1.20545
1.20903
1.21251
1.21586
1.21906
1.22208
1.2249
1.2275
1.22984
1.23192
1.23372
1.23521
1.23639
1.23724
1.23776
1.23794
1.23777
1.23726
1.23641
1.23521
1.23368
1.23183
1.22966
1.22718
1.22443
1.2214
1.21814
1.21464
1.21096
1.2071
1.2031
1.19899
1.1948
1.19056
1.1863
1.18206
1.17786
1.17373
1.1697
1.16579
1.16203
1.15842
1.155
1.15176
1.14871
1.14585
1.1432
1.14074
1.13846
1.13636
1.13444
1.13267
1.13104
1.12955
1.12818
1.12692
1.12576
1.12469
1.1237
1.12278
1.12194
1.12116
1.12045
1.11979
1.11919
1.11866
1.11818
1.11775
1.11739
1.11708
1.11682
1.11662
1.11647
1.11637
1.11632
1.1163
1.11633
1.11638
1.11645
1.11654
1.11664
1.11675
1.11685
1.11695
1.11703
1.1171
1.11715
1.11717
1.16798
1.16811
1.16835
1.16872
1.16921
1.16982
1.17056
1.17143
1.17242
1.17355
1.17481
1.1762
1.17772
1.17939
1.18119
1.18314
1.18522
1.18746
1.18983
1.19234
1.19499
1.19777
1.20068
1.2037
1.20683
1.21005
1.21335
1.21672
1.22012
1.22355
1.22698
1.23039
1.23375
1.23704
1.24024
1.24332
1.24625
1.24903
1.25161
1.25398
1.25612
1.25802
1.25965
1.26101
1.26208
1.26284
1.2633
1.26345
1.26328
1.26279
1.26198
1.26086
1.25944
1.25771
1.25569
1.2534
1.25085
1.24805
1.24502
1.24179
1.23838
1.23481
1.23112
1.22731
1.22343
1.2195
1.21556
1.21161
1.20771
1.20386
1.20009
1.19643
1.19289
1.18949
1.18625
1.18316
1.18025
1.17751
1.17494
1.17255
1.17032
1.16826
1.16635
1.16458
1.16295
1.16145
1.16006
1.15879
1.1576
1.15651
1.1555
1.15456
1.1537
1.1529
1.15217
1.1515
1.15089
1.15033
1.14984
1.14939
1.14901
1.14868
1.1484
1.14817
1.14799
1.14785
1.14776
1.14771
1.14769
1.1477
1.14773
1.14778
1.14784
1.14791
1.14798
1.14804
1.1481
1.14815
1.14818
1.1482
1.20016
1.20028
1.20052
1.20087
1.20135
1.20194
1.20266
1.2035
1.20446
1.20555
1.20676
1.2081
1.20957
1.21117
1.2129
1.21476
1.21675
1.21888
1.22113
1.22352
1.22602
1.22865
1.23138
1.23422
1.23715
1.24015
1.24323
1.24636
1.24952
1.25269
1.25587
1.25901
1.26211
1.26515
1.26809
1.27092
1.27361
1.27615
1.27852
1.28069
1.28265
1.28438
1.28587
1.2871
1.28807
1.28875
1.28916
1.28927
1.2891
1.28863
1.28787
1.28682
1.28549
1.28388
1.28201
1.27988
1.27751
1.27492
1.27211
1.26912
1.26597
1.26266
1.25924
1.25571
1.25212
1.24847
1.2448
1.24114
1.2375
1.23391
1.23038
1.22695
1.22362
1.22041
1.21734
1.2144
1.21162
1.20899
1.20651
1.20419
1.20202
1.19999
1.19811
1.19636
1.19474
1.19324
1.19184
1.19055
1.18936
1.18825
1.18722
1.18627
1.1854
1.18458
1.18384
1.18315
1.18252
1.18195
1.18144
1.18098
1.18057
1.18022
1.17992
1.17966
1.17946
1.17929
1.17917
1.17908
1.17902
1.17899
1.17899
1.179
1.17903
1.17907
1.17911
1.17915
1.17918
1.17921
1.17924
1.17925
1.23222
1.23233
1.23256
1.23291
1.23337
1.23394
1.23464
1.23545
1.23637
1.23742
1.23859
1.23988
1.24129
1.24282
1.24447
1.24625
1.24815
1.25017
1.25231
1.25457
1.25693
1.25941
1.26198
1.26464
1.26738
1.27019
1.27306
1.27596
1.2789
1.28184