/*--------------------------------*- C++ -*----------------------------------*\
| =========                 |                                                 |
| \\      /  F ield         | OpenFOAM: The Open Source CFD Toolbox           |
|  \\    /   O peration     | Version:  2406                                  |
|   \\  /    A nd           | Website:  www.openfoam.com                      |
|    \\/     M anipulation  |                                                 |
\*---------------------------------------------------------------------------*/
FoamFile
{
    version     2.0;
    format      ascii;
    arch        "LSB;label=32;scalar=64";
    class       volScalarField;
    location    "3.65";
    object      C_0_0;
}
// * * * * * * * * * * * * * * * * * * * * * * * * * * * * * * * * * * * * * //

dimensions      [1 -3 0 0 0 0 0];

internalField   nonuniform List<scalar> 
14400
(
0.524627
0.512904
0.497255
0.482348
0.470044
0.461367
0.456943
0.457144
0.462153
0.471987
0.486492
0.50529
0.527663
0.552127
0.574507
0.586063
0.584947
0.570742
0.549755
0.530292
0.514672
0.504053
0.499174
0.500576
0.508705
0.523952
0.546673
0.57719
0.615773
0.662574
0.717407
0.778732
0.836683
0.876954
0.905194
0.930044
0.951949
0.971252
0.988218
1.00305
1.01593
1.02697
1.03628
1.04394
1.05003
1.05458
1.05765
1.05924
1.05939
1.0581
1.05535
1.05115
1.04546
1.03824
1.02946
1.01905
1.00694
0.993032
0.977207
0.959322
0.939198
0.91661
0.891276
0.862841
0.829179
0.777966
0.710226
0.647351
0.59194
0.544394
0.504579
0.47219
0.446883
0.428329
0.416235
0.410361
0.410521
0.416579
0.428438
0.446023
0.469242
0.497916
0.531592
0.568751
0.600621
0.619578
0.629598
0.634095
0.633255
0.626899
0.612427
0.586198
0.554826
0.526252
0.502024
0.482613
0.468102
0.458348
0.452999
0.451467
0.452891
0.456078
0.459469
0.461245
0.460058
0.457291
0.454795
0.45416
0.456612
0.463053
0.474114
0.490199
0.511511
0.538035
0.569366
0.603967
0.633341
0.650681
0.660106
0.664678
0.54008
0.528004
0.510875
0.494774
0.48157
0.472263
0.467466
0.467535
0.472642
0.482803
0.497861
0.517432
0.540801
0.566427
0.58759
0.596153
0.595715
0.584405
0.563193
0.542744
0.526252
0.514968
0.509624
0.51075
0.518789
0.53413
0.557119
0.588066
0.627219
0.67469
0.730255
0.792261
0.845246
0.880892
0.908577
0.932988
0.954552
0.973589
0.990346
1.00502
1.01776
1.0287
1.03792
1.04552
1.05156
1.05607
1.05911
1.06069
1.06084
1.05954
1.05681
1.05263
1.04698
1.03981
1.03109
1.02076
1.00874
0.994947
0.979267
0.961561
0.941661
0.919356
0.894378
0.86638
0.834638
0.787984
0.722259
0.658937
0.602767
0.554516
0.514101
0.481228
0.455556
0.436751
0.424521
0.418624
0.418873
0.425131
0.437301
0.455305
0.479044
0.508307
0.542544
0.579945
0.60939
0.625688
0.635121
0.639432
0.638769
0.63304
0.621286
0.598298
0.566933
0.537829
0.513106
0.493362
0.478719
0.469081
0.46414
0.463347
0.465872
0.470541
0.475666
0.478726
0.476243
0.471732
0.467746
0.466002
0.467707
0.473729
0.484661
0.500861
0.522486
0.549475
0.581295
0.615814
0.641705
0.65618
0.66496
0.669249
0.563932
0.555751
0.537418
0.519384
0.504523
0.494014
0.4885
0.488317
0.493619
0.504416
0.520541
0.541524
0.566394
0.592505
0.608328
0.614071
0.614203
0.60795
0.589465
0.567405
0.549332
0.536798
0.530563
0.53115
0.539012
0.554541
0.578068
0.609867
0.650129
0.698794
0.755054
0.814912
0.858335
0.888709
0.915234
0.938778
0.959681
0.978205
0.99456
1.00891
1.0214
1.03213
1.0412
1.04867
1.0546
1.05905
1.06203
1.06358
1.06371
1.06243
1.05973
1.05559
1.05001
1.04293
1.03433
1.02415
1.01231
0.998749
0.983351
0.965994
0.94653
0.924774
0.900499
0.873427
0.843222
0.804453
0.746829
0.682118
0.62443
0.574822
0.533238
0.499413
0.473014
0.453713
0.441213
0.435271
0.435698
0.442354
0.455139
0.473968
0.498732
0.529154
0.564323
0.60071
0.624195
0.637331
0.645765
0.649741
0.649352
0.644612
0.635509
0.619101
0.590727
0.56084
0.535209
0.514831
0.49991
0.490472
0.486308
0.486941
0.491592
0.499213
0.508152
0.514991
0.508699
0.500358
0.493407
0.48952
0.489781
0.495005
0.505711
0.522157
0.544372
0.572211
0.604723
0.635916
0.654953
0.666621
0.674304
0.67811
0.591803
0.588531
0.575564
0.555706
0.538682
0.526498
0.519996
0.519469
0.525052
0.536751
0.554402
0.57727
0.603548
0.623672
0.632879
0.637472
0.638289
0.635399
0.624976
0.603434
0.583713
0.569533
0.562061
0.561858
0.569459
0.585273
0.609605
0.642655
0.684537
0.734919
0.791885
0.839356
0.872311
0.899976
0.924874
0.947209
0.967188
0.984991
1.00078
1.01467
1.02679
1.03723
1.04606
1.05335
1.05914
1.06347
1.06639
1.06789
1.06801
1.06674
1.06407
1.06001
1.05452
1.04758
1.03915
1.02918
1.01762
1.00439
0.989392
0.972536
0.953691
0.93271
0.909418
0.883607
0.855035
0.823001
0.778002
0.715574
0.656761
0.605414
0.562167
0.526948
0.499479
0.479442
0.466542
0.460535
0.461228
0.468476
0.482164
0.502184
0.528409
0.560504
0.596927
0.626299
0.64253
0.65358
0.660867
0.664416
0.664284
0.660545
0.653338
0.642865
0.623949
0.594673
0.568111
0.546934
0.53155
0.522332
0.519229
0.521847
0.529321
0.540717
0.553975
0.558273
0.554437
0.541782
0.531045
0.524311
0.522559
0.526691
0.53714
0.553999
0.576947
0.60562
0.637344
0.658632
0.671383
0.681043
0.687528
0.690775
0.622577
0.620802
0.61557
0.601854
0.583423
0.569375
0.561794
0.560884
0.566803
0.579519
0.598935
0.622947
0.643341
0.654414
0.660669
0.664651
0.666074
0.664989
0.661639
0.649756
0.629107
0.613087
0.604178
0.602934
0.610184
0.62638
0.651771
0.686328
0.729963
0.78083
0.827566
0.861319
0.888745
0.91401
0.937076
0.957998
0.97687
0.993796
1.00888
1.02221
1.03387
1.04394
1.05247
1.05952
1.06513
1.06933
1.07214
1.07359
1.07369
1.07243
1.06982
1.06584
1.06049
1.05372
1.04551
1.03582
1.0246
1.01178
0.997296
0.981065
0.962988
0.942958
0.920854
0.896548
0.869917
0.84087
0.807365
0.759397
0.699933
0.646483
0.601119
0.564109
0.535254
0.514261
0.500838
0.494747
0.495792
0.503812
0.518666
0.540134
0.567942
0.601193
0.633665
0.652552
0.664486
0.673594
0.679706
0.682773
0.682822
0.679947
0.674334
0.666302
0.655963
0.637662
0.611133
0.589428
0.573309
0.564244
0.562346
0.567323
0.577348
0.590541
0.596828
0.597144
0.597234
0.591451
0.578952
0.56963
0.565483
0.568366
0.578614
0.596144
0.619529
0.648028
0.66833
0.680667
0.690781
0.698641
0.703988
0.706688
0.655125
0.654091
0.652257
0.647421
0.636643
0.621572
0.6134
0.612152
0.618401
0.63172
0.652234
0.668959
0.679312
0.685574
0.690731
0.69439
0.696367
0.696716
0.695722
0.693125
0.683319
0.666703
0.656813
0.654231
0.661062
0.677725
0.704405
0.740291
0.784527
0.825613
0.8571
0.882862
0.907342
0.930242
0.951422
0.970836
0.988497
1.00444
1.01873
1.03141
1.04255
1.05219
1.06037
1.06714
1.07253
1.07657
1.07927
1.08065
1.08072
1.07948
1.07693
1.07306
1.06786
1.0613
1.05335
1.04399
1.03317
1.02084
1.00695
0.991438
0.974238
0.955279
0.934491
0.911815
0.887215
0.860707
0.832397
0.79871
0.751782
0.697727
0.650195
0.611158
0.580679
0.558546
0.544487
0.538296
0.539771
0.548723
0.564978
0.587969
0.616941
0.64886
0.668455
0.679786
0.689269
0.696602
0.70159
0.704148
0.704284
0.702089
0.697748
0.691565
0.683987
0.675111
0.660245
0.641082
0.624128
0.615233
0.614328
0.621537
0.629366
0.633916
0.633727
0.633732
0.634127
0.634745
0.630738
0.623632
0.61721
0.619047
0.629072
0.647346
0.668036
0.684524
0.695068
0.7044
0.712431
0.718752
0.723094
0.7253
0.688708
0.688179
0.687299
0.686409
0.684188
0.678586
0.672796
0.671362
0.677853
0.689218
0.700118
0.707415
0.712741
0.71784
0.722289
0.72581
0.728287
0.729784
0.730551
0.731007
0.730939
0.726036
0.718845
0.714759
0.721394
0.738461
0.766313
0.801412
0.83359
0.859933
0.88301
0.905687
0.927517
0.948195
0.967533
0.985428
1.00184
1.01675
1.03019
1.04217
1.05272
1.06188
1.06968
1.07614
1.08128
1.08514
1.08771
1.08901
1.08906
1.08784
1.08537
1.08162
1.07659
1.07026
1.06261
1.05362
1.04324
1.03146
1.01822
1.0035
0.987247
0.969428
0.950017
0.929006
0.906421
0.882344
0.856938
0.83048
0.799069
0.757184
0.708982
0.668158
0.636007
0.612645
0.597845
0.591538
0.593497
0.603433
0.621274
0.645191
0.672634
0.690354
0.700134
0.708829
0.7162
0.721955
0.725902
0.727946
0.728078
0.726375
0.723003
0.718224
0.712413
0.706056
0.69961
0.690146
0.679891
0.672444
0.670547
0.671638
0.672264
0.670733
0.670022
0.66993
0.670415
0.671536
0.673516
0.673458
0.673062
0.675861
0.684361
0.695795
0.706497
0.714317
0.722115
0.729431
0.735793
0.740843
0.744336
0.746119
0.722818
0.722619
0.722349
0.722256
0.722705
0.72389
0.723654
0.724763
0.728932
0.734255
0.737949
0.742
0.746398
0.750755
0.754777
0.758275
0.761186
0.763584
0.76569
0.767865
0.770627
0.774485
0.776354
0.77969
0.788309
0.804701
0.826633
0.849217
0.869289
0.889123
0.909318
0.929358
0.948845
0.967489
0.985085
1.00151
1.01667
1.03054
1.0431
1.05434
1.06429
1.07294
1.08032
1.08645
1.09133
1.09498
1.09742
1.09864
1.09866
1.09747
1.09507
1.09146
1.08662
1.08054
1.07322
1.06462
1.05473
1.04353
1.03099
1.01709
1.00182
0.985169
0.967142
0.94777
0.92712
0.90531
0.88253
0.859056
0.835265
0.808519
0.774488
0.734145
0.701016
0.676618
0.660953
0.654527
0.656978
0.667408
0.686362
0.705111
0.7184
0.7257
0.732731
0.739197
0.744748
0.749115
0.752118
0.753655
0.753707
0.752332
0.749663
0.745916
0.741384
0.736435
0.731493
0.727032
0.722719
0.71808
0.714607
0.710987
0.708217
0.706539
0.705698
0.705552
0.706065
0.707291
0.709391
0.712642
0.716864
0.721081
0.726581
0.731866
0.737415
0.7435
0.749642
0.755418
0.760464
0.764491
0.767288
0.76872
0.757127
0.757131
0.757223
0.757562
0.758357
0.759803
0.762019
0.764644
0.766989
0.769532
0.772653
0.776237
0.780094
0.784006
0.787788
0.791326
0.794596
0.797677
0.800758
0.804137
0.808226
0.813551
0.820809
0.829953
0.840501
0.853948
0.868639
0.883902
0.900505
0.917953
0.93578
0.953581
0.971018
0.987828
1.00381
1.01884
1.0328
1.04564
1.05732
1.06783
1.07714
1.08528
1.09223
1.098
1.10261
1.10605
1.10834
1.10948
1.10946
1.1083
1.10599
1.10252
1.09788
1.09208
1.08509
1.07692
1.06753
1.05693
1.04511
1.03206
1.01778
1.00229
0.985611
0.967812
0.948978
0.929247
0.908815
0.887948
0.866991
0.846379
0.825459
0.800227
0.773039
0.748923
0.732323
0.725785
0.728576
0.736744
0.745481
0.752276
0.756339
0.761044
0.765895
0.770481
0.774478
0.777641
0.779798
0.780849
0.780764
0.779581
0.777402
0.774391
0.770771
0.766806
0.762777
0.758931
0.75534
0.751937
0.74843
0.745388
0.743057
0.741506
0.740678
0.740515
0.741003
0.742172
0.744096
0.746852
0.750394
0.754494
0.758602
0.762984
0.767688
0.772625
0.777536
0.782136
0.786155
0.789369
0.791606
0.792753
0.791433
0.791553
0.791848
0.792412
0.793359
0.794779
0.796688
0.798933
0.80131
0.803923
0.806895
0.810199
0.813737
0.817387
0.821044
0.824646
0.828196
0.831771
0.835527
0.839699
0.84459
0.850555
0.857953
0.866956
0.877559
0.889252
0.902103
0.916014
0.930875
0.946402
0.96227
0.978167
0.993817
1.00899
1.02351
1.03723
1.05005
1.0619
1.07272
1.08249
1.09119
1.09879
1.1053
1.11072
1.11505
1.11828
1.12041
1.12146
1.12142
1.12029
1.11806
1.11474
1.11032
1.1048
1.09816
1.09041
1.08155
1.07156
1.06046
1.04825
1.03495
1.02058
1.00521
0.988888
0.971733
0.953886
0.935535
0.916929
0.898372
0.880234
0.862945
0.84696
0.830248
0.813971
0.800811
0.793044
0.790562
0.790871
0.790728
0.791456
0.793473
0.796242
0.799322
0.802352
0.805043
0.807173
0.808584
0.809178
0.808919
0.807826
0.805971
0.803477
0.800504
0.797241
0.793878
0.790574
0.787412
0.784408
0.781561
0.779078
0.777117
0.775752
0.774992
0.774829
0.775259
0.776297
0.777968
0.780276
0.783161
0.786476
0.790018
0.793779
0.797729
0.801774
0.805742
0.809433
0.81265
0.815222
0.817014
0.817933
0.825617
0.825802
0.826205
0.826879
0.827885
0.829267
0.831022
0.833087
0.835394
0.837956
0.840805
0.843926
0.847267
0.850761
0.854353
0.858017
0.86177
0.865683
0.869881
0.874541
0.879879
0.886127
0.893491
0.902079
0.911873
0.922704
0.934505
0.947175
0.960578
0.97451
0.988731
1.003
1.01709
1.03081
1.044
1.05652
1.06827
1.07918
1.08918
1.09823
1.10631
1.1134
1.11948
1.12454
1.12858
1.13159
1.13358
1.13453
1.13446
1.13336
1.13123
1.12806
1.12386
1.11862
1.11235
1.10503
1.09669
1.08731
1.07692
1.06553
1.05318
1.03989
1.02574
1.0108
0.995182
0.979026
0.962512
0.94586
0.929335
0.91324
0.897908
0.883678
0.870844
0.859779
0.850295
0.842416
0.836264
0.832088
0.829945
0.82933
0.829856
0.83113
0.8328
0.834562
0.836169
0.837425
0.838186
0.838361
0.837908
0.836832
0.835181
0.833041
0.830528
0.827776
0.824919
0.822075
0.819325
0.816724
0.814328
0.812246
0.81058
0.809392
0.808711
0.808547
0.808906
0.809791
0.811203
0.813124
0.815498
0.818231
0.821214
0.824383
0.827677
0.831
0.834224
0.837203
0.839791
0.841857
0.843294
0.844032
0.859615
0.859834
0.86029
0.861013
0.862037
0.863381
0.865045
0.867001
0.869222
0.871702
0.874444
0.877434
0.880643
0.884038
0.887591
0.891298
0.895184
0.89931
0.903773
0.908706
0.914257
0.920582
0.927806
0.935997
0.945149
0.955188
0.966038
0.977601
0.989752
1.00233
1.01514
1.02801
1.04074
1.05317
1.06516
1.07658
1.08734
1.09736
1.10658
1.11495
1.12244
1.12902
1.13467
1.13938
1.14313
1.14593
1.14777
1.14864
1.14854
1.14747
1.14543
1.14242
1.13844
1.13348
1.12756
1.12068
1.11285
1.10408
1.09438
1.08379
1.07233
1.06007
1.04706
1.03339
1.01917
1.00452
0.989625
0.974665
0.959868
0.945482
0.93177
0.91899
0.907373
0.897114
0.888243
0.8808
0.874856
0.870483
0.867634
0.866064
0.86549
0.865622
0.866184
0.866928
0.867646
0.868171
0.868374
0.868172
0.86752
0.866413
0.864879
0.862977
0.860791
0.858415
0.855948
0.853481
0.851089
0.848834
0.846779
0.844999
0.843564
0.842525
0.841913
0.841744
0.842026
0.842757
0.84393
0.845518
0.847477
0.849737
0.852222
0.854865
0.857594
0.860324
0.862951
0.865366
0.867454
0.869118
0.870275
0.870868
0.893394
0.893629
0.894108
0.894848
0.895867
0.897176
0.898774
0.90065
0.90279
0.905186
0.907834
0.910722
0.913835
0.917155
0.920675
0.9244
0.928357
0.932598
0.937197
0.942251
0.947863
0.954137
0.961152
0.968954
0.977537
0.986861
0.996857
1.00744
1.0185
1.02991
1.04151
1.05315
1.06468
1.07597
1.08688
1.0973
1.10715
1.11635
1.12483
1.13255
1.13947
1.14556
1.1508
1.15516
1.15865
1.16124
1.16293
1.16371
1.16358
1.16255
1.1606
1.15775
1.15398
1.14931
1.14375
1.13729
1.12995
1.12176
1.11273
1.1029
1.0923
1.081
1.06905
1.05654
1.04357
1.03028
1.0168
1.00331
0.989988
0.977049
0.964699
0.953137
0.942544
0.933059
0.924754
0.917681
0.911877
0.907352
0.904045
0.9018
0.900419
0.899685
0.899384
0.899319
0.899318
0.899237
0.898968
0.898433
0.897588
0.89642
0.894944
0.893199
0.891243
0.889144
0.886977
0.884813
0.882716
0.880744
0.878956
0.877407
0.876152
0.875231
0.874671
0.874491
0.874695
0.875282
0.87624
0.877543
0.879153
0.881016
0.883073
0.88526
0.88751
0.889749
0.891893
0.893853
0.895543
0.896886
0.897819
0.898297
0.926939
0.927179
0.927664
0.928404
0.929408
0.930682
0.932226
0.934035
0.936102
0.93842
0.940983
0.943785
0.946817
0.950074
0.953555
0.95727
0.961247
0.965527
0.970167
0.975237
0.980808
0.986949
0.993714
1.00113
1.00919
1.01786
1.02709
1.0368
1.04691
1.05729
1.06783
1.0784
1.08888
1.09914
1.10908
1.1186
1.12761
1.13604
1.14384
1.15095
1.15733
1.16296
1.1678
1.17184
1.17505
1.17744
1.17899
1.17969
1.17954
1.17854
1.17669
1.17398
1.17043
1.16604
1.16082
1.15477
1.14792
1.14028
1.13189
1.12277
1.11298
1.10256
1.09159
1.08014
1.06831
1.05621
1.04399
1.03177
1.01973
1.00803
0.996838
0.986317
0.976608
0.967822
0.960035
0.953293
0.947619
0.943005
0.939392
0.936673
0.934701
0.933315
0.932349
0.931647
0.931068
0.930492
0.929827
0.929003
0.927978
0.926735
0.925278
0.923632
0.921836
0.919942
0.918004
0.916077
0.914216
0.912472
0.910892
0.909523
0.908406
0.907574
0.907051
0.906852
0.906981
0.907436
0.908204
0.909261
0.910575
0.912103
0.913793
0.915591
0.917438
0.91927
0.921017
0.922609
0.923979
0.925065
0.925818
0.926204
0.960243
0.960483
0.960965
0.961695
0.962678
0.963917
0.965413
0.967162
0.969162
0.971407
0.973894
0.976618
0.979576
0.982768
0.986198
0.989879
0.993834
0.998096
1.00271
1.00772
1.01318
1.01914
1.02563
1.03266
1.04022
1.0483
1.05684
1.06578
1.07503
1.08451
1.09412
1.10375
1.11329
1.12264
1.1317
1.1404
1.14865
1.15638
1.16354
1.17008
1.17596
1.18114
1.1856
1.18933
1.19229
1.19448
1.1959
1.19652
1.19635
1.19538
1.19362
1.19107
1.18772
1.1836
1.17871
1.17305
1.16666
1.15956
1.15177
1.14333
1.13428
1.12469
1.11461
1.10412
1.09331
1.08229
1.07116
1.06007
1.04913
1.0385
1.02831
1.01869
1.00975
1.00159
0.994269
0.987835
0.982302
0.977654
0.973847
0.970797
0.968397
0.966524
0.96505
0.963851
0.962813
0.961838
0.960845
0.959775
0.958587
0.957263
0.955801
0.954214
0.952529
0.950784
0.949018
0.947276
0.9456
0.944034
0.942617
0.941386
0.940374
0.939608
0.939108
0.938885
0.938942
0.939278
0.939878
0.940723
0.941784
0.943026
0.944405
0.945874
0.947382
0.948875
0.950296
0.951588
0.952698
0.953576
0.954184
0.954496
0.993308
0.993544
0.994018
0.994733
0.995692
0.996896
0.998345
1.00004
1.00198
1.00415
1.00657
1.00922
1.0121
1.01522
1.01859
1.02221
1.02611
1.03031
1.03485
1.03975
1.04506
1.0508
1.05699
1.06365
1.07075
1.07828
1.08619
1.09443
1.10293
1.11161
1.12039
1.12918
1.13789
1.14642
1.1547
1.16265
1.1702
1.17729
1.18386
1.18986
1.19527
1.20004
1.20415
1.20758
1.2103
1.21231
1.21359
1.21414
1.21395
1.21302
1.21135
1.20894
1.2058
1.20193
1.19735
1.19208
1.18613
1.17952
1.1723
1.16449
1.15614
1.1473
1.13803
1.12841
1.11852
1.10846
1.09831
1.0882
1.07823
1.06853
1.05921
1.05037
1.04211
1.03451
1.02762
1.02148
1.0161
1.01146
1.00754
1.00427
1.00157
0.999334
0.997477
0.995895
0.994496
0.9932
0.99194
0.990663
0.989333
0.98793
0.986447
0.984893
0.983284
0.981645
0.980009
0.978407
0.976875
0.975447
0.974155
0.97303
0.972096
0.971377
0.970887
0.970636
0.970626
0.970853
0.971307
0.971968
0.972814
0.973811
0.974926
0.976117
0.977341
0.978552
0.979704
0.98075
0.981647
0.982357
0.982848
0.983099
1.02614
1.02637
1.02683
1.02753
1.02846
1.02963
1.03103
1.03267
1.03455
1.03666
1.039
1.04158
1.04439
1.04744
1.05073
1.05427
1.05809
1.0622
1.06662
1.07138
1.07651
1.08201
1.0879
1.09419
1.10085
1.10787
1.11521
1.12282
1.13065
1.13861
1.14666
1.1547
1.16265
1.17046
1.17803
1.1853
1.19221
1.19871
1.20474
1.21025
1.21522
1.2196
1.22338
1.22653
1.22903
1.23086
1.23202
1.2325
1.23229
1.2314
1.22981
1.22754
1.22459
1.22097
1.2167
1.21178
1.20624
1.20011
1.19341
1.18619
1.17848
1.17033
1.16181
1.15298
1.14392
1.1347
1.12543
1.11618
1.10707
1.09818
1.08962
1.08147
1.07382
1.06672
1.06022
1.05436
1.04914
1.04456
1.04059
1.03718
1.03426
1.03177
1.02963
1.02775
1.02608
1.02453
1.02305
1.0216
1.02015
1.01868
1.01717
1.01563
1.01407
1.01251
1.01096
1.00947
1.00805
1.00672
1.00553
1.00448
1.0036
1.00292
1.00243
1.00215
1.00207
1.0022
1.00253
1.00303
1.00369
1.00448
1.00537
1.00633
1.00731
1.00829
1.00922
1.01006
1.01078
1.01136
1.01175
1.01195
1.05873
1.05896
1.05941
1.06009
1.06099
1.06212
1.06349
1.06507
1.06689
1.06894
1.07121
1.07371
1.07644
1.0794
1.08261
1.08606
1.08978
1.09377
1.09806
1.10265
1.10757
1.11282
1.11842
1.12435
1.1306
1.13715
1.14396
1.151
1.15821
1.16554
1.17292
1.18029
1.18758
1.19472
1.20165
1.20831
1.21465
1.2206
1.22613
1.23119
1.23575
1.23978
1.24324
1.24613
1.24841
1.25009
1.25113
1.25155
1.25133
1.25046
1.24896
1.24683
1.24406
1.24067
1.23668
1.2321
1.22695
1.22126
1.21505
1.20837
1.20125
1.19374
1.1859
1.17778
1.16946
1.16101
1.15251
1.14403
1.13567
1.12751
1.11962
1.11208
1.10497
1.09832
1.09219
1.0866
1.08156
1.07706
1.07308
1.06959
1.06653
1.06386
1.06151
1.05942
1.05753
1.05578
1.05413
1.05255
1.05099
1.04945
1.04792
1.04638
1.04485
1.04334
1.04187
1.04046
1.03912
1.03787
1.03675
1.03576
1.03493
1.03426
1.03376
1.03345
1.03331
1.03336
1.03357
1.03393
1.03444
1.03505
1.03575
1.03651
1.03729
1.03807
1.03882
1.03949
1.04007
1.04053
1.04085
1.04101
1.09111
1.09132
1.09176
1.09242
1.09329
1.09439
1.09571
1.09725
1.099
1.10098
1.10318
1.10561
1.10825
1.11113
1.11424
1.11759
1.12119
1.12505
1.12918
1.13359
1.1383
1.1433
1.1486
1.15418
1.16004
1.16616
1.17249
1.17901
1.18567
1.19242
1.1992
1.20597
1.21265
1.2192
1.22555
1.23165
1.23746
1.24292
1.24799
1.25263
1.25681
1.26051
1.26369
1.26633
1.26842
1.26994
1.27088
1.27123
1.271
1.27017
1.26875
1.26674
1.26414
1.26098
1.25726
1.25299
1.24821
1.24292
1.23717
1.23099
1.22441
1.21748
1.21026
1.20279
1.19514
1.18738
1.17956
1.17177
1.16408
1.15655
1.14926
1.14228
1.13564
1.12941
1.12362
1.11829
1.11342
1.10902
1.10508
1.10155
1.09842
1.09563
1.09313
1.09088
1.08883
1.08694
1.08516
1.08346
1.08182
1.08023
1.07866
1.07713
1.07562
1.07415
1.07273
1.07137
1.07009
1.06891
1.06784
1.06689
1.06608
1.06542
1.06491
1.06457
1.06438
1.06435
1.06446
1.0647
1.06507
1.06553
1.06607
1.06666
1.06728
1.06789
1.06848
1.06902
1.06948
1.06985
1.0701
1.07023
1.12326
1.12347
1.12389
1.12453
1.12538
1.12644
1.12771
1.1292
1.1309
1.13281
1.13494
1.13728
1.13984
1.14262
1.14563
1.14886
1.15234
1.15605
1.16002
1.16425
1.16873
1.17348
1.17849
1.18375
1.18924
1.19494
1.20083
1.20688
1.21303
1.21926
1.2255
1.23172
1.23786
1.24387
1.24969
1.25529
1.26061
1.26562
1.27027
1.27453
1.27837
1.28175
1.28466
1.28708
1.28899
1.29037
1.29121
1.29151
1.29126
1.29047
1.28912
1.28723
1.2848
1.28185
1.27837
1.2744
1.26995
1.26505
1.25972
1.254
1.24792
1.24153
1.23486
1.22798
1.22094
1.21379
1.20659
1.19941
1.19232
1.18536
1.17861
1.17211
1.16592
1.16007
1.15459
1.14951
1.14482
1.14054
1.13665
1.13314
1.12996
1.1271
1.12451
1.12215
1.11998
1.11798
1.1161
1.11432
1.11261
1.11097
1.10938
1.10784
1.10634
1.1049
1.10352
1.1022
1.10097
1.09983
1.0988
1.09788
1.09709
1.09643
1.09591
1.09553
1.09529
1.09519
1.09521
1.09536
1.0956
1.09593
1.09634
1.09679
1.09726
1.09774
1.0982
1.09862
1.09899
1.09927
1.09947
1.09958
1.1552
1.15541
1.15581
1.15643
1.15725
1.15827
1.1595
1.16094
1.16258
1.16442
1.16648
1.16874
1.17121
1.17389
1.17679
1.1799
1.18324
1.18681
1.19061
1.19464
1.19891
1.2034
1.20813
1.21307
1.21822
1.22354
1.22902
1.23463
1.24033
1.24607
1.25183
1.25755
1.2632
1.26872
1.27407
1.2792
1.28409
1.28868
1.29295
1.29685
1.30037
1.30347
1.30614
1.30834
1.31008
1.31133
1.31208
1.31234
1.31208
1.31131
1.31004
1.30826
1.30599
1.30323
1.29999
1.29629
1.29216
1.28761
1.28267
1.27737
1.27175
1.26584
1.25968
1.25333
1.24684
1.24024
1.2336
1.22697
1.22041
1.21397
1.2077
1.20165
1.19585
1.19035
1.18517
1.18032
1.17582
1.17167
1.16786
1.16438
1.1612
1.1583
1.15565
1.15322
1.15097
1.14889
1.14694
1.14509
1.14334
1.14166
1.14005
1.13851
1.13702
1.1356
1.13424
1.13295
1.13175
1.13065
1.12964
1.12874
1.12796
1.1273
1.12676
1.12635
1.12607
1.1259
1.12585
1.1259
1.12605
1.12627
1.12656
1.12689
1.12724
1.12761
1.12796
1.12829
1.12857
1.12879
1.12895
1.12903
1.18694
1.18714
1.18753
1.18812
1.18891
1.1899
1.19108
1.19247
1.19405
1.19583
1.1978
1.19998
1.20236
1.20494
1.20773
1.21072
1.21392
1.21733
1.22096
1.2248
1.22884
1.2331
1.23756
1.2422
1.24702
1.25199
1.25709
1.26229
1.26757
1.27288
1.2782
1.28347
1.28866
1.29374
1.29865
1.30337
1.30785
1.31207
1.31598
1.31956
1.32279
1.32563
1.32806
1.33008
1.33166
1.33279
1.33346
1.33367
1.3334
1.33267
1.33146
1.32979
1.32766
1.32508
1.32206
1.31862
1.31478
1.31055
1.30597
1.30106
1.29586
1.29039
1.2847
1.27884
1.27283
1.26674
1.2606
1.25447
1.24839
1.24241
1.23658
1.23093
1.22549
1.22031
1.21541
1.21079
1.20647
1.20246
1.19874
1.19531
1.19215
1.18925
1.18657
1.1841
1.1818
1.17967
1.17767
1.17578
1.17399
1.17229
1.17067
1.16911
1.16763
1.16622
1.16488
1.16362
1.16245
1.16136
1.16037
1.15949
1.15871
1.15804
1.15749
1.15705
1.15672
1.1565
1.15638
1.15636
1.15642
1.15655
1.15673
1.15696
1.15722
1.15748
1.15775
1.15799
1.1582
1.15837
1.15849
1.15855
1.21848
1.21867
1.21905
1.21962
1.22038
1.22133
1.22247
1.2238
1.22532
1.22703
1.22893
1.23103
1.23331
1.23579
1.23846
1.24133
1.24439
1.24764
1.25109
1.25474
1.25858
1.2626
1.26679
1.27115
1.27566
1.2803
1.28505
1.28989
1.29478
1.29969
1.3046
1.30946
1.31424
1.31891
1.32343
1.32777
1.33189
1.33576
1.33935
1.34263
1.34559
1.34819
1.35041
1.35225
1.35369
1.35471
1.3553
1.35547
1.3552
1.35449
1.35335
1.35178
1.34978
1.34737
1.34456
1.34135
1.33778
1.33385
1.3296
1.32505
1.32023
1.31517
1.3099
1.30447
1.29892
1.29328
1.28759
1.28191
1.27627
1.27071
1.26527
1.25998
1.25489
1.25
1.24535
1.24096
1.23682
1.23294
1.22933
1.22597
1.22286
1.21997
1.21729
1.2148
1.21248
1.21031
1.20828
1.20637
1.20455
1.20284
1.2012
1.19965
1.19817
1.19677
1.19545
1.19421
1.19305
1.19198
1.191
1.19013
1.18935
1.18867
1.1881
1.18763
1.18727
1.187
1.18682
1.18673
1.18671
1.18676
1.18686
1.18701
1.18718
1.18736
1.18755
1.18773
1.18789
1.18801
1.1881
1.18814
1.24983
1.25001
1.25038
1.25092
1.25166
1.25257
1.25367
1.25494
1.25641
1.25805
1.25987
1.26188
1.26407
1.26644
1.269
1.27174
1.27466
1.27776
1.28104
1.2845
1.28812
1.29192
1.29586
1.29995
1.30418
1.30851
1.31293
1.31742
1.32196
1.32651
1.33104
1.33553
1.33994
1.34424
1.3484
1.35239
1.35617
1.35973
1.36302
1.36603
1.36874
1.37112
1.37315
1.37483
1.37613
1.37705
1.37758
1.3777
1.37743
1.37675
1.37567
1.37419
1.37232
1.37007
1.36744
1.36446
1.36113
1.35748
1.35353
1.34931
1.34484
1.34015
1.33527
1.33024
1.32509
1.31986
1.31459
1.30931
1.30406
1.29888
1.2938
1.28885
1.28406
1.27946
1.27505
1.27087
1.2669
1.26317
1.25967
1.25639
1.25333
1.25048
1.24781
1.24533
1.243
1.24082
1.23878
1.23685
1.23502
1.2333
1.23166
1.23011
1.22864
1.22725
1.22594
1.22471
1.22357
1.22251
1.22154
1.22066
1.21988
1.2192
1.21861
1.21811
1.21771
1.2174
1.21718
1.21703
1.21695
1.21693
1.21696
1.21703
1.21713
1.21724
1.21737
1.21749
1.2176
1.21768
1.21775
1.21778
1.28099
1.28117
1.28152
1.28205
1.28275
1.28363
1.28468
1.2859
1.28731
1.28888
1.29063
1.29255
1.29465
1.29692
1.29936
1.30197
1.30475
1.30769
1.31081
1.31408
1.31751
1.32108
1.32479
1.32863
1.33258
1.33662
1.34074
1.34492
1.34913
1.35334
1.35753
1.36168
1.36575
1.36971
1.37354
1.37721
1.38069
1.38395
1.38698
1.38974
1.39222
1.39439
1.39625
1.39778
1.39896
1.39979
1.40025
1.40034
1.40006
1.39941
1.39839
1.39699
1.39524
1.39313
1.39068
1.3879
1.3848
1.38141
1.37774
1.37382
1.36967
1.36531
1.36079
1.35612
1.35134
1.34648
1.34158
1.33667
1.33179
1.32695
1.3222
1.31756
1.31306
1.30871
1.30453
1.30055
1.29676
1.29317
1.28978
1.28659
1.2836
1.28079
1.27816
1.2757
1.27338
1.2712
1.26916
1.26722
1.2654
1.26367
1.26204
1.26049
1.25903
1.25764
1.25634
1.25513
1.25399
1.25294
1.25198
1.25111
1.25032
1.24963
1.24902
1.2485
1.24807
1.24772
1.24745
1.24725
1.24712
1.24704
1.24701
1.24702
1.24706
1.24711
1.24718
1.24726
1.24733
1.24738
1.24742
1.24745
1.31199
1.31215
1.31249
1.313
1.31367
1.31451
1.31552
1.31669
1.31803
1.31954
1.32121
1.32305
1.32505
1.32722
1.32954
1.33203
1.33467
1.33747
1.34041
1.34351
1.34674
1.35011
1.35359
1.35719
1.36088
1.36466
1.3685
1.37238
1.37629
1.38019
1.38407
1.3879
1.39166
1.39531
1.39884
1.40222
1.40542
1.40842
1.41119
1.41373
1.416
1.41799
1.41969
1.42108
1.42214
1.42288
1.42329
1.42335
1.42307
1.42244
1.42147
1.42016
1.41851
1.41654
1.41425
1.41166
1.40877
1.40562
1.4022
1.39856
1.3947
1.39065
1.38645
1.38211
1.37767
1.37315
1.36859
1.36402
1.35946
1.35494
1.35049
1.34614
1.34189
1.33779
1.33383
1.33003
1.32641
1.32296
1.31969
1.3166
1.31369
1.31094
1.30835
1.30591
1.30362
1.30146
1.29942
1.29749
1.29567
1.29395
1.29232
1.29078
1.28933
1.28796
1.28667
1.28546
1.28434
1.28329
1.28233
1.28146
1.28067
1.27997
1.27935
1.27881
1.27835
1.27797
1.27766
1.27741
1.27723
1.2771
1.27702
1.27698
1.27696
1.27697
1.277
1.27703
1.27707
1.2771
1.27712
1.27713
1.34281
1.34297
1.34329
1.34377
1.34442
1.34522
1.34619
1.34731
1.34859
1.35003
1.35163
1.35338
1.35529
1.35735
1.35957
1.36193
1.36444
1.36709
1.36988
1.3728
1.37584
1.37901
1.38228
1.38565
1.38911
1.39263
1.39621
1.39982
1.40345
1.40707
1.41066
1.4142
1.41767
1.42104
1.42429
1.4274
1.43035
1.4331
1.43565
1.43798
1.44006
1.44188
1.44343
1.44469
1.44566
1.44632
1.44667
1.4467
1.44642
1.44582
1.4449
1.44366
1.44212
1.44027
1.43813
1.43571
1.43302
1.43007
1.4269
1.4235
1.41991
1.41615
1.41224
1.40821
1.40407
1.39987
1.39562
1.39135
1.38709
1.38286
1.37869
1.37459
1.3706
1.36671
1.36296
1.35935
1.35589
1.35258
1.34943
1.34644
1.3436
1.34092
1.33838
1.33599
1.33372
1.33159
1.32957
1.32766
1.32585
1.32414
1.32252
1.32099
1.31955
1.31819
1.31691
1.31571
1.31459
1.31356
1.3126
1.31173
1.31094
1.31022
1.30959
1.30903
1.30855
1.30814
1.30779
1.30751
1.30729
1.30712
1.30699
1.30691
1.30685
1.30682
1.30681
1.30681
1.30681
1.30682
1.30683
1.30683
1.37347
1.37362
1.37393
1.37439
1.37501
1.37578
1.3767
1.37777
1.379
1.38037
1.38189
1.38356
1.38538
1.38734
1.38944
1.39168
1.39406
1.39657
1.3992
1.40196
1.40483
1.40781
1.41088
1.41403
1.41726
1.42055
1.42388
1.42724
1.43061
1.43397
1.4373
1.44057
1.44378
1.44689
1.44989
1.45275
1.45546
1.458
1.46034
1.46247
1.46437
1.46604
1.46745
1.4686
1.46947
1.47006
1.47037
1.47038
1.47009
1.46951
1.46864
1.46747
1.46602
1.46429
1.46229
1.46002
1.45751
1.45477
1.45181
1.44865
1.4453
1.4418
1.43816
1.4344
1.43055
1.42663
1.42266
1.41867
1.41469
1.41072
1.40681
1.40296
1.39919
1.39551
1.39195
1.38851
1.38521
1.38203
1.379
1.37611
1.37336
1.37075
1.36828
1.36593
1.3637
1.3616
1.3596
1.35772
1.35593
1.35423
1.35263
1.35112
1.34969
1.34834
1.34707
1.34588
1.34477
1.34374
1.34279
1.34192
1.34112
1.3404
1.33975
1.33918
1.33868
1.33824
1.33787
1.33756
1.3373
1.33709
1.33693
1.3368
1.33671
1.33665
1.3366
1.33657
1.33656
1.33655
1.33654
1.33654
1.40398
1.40412
1.40442
1.40486
1.40545
1.40618
1.40706
1.40808
1.40925
1.41056
1.41201
1.4136
1.41532
1.41719
1.41918
1.4213
1.42355
1.42592
1.42841
1.43101
1.43371
1.4365
1.43939
1.44234
1.44536
1.44843
1.45153
1.45466
1.45779
1.4609
1.46399
1.46702
1.46998
1.47286
1.47562
1.47826
1.48075
1.48308
1.48523
1.48719
1.48893
1.49046
1.49174
1.49278
1.49357
1.4941
1.49436
1.49434
1.49406
1.4935
1.49267
1.49157
1.4902
1.48858
1.4867
1.48459
1.48224
1.47968
1.47692
1.47397
1.47085
1.46759
1.46419
1.46069
1.45709
1.45343
1.44972
1.44599
1.44226
1.43854
1.43486
1.43123
1.42768
1.4242
1.42082
1.41755
1.41439
1.41135
1.40844
1.40565
1.40299
1.40045
1.39804
1.39575
1.39357
1.3915
1.38954
1.38767
1.38591
1.38424
1.38265
1.38116
1.37974
1.37841
1.37715
1.37597
1.37487
1.37385
1.3729
1.37203
1.37123
1.3705
1.36984
1.36926
1.36874
1.36828
1.36788
1.36755
1.36726
1.36702
1.36683
1.36667
1.36655
1.36645
1.36638
1.36633
1.36629
1.36626
1.36625
1.36624
1.43434
1.43448
1.43476
1.43518
1.43574
1.43644
1.43727
1.43825
1.43936
1.4406
1.44198
1.44349
1.44513
1.4469
1.44879
1.4508
1.45292
1.45516
1.45751
1.45995
1.46249
1.46512
1.46782
1.47058
1.47341
1.47627