/*--------------------------------*- C++ -*----------------------------------*\
| =========                 |                                                 |
| \\      /  F ield         | OpenFOAM: The Open Source CFD Toolbox           |
|  \\    /   O peration     | Version:  2406                                  |
|   \\  /    A nd           | Website:  www.openfoam.com                      |
|    \\/     M anipulation  |                                                 |
\*---------------------------------------------------------------------------*/
FoamFile
{
    version     2.0;
    format      ascii;
    arch        "LSB;label=32;scalar=64";
    class       volScalarField;
    location    "6.3";
    object      C;
}
// * * * * * * * * * * * * * * * * * * * * * * * * * * * * * * * * * * * * * //

dimensions      [1 -3 0 0 0 0 0];

internalField   nonuniform List<scalar> 
14400
(
0.257869
0.256411
0.253913
0.250962
0.248125
0.245872
0.244544
0.244356
0.245397
0.247637
0.250917
0.254933
0.259214
0.263103
0.265771
0.266343
0.264315
0.26032
0.255349
0.250349
0.246099
0.243211
0.242169
0.243365
0.247137
0.253794
0.263635
0.276967
0.294113
0.315416
0.341244
0.371975
0.407978
0.449538
0.496642
0.547842
0.590655
0.619664
0.641961
0.661336
0.678083
0.692434
0.704564
0.714613
0.722688
0.72887
0.733221
0.735785
0.736589
0.735645
0.732951
0.728493
0.722237
0.714139
0.704133
0.692135
0.678035
0.661693
0.642933
0.621529
0.597175
0.562512
0.513787
0.462901
0.416562
0.375754
0.340401
0.310169
0.28466
0.26348
0.246262
0.232681
0.222449
0.215326
0.211111
0.209642
0.210796
0.214483
0.22064
0.229224
0.240193
0.253487
0.268997
0.286504
0.305553
0.324986
0.340108
0.34675
0.345981
0.336932
0.323228
0.309066
0.295682
0.283641
0.273229
0.264568
0.257663
0.252432
0.248718
0.246302
0.244917
0.244283
0.244138
0.244304
0.244727
0.245507
0.246869
0.249112
0.252562
0.25753
0.264289
0.273059
0.284001
0.297202
0.312654
0.330208
0.349453
0.369265
0.384774
0.391655
0.266843
0.264958
0.261851
0.258296
0.254955
0.252332
0.250775
0.250499
0.251594
0.254035
0.25767
0.262209
0.267191
0.271934
0.275477
0.276557
0.273938
0.268984
0.263079
0.257297
0.252436
0.249092
0.247727
0.248715
0.252379
0.259017
0.268923
0.282399
0.299763
0.321357
0.347545
0.378699
0.41517
0.457196
0.504637
0.555717
0.596032
0.622972
0.644885
0.663962
0.680481
0.694654
0.706646
0.716587
0.72458
0.7307
0.735009
0.737545
0.738336
0.737394
0.734717
0.730289
0.72408
0.716046
0.706126
0.694237
0.680276
0.664111
0.645577
0.624464
0.600505
0.568336
0.521895
0.470379
0.423423
0.382073
0.346236
0.315573
0.28969
0.26819
0.250708
0.236914
0.226525
0.219298
0.215032
0.21357
0.214788
0.2186
0.224946
0.233783
0.245076
0.25877
0.274757
0.292814
0.312456
0.332421
0.347296
0.353352
0.353221
0.345388
0.3315
0.316814
0.302926
0.290476
0.279759
0.270897
0.263896
0.25867
0.255054
0.252812
0.251647
0.251235
0.251258
0.251484
0.25184
0.252448
0.253587
0.255613
0.258893
0.263766
0.27052
0.279382
0.290516
0.304008
0.319848
0.337866
0.35758
0.377623
0.392074
0.397738
0.285357
0.282407
0.277924
0.273086
0.268711
0.26534
0.263324
0.262872
0.264072
0.266904
0.271234
0.276802
0.28318
0.289692
0.295237
0.297831
0.293541
0.286413
0.278566
0.271221
0.265158
0.260921
0.258923
0.259502
0.262954
0.269559
0.279598
0.293362
0.311165
0.333343
0.360252
0.392251
0.429661
0.472637
0.520662
0.570088
0.605208
0.62949
0.650644
0.669147
0.685224
0.699054
0.710778
0.720511
0.728343
0.734344
0.738567
0.74105
0.741817
0.740879
0.738233
0.733865
0.727749
0.719841
0.710086
0.698411
0.68472
0.668899
0.650801
0.630244
0.606999
0.578614
0.536699
0.484942
0.437111
0.394777
0.357997
0.326483
0.299852
0.277714
0.259702
0.245486
0.234781
0.227347
0.222984
0.221536
0.222885
0.226947
0.233669
0.243013
0.25495
0.269434
0.286363
0.305503
0.326264
0.346889
0.360354
0.365665
0.366227
0.361225
0.347952
0.332299
0.317453
0.304216
0.292908
0.283656
0.276472
0.271269
0.267868
0.266004
0.265326
0.265413
0.265822
0.26619
0.266387
0.266599
0.267238
0.268783
0.271693
0.276356
0.283088
0.292126
0.303633
0.317694
0.33429
0.353216
0.373797
0.393581
0.404847
0.409143
0.314526
0.309308
0.302392
0.295493
0.289534
0.285046
0.282349
0.281634
0.282983
0.286379
0.291708
0.298751
0.30714
0.316267
0.32499
0.329981
0.323102
0.312492
0.301747
0.292139
0.284348
0.278825
0.275912
0.275898
0.279046
0.28561
0.295853
0.310055
0.32852
0.351574
0.37956
0.412811
0.451603
0.496011
0.545118
0.587866
0.616297
0.638952
0.659054
0.676758
0.692215
0.705559
0.716902
0.726336
0.733937
0.739765
0.743866
0.746272
0.747004
0.746071
0.743471
0.739191
0.733207
0.725483
0.715968
0.704599
0.691297
0.675963
0.658482
0.638712
0.616486
0.591479
0.55634
0.506533
0.457775
0.414043
0.375877
0.343097
0.315351
0.292256
0.273449
0.258601
0.247425
0.239682
0.235176
0.233753
0.235301
0.239742
0.247027
0.257126
0.270016
0.28566
0.303961
0.324674
0.347033
0.367262
0.377777
0.382602
0.38376
0.3813
0.371544
0.355301
0.339292
0.324987
0.312841
0.303028
0.295589
0.290446
0.287414
0.286195
0.286362
0.287346
0.288481
0.289126
0.289011
0.288475
0.288217
0.28893
0.29121
0.295516
0.302189
0.311472
0.323516
0.338384
0.356037
0.376198
0.397739
0.414079
0.421412
0.424828
0.354992
0.34574
0.335249
0.325566
0.317548
0.311622
0.308048
0.306991
0.308529
0.312637
0.319208
0.328055
0.338823
0.350797
0.361824
0.36434
0.359749
0.346335
0.33233
0.320025
0.310119
0.30299
0.298921
0.298156
0.300922
0.307448
0.317974
0.332767
0.352118
0.376339
0.405747
0.440609
0.481026
0.526468
0.573386
0.60629
0.629842
0.650966
0.669862
0.686615
0.70132
0.714065
0.724933
0.733993
0.741305
0.746914
0.75086
0.753167
0.753855
0.752929
0.750388
0.746221
0.740407
0.732915
0.723703
0.712721
0.699903
0.685176
0.668453
0.649636
0.628624
0.605331
0.577357
0.535592
0.485654
0.440105
0.400146
0.365707
0.336484
0.312118
0.292252
0.27656
0.264757
0.256605
0.251911
0.250528
0.252347
0.257295
0.265331
0.276428
0.290566
0.3077
0.327706
0.35021
0.373822
0.390803
0.398676
0.403203
0.404822
0.403684
0.398815
0.38539
0.368442
0.352939
0.339774
0.32925
0.321501
0.31648
0.314009
0.313774
0.315276
0.317754
0.320194
0.321364
0.320658
0.318777
0.317032
0.316433
0.317757
0.321522
0.32808
0.337659
0.350379
0.36622
0.385046
0.406183
0.425896
0.436099
0.441267
0.44393
0.394407
0.38893
0.375674
0.363074
0.35279
0.345227
0.340626
0.339164
0.340931
0.345874
0.35385
0.364676
0.377822
0.391611
0.39779
0.397361
0.395727
0.38623
0.369854
0.35484
0.342626
0.33367
0.328252
0.326605
0.328931
0.335433
0.346331
0.361872
0.38233
0.407997
0.439151
0.475946
0.518193
0.564095
0.599807
0.624257
0.64569
0.66521
0.682811
0.698521
0.712383
0.72445
0.734773
0.7434
0.750373
0.755727
0.759491
0.761683
0.762319
0.761402
0.758932
0.754898
0.749284
0.742066
0.73321
0.722677
0.71042
0.696386
0.680516
0.662753
0.643045
0.621361
0.597693
0.566115
0.519849
0.473034
0.431111
0.394686
0.363642
0.337693
0.316504
0.299756
0.287167
0.278505
0.273581
0.272251
0.274414
0.280002
0.288975
0.30131
0.316973
0.335889
0.357832
0.382034
0.404416
0.415994
0.422498
0.426714
0.428641
0.428418
0.426325
0.419505
0.404357
0.388112
0.373909
0.362552
0.354458
0.349636
0.347936
0.349073
0.352538
0.357325
0.362066
0.364195
0.36242
0.358161
0.354142
0.351624
0.351622
0.354647
0.361022
0.370939
0.384454
0.401306
0.421123
0.441891
0.45388
0.459614
0.463624
0.465695
0.428958
0.428259
0.421515
0.407383
0.39516
0.385969
0.380251
0.378323
0.380377
0.386256
0.395645
0.408361
0.422894
0.43082
0.431847
0.431407
0.430198
0.426452
0.413402
0.396498
0.382062
0.371173
0.364265
0.361639
0.363488
0.369995
0.381358
0.3978
0.419573
0.446915
0.480046
0.518774
0.561657
0.597856
0.622924
0.643934
0.66345
0.681373
0.697653
0.712273
0.725242
0.736578
0.746309
0.754461
0.76106
0.766131
0.769692
0.771757
0.772335
0.771429
0.769039
0.765156
0.759767
0.752854
0.744393
0.734357
0.722714
0.70943
0.694474
0.677816
0.659443
0.63936
0.61761
0.593773
0.559687
0.513015
0.469154
0.430472
0.397285
0.369453
0.346682
0.328664
0.31513
0.305853
0.300652
0.29939
0.301969
0.308328
0.318425
0.332226
0.349667
0.370588
0.3945
0.419475
0.435188
0.442876
0.448609
0.452513
0.45461
0.455021
0.453964
0.45172
0.44435
0.430013
0.415286
0.403018
0.394611
0.390074
0.389314
0.392129
0.398172
0.405827
0.413979
0.416873
0.414214
0.406391
0.399594
0.394553
0.392939
0.395066
0.401193
0.411441
0.425838
0.443298
0.462736
0.474689
0.480381
0.484807
0.487922
0.48953
0.463431
0.463293
0.462491
0.45626
0.443994
0.433722
0.426891
0.424417
0.426861
0.433756
0.444043
0.457443
0.464848
0.466487
0.466547
0.46622
0.465424
0.464136
0.458784
0.444366
0.428544
0.41582
0.407331
0.403676
0.405044
0.411603
0.423527
0.441005
0.464254
0.49335
0.528412
0.567769
0.601942
0.6263
0.646207
0.665104
0.682804
0.69918
0.714153
0.727677
0.739732
0.750312
0.759423
0.767073
0.773277
0.778045
0.781389
0.783317
0.783834
0.782942
0.780638
0.776919
0.771773
0.765189
0.757152
0.747644
0.736648
0.724148
0.710131
0.694595
0.677549
0.659028
0.63909
0.617831
0.593821
0.559033
0.514437
0.473462
0.437888
0.407921
0.38333
0.363835
0.349191
0.339191
0.333664
0.332479
0.335546
0.342803
0.354196
0.36967
0.389071
0.412033
0.437208
0.455979
0.465079
0.471525
0.476547
0.480118
0.482266
0.483092
0.482772
0.481548
0.479681
0.473529
0.462874
0.450114
0.441771
0.437628
0.43781
0.442072
0.450548
0.457084
0.460606
0.461751
0.461116
0.458093
0.451958
0.444436
0.441435
0.442634
0.448445
0.458757
0.473728
0.488633
0.498708
0.503685
0.507888
0.511312
0.513726
0.514974
0.498041
0.498059
0.498159
0.498084
0.493974
0.487029
0.479623
0.476581
0.479516
0.48727
0.495389
0.500534
0.501515
0.501596
0.501634
0.501502
0.501143
0.500555
0.499795
0.494355
0.481499
0.467739
0.457678
0.453079
0.45401
0.460685
0.473262
0.491834
0.516616
0.547025
0.582724
0.612444
0.634463
0.652749
0.670499
0.687472
0.703482
0.718391
0.732102
0.744551
0.755697
0.765516
0.773996
0.781133
0.786928
0.791383
0.794502
0.796288
0.796742
0.795865
0.793655
0.790107
0.785218
0.778978
0.771381
0.76242
0.752087
0.740382
0.727309
0.712882
0.697133
0.68011
0.661892
0.642586
0.622336
0.598865
0.565402
0.523664
0.485796
0.453607
0.42703
0.405869
0.38995
0.379118
0.373213
0.372108
0.375722
0.383991
0.396814
0.414094
0.435381
0.459405
0.479388
0.489698
0.496157
0.501598
0.505938
0.509146
0.511243
0.51231
0.512486
0.511966
0.511002
0.509905
0.50645
0.500642
0.49431
0.490728
0.491523
0.494583
0.497372
0.498586
0.497989
0.497961
0.498807
0.500183
0.499553
0.497531
0.495364
0.495832
0.501235
0.510131
0.518941
0.525677
0.529361
0.53294
0.536176
0.538824
0.540697
0.541665
0.532633
0.532743
0.533015
0.53356
0.534541
0.533581
0.531643
0.530813
0.532272
0.535034
0.537117
0.536785
0.536668
0.536747
0.536889
0.537013
0.53709
0.537141
0.537249
0.53754
0.533977
0.525763
0.514844
0.509903
0.510523
0.517394
0.530687
0.55009
0.575957
0.605084
0.62896
0.64722
0.663527
0.679734
0.695568
0.710803
0.72526
0.738798
0.751313
0.762728
0.772989
0.782059
0.789913
0.796536
0.801919
0.806058
0.808948
0.81059
0.810981
0.810121
0.808008
0.804639
0.800012
0.794124
0.786976
0.778566
0.768899
0.757984
0.745839
0.732493
0.717988
0.702389
0.685782
0.668284
0.650042
0.631246
0.609563
0.579397
0.540831
0.506865
0.478321
0.455356
0.438012
0.426255
0.419919
0.41888
0.423071
0.432437
0.446699
0.465728
0.487884
0.506772
0.517099
0.522987
0.528253
0.532772
0.536462
0.539284
0.54125
0.542418
0.542894
0.542828
0.54241
0.541866
0.541451
0.54087
0.53877
0.536969
0.536391
0.536104
0.534575
0.533436
0.532951
0.533069
0.533847
0.535257
0.537411
0.539866
0.541184
0.543193
0.546865
0.551209
0.55434
0.556932
0.559755
0.562537
0.565053
0.567113
0.568571
0.569325
0.567114
0.567265
0.567598
0.568177
0.569082
0.570379
0.571908
0.572784
0.572972
0.572403
0.571834
0.571602
0.571627
0.571836
0.572163
0.572572
0.57306
0.573672
0.5745
0.575702
0.577526
0.57754
0.575319
0.572723
0.573289
0.580438
0.594365
0.61293
0.632379
0.649939
0.664129
0.678271
0.692688
0.707091
0.721235
0.734913
0.747957
0.76023
0.771625
0.78206
0.791472
0.799817
0.80706
0.813178
0.818155
0.821979
0.824644
0.826142
0.826472
0.825631
0.823616
0.820428
0.816066
0.810532
0.803831
0.795969
0.786958
0.776816
0.765571
0.753261
0.739938
0.725675
0.710564
0.694724
0.678303
0.661482
0.644477
0.6258
0.600321
0.567172
0.537418
0.512689
0.493842
0.481144
0.474346
0.473315
0.478019
0.488513
0.503749
0.52349
0.538726
0.547468
0.552298
0.556895
0.561097
0.564777
0.567852
0.570278
0.572055
0.573219
0.573846
0.574043
0.573943
0.573693
0.573421
0.573178
0.572952
0.572322
0.571008
0.56954
0.56837
0.567601
0.567309
0.567518
0.568255
0.569524
0.571342
0.573664
0.576466
0.579279
0.581571
0.583548
0.585665
0.587896
0.590188
0.592401
0.594385
0.596004
0.597148
0.59774
0.601446
0.601604
0.601935
0.602465
0.603213
0.604155
0.605149
0.605898
0.606185
0.60616
0.606093
0.606162
0.606402
0.606805
0.607356
0.60805
0.608909
0.609986
0.611376
0.613226
0.615742
0.619206
0.623378
0.626425
0.630931
0.638682
0.649471
0.661647
0.67326
0.684462
0.696491
0.709046
0.721864
0.734709
0.747367
0.759657
0.771424
0.782539
0.792896
0.802413
0.811024
0.818676
0.825332
0.830961
0.835543
0.839061
0.841504
0.842864
0.843135
0.842313
0.840398
0.83739
0.833292
0.828108
0.821847
0.814521
0.806147
0.796752
0.786368
0.775041
0.76283
0.749809
0.736075
0.721746
0.706963
0.6919
0.676757
0.661774
0.646612
0.626668
0.602625
0.577222
0.557306
0.543963
0.536727
0.535555
0.54032
0.551604
0.565371
0.575275
0.580871
0.584209
0.587726
0.5912
0.594461
0.597387
0.59989
0.601923
0.603472
0.604557
0.605226
0.605554
0.605628
0.605539
0.605363
0.605127
0.6048
0.604247
0.603419
0.602516
0.601765
0.601289
0.601167
0.60144
0.60213
0.603243
0.604767
0.606654
0.60881
0.611013
0.613056
0.614966
0.616875
0.618798
0.620699
0.622494
0.624083
0.625371
0.626278
0.626746
0.635619
0.635769
0.636073
0.636537
0.637151
0.637876
0.638621
0.639249
0.639678
0.63996
0.640216
0.64055
0.641013
0.641627
0.642405
0.643364
0.644538
0.645986
0.647794
0.650083
0.653007
0.656745
0.661456
0.667349
0.674182
0.681544
0.689395
0.697907
0.707351
0.71753
0.728328
0.739556
0.751015
0.762511
0.773868
0.784925
0.795543
0.805604
0.815009
0.823674
0.831532
0.838532
0.844629
0.849792
0.853995
0.857218
0.859448
0.860674
0.860889
0.860089
0.858273
0.855444
0.851604
0.846761
0.840928
0.834119
0.826359
0.817676
0.808109
0.797706
0.786529
0.774657
0.762182
0.74922
0.735905
0.722396
0.708879
0.695563
0.682689
0.670528
0.656765
0.641211
0.625677
0.612981
0.605447
0.603829
0.606713
0.61121
0.615396
0.617057
0.618632
0.620767
0.623197
0.625716
0.628163
0.630418
0.632399
0.634051
0.635353
0.636309
0.636949
0.637319
0.637474
0.637474
0.637365
0.637167
0.636872
0.636448
0.635905
0.635342
0.634883
0.634624
0.63463
0.634943
0.635583
0.636551
0.63783
0.639375
0.641106
0.642906
0.644672
0.646386
0.64807
0.649724
0.651316
0.652792
0.654082
0.655119
0.655846
0.65622
0.669644
0.66978
0.670053
0.670457
0.670977
0.67158
0.672209
0.6728
0.673318
0.673785
0.674261
0.674809
0.675473
0.676286
0.677273
0.678462
0.679895
0.681626
0.683731
0.686305
0.689459
0.69331
0.697955
0.703453
0.709712
0.716576
0.723996
0.73202
0.740706
0.749978
0.759734
0.769835
0.780127
0.790454
0.800668
0.810631
0.82022
0.829327
0.83786
0.84574
0.852901
0.859289
0.864862
0.869584
0.873426
0.876369
0.878396
0.879495
0.879658
0.878881
0.877163
0.874507
0.870917
0.866405
0.860983
0.854671
0.847494
0.839484
0.830684
0.821143
0.810925
0.800106
0.788778
0.777047
0.76504
0.752902
0.740797
0.72891
0.717444
0.706619
0.696665
0.687793
0.678602
0.669962
0.663477
0.65986
0.658302
0.656769
0.655388
0.655198
0.655831
0.65703
0.658581
0.660303
0.662055
0.663726
0.665235
0.666529
0.667579
0.668379
0.668943
0.669297
0.669476
0.669519
0.669455
0.669304
0.669074
0.668767
0.66841
0.668063
0.667802
0.667692
0.667787
0.66812
0.668707
0.669549
0.670628
0.671909
0.673334
0.674832
0.676343
0.677834
0.679295
0.680711
0.682051
0.683275
0.684333
0.685177
0.685766
0.686068
0.703531
0.703655
0.703901
0.704261
0.704721
0.705256
0.705835
0.706424
0.707008
0.707601
0.708235
0.708951
0.709786
0.710771
0.711937
0.713318
0.714952
0.716892
0.719199
0.721947
0.725215
0.72908
0.7336
0.738798
0.744636
0.751047
0.757994
0.765472
0.773473
0.781942
0.790795
0.799923
0.809204
0.818511
0.827719
0.836711
0.845379
0.853625
0.861365
0.868525
0.875042
0.880863
0.885946
0.890253
0.893758
0.896436
0.898272
0.899251
0.899367
0.898614
0.896991
0.894503
0.891154
0.886958
0.881928
0.876087
0.869461
0.862084
0.854
0.845258
0.835922
0.826065
0.815774
0.80515
0.794307
0.783375
0.772498
0.761836
0.751556
0.741832
0.732833
0.724704
0.717513
0.711337
0.705975
0.701354
0.697607
0.694976
0.693296
0.692518
0.692462
0.692943
0.693792
0.694861
0.696029
0.697195
0.698287
0.69925
0.700055
0.700686
0.701146
0.701449
0.701615
0.701669
0.701632
0.701521
0.701351
0.701137
0.700906
0.7007
0.700568
0.700557
0.700707
0.701042
0.701576
0.702309
0.703225
0.704299
0.705488
0.706747
0.708032
0.709313
0.710567
0.711773
0.712903
0.713923
0.714798
0.715491
0.715973
0.716219
0.737294
0.737408
0.737634
0.737965
0.738389
0.73889
0.73945
0.740052
0.740691
0.741375
0.742127
0.742974
0.743947
0.745075
0.746388
0.747919
0.749705
0.75179
0.754226
0.757068
0.760374
0.764195
0.768567
0.773503
0.778986
0.784982
0.791462
0.798402
0.805772
0.813523
0.821581
0.829858
0.838255
0.846666
0.854987
0.863116
0.870959
0.878429
0.88545
0.891952
0.897878
0.903176
0.907804
0.911726
0.914915
0.917346
0.919003
0.919872
0.919944
0.919216
0.917686
0.915358
0.91224
0.908343
0.903685
0.898287
0.892178
0.885392
0.877972
0.869968
0.86144
0.852459
0.843105
0.833471
0.823662
0.813791
0.803986
0.794379
0.785111
0.776319
0.768133
0.760657
0.753957
0.748066
0.742937
0.738552
0.734962
0.732228
0.730303
0.729117
0.728556
0.728487
0.728782
0.729322
0.730003
0.73074
0.731466
0.732131
0.732703
0.733164
0.733507
0.733738
0.733867
0.73391
0.733882
0.733797
0.733673
0.733525
0.733377
0.733261
0.733212
0.733262
0.73344
0.733765
0.734247
0.734884
0.735666
0.736572
0.737573
0.738635
0.739725
0.740818
0.741887
0.742911
0.743863
0.744717
0.745445
0.746018
0.746414
0.746617
0.770943
0.77105
0.771263
0.771575
0.771979
0.772465
0.773022
0.773643
0.774327
0.775082
0.775923
0.776872
0.777954
0.779195
0.780621
0.782265
0.784158
0.786338
0.788847
0.791726
0.795018
0.798758
0.802969
0.807661
0.812822
0.818434
0.824469
0.8309
0.837692
0.844795
0.852148
0.859674
0.867291
0.874911
0.882445
0.889806
0.896911
0.903683
0.910052
0.915957
0.921341
0.926158
0.930367
0.933933
0.936829
0.939031
0.940522
0.941288
0.941322
0.940619
0.939178
0.937004
0.934104
0.930491
0.926182
0.921199
0.915572
0.909334
0.902528
0.895201
0.887411
0.879224
0.870716
0.861969
0.853077
0.844143
0.835274
0.826585
0.81819
0.810202
0.802721
0.795833
0.789593
0.784034
0.779154
0.774957
0.771459
0.768673
0.766569
0.765091
0.764157
0.763669
0.763528
0.763641
0.76392
0.764295
0.764705
0.765106
0.765464
0.765759
0.765981
0.766128
0.766206
0.766222
0.766187
0.766114
0.766017
0.765911
0.765817
0.765756
0.765756
0.765839
0.766026
0.766331
0.766761
0.767315
0.767983
0.768751
0.769596
0.770493
0.771418
0.772345
0.773253
0.77412
0.774922
0.775638
0.776245
0.776721
0.777049
0.777217
0.804485
0.804588
0.804792
0.805094
0.805488
0.805969
0.806531
0.807172
0.807893
0.808702
0.80961
0.810637
0.811802
0.813127
0.814638
0.816361
0.818323
0.820558
0.823097
0.825972
0.829215
0.83285
0.836892
0.841348
0.846209
0.851461
0.857081
0.863039
0.8693
0.875819
0.88254
0.889399
0.896325
0.903243
0.910078
0.916753
0.923196
0.929339
0.93512
0.940481
0.945373
0.949749
0.953573
0.956811
0.959436
0.961427
0.962765
0.963438
0.963438
0.96276
0.961404
0.959375
0.956681
0.953334
0.949351
0.944757
0.939577
0.933846
0.927604
0.920897
0.913779
0.906312
0.898564
0.890611
0.882536
0.874429
0.866383
0.858496
0.850863
0.843576
0.836719
0.830359
0.82455
0.819321
0.814689
0.810661
0.807245
0.804436
0.802209
0.800522
0.799311
0.798503
0.798022
0.797792
0.797743
0.797815
0.797955
0.798123
0.798287
0.798427
0.798529
0.798589
0.798606
0.798584
0.798531
0.798456
0.79837
0.798287
0.798221
0.798192
0.798217
0.798313
0.798495
0.798773
0.799152
0.799631
0.800201
0.800852
0.801567
0.802325
0.803107
0.803892
0.80466
0.805392
0.806068
0.806669
0.807176
0.807573
0.807845
0.807984
0.837923
0.838023
0.838223
0.83852
0.83891
0.839392
0.839962
0.840621
0.841372
0.842221
0.84318
0.844264
0.845489
0.846875
0.848443
0.850216
0.852217
0.854473
0.85701
0.859851
0.86302
0.866533
0.870402
0.874628
0.879206
0.884121
0.889353
0.894874
0.90065
0.90664
0.912794
0.919056
0.925366
0.931659
0.937869
0.943931
0.949781
0.955358
0.960607
0.965476
0.969918
0.973893
0.977365
0.980302
0.982679
0.984475
0.985673
0.986261
0.98623
0.985578
0.984304
0.982411
0.97991
0.976812
0.973134
0.968898
0.964133
0.958868
0.953144
0.947003
0.940497
0.93368
0.926617
0.919375
0.912027
0.904654
0.897335
0.890152
0.883189
0.876521
0.870217
0.864337
0.858925
0.854012
0.849619
0.845755
0.842422
0.839615
0.837311
0.835476
0.834061
0.833011
0.832264
0.831762
0.831446
0.831266
0.831177
0.831143
0.831135
0.831132
0.83112
0.831092
0.831044
0.830978
0.830897
0.830809
0.830721
0.830644
0.83059
0.830573
0.830606
0.8307
0.830867
0.831114
0.831444
0.831854
0.832339
0.83289
0.833494
0.834134
0.834793
0.835456
0.836104
0.836721
0.837289
0.837793
0.838217
0.838548
0.838775
0.838891
0.871261
0.87136
0.871557
0.871852
0.872241
0.872725
0.873304
0.873978
0.874751
0.875631
0.876626
0.87775
0.879016
0.880441
0.882043
0.883842
0.885857
0.888109
0.890618
0.893403
0.89648
0.899861
0.903554
0.907557
0.911866
0.916465
0.921337
0.926454
0.931787
0.937296
0.942939
0.948666
0.954424
0.960158
0.965809
0.971321
0.976638
0.981705
0.986474
0.990897
0.994932
0.998541
1.00169
1.00435
1.0065
1.00812
1.00919
1.0097
1.00965
1.00902
1.00782
1.00606
1.00374
1.00087
0.997474
0.993571
0.989186
0.984351
0.979101
0.973476
0.967524
0.961296
0.954849
0.948243
0.941545
0.934823
0.928148
0.92159
0.91522
0.909101
0.903293
0.897846
0.8928
0.888185
0.88402
0.880316
0.877075
0.874291
0.871945
0.870009
0.868447
0.867214
0.866263
0.865545
0.865013
0.864626
0.864344
0.864137
0.863977
0.863845
0.863727
0.863614
0.8635
0.863385
0.863271
0.86316
0.86306
0.862978
0.862923
0.862904
0.862932
0.863015
0.86316
0.863373
0.863654
0.864002
0.864412
0.864876
0.865384
0.865922
0.866477
0.867034
0.867579
0.868097
0.868574
0.868996
0.869351
0.869627
0.869817
0.869913
0.9045
0.904598
0.904794
0.905088
0.905478
0.905965
0.90655
0.907235
0.908025
0.908925
0.909944
0.911093
0.912383
0.91383
0.915447
0.917252
0.919259
0.921486
0.923949
0.926662
0.929635
0.932878
0.936395
0.940182
0.944234
0.948537
0.953074
0.95782
0.962746
0.967819
0.973
0.978245
0.983507
0.988739
0.993888
0.998907
1.00374
1.00835
1.01269
1.01671
1.02037
1.02365
1.0265
1.02892
1.03086
1.03231
1.03327
1.03371
1.03363
1.03303
1.0319
1.03026
1.02811
1.02546
1.02232
1.01872
1.01469
1.01025
1.00543
1.00028
0.994828
0.989131
0.983239
0.977204
0.971087
0.964946
0.958844
0.952842
0.946998
0.94137
0.936007
0.930953
0.926244
0.921907
0.91796
0.914414
0.911272
0.908528
0.906168
0.904169
0.902504
0.901136
0.900028
0.899141
0.898437
0.89788
0.897438
0.897083
0.896792
0.896545
0.89633
0.896137
0.895958
0.895793
0.89564
0.895501
0.895382
0.895285
0.895219
0.895189
0.895204
0.895268
0.895386
0.895563
0.895797
0.896088
0.896431
0.896819
0.897243
0.897694
0.898158
0.898625
0.899081
0.899515
0.899914
0.900267
0.900563
0.900794
0.900951
0.901032
0.937641
0.937739
0.937934
0.938227
0.938618
0.939107
0.939696
0.940388
0.941188
0.942099
0.943132
0.944293
0.945595
0.947048
0.948664
0.950458
0.952442
0.954629
0.957031
0.95966
0.962522
0.965623
0.968964
0.972542
0.97635
0.980376
0.984601
0.989004
0.993559
0.998235
1.003
1.00781
1.01262
1.0174
1.0221
1.02667
1.03108
1.03527
1.03921
1.04287
1.0462
1.04917
1.05176
1.05395
1.0557
1.05701
1.05786
1.05824
1.05814
1.05756
1.05651
1.05497
1.05298
1.05052
1.04763
1.04432
1.0406
1.03652
1.0321
1.02737
1.02238
1.01716
1.01177
1.00625
1.00065
0.995031
0.989441
0.983934
0.978562
0.973374
0.968412
0.963716
0.959317
0.955239
0.951499
0.948109
0.945071
0.942381
0.940029
0.937997
0.936262
0.934797
0.933572
0.932554
0.931713
0.931019
0.930445
0.929965
0.929561
0.929214
0.928911
0.928643
0.928404
0.928188
0.927995
0.927824
0.927679
0.927562
0.927478
0.927431
0.927425
0.927466
0.927555
0.927694
0.927884
0.928122
0.928404
0.928725
0.929077
0.929451
0.929837
0.930226
0.930606
0.930968
0.9313
0.931594
0.931841
0.932032
0.932164
0.932231
0.970685
0.970782
0.970977
0.971268
0.971659
0.972148
0.972739
0.973434
0.974237
0.975154
0.97619
0.977354
0.978655
0.980102
0.981704
0.983474
0.985421
0.987556
0.989888
0.992424
0.995169
0.998126
1.0013
1.00467
1.00825
1.01201
1.01595
1.02004
1.02425
1.02856
1.03295
1.03736
1.04177
1.04614
1.05044
1.05461
1.05862
1.06244
1.06603
1.06935
1.07238
1.07508
1.07743
1.07941
1.08099
1.08217
1.08292
1.08324
1.08313
1.08257
1.08158
1.08016
1.0783
1.07603
1.07336
1.07031
1.06689
1.06313
1.05907
1.05473
1.05015
1.04537
1.04043
1.03537
1.03024
1.02509
1.01995
1.01489
1.00994
1.00515
1.00055
0.996182
0.992068
0.988232
0.984689
0.981451
0.978521
0.975897
0.97357
0.971528
0.969751
0.968219
0.966908
0.965791
0.964843
0.964039
0.963356
0.962773
0.962272
0.961838
0.961458
0.961122
0.960825
0.96056
0.960326
0.960122
0.959948
0.959807
0.9597
0.95963
0.959601
0.959615
0.959673
0.959775
0.959922
0.960112
0.960339
0.9606
0.960888
0.961195
0.961514
0.961835
0.96215
0.962449
0.962725
0.962969
0.963173
0.963332
0.963441
0.963496
1.00363
1.00373
1.00392
1.00421
1.0046
1.00509
1.00568
1.00637
1.00717
1.00809
1.00912
1.01028
1.01157
1.013
1.01458
1.01631
1.01821
1.02029
1.02254
1.02498
1.0276
1.03042
1.03342
1.0366
1.03996
1.04348
1.04715
1.05094
1.05484
1.05883
1.06286
1.06692
1.07096
1.07497
1.07889
1.0827
1.08637
1.08985
1.09311
1.09614
1.09889
1.10134
1.10347
1.10526
1.10669
1.10774
1.10841
1.10868
1.10855
1.10802
1.10709
1.10576
1.10404
1.10194
1.09947
1.09666
1.09351
1.09005
1.08632
1.08233
1.07813
1.07374
1.0692
1.06456
1.05985
1.05512
1.0504
1.04573
1.04117
1.03673
1.03246
1.02839
1.02454
1.02093
1.01758
1.01449
1.01167
1.00911
1.00683
1.00479
1.003
1.00142
1.00005
0.998858
0.997828
0.996937
0.996167
0.995499
0.994917
0.994408
0.993959
0.993563
0.993212
0.992902
0.992628
0.992389
0.992186
0.992017
0.991884
0.99179
0.991734
0.991719
0.991745
0.991812
0.991919
0.992063
0.992241
0.992448
0.99268
0.992929
0.993188
0.993451
0.993709
0.993955
0.994182
0.994382
0.994551
0.994682
0.994771
0.994817
1.03648
1.03658
1.03677
1.03706
1.03744
1.03793
1.03851
1.0392
1.04
1.0409
1.04193
1.04307
1.04434
1.04575
1.04729
1.04899
1.05083
1.05284
1.05501
1.05734
1.05985
1.06252
1.06536
1.06836
1.07151
1.0748
1.07822
1.08174
1.08536
1.08903
1.09275
1.09648
1.1002
1.10387
1.10746
1.11094
1.11429
1.11746
1.12044
1.12319
1.1257
1.12792
1.12985
1.13147
1.13276
1.1337
1.13429
1.13452
1.13438
1.13388
1.133
1.13176
1.13016
1.12822
1.12594
1.12334
1.12044
1.11726
1.11382
1.11015
1.10629
1.10226
1.09809
1.09382
1.08949
1.08513
1.08078
1.07648
1.07226
1.06815
1.06418
1.06038
1.05677
1.05337
1.0502
1.04725
1.04454
1.04207
1.03983
1.03782
1.03602
1.03442
1.03301
1.03177
1.03067
1.02972
1.02888
1.02814
1.02749
1.02692
1.02641
1.02596
1.02556
1.02521
1.02489
1.02462
1.02439
1.02419
1.02403
1.02391
1.02383
1.02378
1.02378
1.02381
1.02388
1.02398
1.02411
1.02427
1.02445
1.02465
1.02486
1.02507
1.02528
1.02548
1.02566
1.02583
1.02597
1.02607
1.02615
1.02618
1.06924
1.06933
1.06952
1.0698
1.07019
1.07066
1.07124
1.07192
1.07271
1.0736
1.07461
1.07574
1.07698
1.07836
1.07986
1.08151
1.08329
1.08523
1.08731
1.08954
1.09193
1.09446
1.09714
1.09997
1.10292
1.106
1.10918
1.11245
1.1158
1.1192
1.12263
1.12607
1.12948
1.13285
1.13614
1.13932
1.14238
1.14528
1.14799
1.1505
1.15278
1.1548
1.15655
1.15802
1.15918
1.16002
1.16054
1.16073
1.16058
1.1601
1.15927
1.15812
1.15663
1.15483
1.15272
1.15032
1.14764
1.14471
1.14155
1.13817
1.13462
1.13091
1.12707
1.12314
1.11915
1.11514
1.11112
1.10715
1.10324
1.09942
1.09573
1.09218
1.0888
1.08559
1.08258
1.07978
1.07718
1.07479
1.07261
1.07063
1.06884
1.06723
1.0658
1.06452
1.06338
1.06238
1.06148
1.06069
1.05998
1.05936
1.0588
1.0583
1.05786
1.05747
1.05712
1.05682
1.05655
1.05633
1.05614
1.05599
1.05588
1.05581
1.05577
1.05577
1.0558
1.05587
1.05596
1.05608
1.05621
1.05636
1.05653
1.05669
1.05686
1.05702
1.05717
1.0573
1.05741
1.0575
1.05756
1.05759
1.10189
1.10199
1.10217
1.10246
1.10283
1.1033
1.10387
1.10454
1.10531
1.10619
1.10718
1.10828
1.1095
1.11083
1.11229
1.11388
1.11561
1.11746
1.11946
1.12159
1.12385
1.12626
1.12879
1.13144
1.13421
1.13708
1.14005
1.14309
1.1462
1.14934
1.15251
1.15567
1.15881
1.1619
1.16492
1.16783
1.17063
1.17328
1.17575
1.17804
1.18011
1.18195
1.18354
1.18486
1.18591
1.18666
1.18712
1.18727
1.18712
1.18665
1.18588
1.1848
1.18342
1.18175
1.1798
1.17758
1.17511
1.1724
1.16949
1.16638
1.1631
1.15968
1.15615
1.15252
1.14885
1.14514
1.14143
1.13775
1.13412
1.13058
1.12713
1.12381
1.12064
1.11762
1.11477
1.1121
1.10961
1.10731
1.10519
1.10325
1.10148
1.09988
1.09843
1.09713
1.09597
1.09492
1.09399
1.09315
1.0924
1.09173
1.09113
1.0906
1.09011
1.08969
1.08931
1.08897
1.08868
1.08842
1.08821
1.08804
1.0879
1.0878
1.08773
1.0877
1.0877
1.08773
1.08778
1.08786
1.08796
1.08807
1.08819
1.08832
1.08845
1.08857
1.08869
1.08879
1.08888
1.08895
1.089
1.08902
1.13446
1.13455
1.13474
1.13501
1.13538
1.13584
1.1364
1.13706
1.13781
1.13867
1.13963
1.14071
1.14189
1.14318
1.1446
1.14613
1.14779
1.14956
1.15147
1.1535
1.15565
1.15792
1.1603
1.1628
1.16539
1.16808
1.17084
1.17367
1.17655
1.17946
1.18238
1.1853
1.18819
1.19103
1.19379
1.19647
1.19903
1.20144
1.20371
1.20579
1.20768
1.20935
1.21079
1.21199
1.21293
1.2136
1.214
1.21413
1.21397
1.21352
1.21279
1.21178
1.2105
1.20895
1.20714
1.20509
1.2028
1.20031
1.19761
1.19475
1.19172
1.18857
1.18531
1.18197
1.17857
1.17514
1.17171
1.16829
1.16493
1.16163
1.15841
1.15531
1.15232
1.14948
1.14678
1.14424
1.14185
1.13964
1.13758
1.13569
1.13395
1.13237
1.13092
1.12961
1.12843
1.12736
1.1264
1.12553
1.12474
1.12404
1.1234
1.12283
1.12232
1.12186
1.12145
1.12108
1.12076
1.12048
1.12024
1.12004
1.11988
1.11975
1.11965
1.11959
1.11956
1.11956
1.11958
1.11962