/*--------------------------------*- C++ -*----------------------------------*\
| =========                 |                                                 |
| \\      /  F ield         | OpenFOAM: The Open Source CFD Toolbox           |
|  \\    /   O peration     | Version:  2406                                  |
|   \\  /    A nd           | Website:  www.openfoam.com                      |
|    \\/     M anipulation  |                                                 |
\*---------------------------------------------------------------------------*/
FoamFile
{
    version     2.0;
    format      ascii;
    arch        "LSB;label=32;scalar=64";
    class       volScalarField;
    location    "6.3";
    object      C_0_0;
}
// * * * * * * * * * * * * * * * * * * * * * * * * * * * * * * * * * * * * * //

dimensions      [1 -3 0 0 0 0 0];

internalField   nonuniform List<scalar> 
14400
(
0.25818
0.256717
0.254211
0.251251
0.248407
0.24615
0.244821
0.244635
0.245682
0.247933
0.251228
0.255263
0.259567
0.263479
0.266168
0.266754
0.264725
0.260721
0.255739
0.250729
0.246471
0.24358
0.24254
0.243744
0.247531
0.254209
0.264078
0.277446
0.294636
0.315991
0.341879
0.37268
0.408759
0.450401
0.497589
0.548859
0.591565
0.620462
0.642743
0.662103
0.678839
0.693179
0.705301
0.715343
0.723411
0.729589
0.733936
0.736497
0.737299
0.736353
0.733659
0.729201
0.722947
0.71485
0.704847
0.692852
0.678756
0.66242
0.643667
0.622271
0.597929
0.563384
0.514772
0.463796
0.417358
0.37646
0.341027
0.310724
0.285153
0.26392
0.246657
0.233037
0.222775
0.215627
0.211394
0.209914
0.211062
0.21475
0.220914
0.22951
0.240497
0.253816
0.269355
0.286895
0.305982
0.325454
0.340593
0.347232
0.346465
0.337405
0.32367
0.309475
0.29606
0.283992
0.273557
0.264876
0.257956
0.252715
0.248994
0.246574
0.245189
0.244554
0.244411
0.244577
0.245001
0.245781
0.247144
0.249389
0.252845
0.257821
0.264592
0.273379
0.284341
0.297568
0.31305
0.330637
0.349918
0.369765
0.385279
0.392149
0.267174
0.265282
0.262165
0.258599
0.25525
0.252621
0.251062
0.250788
0.25189
0.254341
0.257992
0.262552
0.267558
0.272327
0.275898
0.276996
0.274373
0.269406
0.263485
0.257691
0.25282
0.249473
0.248109
0.249105
0.252783
0.259442
0.269377
0.282889
0.300297
0.321944
0.348194
0.379418
0.415967
0.458077
0.505595
0.556713
0.596915
0.623766
0.645663
0.664727
0.681234
0.695398
0.707381
0.717316
0.725303
0.731419
0.735723
0.738256
0.739045
0.738102
0.735424
0.730996
0.724789
0.716757
0.706839
0.694953
0.680997
0.664838
0.64631
0.625204
0.601254
0.569193
0.522869
0.471276
0.424228
0.38279
0.346872
0.316139
0.290193
0.26864
0.251112
0.237281
0.22686
0.219608
0.215325
0.213851
0.215064
0.218877
0.225229
0.23408
0.245391
0.259109
0.275126
0.293217
0.312896
0.332896
0.347781
0.353833
0.353704
0.345871
0.331955
0.317235
0.303316
0.290838
0.280098
0.271216
0.2642
0.258964
0.255341
0.253096
0.251931
0.251519
0.251544
0.251772
0.252128
0.252736
0.253875
0.255902
0.259186
0.264067
0.270833
0.279712
0.290866
0.304384
0.320254
0.338306
0.358055
0.378127
0.392571
0.398228
0.285726
0.282764
0.278266
0.273415
0.269028
0.265651
0.263632
0.263182
0.264388
0.267231
0.271578
0.277168
0.283573
0.290119
0.295702
0.298331
0.294023
0.286871
0.279002
0.271641
0.265567
0.261324
0.259327
0.259913
0.263379
0.270005
0.280072
0.293873
0.311721
0.333954
0.360926
0.392997
0.43049
0.473554
0.521659
0.571044
0.606042
0.630279
0.651417
0.669908
0.685974
0.699795
0.711511
0.721238
0.729064
0.73506
0.73928
0.74176
0.742525
0.741585
0.738939
0.734571
0.728455
0.72055
0.710797
0.699125
0.685439
0.669623
0.651531
0.630982
0.607745
0.579437
0.537643
0.48585
0.437938
0.395517
0.358656
0.32707
0.300376
0.278184
0.260125
0.245871
0.235135
0.227676
0.223295
0.221836
0.223179
0.227243
0.233972
0.243329
0.255285
0.269794
0.286753
0.305928
0.326727
0.34738
0.360838
0.366146
0.366707
0.361713
0.348429
0.332743
0.317865
0.3046
0.293267
0.283995
0.276796
0.271582
0.268176
0.266311
0.265635
0.265725
0.266137
0.266507
0.266703
0.266913
0.267549
0.269095
0.272007
0.276677
0.28342
0.292474
0.304003
0.31809
0.334717
0.353679
0.374294
0.394086
0.405332
0.409627
0.314952
0.309713
0.302774
0.295857
0.289885
0.285388
0.282687
0.281974
0.283329
0.286736
0.292082
0.299148
0.307567
0.316733
0.3255
0.330496
0.323637
0.312996
0.302224
0.292597
0.284792
0.279261
0.276347
0.27634
0.279501
0.286086
0.296359
0.310598
0.329109
0.352219
0.380271
0.413597
0.452474
0.49697
0.546145
0.588753
0.617087
0.63973
0.65982
0.677512
0.69296
0.706296
0.717631
0.727059
0.734655
0.740479
0.744576
0.746979
0.747709
0.746774
0.744174
0.739895
0.733912
0.726189
0.716676
0.705311
0.692012
0.676684
0.659209
0.639446
0.617229
0.592254
0.55723
0.507481
0.458643
0.41482
0.37657
0.343716
0.315905
0.292755
0.273901
0.259014
0.247807
0.240039
0.235514
0.234081
0.235624
0.240066
0.247358
0.257471
0.270382
0.286051
0.304383
0.325132
0.347529
0.367762
0.378258
0.383083
0.38424
0.38178
0.37204
0.355777
0.339738
0.325403
0.31323
0.303396
0.295941
0.290789
0.287753
0.286536
0.286707
0.287698
0.288839
0.289488
0.28937
0.288829
0.288565
0.289274
0.291554
0.295866
0.302549
0.311848
0.323914
0.33881
0.356493
0.376689
0.398257
0.414566
0.421888
0.425305
0.35546
0.346193
0.335676
0.325972
0.31794
0.312003
0.308425
0.307369
0.308913
0.313032
0.319621
0.328491
0.339288
0.351296
0.362335
0.364839
0.360285
0.34688
0.332855
0.32053
0.310609
0.303471
0.299399
0.298639
0.301418
0.307965
0.318521
0.333353
0.352752
0.377031
0.406506
0.441445
0.481945
0.527461
0.574323
0.6071
0.63062
0.651734
0.670618
0.687362
0.702058
0.714797
0.725658
0.734712
0.742018
0.747624
0.751566
0.753871
0.754557
0.75363
0.751088
0.746921
0.741108
0.733618
0.724408
0.713429
0.700615
0.685893
0.669175
0.650364
0.62936
0.606073
0.578176
0.536561
0.486569
0.440929
0.400883
0.366368
0.337079
0.312656
0.292743
0.277011
0.265176
0.256998
0.252287
0.250892
0.252706
0.257657
0.2657
0.276813
0.290972
0.308132
0.328168
0.350707
0.374347
0.391297
0.39916
0.403686
0.405302
0.40416
0.399306
0.385904
0.368931
0.353396
0.340202
0.329655
0.321889
0.316859
0.314387
0.314157
0.315669
0.318159
0.320609
0.321788
0.321075
0.319184
0.317428
0.31682
0.318139
0.321907
0.328475
0.338071
0.350814
0.366683
0.385538
0.406704
0.426391
0.436565
0.441735
0.444399
0.39486
0.389403
0.37614
0.363524
0.353229
0.345656
0.34105
0.339588
0.341362
0.346316
0.354308
0.365155
0.378328
0.392138
0.398292
0.397867
0.396249
0.386812
0.370434
0.355404
0.343173
0.334205
0.328783
0.327139
0.329478
0.336001
0.34693
0.362511
0.383019
0.408746
0.439971
0.476844
0.519164
0.565092
0.600657
0.625032
0.646455
0.665966
0.683558
0.699259
0.713114
0.725175
0.735492
0.744114
0.751082
0.756433
0.760193
0.762383
0.763017
0.762099
0.759628
0.755595
0.749982
0.742765
0.733911
0.723381
0.711127
0.697097
0.681232
0.663475
0.643773
0.622095
0.598434
0.566976
0.520812
0.473908
0.431898
0.395397
0.364287
0.338281
0.317043
0.300254
0.287633
0.278944
0.274001
0.27266
0.274818
0.280409
0.289392
0.301742
0.317428
0.33637
0.358344
0.382576
0.404942
0.416485
0.422986
0.427198
0.429122
0.428894
0.426796
0.419999
0.404887
0.388617
0.374383
0.363
0.354889
0.350059
0.34836
0.349507
0.352987
0.357795
0.362546
0.364695
0.362902
0.358632
0.354593
0.352061
0.352049
0.355075
0.361459
0.371393
0.384933
0.401811
0.421641
0.442392
0.454344
0.460075
0.464087
0.466159
0.429394
0.428714
0.422003
0.407874
0.395652
0.38645
0.380728
0.378801
0.380861
0.386751
0.396156
0.408885
0.423441
0.431338
0.43235
0.431917
0.430717
0.427017
0.414045
0.397133
0.382677
0.371773
0.364857
0.362233
0.364095
0.370625
0.382019
0.398503
0.420328
0.447731
0.480938
0.51975
0.562693
0.59873
0.62369
0.644693
0.664202
0.682118
0.69839
0.713003
0.725965
0.737296
0.747021
0.755168
0.761764
0.766831
0.770389
0.772452
0.773028
0.772122
0.769731
0.765848
0.76046
0.753548
0.745089
0.735056
0.723416
0.710136
0.695183
0.678531
0.660163
0.640086
0.618341
0.594551
0.560599
0.513921
0.469996
0.431242
0.39799
0.370101
0.347281
0.329221
0.315651
0.306347
0.301126
0.299852
0.302428
0.30879
0.318898
0.332717
0.350182
0.371129
0.395064
0.420044
0.435701
0.443373
0.4491
0.452999
0.455092
0.455498
0.454435
0.452187
0.444848
0.430563
0.415806
0.403512
0.395088
0.390543
0.389786
0.392617
0.398679
0.406367
0.414505
0.417382
0.414744
0.406931
0.400105
0.395042
0.393415
0.39554
0.401675
0.41194
0.426366
0.443846
0.463243
0.47516
0.480837
0.485264
0.48838
0.489989
0.46387
0.463734
0.462956
0.456759
0.444543
0.434254
0.427426
0.424953
0.427405
0.434306
0.444608
0.457994
0.46537
0.466986
0.467053
0.466734
0.465947
0.464668
0.459381
0.445067
0.429236
0.41649
0.407992
0.40434
0.405722
0.412304
0.424261
0.441782
0.465085
0.494238
0.529377
0.568807
0.602814
0.627053
0.646956
0.665848
0.683542
0.699912
0.714879
0.728398
0.740447
0.751022
0.760128
0.767774
0.773974
0.778739
0.782081
0.784007
0.784522
0.783629
0.781326
0.777606
0.772461
0.765878
0.757843
0.748337
0.737344
0.724847
0.710834
0.695302
0.678261
0.659744
0.639813
0.618561
0.594641
0.559993
0.51535
0.474304
0.438664
0.408641
0.384
0.364461
0.349779
0.339749
0.334201
0.333004
0.336067
0.343328
0.354734
0.370228
0.389656
0.412646
0.437835
0.456532
0.465588
0.472027
0.477043
0.480607
0.48275
0.483571
0.483245
0.482016
0.480148
0.474031
0.463425
0.450647
0.442291
0.438144
0.438328
0.442609
0.451086
0.457578
0.46108
0.46221
0.461592
0.458592
0.452506
0.444968
0.441956
0.443157
0.448971
0.459292
0.474296
0.489137
0.499174
0.504135
0.50834
0.511764
0.51418
0.515428
0.498484
0.498502
0.498603
0.498549
0.494474
0.487583
0.48021
0.477165
0.480114
0.487851
0.495926
0.501047
0.502007
0.502096
0.502142
0.502019
0.501669
0.501093
0.500346
0.494986
0.482254
0.468478
0.458409
0.453816
0.454768
0.461468
0.474075
0.492691
0.517534
0.547971
0.583727
0.613301
0.635202
0.653486
0.671232
0.688201
0.704206
0.719111
0.732817
0.745262
0.756403
0.766217
0.774694
0.781827
0.787619
0.792071
0.795188
0.796972
0.797425
0.796547
0.794336
0.790789
0.7859
0.779662
0.772066
0.763107
0.752776
0.741074
0.728004
0.713581
0.697836
0.680818
0.662605
0.643304
0.62306
0.599695
0.566378
0.52458
0.486649
0.454412
0.427784
0.406576
0.390615
0.37975
0.373821
0.372703
0.376314
0.384588
0.397425
0.414728
0.436046
0.460089
0.479971
0.490218
0.496669
0.502103
0.506436
0.509637
0.511728
0.512789
0.51296
0.512435
0.511466
0.510365
0.506944
0.501163
0.494859
0.491283
0.492061
0.495085
0.497845
0.499024
0.49842
0.498395
0.499238
0.500625
0.500032
0.498042
0.495913
0.496398
0.501794
0.510663
0.519435
0.526126
0.529806
0.533386
0.536624
0.539273
0.541146
0.542115
0.533078
0.533189
0.533461
0.534007
0.53499
0.534067
0.532151
0.531335
0.532792
0.535544
0.537604
0.537268
0.537161
0.537248
0.537399
0.537532
0.537619
0.537682
0.537803
0.538112
0.534638
0.526539
0.515632
0.510712
0.511368
0.518267
0.531581
0.55102
0.576969
0.606008
0.629786
0.647945
0.664249
0.680454
0.696286
0.711518
0.725972
0.739506
0.752017
0.763429
0.773685
0.782751
0.790602
0.797222
0.802603
0.806739
0.809628
0.811268
0.811658
0.810797
0.808683
0.805314
0.800688
0.794802
0.787654
0.779246
0.769581
0.758669
0.746527
0.733183
0.718682
0.703087
0.686484
0.66899
0.650753
0.631961
0.610387
0.580356
0.541751
0.507768
0.479171
0.456158
0.438764
0.426968
0.420606
0.419552
0.423742
0.433115
0.447386
0.466439
0.488619
0.507385
0.517634
0.523511
0.528769
0.53328
0.536961
0.539777
0.541737
0.542899
0.543369
0.543298
0.542874
0.542325
0.541903
0.54134
0.539256
0.537459
0.536868
0.536553
0.535005
0.533868
0.533383
0.533502
0.534279
0.535689
0.537841
0.540322
0.541665
0.543684
0.547351
0.551676
0.554776
0.557372
0.560196
0.56298
0.565497
0.567558
0.569017
0.569771
0.567562
0.567713
0.568046
0.568625
0.56953
0.570823
0.572354
0.573242
0.573427
0.572864
0.572308
0.572086
0.57212
0.572337
0.572674
0.573092
0.573591
0.574214
0.575055
0.576272
0.578113
0.578211
0.576068
0.573577
0.574214
0.581394
0.595316
0.613848
0.633215
0.650696
0.664835
0.678977
0.693394
0.707796
0.721938
0.735614
0.748655
0.760926
0.772318
0.78275
0.792159
0.800501
0.807741
0.813857
0.818831
0.822654
0.825316
0.826814
0.827143
0.8263
0.824286
0.821097
0.816736
0.811203
0.804503
0.796642
0.787633
0.777493
0.76625
0.753943
0.740623
0.726363
0.711256
0.695419
0.679001
0.662183
0.645182
0.626601
0.601225
0.56818
0.538363
0.513598
0.494686
0.481943
0.475117
0.474071
0.478773
0.489281
0.5045
0.524254
0.539368
0.54802
0.552836
0.557422
0.561614
0.565286
0.568353
0.570772
0.572542
0.5737
0.574321
0.574512
0.574407
0.574151
0.573874
0.573625
0.573391
0.572756
0.57144
0.569973
0.568803
0.568034
0.567742
0.56795
0.568686
0.569955
0.571771
0.574093
0.576891
0.579703
0.581996
0.583978
0.586098
0.588332
0.590626
0.592841
0.594826
0.596446
0.597591
0.598182
0.601896
0.602054
0.602386
0.602916
0.603664
0.604604
0.6056
0.60635
0.606644
0.606627
0.606569
0.606647
0.606895
0.607307
0.607867
0.60857
0.609439
0.610527
0.61193
0.613792
0.616323
0.619801
0.624033
0.627142
0.631687
0.639456
0.650237
0.662381
0.673933
0.685143
0.697177
0.709734
0.722554
0.735398
0.748056
0.760345
0.77211
0.783223
0.793578
0.803093
0.811701
0.819351
0.826004
0.831632
0.836212
0.839728
0.84217
0.843528
0.843798
0.842976
0.841061
0.838053
0.833955
0.828772
0.822511
0.815186
0.806815
0.797421
0.787039
0.775714
0.763505
0.750487
0.736756
0.722428
0.707648
0.692587
0.677446
0.662464
0.647354
0.627501
0.603591
0.578239
0.558228
0.544845
0.537585
0.53639
0.541148
0.552472
0.566126
0.575934
0.58144
0.584762
0.588266
0.591728
0.59498
0.597897
0.600392
0.602417
0.60396
0.605038
0.605702
0.606024
0.606092
0.605998
0.605817
0.605575
0.605242
0.604685
0.603855
0.602951
0.602198
0.601722
0.6016
0.601872
0.602561
0.603674
0.605197
0.607082
0.609237
0.611439
0.613483
0.615396
0.617307
0.619232
0.621135
0.622931
0.624521
0.62581
0.626717
0.627185
0.636072
0.636222
0.636526
0.63699
0.637605
0.638331
0.639077
0.639708
0.640142
0.640431
0.640694
0.641036
0.641507
0.64213
0.642916
0.643884
0.645068
0.646526
0.648345
0.650646
0.653582
0.657331
0.662054
0.66795
0.674791
0.682164
0.690025
0.69855
0.708006
0.718193
0.728996
0.740228
0.751689
0.763187
0.774543
0.7856
0.796217
0.806277
0.81568
0.824343
0.8322
0.839198
0.845293
0.850455
0.854656
0.857878
0.860106
0.861331
0.861545
0.860745
0.858929
0.856099
0.852259
0.847417
0.841585
0.834778
0.827018
0.818337
0.808771
0.79837
0.787195
0.775324
0.762852
0.749891
0.736578
0.72307
0.709552
0.696236
0.68336
0.671197
0.657515
0.642041
0.626588
0.613918
0.606378
0.604715
0.607521
0.611935
0.616047
0.617637
0.619197
0.621319
0.623737
0.626244
0.628682
0.630929
0.632901
0.634546
0.635841
0.636791
0.637425
0.637789
0.637939
0.637934
0.637819
0.637616
0.637316
0.636889
0.636343
0.635778
0.635318
0.635057
0.635063
0.635375
0.636014
0.636981
0.63826
0.639803
0.641534
0.643333
0.6451
0.646815
0.648501
0.650156
0.65175
0.653226
0.654517
0.655555
0.656282
0.656657
0.670098
0.670235
0.670508
0.670913
0.671434
0.672038
0.672669
0.673264
0.673786
0.674259
0.674742
0.675296
0.675968
0.676789
0.677783
0.678982
0.680423
0.682164
0.684279
0.686863
0.690028
0.693888
0.698543
0.704048
0.710315
0.717188
0.724618
0.732652
0.741346
0.750626
0.760387
0.770492
0.780787
0.791116
0.801331
0.811294
0.820882
0.829989
0.838521
0.846399
0.853559
0.859946
0.865517
0.870237
0.874079
0.877021
0.879046
0.880144
0.880307
0.87953
0.877812
0.875155
0.871566
0.867054
0.861632
0.855321
0.848145
0.840137
0.831337
0.821798
0.811581
0.800764
0.789436
0.777706
0.7657
0.753563
0.741457
0.729569
0.7181
0.707271
0.69731
0.688448
0.679325
0.670719
0.664236
0.660592
0.65898
0.657369
0.655974
0.655772
0.656391
0.657579
0.659118
0.660831
0.662573
0.664236
0.665737
0.667023
0.668067
0.668861
0.669419
0.669767
0.669941
0.669978
0.669909
0.669754
0.66952
0.66921
0.66885
0.668501
0.668237
0.668127
0.66822
0.668552
0.669138
0.669979
0.671057
0.672337
0.673761
0.67526
0.67677
0.678263
0.679725
0.681141
0.682483
0.683707
0.684766
0.685611
0.6862
0.686502
0.703987
0.704112
0.704358
0.704719
0.70518
0.705717
0.706298
0.70689
0.707479
0.708077
0.708717
0.709439
0.710281
0.711274
0.712447
0.713836
0.715478
0.717427
0.719743
0.7225
0.725777
0.729651
0.73418
0.739386
0.745231
0.751651
0.758607
0.766093
0.774101
0.782577
0.791435
0.800567
0.809851
0.81916
0.828369
0.837362
0.84603
0.854276
0.862015
0.869174
0.87569
0.881511
0.886592
0.890899
0.894402
0.89708
0.898914
0.899893
0.900008
0.899255
0.897632
0.895144
0.891795
0.887599
0.88257
0.876729
0.870104
0.862728
0.854644
0.845904
0.836569
0.826713
0.816422
0.805798
0.794955
0.784023
0.773146
0.762481
0.752199
0.742471
0.733468
0.725336
0.718136
0.711953
0.706584
0.701956
0.698204
0.695564
0.693874
0.693085
0.693017
0.693488
0.694326
0.695387
0.696545
0.697703
0.698787
0.699744
0.700542
0.701167
0.701622
0.701919
0.70208
0.702128
0.702086
0.701972
0.701798
0.70158
0.701346
0.701137
0.701003
0.700991
0.701139
0.701473
0.702006
0.702738
0.703654
0.704726
0.705915
0.707174
0.708459
0.70974
0.710995
0.712202
0.713332
0.714353
0.715229
0.715923
0.716404
0.716651
0.737752
0.737867
0.738093
0.738425
0.73885
0.739353
0.739916
0.740521
0.741164
0.741853
0.74261
0.743463
0.744442
0.745577
0.746897
0.748435
0.750229
0.752322
0.754766
0.757617
0.760931
0.76476
0.76914
0.774083
0.779574
0.785578
0.792065
0.799012
0.806389
0.814145
0.822208
0.83049
0.838889
0.847303
0.855625
0.863755
0.871598
0.879069
0.886089
0.892592
0.898517
0.903814
0.908441
0.912363
0.915551
0.917982
0.919638
0.920506
0.920578
0.919849
0.918319
0.915991
0.912873
0.908977
0.904319
0.898922
0.892813
0.886027
0.878608
0.870604
0.862077
0.853096
0.843743
0.834109
0.824299
0.814428
0.804621
0.795013
0.785742
0.776947
0.768756
0.761275
0.754569
0.748672
0.743536
0.739145
0.735548
0.732807
0.730872
0.729677
0.729106
0.729028
0.729313
0.729844
0.730517
0.731246
0.731965
0.732624
0.733189
0.733644
0.733982
0.734207
0.734331
0.734369
0.734336
0.734248
0.73412
0.733968
0.733818
0.733699
0.733648
0.733696
0.733873
0.734196
0.734676
0.735313
0.736094
0.736999
0.737999
0.739061
0.740152
0.741244
0.742314
0.743338
0.744291
0.745145
0.745873
0.746447
0.746843
0.747046
0.771403
0.77151
0.771723
0.772037
0.772442
0.77293
0.77349
0.774114
0.774802
0.77556
0.776406
0.777361
0.778448
0.779695
0.781129
0.782779
0.784679
0.786867
0.789383
0.79227
0.79557
0.799317
0.803536
0.808234
0.813403
0.819021
0.825063
0.831501
0.838298
0.845407
0.852764
0.860294
0.867914
0.875537
0.883073
0.890435
0.89754
0.904313
0.910682
0.916587
0.921971
0.926788
0.930996
0.934562
0.937457
0.939658
0.941149
0.941915
0.941948
0.941245
0.939804
0.937629
0.934729
0.931116
0.926807
0.921825
0.916199
0.909961
0.903155
0.895828
0.888038
0.879852
0.871343
0.862596
0.853704
0.844768
0.835898
0.827207
0.818809
0.810817
0.803333
0.79644
0.790195
0.78463
0.779744
0.77554
0.772036
0.769242
0.76713
0.765644
0.764701
0.764204
0.764055
0.76416
0.764432
0.764799
0.765202
0.765596
0.765948
0.766237
0.766454
0.766596
0.766669
0.76668
0.766641
0.766565
0.766464
0.766355
0.766257
0.766194
0.766192
0.766273
0.766459
0.766762
0.767191
0.767743
0.768411
0.769178
0.770022
0.770919
0.771843
0.772771
0.773679
0.774545
0.775348
0.776064
0.776671
0.777148
0.777476
0.777644
0.804945
0.805049
0.805253
0.805556
0.805952
0.806435
0.807
0.807644
0.808368
0.809181
0.810094
0.811126
0.812296
0.813627
0.815144
0.816872
0.818842
0.821083
0.823628
0.826511
0.829761
0.833402
0.837452
0.841914
0.846782
0.85204
0.857666
0.86363
0.869896
0.87642
0.883145
0.890008
0.896937
0.903858
0.910694
0.917371
0.923815
0.929959
0.93574
0.941102
0.945993
0.95037
0.954193
0.957431
0.960056
0.962046
0.963383
0.964056
0.964056
0.963377
0.962022
0.959992
0.957298
0.953951
0.949969
0.945374
0.940195
0.934464
0.928222
0.921515
0.914397
0.90693
0.899181
0.891228
0.883152
0.875044
0.866996
0.859107
0.851471
0.844181
0.837319
0.830956
0.825141
0.819907
0.815269
0.811236
0.807813
0.804997
0.802763
0.801068
0.799849
0.799033
0.798545
0.798307
0.798251
0.798316
0.79845
0.798611
0.798769
0.798904
0.799001
0.799055
0.799068
0.799042
0.798985
0.798906
0.798816
0.79873
0.798661
0.798629
0.798652
0.798746
0.798927
0.799203
0.799581
0.800058
0.800628
0.801278
0.801992
0.80275
0.803531
0.804316
0.805084
0.805816
0.806492
0.807093
0.8076
0.807997
0.80827
0.808409
0.838384
0.838485
0.838685
0.838983
0.839375
0.839858
0.840431
0.841093
0.841847
0.8427
0.843664
0.844752
0.845982
0.847373
0.848946
0.850725
0.852732
0.854995
0.857537
0.860385
0.86356
0.86708
0.870955
0.875188
0.879771
0.884693
0.88993
0.895456
0.901237
0.907231
0.913389
0.919655
0.925968
0.932263
0.938476
0.944539
0.95039
0.955968
0.961218
0.966087
0.97053
0.974505
0.977976
0.980913
0.98329
0.985086
0.986283
0.986871
0.986841
0.986188
0.984913
0.983021
0.980519
0.977421
0.973743
0.969508
0.964742
0.959478
0.953753
0.947613
0.941106
0.934289
0.927225
0.919982
0.912633
0.905258
0.897937
0.890753
0.883786
0.877115
0.870808
0.864923
0.859507
0.854589
0.85019
0.84632
0.842982
0.840168
0.837858
0.836015
0.834593
0.833536
0.832782
0.832273
0.831951
0.831764
0.831669
0.831629
0.831615
0.831607
0.83159
0.831557
0.831504
0.831434
0.831349
0.831257
0.831166
0.831086
0.83103
0.83101
0.83104
0.831133
0.831298
0.831543
0.831871
0.83228
0.832765
0.833315
0.833917
0.834557
0.835216
0.835879
0.836526
0.837143
0.837711
0.838215
0.838639
0.83897
0.839198
0.839313
0.871723
0.871822
0.87202
0.872315
0.872706
0.873192
0.873773
0.87445
0.875226
0.876109
0.877108
0.878236
0.879507
0.880937
0.882544
0.884348
0.886369
0.888626
0.891141
0.893932
0.897015
0.900402
0.904101
0.90811
0.912424
0.917029
0.921905
0.927028
0.932365
0.937878
0.943525
0.949255
0.955016
0.960752
0.966406
0.971919
0.977237
0.982306
0.987075
0.991499
0.995534
0.999143
1.00229
1.00496
1.00711
1.00872
1.00979
1.0103
1.01025
1.00962
1.00842
1.00666
1.00434
1.00147
0.998075
0.994172
0.989787
0.984952
0.979701
0.974077
0.968124
0.961895
0.955447
0.948841
0.942141
0.935418
0.928741
0.922181
0.915807
0.909685
0.903873
0.898423
0.893373
0.888753
0.884583
0.880873
0.877627
0.874836
0.872484
0.870542
0.868973
0.867734
0.866776
0.866052
0.865514
0.865121
0.864833
0.86462
0.864455
0.864318
0.864195
0.864077
0.863959
0.86384
0.863722
0.863608
0.863504
0.863419
0.863361
0.86334
0.863366
0.863447
0.86359
0.863801
0.86408
0.864427
0.864836
0.865299
0.865806
0.866344
0.866898
0.867455
0.868
0.868518
0.868994
0.869416
0.869771
0.870048
0.870237
0.870333
0.904962
0.90506
0.905257
0.905551
0.905943
0.906432
0.907019
0.907707
0.908499
0.909402
0.910425
0.911577
0.912872
0.914323
0.915946
0.917755
0.919768
0.922
0.924468
0.927186
0.930165
0.933414
0.936935
0.940728
0.944785
0.949093
0.953634
0.958385
0.963316
0.968393
0.973577
0.978825
0.98409
0.989324
0.994476
0.999496
1.00433
1.00894
1.01328
1.0173
1.02096
1.02424
1.0271
1.02951
1.03145
1.03291
1.03386
1.0343
1.03422
1.03362
1.0325
1.03085
1.0287
1.02605
1.02291
1.01932
1.01528
1.01084
1.00602
1.00087
0.995419
0.989721
0.983828
0.977792
0.971674
0.965531
0.959427
0.953422
0.947576
0.941945
0.936579
0.931521
0.926808
0.922466
0.918515
0.914964
0.911816
0.909066
0.9067
0.904696
0.903024
0.90165
0.900536
0.899643
0.898934
0.898371
0.897924
0.897563
0.897267
0.897016
0.896796
0.896598
0.896415
0.896246
0.896089
0.895947
0.895824
0.895725
0.895656
0.895624
0.895636
0.895698
0.895815
0.895989
0.896222
0.896512
0.896854
0.897241
0.897664
0.898114
0.898578
0.899044
0.8995
0.899934
0.900333
0.900685
0.900981
0.901212
0.90137
0.90145
0.938103
0.938201
0.938396
0.93869
0.939082
0.939573
0.940164
0.940859
0.941661
0.942576
0.943611
0.944776
0.946082
0.947539
0.94916
0.950958
0.952947
0.955139
0.957546
0.960179
0.963046
0.966152
0.969498
0.973082
0.976895
0.980924
0.985154
0.989562
0.99412
0.9988
1.00356
1.00838
1.0132
1.01798
1.02268
1.02725
1.03166
1.03585
1.0398
1.04345
1.04678
1.04976
1.05235
1.05453
1.05629
1.0576
1.05844
1.05882
1.05873
1.05815
1.05709
1.05556
1.05356
1.05111
1.04822
1.0449
1.04119
1.03711
1.03268
1.02795
1.02296
1.01774
1.01235
1.00683
1.00123
0.995607
0.990014
0.984505
0.979131
0.97394
0.968975
0.964275
0.959872
0.955789
0.952046
0.94865
0.945607
0.942912
0.940555
0.938518
0.936777
0.935306
0.934075
0.933052
0.932206
0.931506
0.930927
0.930442
0.930033
0.929681
0.929374
0.929102
0.928858
0.928639
0.928442
0.928269
0.92812
0.928001
0.927914
0.927864
0.927856
0.927894
0.927982
0.928119
0.928308
0.928544
0.928825
0.929145
0.929496
0.929869
0.930255
0.930643
0.931023
0.931385
0.931717
0.93201
0.932257
0.932449
0.93258
0.932647
0.971145
0.971243
0.971438
0.971731
0.972122
0.972613
0.973206
0.973903
0.974709
0.975628
0.976668
0.977835
0.97914
0.98059
0.982197
0.983971
0.985922
0.988062
0.990398
0.992938
0.995688
0.99865
1.00182
1.00521
1.00879
1.01256
1.0165
1.02059
1.0248
1.02912
1.0335
1.03792
1.04234
1.04671
1.05101
1.05518
1.0592
1.06302
1.06661
1.06993
1.07296
1.07566
1.07801
1.07998
1.08157
1.08274
1.0835
1.08382
1.08371
1.08315
1.08216
1.08073
1.07888
1.07661
1.07394
1.07088
1.06746
1.06371
1.05965
1.05531
1.05073
1.04594
1.041
1.03594
1.03081
1.02565
1.02052
1.01545
1.0105
1.00571
1.00111
0.996733
0.992615
0.988774
0.985228
0.981985
0.97905
0.976421
0.974089
0.972042
0.97026
0.968723
0.967406
0.966284
0.965331
0.964522
0.963834
0.963247
0.962741
0.962302
0.961918
0.961579
0.961277
0.961009
0.960772
0.960564
0.960388
0.960243
0.960134
0.960062
0.96003
0.960042
0.960098
0.960199
0.960345
0.960532
0.960759
0.961019
0.961306
0.961612
0.96193
0.962251
0.962565
0.962864
0.963139
0.963383
0.963587
0.963746
0.963855
0.96391
1.00409
1.00419
1.00438
1.00467
1.00506
1.00555
1.00614
1.00684
1.00764
1.00856
1.0096
1.01076
1.01205
1.01348
1.01507
1.01681
1.01871
1.02079
1.02305
1.02549
1.02812
1.03094
1.03394
1.03713
1.04049
1.04402
1.04769
1.05149
1.05539
1.05937
1.06341
1.06747
1.07152
1.07553
1.07945
1.08326
1.08693
1.09041
1.09368
1.09671
1.09946
1.10191
1.10404
1.10583
1.10726
1.10831
1.10898
1.10925
1.10912
1.10859
1.10766
1.10633
1.10461
1.10251
1.10004
1.09723
1.09408
1.09062
1.08689
1.0829
1.07869
1.0743
1.06977
1.06512
1.06041
1.05567
1.05095
1.04629
1.04172
1.03728
1.03301
1.02893
1.02508
1.02147
1.01811
1.01501
1.01219
1.00963
1.00734
1.0053
1.0035
1.00192
1.00054
0.999347
0.998312
0.997417
0.996642
0.995969
0.995383
0.994869
0.994417
0.994017
0.993662
0.993348
0.993071
0.992829
0.992623
0.992451
0.992316
0.992219
0.992162
0.992145
0.992169
0.992234
0.992339
0.992482
0.992659
0.992865
0.993096
0.993344
0.993603
0.993864
0.994122
0.994368
0.994594
0.994794
0.994962
0.995093
0.995183
0.995229
1.03694
1.03704
1.03723
1.03752
1.0379
1.03839
1.03898
1.03967
1.04047
1.04138
1.0424
1.04355
1.04482
1.04623
1.04778
1.04948
1.05133
1.05334
1.05551
1.05785
1.06036
1.06304
1.06588
1.06888
1.07204
1.07533
1.07875
1.08228
1.08589
1.08958
1.0933
1.09703
1.10075
1.10442
1.10801
1.1115
1.11484
1.11802
1.121
1.12375
1.12626
1.12848
1.13042
1.13203
1.13332
1.13427
1.13486
1.13508
1.13495
1.13444
1.13356
1.13232
1.13073
1.12878
1.1265
1.1239
1.121
1.11782
1.11438
1.11071
1.10685
1.10281
1.09864
1.09437
1.09004
1.08568
1.08133
1.07703
1.0728
1.06869
1.06472
1.06092
1.0573
1.0539
1.05072
1.04777
1.04506
1.04258
1.04034
1.03832
1.03652
1.03491
1.0335
1.03225
1.03115
1.03019
1.02935
1.0286
1.02795
1.02737
1.02686
1.02641
1.02601
1.02565
1.02534
1.02506
1.02482
1.02462
1.02446
1.02434
1.02425
1.02421
1.0242
1.02423
1.0243
1.0244
1.02453
1.02469
1.02487
1.02506
1.02527
1.02548
1.02569
1.02589
1.02607
1.02624
1.02638
1.02648
1.02656
1.02659
1.06969
1.06979
1.06998
1.07026
1.07064
1.07113
1.07171
1.07239
1.07318
1.07407
1.07508
1.07621
1.07746
1.07884
1.08035
1.08199
1.08378
1.08572
1.0878
1.09004
1.09243
1.09497
1.09766
1.10048
1.10344
1.10652
1.1097
1.11298
1.11633
1.11974
1.12317
1.12661
1.13002
1.13339
1.13668
1.13987
1.14293
1.14583
1.14854
1.15105
1.15333
1.15535
1.1571
1.15857
1.15973
1.16058
1.1611
1.16128
1.16114
1.16065
1.15983
1.15867
1.15719
1.15538
1.15327
1.15087
1.1482
1.14526
1.1421
1.13872
1.13517
1.13145
1.12762
1.12369
1.1197
1.11568
1.11166
1.10769
1.10377
1.09996
1.09626
1.09271
1.08932
1.08611
1.0831
1.08029
1.07769
1.0753
1.07311
1.07112
1.06933
1.06772
1.06628
1.065
1.06386
1.06285
1.06195
1.06115
1.06044
1.05981
1.05925
1.05875
1.05831
1.05791
1.05756
1.05725
1.05698
1.05676
1.05657
1.05642
1.0563
1.05623
1.05619
1.05619
1.05622
1.05628
1.05637
1.05649
1.05662
1.05678
1.05694
1.0571
1.05727
1.05743
1.05758
1.05771
1.05782
1.0579
1.05796
1.05799
1.10235
1.10244
1.10263
1.10291
1.10329
1.10376
1.10433
1.105
1.10578
1.10666
1.10765
1.10875
1.10997
1.11131
1.11277
1.11437
1.11609
1.11795
1.11995
1.12208
1.12435
1.12676
1.12929
1.13195
1.13472
1.1376
1.14057
1.14361
1.14672
1.14987
1.15304
1.1562
1.15934
1.16243
1.16545
1.16837
1.17117
1.17382
1.1763
1.17858
1.18065
1.18249
1.18408
1.18541
1.18645
1.18721
1.18767
1.18782
1.18767
1.1872
1.18643
1.18535
1.18397
1.18229
1.18034
1.17812
1.17565
1.17295
1.17003
1.16692
1.16364
1.16022
1.15668
1.15306
1.14938
1.14567
1.14196
1.13828
1.13465
1.1311
1.12765
1.12433
1.12115
1.11813
1.11528
1.1126
1.11011
1.1078
1.10568
1.10374
1.10197
1.10036
1.09891
1.09761
1.09644
1.09539
1.09445
1.09361
1.09286
1.09218
1.09158
1.09104
1.09056
1.09012
1.08974
1.0894
1.08911
1.08885
1.08864
1.08846
1.08832
1.08822
1.08815
1.08811
1.08811
1.08814
1.08819
1.08827
1.08836
1.08848
1.0886
1.08872
1.08885
1.08898
1.08909
1.0892
1.08929
1.08935
1.0894
1.08943
1.13491
1.13501
1.13519
1.13547
1.13583
1.1363
1.13686
1.13752
1.13827
1.13913
1.1401
1.14117
1.14236
1.14366
1.14507
1.14661
1.14827
1.15005
1.15196
1.15399
1.15614
1.15841
1.1608
1.1633
1.1659
1.16859
1.17135
1.17419
1.17707
1.17998
1.1829
1.18582
1.18871
1.19155
1.19432
1.197
1.19956
1.20198
1.20424
1.20632
1.20821
1.20988
1.21133
1.21252
1.21347
1.21414
1.21454
1.21467
1.2145
1.21406
1.21333
1.21232
1.21104
1.20949
1.20768
1.20562
1.20334
1.20084
1.19815
1.19528
1.19226
1.1891
1.18584
1.18249
1.17909
1.17566
1.17223
1.16882
1.16545
1.16214
1.15893
1.15582
1.15283
1.14998
1.14728
1.14473
1.14235
1.14013
1.13807
1.13617
1.13443
1.13284
1.1314
1.13008
1.1289
1.12782
1.12685
1.12598
1.12519
1.12448
1.12384
1.12327
1.12275
1.12229
1.12188
1.12151
1.12119
1.12091
1.12067
1.12046
1.1203
1.12017
1.12007
1.12001
1.11997
1.11997
1.11999