/*--------------------------------*- C++ -*----------------------------------*\
| =========                 |                                                 |
| \\      /  F ield         | OpenFOAM: The Open Source CFD Toolbox           |
|  \\    /   O peration     | Version:  2406                                  |
|   \\  /    A nd           | Website:  www.openfoam.com                      |
|    \\/     M anipulation  |                                                 |
\*---------------------------------------------------------------------------*/
FoamFile
{
    version     2.0;
    format      ascii;
    arch        "LSB;label=32;scalar=64";
    class       volScalarField;
    location    "6.3";
    object      D;
}
// * * * * * * * * * * * * * * * * * * * * * * * * * * * * * * * * * * * * * //

dimensions      [0 2 -1 0 0 0 0];

internalField   nonuniform List<scalar> 
14400
(
6.42436e-05
6.41128e-05
6.39112e-05
6.36999e-05
6.35163e-05
6.33773e-05
6.32892e-05
6.32546e-05
6.32767e-05
6.3361e-05
6.35153e-05
6.3747e-05
6.40541e-05
6.44016e-05
6.46765e-05
6.46638e-05
6.42134e-05
6.35704e-05
6.29281e-05
6.23543e-05
6.18552e-05
6.14189e-05
6.10323e-05
6.06864e-05
6.03765e-05
6.01021e-05
5.98656e-05
5.96724e-05
5.95308e-05
5.94531e-05
5.94588e-05
5.95816e-05
5.98868e-05
6.05267e-05
6.19804e-05
6.68223e-05
0.000105807
0.000138239
0.00013824
0.00013824
0.00013824
0.00013824
0.00013824
0.00013824
0.00013824
0.00013824
0.00013824
0.00013824
0.00013824
0.00013824
0.00013824
0.00013824
0.00013824
0.00013824
0.00013824
0.00013824
0.00013824
0.00013824
0.00013824
0.00013824
0.000138072
8.24766e-05
6.51646e-05
6.18645e-05
6.0739e-05
6.02609e-05
6.00809e-05
6.00762e-05
6.01907e-05
6.03933e-05
6.06626e-05
6.09802e-05
6.13274e-05
6.16835e-05
6.20269e-05
6.23373e-05
6.25999e-05
6.28096e-05
6.29745e-05
6.3117e-05
6.32757e-05
6.35096e-05
6.39148e-05
6.46833e-05
6.63537e-05
7.15528e-05
0.000106449
0.000138237
0.000121649
7.27258e-05
6.64775e-05
6.44644e-05
6.35084e-05
6.29936e-05
6.27151e-05
6.25816e-05
6.25438e-05
6.25712e-05
6.26411e-05
6.27338e-05
6.28292e-05
6.2906e-05
6.2943e-05
6.2924e-05
6.28439e-05
6.2712e-05
6.25472e-05
6.23712e-05
6.22044e-05
6.20648e-05
6.19698e-05
6.19386e-05
6.19974e-05
6.21879e-05
6.25874e-05
6.33688e-05
6.50488e-05
7.02222e-05
0.000106144
0.000138238
6.43953e-05
6.41979e-05
6.3918e-05
6.36447e-05
6.3419e-05
6.32539e-05
6.31515e-05
6.31116e-05
6.31366e-05
6.32328e-05
6.34117e-05
6.36893e-05
6.40809e-05
6.4579e-05
6.50849e-05
6.52612e-05
6.45902e-05
6.37345e-05
6.29678e-05
6.23307e-05
6.1802e-05
6.1354e-05
6.09656e-05
6.06236e-05
6.03212e-05
6.00562e-05
5.98306e-05
5.96495e-05
5.95211e-05
5.94586e-05
5.94832e-05
5.96319e-05
5.99775e-05
6.06923e-05
6.23253e-05
6.78992e-05
0.000119578
0.00013824
0.00013824
0.00013824
0.00013824
0.00013824
0.00013824
0.00013824
0.00013824
0.00013824
0.00013824
0.00013824
0.00013824
0.00013824
0.00013824
0.00013824
0.00013824
0.00013824
0.00013824
0.00013824
0.00013824
0.00013824
0.00013824
0.00013824
0.000138228
9.489e-05
6.6242e-05
6.21195e-05
6.08463e-05
6.03116e-05
6.00986e-05
6.00694e-05
6.01628e-05
6.03453e-05
6.05941e-05
6.08904e-05
6.12157e-05
6.15504e-05
6.18743e-05
6.21693e-05
6.24225e-05
6.26302e-05
6.28011e-05
6.29577e-05
6.31387e-05
6.34042e-05
6.38552e-05
6.46974e-05
6.65193e-05
7.23227e-05
0.000116744
0.00013824
0.000133032
7.47795e-05
6.70907e-05
6.46763e-05
6.35766e-05
6.29941e-05
6.26767e-05
6.25183e-05
6.24647e-05
6.24836e-05
6.25519e-05
6.26497e-05
6.27562e-05
6.28473e-05
6.28972e-05
6.28843e-05
6.28006e-05
6.2659e-05
6.24839e-05
6.23012e-05
6.2133e-05
6.1998e-05
6.19133e-05
6.18984e-05
6.19808e-05
6.22059e-05
6.26611e-05
6.35464e-05
6.54747e-05
7.16189e-05
0.000121474
0.00013824
6.48837e-05
6.44762e-05
6.39932e-05
6.35796e-05
6.32667e-05
6.30502e-05
6.29202e-05
6.28704e-05
6.29006e-05
6.30189e-05
6.32438e-05
6.36099e-05
6.41757e-05
6.5033e-05
6.62778e-05
6.75924e-05
6.5693e-05
6.41572e-05
6.30835e-05
6.23084e-05
6.17178e-05
6.12447e-05
6.08507e-05
6.05144e-05
6.02245e-05
5.99766e-05
5.97711e-05
5.96126e-05
5.951e-05
5.94781e-05
5.95418e-05
5.97463e-05
6.0186e-05
6.11008e-05
6.33348e-05
7.17104e-05
0.00013615
0.00013824
0.00013824
0.00013824
0.00013824
0.00013824
0.00013824
0.00013824
0.00013824
0.00013824
0.00013824
0.00013824
0.00013824
0.00013824
0.00013824
0.00013824
0.00013824
0.00013824
0.00013824
0.00013824
0.00013824
0.00013824
0.00013824
0.00013824
0.00013824
0.000117323
6.80971e-05
6.26588e-05
6.10883e-05
6.04294e-05
6.0145e-05
6.00653e-05
6.01169e-05
6.02606e-05
6.0471e-05
6.07283e-05
6.10142e-05
6.13108e-05
6.16008e-05
6.18693e-05
6.21067e-05
6.23118e-05
6.24942e-05
6.26772e-05
6.29003e-05
6.32281e-05
6.37767e-05
6.47991e-05
6.70551e-05
7.42833e-05
0.000131626
0.00013824
0.000138208
9.4349e-05
6.93853e-05
6.52483e-05
6.37683e-05
6.30325e-05
6.26321e-05
6.24229e-05
6.23383e-05
6.23418e-05
6.24091e-05
6.25201e-05
6.26526e-05
6.27778e-05
6.28593e-05
6.2861e-05
6.27663e-05
6.25985e-05
6.23963e-05
6.2195e-05
6.20205e-05
6.18917e-05
6.18256e-05
6.18422e-05
6.19724e-05
6.22714e-05
6.28551e-05
6.40176e-05
6.68103e-05
7.77236e-05
0.000137159
0.00013824
6.64062e-05
6.52365e-05
6.42655e-05
6.35879e-05
6.31325e-05
6.28377e-05
6.26672e-05
6.26029e-05
6.26406e-05
6.27901e-05
6.30807e-05
6.3577e-05
6.44238e-05
6.59991e-05
6.96517e-05
8.1784e-05
6.88791e-05
6.50727e-05
6.335e-05
6.23347e-05
6.16423e-05
6.1126e-05
6.07186e-05
6.03859e-05
6.01102e-05
5.98836e-05
5.97049e-05
5.95781e-05
5.95133e-05
5.95283e-05
5.9655e-05
5.99555e-05
6.05727e-05
6.19539e-05
6.65651e-05
0.000106748
0.000138239
0.00013824
0.00013824
0.00013824
0.00013824
0.00013824
0.00013824
0.00013824
0.00013824
0.00013824
0.00013824
0.00013824
0.00013824
0.00013824
0.00013824
0.00013824
0.00013824
0.00013824
0.00013824
0.00013824
0.00013824
0.00013824
0.00013824
0.00013824
0.00013824
0.000136815
7.31936e-05
6.39078e-05
6.15744e-05
6.06559e-05
6.02431e-05
6.00813e-05
6.00699e-05
6.01583e-05
6.03162e-05
6.05219e-05
6.07574e-05
6.10066e-05
6.12554e-05
6.14927e-05
6.17125e-05
6.19164e-05
6.21161e-05
6.23359e-05
6.26186e-05
6.30397e-05
6.3751e-05
6.51533e-05
6.90014e-05
9.08774e-05
0.000138175
0.00013824
0.00013824
0.000128477
7.34043e-05
6.64007e-05
6.42083e-05
6.31893e-05
6.26441e-05
6.23517e-05
6.22201e-05
6.22029e-05
6.22734e-05
6.24119e-05
6.25961e-05
6.2791e-05
6.29405e-05
6.29753e-05
6.28494e-05
6.26189e-05
6.2356e-05
6.21128e-05
6.19195e-05
6.17941e-05
6.1752e-05
6.1815e-05
6.2021e-05
6.24461e-05
6.32747e-05
6.50851e-05
7.08547e-05
0.00011705
0.00013824
0.00013824
7.31405e-05
6.73195e-05
6.49837e-05
6.37989e-05
6.31153e-05
6.27047e-05
6.24767e-05
6.23922e-05
6.24407e-05
6.26341e-05
6.30174e-05
6.37036e-05
6.50053e-05
6.81423e-05
8.19528e-05
0.000137173
8.07136e-05
6.71051e-05
6.39142e-05
6.24882e-05
6.16329e-05
6.10447e-05
6.06089e-05
6.02724e-05
6.00084e-05
5.98043e-05
5.96567e-05
5.95696e-05
5.95553e-05
5.96376e-05
5.98622e-05
6.03239e-05
6.1264e-05
6.35571e-05
7.26226e-05
0.000136792
0.00013824
0.00013824
0.00013824
0.00013824
0.00013824
0.00013824
0.00013824
0.00013824
0.00013824
0.00013824
0.00013824
0.00013824
0.00013824
0.00013824
0.00013824
0.00013824
0.00013824
0.00013824
0.00013824
0.00013824
0.00013824
0.00013824
0.00013824
0.00013824
0.00013824
0.00013824
0.000114215
6.7738e-05
6.25743e-05
6.10696e-05
6.04317e-05
6.01452e-05
6.00465e-05
6.0064e-05
6.01585e-05
6.03049e-05
6.04847e-05
6.06836e-05
6.08902e-05
6.10971e-05
6.13017e-05
6.15088e-05
6.17323e-05
6.19998e-05
6.23612e-05
6.29114e-05
6.38655e-05
6.58784e-05
7.22532e-05
0.000123661
0.00013824
0.00013824
0.00013824
0.000138237
0.000104776
7.03134e-05
6.53242e-05
6.36342e-05
6.2816e-05
6.23856e-05
6.21837e-05
6.21408e-05
6.22242e-05
6.24172e-05
6.27035e-05
6.30478e-05
6.33604e-05
6.34879e-05
6.32638e-05
6.28724e-05
6.24723e-05
6.21388e-05
6.19016e-05
6.17705e-05
6.17566e-05
6.18851e-05
6.22101e-05
6.28503e-05
6.41633e-05
6.77762e-05
8.78757e-05
0.000138156
0.00013824
0.00013824
0.00013216
7.47369e-05
6.68337e-05
6.4462e-05
6.33678e-05
6.27658e-05
6.24472e-05
6.23315e-05
6.23984e-05
6.26625e-05
6.3198e-05
6.42183e-05
6.6451e-05
7.37456e-05
0.000132015
0.00013824
0.000127438
7.19847e-05
6.51601e-05
6.29239e-05
6.17769e-05
6.10608e-05
6.05686e-05
6.02139e-05
5.99548e-05
5.97717e-05
5.96584e-05
5.962e-05
5.96735e-05
5.9855e-05
6.02425e-05
6.10193e-05
6.27769e-05
6.88031e-05
0.000124535
0.00013824
0.00013824
0.00013824
0.00013824
0.00013824
0.00013824
0.00013824
0.00013824
0.00013824
0.00013824
0.00013824
0.00013824
0.00013824
0.00013824
0.00013824
0.00013824
0.00013824
0.00013824
0.00013824
0.00013824
0.00013824
0.00013824
0.00013824
0.00013824
0.00013824
0.00013824
0.00013824
0.000138059
8.06946e-05
6.47459e-05
6.18234e-05
6.07808e-05
6.03012e-05
6.00815e-05
6.00093e-05
6.00298e-05
6.01113e-05
6.02336e-05
6.0383e-05
6.05505e-05
6.07314e-05
6.09265e-05
6.11437e-05
6.14009e-05
6.17324e-05
6.22022e-05
6.29457e-05
6.43334e-05
6.80292e-05
8.90887e-05
0.00013817
0.00013824
0.00013824
0.00013824
0.00013824
0.000138111
8.65036e-05
6.84363e-05
6.47625e-05
6.3339e-05
6.26487e-05
6.23319e-05
6.2255e-05
6.237e-05
6.26733e-05
6.31824e-05
6.39081e-05
6.47334e-05
6.52693e-05
6.46068e-05
6.36935e-05
6.29401e-05
6.24013e-05
6.20682e-05
6.19134e-05
6.19335e-05
6.21642e-05
6.2704e-05
6.37714e-05
6.621e-05
7.52245e-05
0.000136458
0.00013824
0.00013824
0.00013824
0.00013824
0.00013106
7.34205e-05
6.63503e-05
6.42413e-05
6.32246e-05
6.27301e-05
6.25544e-05
6.26603e-05
6.30656e-05
6.39261e-05
6.58316e-05
7.21866e-05
0.000122491
0.00013824
0.00013824
0.000138239
0.000106031
6.93065e-05
6.40822e-05
6.22399e-05
6.1265e-05
6.06601e-05
6.02607e-05
5.99943e-05
5.98287e-05
5.9754e-05
5.97785e-05
5.99301e-05
6.02721e-05
6.09752e-05
6.25488e-05
6.76473e-05
0.000107961
0.00013824
0.00013824
0.00013824
0.00013824
0.00013824
0.00013824
0.00013824
0.00013824
0.00013824
0.00013824
0.00013824
0.00013824
0.00013824
0.00013824
0.00013824
0.00013824
0.00013824
0.00013824
0.00013824
0.00013824
0.00013824
0.00013824
0.00013824
0.00013824
0.00013824
0.00013824
0.00013824
0.00013824
0.00013824
0.000132331
7.01687e-05
6.33749e-05
6.14573e-05
6.06327e-05
6.02277e-05
6.00353e-05
5.99662e-05
5.99756e-05
6.00384e-05
6.01401e-05
6.02729e-05
6.04342e-05
6.0628e-05
6.08662e-05
6.11737e-05
6.15985e-05
6.22361e-05
6.33099e-05
6.55285e-05
7.27168e-05
0.000131757
0.00013824
0.00013824
0.00013824
0.00013824
0.00013824
0.00013824
0.00013778
8.16924e-05
6.82709e-05
6.47492e-05
6.33987e-05
6.28543e-05
6.27229e-05
6.29095e-05
6.34663e-05
6.45895e-05
6.67626e-05
7.03692e-05
7.39952e-05
7.00902e-05
6.62954e-05
6.42793e-05
6.31625e-05
6.26076e-05
6.23918e-05
6.24617e-05
6.28874e-05
6.3967e-05
6.63456e-05
7.37113e-05
0.000133905
0.00013824
0.00013824
0.00013824
0.00013824
0.00013824
0.00013824
0.000130593
7.38228e-05
6.71877e-05
6.46581e-05
6.36896e-05
6.33465e-05
6.35696e-05
6.43616e-05
6.62276e-05
7.21689e-05
0.000120287
0.00013824
0.00013824
0.00013824
0.00013824
0.000138195
8.97019e-05
6.75924e-05
6.34435e-05
6.18358e-05
6.09871e-05
6.04912e-05
6.01964e-05
6.00432e-05
6.00165e-05
6.01335e-05
6.0453e-05
6.11009e-05
6.26109e-05
6.74308e-05
0.000100422
0.000138237
0.00013824
0.00013824
0.00013824
0.00013824
0.00013824
0.00013824
0.00013824
0.00013824
0.00013824
0.00013824
0.00013824
0.00013824
0.00013824
0.00013824
0.00013824
0.00013824
0.00013824
0.00013824
0.00013824
0.00013824
0.00013824
0.00013824
0.00013824
0.00013824
0.00013824
0.00013824
0.00013824
0.00013824
0.00013824
0.00013824
0.000120504
6.88526e-05
6.30421e-05
6.13332e-05
6.05803e-05
6.02043e-05
6.00152e-05
5.99374e-05
5.99343e-05
5.99881e-05
6.00902e-05
6.02394e-05
6.04432e-05
6.07199e-05
6.11073e-05
6.16867e-05
6.26404e-05
6.45234e-05
7.02453e-05
0.000114982
0.00013824
0.00013824
0.00013824
0.00013824
0.00013824
0.00013824
0.00013824
0.00013824
0.000137847
8.91336e-05
6.98393e-05
6.5455e-05
6.42922e-05
6.40382e-05
6.4411e-05
6.57603e-05
6.97869e-05
8.24216e-05
0.000124534
0.00013649
0.000122668
7.91972e-05
6.91586e-05
6.52564e-05
6.40585e-05
6.36755e-05
6.38491e-05
6.4772e-05
6.83296e-05
7.84669e-05
0.000135001
0.00013824
0.00013824
0.00013824
0.00013824
0.00013824
0.00013824
0.00013824
0.00013824
0.000134924
8.43797e-05
7.00835e-05
6.6885e-05
6.56596e-05
6.65212e-05
6.92825e-05
7.67419e-05
0.000128948
0.00013824
0.00013824
0.00013824
0.00013824
0.00013824
0.00013824
0.000138094
8.51075e-05
6.73334e-05
6.33081e-05
6.17863e-05
6.10698e-05
6.07027e-05
6.05549e-05
6.06013e-05
6.08892e-05
6.16087e-05
6.30369e-05
6.81471e-05
0.000103804
0.000138236
0.00013824
0.00013824
0.00013824
0.00013824
0.00013824
0.00013824
0.00013824
0.00013824
0.00013824
0.00013824
0.00013824
0.00013824
0.00013824
0.00013824
0.00013824
0.00013824
0.00013824
0.00013824
0.00013824
0.00013824
0.00013824
0.00013824
0.00013824
0.00013824
0.00013824
0.00013824
0.00013824
0.00013824
0.00013824
0.00013824
0.00013824
0.00013824
0.000112304
6.84508e-05
6.29866e-05
6.13523e-05
6.06366e-05
6.02556e-05
6.00546e-05
5.99677e-05
5.99676e-05
6.00412e-05
6.01873e-05
6.04185e-05
6.07655e-05
6.12921e-05
6.21703e-05
6.38776e-05
6.87036e-05
9.95161e-05
0.000138235
0.00013824
0.00013824
0.00013824
0.00013824
0.00013824
0.00013824
0.00013824
0.00013824
0.00013824
0.000138181
0.000113033
7.33488e-05
6.95669e-05
6.87721e-05
6.99215e-05
7.54791e-05
0.00011576
0.000138009
0.00013824
0.00013824
0.00013824
0.000137763
0.000111574
7.33296e-05
6.9316e-05
6.81397e-05
6.87935e-05
7.15881e-05
0.000102817
0.000137683
0.00013824
0.00013824
0.00013824
0.00013824
0.00013824
0.00013824
0.00013824
0.00013824
0.00013824
0.00013824
0.000138087
0.000117259
8.54246e-05
7.45909e-05
8.21305e-05
0.000111507
0.000137285
0.00013824
0.00013824
0.00013824
0.00013824
0.00013824
0.00013824
0.00013824
0.00013824
0.00013812
9.28719e-05
6.85636e-05
6.38476e-05
6.24982e-05
6.19242e-05
6.17672e-05
6.19788e-05
6.27034e-05
6.52629e-05
6.99862e-05
0.000117819
0.000138239
0.00013824
0.00013824
0.00013824
0.00013824
0.00013824
0.00013824
0.00013824
0.00013824
0.00013824
0.00013824
0.00013824
0.00013824
0.00013824
0.00013824
0.00013824
0.00013824
0.00013824
0.00013824
0.00013824
0.00013824
0.00013824
0.00013824
0.00013824
0.00013824
0.00013824
0.00013824
0.00013824
0.00013824
0.00013824
0.00013824
0.00013824
0.00013824
0.00013824
0.00013824
0.000112802
6.8784e-05
6.3237e-05
6.16604e-05
6.08639e-05
6.04414e-05
6.02202e-05
6.01472e-05
6.01911e-05
6.03468e-05
6.06384e-05
6.11278e-05
6.19347e-05
6.35745e-05
6.81689e-05
9.34546e-05
0.000138217
0.00013824
0.00013824
0.00013824
0.00013824
0.00013824
0.00013824
0.00013824
0.00013824
0.00013824
0.00013824
0.00013824
0.00013824
0.000135319
0.000116083
0.000106075
0.000119394
0.000136919
0.00013824
0.00013824
0.00013824
0.00013824
0.00013824
0.00013824
0.00013824
0.000135563
0.000115295
0.000100888
0.000110084
0.000131554
0.000138237
0.00013824
0.00013824
0.00013824
0.00013824
0.00013824
0.00013824
0.00013824
0.00013824
0.00013824
0.00013824
0.00013824
0.00013824
0.00013824
0.000138109
0.000136377
0.000137972
0.00013824
0.00013824
0.00013824
0.00013824
0.00013824
0.00013824
0.00013824
0.00013824
0.00013824
0.00013824
0.00013824
0.000138222
0.000115273
7.1605e-05
6.75311e-05
6.58773e-05
6.5637e-05
6.66783e-05
6.90669e-05
9.21536e-05
0.000133213
0.00013824
0.00013824
0.00013824
0.00013824
0.00013824
0.00013824
0.00013824
0.00013824
0.00013824
0.00013824
0.00013824
0.00013824
0.00013824
0.00013824
0.00013824
0.00013824
0.00013824
0.00013824
0.00013824
0.00013824
0.00013824
0.00013824
0.00013824
0.00013824
0.00013824
0.00013824
0.00013824
0.00013824
0.00013824
0.00013824
0.00013824
0.00013824
0.00013824
0.00013824
0.00013824
0.00013824
0.00013824
0.000122027
7.01596e-05
6.48107e-05
6.24028e-05
6.14072e-05
6.08818e-05
6.0682e-05
6.06879e-05
6.08766e-05
6.13084e-05
6.21785e-05
6.37213e-05
6.8739e-05
9.7895e-05
0.000138216
0.00013824
0.00013824
0.00013824
0.00013824
0.00013824
0.00013824
0.00013824
0.00013824
0.00013824
0.00013824
0.00013824
0.00013824
0.00013824
0.00013824
0.00013824
0.000138238
0.00013824
0.00013824
0.00013824
0.00013824
0.00013824
0.00013824
0.00013824
0.00013824
0.00013824
0.00013824
0.00013824
0.000138235
0.000138239
0.00013824
0.00013824
0.00013824
0.00013824
0.00013824
0.00013824
0.00013824
0.00013824
0.00013824
0.00013824
0.00013824
0.00013824
0.00013824
0.00013824
0.00013824
0.00013824
0.00013824
0.00013824
0.00013824
0.00013824
0.00013824
0.00013824
0.00013824
0.00013824
0.00013824
0.00013824
0.00013824
0.00013824
0.00013824
0.00013824
0.00013824
0.000135349
0.000112038
9.22563e-05
9.08604e-05
0.000105968
0.000128986
0.000138227
0.00013824
0.00013824
0.00013824
0.00013824
0.00013824
0.00013824
0.00013824
0.00013824
0.00013824
0.00013824
0.00013824
0.00013824
0.00013824
0.00013824
0.00013824
0.00013824
0.00013824
0.00013824
0.00013824
0.00013824
0.00013824
0.00013824
0.00013824
0.00013824
0.00013824
0.00013824
0.00013824
0.00013824
0.00013824
0.00013824
0.00013824
0.00013824
0.00013824
0.00013824
0.00013824
0.00013824
0.00013824
0.00013824
0.00013824
0.000133577
8.48862e-05
6.79505e-05
6.43152e-05
6.25664e-05
6.2067e-05
6.20046e-05
6.22872e-05
6.31187e-05
6.58736e-05
7.04986e-05
0.000113835
0.000138234
0.00013824
0.00013824
0.00013824
0.00013824
0.00013824
0.00013824
0.00013824
0.00013824
0.00013824
0.00013824
0.00013824
0.00013824
0.00013824
0.00013824
0.00013824
0.00013824
0.00013824
0.00013824
0.00013824
0.00013824
0.00013824
0.00013824
0.00013824
0.00013824
0.00013824
0.00013824
0.00013824
0.00013824
0.00013824
0.00013824
0.00013824
0.00013824
0.00013824
0.00013824
0.00013824
0.00013824
0.00013824
0.00013824
0.00013824
0.00013824
0.00013824
0.00013824
0.00013824
0.00013824
0.00013824
0.00013824
0.00013824
0.00013824
0.00013824
0.00013824
0.00013824
0.00013824
0.00013824
0.00013824
0.00013824
0.00013824
0.00013824
0.00013824
0.00013824
0.00013824
0.00013824
0.00013824
0.00013824
0.000138221
0.000138215
0.000138239
0.00013824
0.00013824
0.00013824
0.00013824
0.00013824
0.00013824
0.00013824
0.00013824
0.00013824
0.00013824
0.00013824
0.00013824
0.00013824
0.00013824
0.00013824
0.00013824
0.00013824
0.00013824
0.00013824
0.00013824
0.00013824
0.00013824
0.00013824
0.00013824
0.00013824
0.00013824
0.00013824
0.00013824
0.00013824
0.00013824
0.00013824
0.00013824
0.00013824
0.00013824
0.00013824
0.00013824
0.00013824
0.00013824
0.00013824
0.00013824
0.00013824
0.00013824
0.000138177
0.000119924
8.09035e-05
6.85995e-05
6.70876e-05
6.67587e-05
6.74575e-05
6.97821e-05
9.43431e-05
0.000132069
0.00013824
0.00013824
0.00013824
0.00013824
0.00013824
0.00013824
0.00013824
0.00013824
0.00013824
0.00013824
0.00013824
0.00013824
0.00013824
0.00013824
0.00013824
0.00013824
0.00013824
0.00013824
0.00013824
0.00013824
0.00013824
0.00013824
0.00013824
0.00013824
0.00013824
0.00013824
0.00013824
0.00013824
0.00013824
0.00013824
0.00013824
0.00013824
0.00013824
0.00013824
0.00013824
0.00013824
0.00013824
0.00013824
0.00013824
0.00013824
0.00013824
0.00013824
0.00013824
0.00013824
0.00013824
0.00013824
0.00013824
0.00013824
0.00013824
0.00013824
0.00013824
0.00013824
0.00013824
0.00013824
0.00013824
0.00013824
0.00013824
0.00013824
0.00013824
0.00013824
0.00013824
0.00013824
0.00013824
0.00013824
0.00013824
0.00013824
0.00013824
0.00013824
0.00013824
0.00013824
0.00013824
0.00013824
0.00013824
0.00013824
0.00013824
0.00013824
0.00013824
0.00013824
0.00013824
0.00013824
0.00013824
0.00013824
0.00013824
0.00013824
0.00013824
0.00013824
0.00013824
0.00013824
0.00013824
0.00013824
0.00013824
0.00013824
0.00013824
0.00013824
0.00013824
0.00013824
0.00013824
0.00013824
0.00013824
0.00013824
0.00013824
0.00013824
0.00013824
0.00013824
0.00013824
0.00013824
0.00013824
0.00013824
0.00013824
0.00013824
0.00013824
0.00013824
0.000138086
0.000127936
0.00011263
0.000107037
0.000115455
0.000132352
0.00013823
0.00013824
0.00013824
0.00013824
0.00013824
0.00013824
0.00013824
0.00013824
0.00013824
0.00013824
0.00013824
0.00013824
0.00013824
0.00013824
0.00013824
0.00013824
0.00013824
0.00013824
0.00013824
0.00013824
0.00013824
0.00013824
0.00013824
0.00013824
0.00013824
0.00013824
0.00013824
0.00013824
0.00013824
0.00013824
0.00013824
0.00013824
0.00013824
0.00013824
0.00013824
0.00013824
0.00013824
0.00013824
0.00013824
0.00013824
0.00013824
0.00013824
0.00013824
0.00013824
0.00013824
0.00013824
0.00013824
0.00013824
0.00013824
0.00013824
0.00013824
0.00013824
0.00013824
0.00013824
0.00013824
0.00013824
0.00013824
0.00013824
0.00013824
0.00013824
0.00013824
0.00013824
0.00013824
0.00013824
0.00013824
0.00013824
0.00013824
0.00013824
0.00013824
0.00013824
0.00013824
0.00013824
0.00013824
0.00013824
0.00013824
0.00013824
0.00013824
0.00013824
0.00013824
0.00013824
0.00013824
0.00013824
0.00013824
0.00013824
0.00013824
0.00013824
0.00013824
0.00013824
0.00013824
0.00013824
0.00013824
0.00013824
0.00013824
0.00013824
0.00013824
0.00013824
0.00013824
0.00013824
0.00013824
0.00013824
0.00013824
0.00013824
0.00013824
0.00013824
0.00013824
0.00013824
0.00013824
0.00013824
0.00013824
0.00013824
0.00013824
0.00013824
0.00013824
0.00013824
0.00013824
0.00013824
0.00013824
0.000138239
0.00013824
0.00013824
0.00013824
0.00013824
0.00013824
0.00013824
0.00013824
0.00013824
0.00013824
0.00013824
0.00013824
0.00013824
0.00013824
0.00013824
0.00013824
0.00013824
0.00013824
0.00013824
0.00013824
0.00013824
0.00013824
0.00013824
0.00013824
0.00013824
0.00013824
0.00013824
0.00013824
0.00013824
0.00013824
0.00013824
0.00013824
0.00013824
0.00013824
0.00013824
0.00013824
0.00013824
0.00013824
0.00013824
0.00013824
0.00013824
0.00013824
0.00013824
0.00013824
0.00013824
0.00013824
0.00013824
0.00013824
0.00013824
0.00013824
0.00013824
0.00013824
0.00013824
0.00013824
0.00013824
0.00013824
0.00013824
0.00013824
0.00013824
0.00013824
0.00013824
0.00013824
0.00013824
0.00013824
0.00013824
0.00013824
0.00013824
0.00013824
0.00013824
0.00013824
0.00013824
0.00013824
0.00013824
0.00013824
0.00013824
0.00013824
0.00013824
0.00013824
0.00013824
0.00013824
0.00013824
0.00013824
0.00013824
0.00013824
0.00013824
0.00013824
0.00013824
0.00013824
0.00013824
0.00013824
0.00013824
0.00013824
0.00013824
0.00013824
0.00013824
0.00013824
0.00013824
0.00013824
0.00013824
0.00013824
0.00013824
0.00013824
0.00013824
0.00013824
0.00013824
0.00013824
0.00013824
0.00013824
0.00013824
0.00013824
0.00013824
0.00013824
0.00013824
0.00013824
0.00013824
0.00013824
0.00013824
0.00013824
0.00013824
0.00013824
0.00013824
0.00013824
0.00013824
0.00013824
0.00013824
0.00013824
0.00013824
0.00013824
0.00013824
0.00013824
0.00013824
0.00013824
0.00013824
0.00013824
0.00013824
0.00013824
0.00013824
0.00013824
0.00013824
0.00013824
0.00013824
0.00013824
0.00013824
0.00013824
0.00013824
0.00013824
0.00013824
0.00013824
0.00013824
0.00013824
0.00013824
0.00013824
0.00013824
0.00013824
0.00013824
0.00013824
0.00013824
0.00013824
0.00013824
0.00013824
0.00013824
0.00013824
0.00013824
0.00013824
0.00013824
0.00013824
0.00013824
0.00013824
0.00013824
0.00013824
0.00013824
0.00013824
0.00013824
0.00013824
0.00013824
0.00013824
0.00013824
0.00013824
0.00013824
0.00013824
0.00013824
0.00013824
0.00013824
0.00013824
0.00013824
0.00013824
0.00013824
0.00013824
0.00013824
0.00013824
0.00013824
0.00013824
0.00013824
0.00013824
0.00013824
0.00013824
0.00013824
0.00013824
0.00013824
0.00013824
0.00013824
0.00013824
0.00013824
0.00013824
0.00013824
0.00013824
0.00013824
0.00013824
0.00013824
0.00013824
0.00013824
0.00013824
0.00013824
0.00013824
0.00013824
0.00013824
0.00013824
0.00013824
0.00013824
0.00013824
0.00013824
0.00013824
0.00013824
0.00013824
0.00013824
0.00013824
0.00013824
0.00013824
0.00013824
0.00013824
0.00013824
0.00013824
0.00013824
0.00013824
0.00013824
0.00013824
0.00013824
0.00013824
0.00013824
0.00013824
0.00013824
0.00013824
0.00013824
0.00013824
0.00013824
0.00013824
0.00013824
0.00013824
0.00013824
0.00013824
0.00013824
0.00013824
0.00013824
0.00013824
0.00013824
0.00013824
0.00013824
0.00013824
0.00013824
0.00013824
0.00013824
0.00013824
0.00013824
0.00013824
0.00013824
0.00013824
0.00013824
0.00013824
0.00013824
0.00013824
0.00013824
0.00013824
0.00013824
0.00013824
0.00013824
0.00013824
0.00013824
0.00013824
0.00013824
0.00013824
0.00013824
0.00013824
0.00013824
0.00013824
0.00013824
0.00013824
0.00013824
0.00013824
0.00013824
0.00013824
0.00013824
0.00013824
0.00013824
0.00013824
0.00013824
0.00013824
0.00013824
0.00013824
0.00013824
0.00013824
0.00013824
0.00013824
0.00013824
0.00013824
0.00013824
0.00013824
0.00013824
0.00013824
0.00013824
0.00013824
0.00013824
0.00013824
0.00013824
0.00013824
0.00013824
0.00013824
0.00013824
0.00013824
0.00013824
0.00013824
0.00013824
0.00013824
0.00013824
0.00013824
0.00013824
0.00013824
0.00013824
0.00013824
0.00013824
0.00013824
0.00013824
0.00013824
0.00013824
0.00013824
0.00013824
0.00013824
0.00013824
0.00013824
0.00013824
0.00013824
0.00013824
0.00013824
0.00013824
0.00013824
0.00013824
0.00013824
0.00013824
0.00013824
0.00013824
0.00013824
0.00013824
0.00013824
0.00013824
0.00013824
0.00013824
0.00013824
0.00013824
0.00013824
0.00013824
0.00013824
0.00013824
0.00013824
0.00013824
0.00013824
0.00013824
0.00013824
0.00013824
0.00013824
0.00013824
0.00013824
0.00013824
0.00013824
0.00013824
0.00013824
0.00013824
0.00013824
0.00013824
0.00013824
0.00013824
0.00013824
0.00013824
0.00013824
0.00013824
0.00013824
0.00013824
0.00013824
0.00013824
0.00013824
0.00013824
0.00013824
0.00013824
0.00013824
0.00013824
0.00013824
0.00013824
0.00013824
0.00013824
0.00013824
0.00013824
0.00013824
0.00013824
0.00013824
0.00013824
0.00013824
0.00013824
0.00013824
0.00013824
0.00013824
0.00013824
0.00013824
0.00013824
0.00013824
0.00013824
0.00013824
0.00013824
0.00013824
0.00013824
0.00013824
0.00013824
0.00013824
0.00013824
0.00013824
0.00013824
0.00013824
0.00013824
0.00013824
0.00013824
0.00013824
0.00013824
0.00013824
0.00013824
0.00013824
0.00013824
0.00013824
0.00013824
0.00013824
0.00013824
0.00013824
0.00013824
0.00013824
0.00013824
0.00013824
0.00013824
0.00013824
0.00013824
0.00013824
0.00013824
0.00013824
0.00013824
0.00013824
0.00013824
0.00013824
0.00013824
0.00013824
0.00013824
0.00013824
0.00013824
0.00013824
0.00013824
0.00013824
0.00013824
0.00013824
0.00013824
0.00013824
0.00013824
0.00013824
0.00013824
0.00013824
0.00013824
0.00013824
0.00013824
0.00013824
0.00013824
0.00013824
0.00013824
0.00013824
0.00013824
0.00013824
0.00013824
0.00013824
0.00013824
0.00013824
0.00013824
0.00013824
0.00013824
0.00013824
0.00013824
0.00013824
0.00013824
0.00013824
0.00013824
0.00013824
0.00013824
0.00013824
0.00013824
0.00013824
0.00013824
0.00013824
0.00013824
0.00013824
0.00013824
0.00013824
0.00013824
0.00013824
0.00013824
0.00013824
0.00013824
0.00013824
0.00013824
0.00013824
0.00013824
0.00013824
0.00013824
0.00013824
0.00013824
0.00013824
0.00013824
0.00013824
0.00013824
0.00013824
0.00013824
0.00013824
0.00013824
0.00013824
0.00013824
0.00013824
0.00013824
0.00013824
0.00013824
0.00013824
0.00013824
0.00013824
0.00013824
0.00013824
0.00013824
0.00013824
0.00013824
0.00013824
0.00013824
0.00013824
0.00013824
0.00013824
0.00013824
0.00013824
0.00013824
0.00013824
0.00013824
0.00013824
0.00013824
0.00013824
0.00013824
0.00013824
0.00013824
0.00013824
0.00013824
0.00013824
0.00013824
0.00013824
0.00013824
0.00013824
0.00013824
0.00013824
0.00013824
0.00013824
0.00013824
0.00013824
0.00013824
0.00013824
0.00013824
0.00013824
0.00013824
0.00013824
0.00013824
0.00013824
0.00013824
0.00013824
0.00013824
0.00013824
0.00013824
0.00013824
0.00013824
0.00013824
0.00013824
0.00013824
0.00013824
0.00013824
0.00013824
0.00013824
0.00013824
0.00013824
0.00013824
0.00013824
0.00013824
0.00013824
0.00013824
0.00013824
0.00013824
0.00013824
0.00013824
0.00013824
0.00013824
0.00013824
0.00013824
0.00013824
0.00013824
0.00013824
0.00013824
0.00013824
0.00013824
0.00013824
0.00013824
0.00013824
0.00013824
0.00013824
0.00013824
0.00013824
0.00013824
0.00013824
0.00013824
0.00013824
0.00013824
0.00013824
0.00013824
0.00013824
0.00013824
0.00013824
0.00013824
0.00013824
0.00013824
0.00013824
0.00013824
0.00013824
0.00013824
0.00013824
0.00013824
0.00013824
0.00013824
0.00013824
0.00013824
0.00013824
0.00013824
0.00013824
0.00013824
0.00013824
0.00013824
0.00013824
0.00013824
0.00013824
0.00013824
0.00013824
0.00013824
0.00013824
0.00013824
0.00013824
0.00013824
0.00013824
0.00013824
0.00013824
0.00013824
0.00013824
0.00013824
0.00013824
0.00013824
0.00013824
0.00013824
0.00013824
0.00013824
0.00013824
0.00013824
0.00013824
0.00013824
0.00013824
0.00013824
0.00013824
0.00013824
0.00013824
0.00013824
0.00013824
0.00013824
0.00013824
0.00013824
0.00013824
0.00013824
0.00013824
0.00013824
0.00013824
0.00013824
0.00013824
0.00013824
0.00013824
0.00013824
0.00013824
0.00013824
0.00013824
0.00013824
0.00013824
0.00013824
0.00013824
0.00013824
0.00013824
0.00013824
0.00013824
0.00013824
0.00013824
0.00013824
0.00013824
0.00013824
0.00013824
0.00013824
0.00013824
0.00013824
0.00013824
0.00013824
0.00013824
0.00013824
0.00013824
0.00013824
0.00013824
0.00013824
0.00013824
0.00013824
0.00013824
0.00013824
0.00013824
0.00013824
0.00013824
0.00013824
0.00013824
0.00013824
0.00013824
0.00013824
0.00013824
0.00013824
0.00013824
0.00013824
0.00013824
0.00013824
0.00013824
0.00013824
0.00013824
0.00013824
0.00013824
0.00013824
0.00013824
0.00013824
0.00013824
0.00013824
0.00013824
0.00013824
0.00013824
0.00013824
0.00013824
0.00013824
0.00013824
0.00013824
0.00013824
0.00013824
0.00013824
0.00013824
0.00013824
0.00013824
0.00013824
0.00013824
0.00013824
0.00013824
0.00013824
0.00013824
0.00013824
0.00013824
0.00013824
0.00013824
0.00013824
0.00013824
0.00013824
0.00013824
0.00013824
0.00013824
0.00013824
0.00013824
0.00013824
0.00013824
0.00013824
0.00013824
0.00013824
0.00013824
0.00013824
0.00013824
0.00013824
0.00013824
0.00013824
0.00013824
0.00013824
0.00013824
0.00013824
0.00013824
0.00013824
0.00013824
0.00013824
0.00013824
0.00013824
0.00013824
0.00013824
0.00013824
0.00013824
0.00013824
0.00013824
0.00013824
0.00013824
0.00013824
0.00013824
0.00013824
0.00013824
0.00013824
0.00013824
0.00013824
0.00013824
0.00013824
0.00013824
0.00013824