/*--------------------------------*- C++ -*----------------------------------*\
| =========                 |                                                 |
| \\      /  F ield         | OpenFOAM: The Open Source CFD Toolbox           |
|  \\    /   O peration     | Version:  2406                                  |
|   \\  /    A nd           | Website:  www.openfoam.com                      |
|    \\/     M anipulation  |                                                 |
\*---------------------------------------------------------------------------*/
FoamFile
{
    version     2.0;
    format      ascii;
    arch        "LSB;label=32;scalar=64";
    class       volScalarField;
    location    "0.95";
    object      C_0_0;
}
// * * * * * * * * * * * * * * * * * * * * * * * * * * * * * * * * * * * * * //

dimensions      [1 -3 0 0 0 0 0];

internalField   nonuniform List<scalar> 
14400
(
3.43467
3.43338
3.43068
3.42626
3.41953
3.40922
3.38754
3.37281
3.38962
3.41286
3.42457
3.43283
3.43888
3.44333
3.44652
3.44861
3.44969
3.44975
3.44872
3.44644
3.44255
3.43644
3.4268
3.40592
3.39258
3.4111
3.43583
3.44894
3.45879
3.46662
3.47308
3.47852
3.48316
3.48716
3.49061
3.4936
3.49618
3.49838
3.50025
3.5018
3.50306
3.50405
3.50477
3.50524
3.50546
3.50544
3.50518
3.50468
3.50395
3.50299
3.50179
3.50034
3.49865
3.4967
3.49449
3.492
3.48922
3.48614
3.48273
3.47897
3.47482
3.47026
3.46523
3.45968
3.45352
3.44667
3.43898
3.43027
3.42027
3.40855
3.39442
3.37662
3.34544
3.31443
3.30992
3.30775
3.30729
3.33298
3.36004
3.37412
3.38424
3.39175
3.3974
3.40158
3.40458
3.40654
3.40757
3.40772
3.40702
3.40544
3.40293
3.39937
3.39457
3.38819
3.3796
3.36759
3.34414
3.32662
3.34008
3.36048
3.36966
3.37508
3.37794
3.37876
3.37768
3.37455
3.36888
3.35947
3.33883
3.32503
3.34222
3.36544
3.37726
3.38567
3.39191
3.39659
3.40006
3.40252
3.40411
3.40489
3.43595
3.43479
3.43239
3.42857
3.42309
3.41563
3.40619
3.39553
3.40808
3.41904
3.42801
3.43504
3.44047
3.4446
3.44761
3.44963
3.4507
3.45084
3.44998
3.44803
3.44478
3.43996
3.43325
3.42469
3.41529
3.4294
3.44176
3.45218
3.4608
3.468
3.4741
3.47931
3.4838
3.4877
3.49108
3.49401
3.49654
3.49872
3.50056
3.50209
3.50334
3.50431
3.50502
3.50548
3.5057
3.50567
3.50541
3.50492
3.50419
3.50323
3.50203
3.50059
3.4989
3.49696
3.49476
3.49229
3.48953
3.48646
3.48308
3.47935
3.47524
3.47072
3.46575
3.46028
3.45422
3.4475
3.44
3.43156
3.42198
3.41095
3.39808
3.38281
3.36458
3.34127
3.33872
3.3367
3.33437
3.35267
3.36682
3.37806
3.38683
3.39363
3.39885
3.40278
3.40561
3.40747
3.40844
3.40858
3.40789
3.40638
3.40398
3.40062
3.39615
3.39038
3.383
3.37368
3.3623
3.34912
3.35865
3.36705
3.3734
3.37763
3.37999
3.38066
3.37972
3.3771
3.37261
3.366
3.35734
3.34751
3.36038
3.37153
3.38065
3.38785
3.39346
3.39779
3.40106
3.4034
3.40492
3.40566
3.4384
3.43745
3.43551
3.43256
3.42863
3.42397
3.41945
3.41766
3.42112
3.42718
3.43337
3.43884
3.44338
3.44698
3.4497
3.45158
3.45265
3.45291
3.45235
3.45091
3.44858
3.44536
3.44152
3.43796
3.43733
3.44212
3.44956
3.4572
3.46424
3.47049
3.47599
3.48082
3.48505
3.48875
3.49199
3.49482
3.49727
3.49938
3.50118
3.50267
3.50389
3.50484
3.50553
3.50597
3.50618
3.50615
3.50588
3.50538
3.50466
3.5037
3.50251
3.50108
3.49941
3.49749
3.49531
3.49286
3.49013
3.48711
3.48377
3.4801
3.47607
3.47164
3.46679
3.46145
3.45559
3.44912
3.44196
3.434
3.42513
3.41521
3.40412
3.39191
3.37913
3.3679
3.36107
3.3589
3.36121
3.36791
3.37643
3.38449
3.3914
3.39708
3.4016
3.40507
3.40761
3.40928
3.41015
3.41025
3.4096
3.40819
3.40599
3.40296
3.39905
3.39418
3.38836
3.38176
3.37521
3.37109
3.37204
3.37563
3.37927
3.38206
3.38372
3.38418
3.38344
3.38151
3.37845
3.37454
3.37068
3.36944
3.37328
3.3796
3.38597
3.3916
3.39629
3.40007
3.40298
3.40511
3.4065
3.40718
3.44181
3.44108
3.43963
3.43752
3.43491
3.43215
3.42995
3.42947
3.43149
3.4352
3.43945
3.44357
3.44721
3.45025
3.45263
3.45435
3.45541
3.45581
3.45557
3.4547
3.45325
3.4514
3.44949
3.44826
3.44889
3.45214
3.45716
3.46282
3.46845
3.47374
3.47857
3.48292
3.48681
3.49027
3.49332
3.49601
3.49835
3.50037
3.50209
3.50353
3.5047
3.50562
3.50628
3.5067
3.50689
3.50685
3.50658
3.50608
3.50536
3.50441
3.50323
3.50181
3.50016
3.49827
3.49612
3.49371
3.49104
3.48807
3.4848
3.48122
3.47729
3.47299
3.46829
3.46316
3.45755
3.45142
3.44471
3.43736
3.42934
3.42062
3.41128
3.40156
3.39209
3.38404
3.3787
3.37655
3.37755
3.38127
3.38651
3.39205
3.39721
3.40168
3.40539
3.40831
3.41046
3.41189
3.41263
3.41268
3.41206
3.41078
3.40883
3.4062
3.40289
3.39894
3.39448
3.38982
3.38562
3.383
3.38275
3.38414
3.386
3.38762
3.38864
3.38889
3.38835
3.38705
3.38515
3.38301
3.38135
3.38131
3.38366
3.38761
3.39204
3.39629
3.40005
3.4032
3.4057
3.40755
3.40878
3.40939
3.44595
3.44543
3.44441
3.44299
3.44134
3.43977
3.43873
3.43877
3.44018
3.44267
3.44568
3.44877
3.45166
3.45417
3.45622
3.45778
3.45882
3.45937
3.45942
3.45905
3.45834
3.45748
3.45678
3.45671
3.45782
3.46039
3.46412
3.46847
3.473
3.47744
3.48162
3.48549
3.48901
3.49218
3.49502
3.49753
3.49974
3.50165
3.50329
3.50466
3.50577
3.50664
3.50727
3.50767
3.50784
3.50778
3.5075
3.507
3.50628
3.50534
3.50418
3.50278
3.50116
3.4993
3.4972
3.49484
3.49222
3.48933
3.48615
3.48268
3.47888
3.47474
3.47024
3.46535
3.46004
3.4543
3.44809
3.4414
3.43424
3.42667
3.41882
3.41097
3.40362
3.39745
3.39314
3.39104
3.39114
3.39311
3.3963
3.4
3.40369
3.40707
3.40996
3.4123
3.41405
3.41521
3.41578
3.41577
3.41519
3.41405
3.41235
3.41011
3.40737
3.40421
3.40079
3.3974
3.39446
3.39251
3.39184
3.39217
3.39297
3.39378
3.39431
3.39441
3.39402
3.3932
3.3921
3.39101
3.39039
3.39078
3.39245
3.39513
3.39828
3.40147
3.40442
3.40697
3.40905
3.41062
3.41168
3.4122
3.45062
3.45026
3.44959
3.44868
3.44769
3.44685
3.44643
3.44671
3.4478
3.4496
3.45182
3.45418
3.45647
3.45854
3.4603
3.46171
3.46274
3.4634
3.46371
3.46374
3.46359
3.46341
3.46344
3.46397
3.46527
3.46748
3.47046
3.47395
3.47766
3.48139
3.48499
3.4884
3.49155
3.49443
3.49704
3.49936
3.50142
3.50321
3.50475
3.50604
3.50709
3.50791
3.50849
3.50886
3.50901
3.50893
3.50865
3.50815
3.50743
3.5065
3.50535
3.50399
3.5024
3.50058
3.49852
3.49623
3.49368
3.49088
3.48781
3.48445
3.4808
3.47685
3.47256
3.46794
3.46297
3.45764
3.45194
3.4459
3.43955
3.43298
3.42635
3.41989
3.41397
3.409
3.40538
3.40333
3.40285
3.40372
3.40557
3.40795
3.41049
3.41293
3.41509
3.41688
3.41822
3.41911
3.41952
3.41944
3.41889
3.41787
3.4164
3.41451
3.41226
3.40974
3.40709
3.40452
3.40232
3.40074
3.39992
3.39974
3.39993
3.40023
3.40042
3.4004
3.40012
3.39962
3.39902
3.39853
3.39842
3.39895
3.40024
3.40218
3.40448
3.40688
3.40918
3.41122
3.41291
3.41422
3.4151
3.41554
3.45565
3.45542
3.455
3.45445
3.45391
3.45351
3.45342
3.45381
3.45473
3.45611
3.45781
3.45966
3.4615
3.46322
3.46475
3.46602
3.46703
3.46777
3.46828
3.46861
3.46885
3.46913
3.4696
3.47045
3.47183
3.4738
3.4763
3.47919
3.48229
3.48545
3.48857
3.49156
3.49437
3.49696
3.49933
3.50147
3.50337
3.50503
3.50646
3.50766
3.50864
3.5094
3.50994
3.51027
3.51039
3.5103
3.51001
3.5095
3.50879
3.50788
3.50675
3.50541
3.50386
3.50208
3.50009
3.49786
3.4954
3.49269
3.48974
3.48652
3.48304
3.47928
3.47523
3.47089
3.46626
3.46134
3.45615
3.45071
3.44509
3.43937
3.4337
3.42828
3.42335
3.4192
3.41605
3.41406
3.41321
3.41337
3.4143
3.41573
3.41739
3.41906
3.4206
3.42189
3.42286
3.42349
3.42373
3.42359
3.42305
3.42214
3.42087
3.41928
3.41743
3.41539
3.4133
3.41129
3.40955
3.40821
3.40736
3.40693
3.40678
3.40677
3.40675
3.40665
3.40644
3.40614
3.40584
3.40568
3.4058
3.40636
3.4074
3.40885
3.41058
3.41241
3.41419
3.4158
3.41717
3.41823
3.41896
3.41932
3.4609
3.46077
3.46052
3.46023
3.45997
3.45984
3.45995
3.46039
3.46119
3.4623
3.46366
3.46514
3.46666
3.46811
3.46943
3.4706
3.47158
3.47238
3.47303
3.47357
3.47408
3.47464
3.47538
3.4764
3.47779
3.47959
3.48176
3.48421
3.48685
3.48957
3.49227
3.4949
3.49739
3.49972
3.50186
3.50381
3.50555
3.50708
3.50839
3.50951
3.51041
3.51111
3.5116
3.51189
3.51198
3.51187
3.51157
3.51106
3.51036
3.50946
3.50836
3.50705
3.50554
3.50382
3.50188
3.49973
3.49736
3.49476
3.49193
3.48886
3.48555
3.48199
3.47819
3.47413
3.46984
3.46532
3.4606
3.45571
3.45071
3.44571
3.4408
3.43616
3.43196
3.42838
3.42558
3.42364
3.42255
3.42224
3.42255
3.42329
3.42427
3.42534
3.42635
3.42721
3.42786
3.42824
3.42833
3.42812
3.42759
3.42677
3.42566
3.42431
3.42277
3.42111
3.41941
3.41779
3.41636
3.41521
3.41437
3.41383
3.4135
3.41331
3.41316
3.41301
3.41284
3.41266
3.41253
3.41253
3.41276
3.41328
3.41413
3.41525
3.41657
3.41798
3.41937
3.42064
3.42173
3.42258
3.42317
3.42347
3.46629
3.46622
3.4661
3.46597
3.4659
3.46593
3.46616
3.46661
3.46732
3.46826
3.46937
3.4706
3.47187
3.47311
3.47429
3.47535
3.47631
3.47714
3.47788
3.47857
3.47925
3.47999
3.48088
3.48198
3.48335
3.485
3.48692
3.48906
3.49134
3.4937
3.49606
3.49837
3.50058
3.50266
3.50459
3.50635
3.50793
3.50933
3.51054
3.51156
3.51238
3.51302
3.51346
3.51371
3.51377
3.51365
3.51333
3.51282
3.51213
3.51124
3.51017
3.50889
3.50743
3.50576
3.50389
3.50182
3.49954
3.49706
3.49435
3.49144
3.4883
3.48495
3.48139
3.47762
3.47365
3.4695
3.46521
3.4608
3.45635
3.45194
3.44765
3.44361
3.43995
3.4368
3.43424
3.43235
3.43112
3.43049
3.43036
3.4306
3.43107
3.43166
3.43225
3.43275
3.43312
3.43329
3.43324
3.43296
3.43243
3.43167
3.4307
3.42954
3.42824
3.42685
3.42545
3.42411
3.4229
3.42189
3.42109
3.42051
3.42009
3.4198
3.41958
3.4194
3.41924
3.41913
3.41909
3.41917
3.41942
3.41989
3.42058
3.42146
3.42248
3.42357
3.42465
3.42565
3.42652
3.4272
3.42768
3.42792
3.47175
3.47173
3.47169
3.47167
3.47171
3.47184
3.47213
3.47258
3.47322
3.47403
3.47498
3.47602
3.47711
3.47819
3.47924
3.48023
3.48115
3.482
3.48279
3.48356
3.48435
3.4852
3.48616
3.48729
3.48861
3.49014
3.49187
3.49376
3.49576
3.49782
3.49989
3.50193
3.50389
3.50575
3.50749
3.50907
3.51051
3.51178
3.51287
3.5138
3.51455
3.51512
3.51551
3.51572
3.51575
3.51561
3.51528
3.51477
3.51409
3.51322
3.51217
3.51093
3.50951
3.5079
3.50611
3.50412
3.50194
3.49957
3.497
3.49423
3.49128
3.48813
3.4848
3.48129
3.47763
3.47383
3.46992
3.46595
3.46196
3.45803
3.45424
3.45068
3.44743
3.4446
3.44225
3.44041
3.43909
3.43824
3.4378
3.43767
3.43776
3.43798
3.43823
3.43844
3.43856
3.43855
3.43838
3.43804
3.4375
3.43679
3.43592
3.43491
3.43379
3.43261
3.43143
3.43029
3.42925
3.42835
3.4276
3.42701
3.42656
3.42622
3.42596
3.42576
3.42561
3.42552
3.42552
3.42562
3.42587
3.42627
3.42683
3.42753
3.42833
3.42918
3.43002
3.43081
3.43149
3.43203
3.43241
3.4326
3.47724
3.47724
3.47726
3.4773
3.47741
3.47761
3.47792
3.47836
3.47895
3.47966
3.48049
3.48139
3.48234
3.4833
3.48425
3.48517
3.48606
3.4869
3.48772
3.48854
3.48939
3.49029
3.49128
3.4924
3.49367
3.49509
3.49666
3.49834
3.50011
3.50193
3.50376
3.50557
3.50731
3.50897
3.51052
3.51195
3.51324
3.51439
3.51538
3.51621
3.51689
3.51739
3.51773
3.51791
3.51791
3.51775
3.51741
3.5169
3.51623
3.51538
3.51435
3.51316
3.51178
3.51024
3.50851
3.50661
3.50453
3.50227
3.49983
3.49722
3.49444
3.49149
3.48838
3.48513
3.48175
3.47826
3.4747
3.4711
3.46751
3.46399
3.4606
3.45742
3.45451
3.45193
3.44974
3.44795
3.44658
3.44558
3.44492
3.44453
3.44433
3.44426
3.44424
3.44422
3.44414
3.44398
3.4437
3.4433
3.44275
3.44208
3.44128
3.44038
3.4394
3.43838
3.43736
3.43637
3.43546
3.43465
3.43395
3.43338
3.43292
3.43256
3.43227
3.43206
3.43191
3.43184
3.43184
3.43194
3.43215
3.43249
3.43294
3.43349
3.43412
3.43479
3.43545
3.43606
3.4366
3.43703
3.43733
3.43748
3.48272
3.48274
3.48279
3.48288
3.48303
3.48326
3.48358
3.48401
3.48455
3.48519
3.48592
3.48672
3.48756
3.48843
3.4893
3.49016
3.491
3.49184
3.49266
3.4935
3.49436
3.49528
3.49628
3.49737
3.49858
3.49989
3.50132
3.50284
3.50442
3.50603
3.50766
3.50926
3.51081
3.5123
3.51368
3.51497
3.51613
3.51716
3.51805
3.51879
3.51939
3.51984
3.52013
3.52026
3.52024
3.52005
3.51971
3.5192
3.51854
3.51771
3.51671
3.51555
3.51423
3.51274
3.51109
3.50927
3.50729
3.50515
3.50284
3.50038
3.49777
3.49501
3.49211
3.4891
3.48598
3.48277
3.47952
3.47625
3.473
3.46982
3.46676
3.46389
3.46124
3.45887
3.45681
3.45508
3.45368
3.45259
3.45178
3.45119
3.45078
3.45048
3.45025
3.45004
3.44981
3.44952
3.44915
3.44869
3.44814
3.44748
3.44674
3.44592
3.44505
3.44415
3.44325
3.44238
3.44156
3.44083
3.44018
3.43964
3.43918
3.43881
3.43852
3.4383
3.43815
3.43806
3.43806
3.43814
3.43832
3.43859
3.43895
3.43939
3.43988
3.4404
3.44091
3.44139
3.44182
3.44215
3.44239
3.44251
3.48818
3.48821
3.48828
3.4884
3.48857
3.48881
3.48913
3.48954
3.49004
3.49062
3.49128
3.492
3.49276
3.49354
3.49435
3.49515
3.49596
3.49677
3.49759
3.49842
3.49929
3.5002
3.50118
3.50223
3.50337
3.50459
3.50589
3.50726
3.50868
3.51013
3.51158
3.51301
3.51439
3.51571
3.51695
3.5181
3.51914
3.52006
3.52086
3.52152
3.52205
3.52243
3.52268
3.52277
3.52272
3.52252
3.52217
3.52166
3.52101
3.5202
3.51923
3.51812
3.51684
3.51542
3.51384
3.5121
3.51022
3.50819
3.50601
3.50369
3.50124
3.49866
3.49596
3.49316
3.49028
3.48734
3.48435
3.48137
3.47841
3.47552
3.47275
3.47012
3.4677
3.4655
3.46356
3.46188
3.46048
3.45933
3.45841
3.45768
3.45711
3.45664
3.45625
3.45589
3.45552
3.45513
3.45469
3.45419
3.45362
3.45298
3.45227
3.45152
3.45072
3.44991
3.44911
3.44833
3.44759
3.44692
3.44632
3.4458
3.44535
3.44499
3.44469
3.44447
3.44431
3.44422
3.4442
3.44425
3.44439
3.4446
3.44488
3.44522
3.4456
3.44601
3.44641
3.44679
3.44712
3.44738
3.44757
3.44766
3.49361
3.49365
3.49373
3.49385
3.49404
3.49428
3.4946
3.49499
3.49545
3.49598
3.49658
3.49723
3.49792
3.49865
3.49939
3.50015
3.50092
3.5017
3.5025
3.50331
3.50416
3.50505
3.506
3.507
3.50807
3.5092
3.5104
3.51164
3.51292
3.51422
3.51552
3.51679
3.51803
3.51921
3.52032
3.52134
3.52227
3.52309
3.5238
3.52438
3.52484
3.52518
3.52537
3.52543
3.52536
3.52514
3.52478
3.52428
3.52363
3.52284
3.52191
3.52083
3.51961
3.51824
3.51673
3.51508
3.5133
3.51137
3.50932
3.50713
3.50483
3.50242
3.49991
3.49731
3.49465
3.49193
3.48919
3.48646
3.48375
3.48111
3.47857
3.47617
3.47393
3.47187
3.47004
3.46842
3.46702
3.46583
3.46484
3.46401
3.46332
3.46273
3.46221
3.46174
3.46127
3.46079
3.46029
3.45975
3.45917
3.45854
3.45786
3.45715
3.45642
3.45568
3.45494
3.45423
3.45356
3.45294
3.45237
3.45188
3.45145
3.45109
3.45079
3.45056
3.4504
3.4503
3.45026
3.45029
3.45038
3.45054
3.45075
3.45101
3.45131
3.45162
3.45193
3.45223
3.45248
3.45269
3.45283
3.45291
3.49899
3.49904
3.49912
3.49925
3.49944
3.49968
3.49999
3.50036
3.50079
3.50128
3.50183
3.50242
3.50306
3.50373
3.50442
3.50514
3.50587
3.50661
3.50738
3.50817
3.50899
3.50985
3.51075
3.51171
3.51271
3.51376
3.51486
3.51599
3.51714
3.51831
3.51947
3.52061
3.52172
3.52277
3.52376
3.52468
3.5255
3.52623
3.52686
3.52737
3.52777
3.52805
3.5282
3.52823
3.52813
3.5279
3.52753
3.52703
3.5264
3.52563
3.52473
3.52369
3.52252
3.52121
3.51977
3.5182
3.51651
3.51469
3.51275
3.5107
3.50854
3.50628
3.50394
3.50153
3.49906
3.49655
3.49403
3.49151
3.48903
3.4866
3.48426
3.48204
3.47996
3.47804
3.47629
3.47473
3.47335
3.47215
3.47111
3.47021
3.46943
3.46875
3.46814
3.46757
3.46702
3.46648
3.46593
3.46536
3.46476
3.46414
3.46348
3.46281
3.46212
3.46143
3.46075
3.46009
3.45947
3.45889
3.45836
3.45789
3.45748
3.45713
3.45683
3.4566
3.45642
3.45631
3.45625
3.45625
3.45631
3.45642
3.45658
3.45677
3.457
3.45723
3.45747
3.4577
3.4579
3.45806
3.45817
3.45822
3.50434
3.50438
3.50447
3.5046
3.50479
3.50502
3.50531
3.50566
3.50606
3.50652
3.50703
3.50758
3.50816
3.50878
3.50943
3.5101
3.51079
3.51151
3.51224
3.513
3.51379
3.51461
3.51546
3.51636
3.51729
3.51827
3.51927
3.52031
3.52135
3.52241
3.52345
3.52447
3.52546
3.5264
3.52729
3.5281
3.52883
3.52948
3.53003
3.53047
3.53082
3.53105
3.53116
3.53116
3.53104
3.53079
3.53042
3.52992
3.5293
3.52856
3.52768
3.52668
3.52556
3.52431
3.52294
3.52145
3.51984
3.51812
3.51629
3.51436
3.51234
3.51023
3.50805
3.50581
3.50351
3.50119
3.49886
3.49654
3.49424
3.492
3.48984
3.48778
3.48583
3.48402
3.48236
3.48085
3.4795
3.47829
3.47723
3.47628
3.47545
3.4747
3.47401
3.47338
3.47277
3.47218
3.47159
3.47099
3.47038
3.46976
3.46912
3.46847
3.46782
3.46717
3.46654
3.46592
3.46534
3.4648
3.4643
3.46384
3.46345
3.4631
3.46281
3.46257
3.46239
3.46226
3.46218
3.46216
3.46218
3.46225
3.46236
3.4625
3.46267
3.46285
3.46303
3.4632
3.46335
3.46347
3.46356
3.4636
3.50964
3.50968
3.50977
3.5099
3.51008
3.51031
3.51058
3.51091
3.51129
3.51171
3.51218
3.51269
3.51323
3.51381
3.51442
3.51505
3.5157
3.51638
3.51707
3.5178
3.51855
3.51932
3.52013
3.52097
3.52184
3.52274
3.52367
3.52461
3.52556
3.52651
3.52745
3.52837
3.52925
3.53009
3.53088
3.5316
3.53225
3.53282
3.5333
3.53368
3.53397
3.53416
3.53424
3.53421
3.53406
3.5338
3.53343
3.53294
3.53233
3.5316
3.53076
3.5298
3.52872
3.52753
3.52622
3.52481
3.52329
3.52166
3.51994
3.51813
3.51623
3.51426
3.51222
3.51013
3.508
3.50584
3.50368
3.50153
3.4994
3.49733
3.49532
3.49339
3.49157
3.48986
3.48828
3.48682
3.4855
3.4843
3.48322
3.48225
3.48138
3.48058
3.47984
3.47916
3.47851
3.47788
3.47726
3.47664
3.47602
3.4754
3.47477
3.47414
3.47352
3.4729
3.4723
3.47172
3.47117
3.47065
3.47018
3.46975
3.46936
3.46902
3.46873
3.46849
3.4683
3.46816
3.46807
3.46802
3.46801
3.46805
3.46811
3.46821
3.46833
3.46846
3.46859
3.46872
3.46883
3.46892
3.46898
3.46902
3.5149
3.51494
3.51503
3.51515
3.51532
3.51554
3.5158
3.51611
3.51646
3.51685
3.51729
3.51776
3.51827
3.51881
3.51938
3.51997
3.52058
3.52122
3.52188
3.52257
3.52328
3.52401
3.52477
3.52555
3.52636
3.52719
3.52804
3.5289
3.52976
3.53062
3.53147
3.53229
3.53308
3.53383
3.53453
3.53517
3.53575
3.53624
3.53666
3.53699
3.53723
3.53738
3.53742
3.53736
3.5372
3.53693
3.53656
3.53607
3.53548
3.53477
3.53396
3.53303
3.532
3.53086
3.52962
3.52828
3.52683
3.5253
3.52368
3.52197
3.52019
3.51834
3.51644
3.51449
3.5125
3.5105
3.50849
3.50649
3.50451
3.50258
3.50071
3.49891
3.49719
3.49558
3.49407
3.49266
3.49137
3.49019
3.48911
3.48812
3.48722
3.48639
3.48563
3.4849
3.48422
3.48356
3.48292
3.48229
3.48166
3.48104
3.48042
3.47981
3.47921
3.47862
3.47804
3.47749
3.47696
3.47647
3.47601
3.4756
3.47522
3.47489
3.47461
3.47436
3.47417
3.47401
3.4739
3.47383
3.4738
3.4738
3.47384
3.4739
3.47397
3.47406
3.47416
3.47425
3.47433
3.4744
3.47444
3.47447
3.52012
3.52016
3.52024
3.52036
3.52052
3.52072
3.52097
3.52126
3.52159
3.52196
3.52236
3.5228
3.52328
3.52378
3.52431
3.52487
3.52545
3.52605
3.52667
3.52731
3.52798
3.52867
3.52938
3.53011
3.53086
3.53162
3.5324
3.53319
3.53397
3.53475
3.53551
3.53625
3.53696
3.53763
3.53825
3.53881
3.53932
3.53975
3.54011
3.54039
3.54059
3.54069
3.54071
3.54063
3.54045
3.54017
3.53979
3.53931
3.53873
3.53805
3.53726
3.53637
3.53538
3.5343
3.53311
3.53184
3.53047
3.52902
3.52749
3.52589
3.52422
3.52248
3.5207
3.51888
3.51703
3.51516
3.51329
3.51142
3.50958
3.50778
3.50603
3.50434
3.50272
3.50119
3.49974
3.49839
3.49714
3.49597
3.4949
3.49391
3.493
3.49215
3.49136
3.49061
3.4899
3.48922
3.48857
3.48793
3.4873
3.48668
3.48607
3.48547
3.48488
3.48431
3.48376
3.48323
3.48273
3.48225
3.48181
3.48141
3.48104
3.48072
3.48043
3.48019
3.47998
3.47982
3.4797
3.47961
3.47955
3.47953
3.47953
3.47956
3.47961
3.47966
3.47972
3.47979
3.47984
3.47989
3.47992
3.47994
3.52529
3.52533
3.52541
3.52552
3.52567
3.52587
3.5261
3.52637
3.52668
3.52702
3.5274
3.52781
3.52825
3.52872
3.52922
3.52974
3.53028
3.53085
3.53143
3.53204
3.53266
3.53331
3.53397
3.53465
3.53534
3.53604
3.53676
3.53747
3.53818
3.53889
3.53957
3.54024
3.54087
3.54146
3.54201
3.54251
3.54295
3.54333
3.54364
3.54387
3.54403
3.5441
3.54409
3.54398
3.54379
3.54351
3.54313
3.54265
3.54209
3.54142
3.54066
3.53981
3.53886
3.53783
3.5367
3.53549
3.5342
3.53283
3.53138
3.52987
3.5283
3.52668
3.52501
3.5233
3.52157
3.51982
3.51807
3.51633
3.51461
3.51292
3.51128
3.50969
3.50816
3.5067
3.50532
3.50402
3.50281
3.50167
3.50061
3.49963
3.49871
3.49785
3.49704
3.49628
3.49556
3.49487
3.4942
3.49355
3.49292
3.49231
3.4917
3.49112
3.49054
3.48999
3.48945
3.48894
3.48845
3.488
3.48757
3.48718
3.48682
3.4865
3.48622
3.48597
3.48576
3.48559
3.48545
3.48535
3.48527
3.48523
3.48521
3.48521
3.48523
3.48526
3.48529
3.48533
3.48537
3.4854
3.48542
3.48543
3.53043
3.53046
3.53054
3.53064
3.53079
3.53097
3.53119
3.53144
3.53173
3.53205
3.5324
3.53279
3.5332
3.53364
3.5341
3.53459
3.5351
3.53563
3.53617
3.53674
3.53733
3.53793
3.53854
3.53917
3.53981
3.54046
3.54111
3.54176
3.5424
3.54304
3.54366
3.54425
3.54482
3.54535
3.54583
3.54627
3.54666
3.54698
3.54724
3.54743
3.54755
3.54759
3.54755
3.54743
3.54723
3.54694
3.54656
3.54609
3.54554
3.54489
3.54416
3.54334
3.54244
3.54145
3.54038
3.53923
3.538
3.5367
3.53534
3.53392
3.53244
3.53091
3.52935
3.52775
3.52613
3.52449
3.52285
3.52122
3.51961
3.51802
3.51648
3.51498
3.51353
3.51214
3.51082
3.50957
3.5084
3.50729
3.50625
3.50527
3.50435
3.50349
3.50268
3.50191
3.50118
3.50048
3.49981
3.49916
3.49853
3.49792
3.49732
3.49674
3.49618
3.49564
3.49512
3.49463
3.49416
3.49371
3.4933
3.49291
3.49256
3.49225
3.49196
3.49172
3.4915
3.49132
3.49117
3.49105
3.49097
3.4909
3.49086
3.49084
3.49083
3.49084
3.49086
3.49087
3.49089
3.49091
3.49093
3.49093
3.53553
3.53556
3.53563
3.53573
3.53587
3.53604
3.53624
3.53648
3.53675
3.53705
3.53738
3.53773
3.53812
3.53853
3.53896
3.53942
3.53989
3.54039
3.5409
3.54143
3.54197
3.54253
3.5431
3.54368
3.54427
3.54486
3.54546
3.54605
3.54664
3.54721
3.54777
3.5483
3.5488
3.54927
3.5497
3.55008
3.55042
3.55069
3.55091
3.55106
3.55115
3.55116
3.5511
3.55096
3.55075
3.55045
3.55008
3.54962
3.54907
3.54845
3.54774
3.54696
3.54609
3.54515
3.54413
3.54304
3.54187
3.54065
3.53936
3.53802
3.53662
3.53519
3.53372
3.53222
3.53069
3.52916
3.52762
3.52609
3.52458
3.52309
3.52163
3.52021
3.51884
3.51752
3.51626
3.51505
3.51391
3.51283
3.51181
3.51085
3.50995
3.50909
3.50828
3.50751
3.50677
3.50607
3.5054
3.50475
3.50412
3.50351
3.50292
3.50236
3.50181
3.50128
3.50077
3.50029
3.49983
3.49939
3.49899
3.49862
3.49827
3.49796
3.49768
3.49743
3.49721
3.49702
3.49686
3.49673
3.49663
3.49655
3.49649
3.49645
3.49643
3.49642
3.49641
3.49642
3.49642
3.49643
3.49644
3.49644
3.54059
3.54062
3.54069
3.54078
3.54091
3.54107
3.54126
3.54148
3.54173
3.54201
3.54232
3.54265
3.54301
3.54339
3.5438
3.54422
3.54467
3.54513
3.5456
3.5461
3.5466
3.54712
3.54765
3.54818
3.54872
3.54927
3.54981
3.55035
3.55088
3.5514
3.5519
3.55237
3.55282
3.55324
3.55361
3.55395
3.55423
3.55447
3.55465
3.55476
3.55482
3.55481
3.55473
3.55457
3.55435
3.55405
3.55367
3.55322
3.55269
3.55209
3.55141
3.55065
3.54982
3.54892
3.54795
3.54691
3.54581
3.54465
3.54343
3.54217
3.54085
3.5395
3.53811
3.5367
3.53527
3.53383
3.53239
3.53095
3.52952
3.52812
3.52674
3.52539
3.52409
3.52283
3.52163
3.52047
3.51937
3.51832
3.51732
3.51638
3.51549
3.51464
3.51383
3.51306
3.51233
3.51163
3.51096
3.51031
3.50969
3.50909
3.50851
3.50795
3.50741
3.50689
3.50639
3.50592
3.50547
3.50505
3.50465
3.50429
3.50395
3.50364
3.50336
3.50311
3.50288
3.50269
3.50252
3.50239
3.50227
3.50218
3.5021
3.50205
3.50201
3.50198
3.50197
3.50196
3.50195
3.50195
3.50195
3.50195
3.54562
3.54565
3.54571
3.5458
3.54592
3.54607
3.54625
3.54646
3.54669
3.54695
3.54724
3.54755
3.54788
3.54824
3.54861
3.54901
3.54942
3.54985
3.55029
3.55075
3.55122
3.5517
3.55218
3.55268
3.55317
3.55367
3.55417
3.55466
3.55513
3.5556
3.55605
3.55647
3.55687
3.55724
3.55757
3.55786
3.5581
3.5583
3.55844
3.55853
3.55855
3.55852
3.55842
3.55826
3.55802
3.55772
3.55735
3.5569
3.55639
3.5558
3.55515
3.55442
3.55363
3.55277
3.55184
3.55085
3.54981
3.54871
3.54756
3.54636
3.54512
3.54384
3.54254
3.54121
3.53986
3.53851
3.53715
3.53579
3.53444
3.53312
3.53181
3.53054
3.5293
3.5281
3.52694
3.52583
3.52477
3.52375
3.52278
3.52186
3.52098
3.52014
3.51935
3.51859
3.51786
3.51716
3.51649
3.51585
3.51523
3.51464
3.51407
3.51352
3.51299
3.51248
3.51199
3.51153
3.51109
3.51068
3.51029
3.50993
3.50959
3.50929
3.50901
3.50875
3.50853
3.50833
3.50816
3.50801
3.50789
3.50778
3.5077
3.50763
3.50758
3.50754
3.50751
3.50749
3.50748
3.50747
3.50746
3.50746
3.55062
3.55065
3.55071
3.55079
3.5509
3.55104
3.55121
3.5514
3.55162
3.55186
3.55213
3.55242
3.55273
3.55306
3.55341
3.55378
3.55416
3.55456
3.55497
3.55539
3.55583
3.55627
3.55672
3.55717
3.55762
3.55808
3.55853
3.55897
3.5594
3.55982
3.56022
3.5606
3.56095
3.56127
3.56156
3.56181
3.56202
3.56218
3.56229
3.56235
3.56235
3.5623
3.56218
3.56201
3.56177
3.56146
3.56109
3.56066
3.56016
3.55959
3.55895
3.55826
3.5575
3.55667
3.55579
3.55485
3.55386
3.55282
3.55172
3.55059
3.54942
3.54822
3.54699
3.54573
3.54446
3.54318
3.5419
3.54062
3.53935
3.53809
3.53686
3.53565
3.53447
3.53332
3.53221
3.53115
3.53012
3.52913
3.52819
3.52729
3.52643
3.52561
3.52482
3.52407
3.52335
3.52266
3.522
3.52137
3.52076
3.52017
3.51961
3.51906
3.51854
3.51804
3.51757
3.51711
3.51668
3.51628
3.5159
3.51554
3.51521
3.51491
3.51463
3.51438
3.51415
3.51395
3.51377
3.51361
3.51348
3.51337
3.51327
3.5132
3.51313
3.51308
3.51305
3.51302
3.513
3.51298
3.51297
3.51297
3.5556
3.55562
3.55567
3.55575
3.55586
3.55599
3.55614
3.55632
3.55652
3.55675
3.557
3.55727
3.55756
3.55786
3.55819
3.55853
3.55888
3.55925
3.55963
3.56002
3.56042
3.56083
3.56124
3.56166
3.56207
3.56249
3.5629
3.5633
3.56369
3.56406
3.56442
3.56475
3.56506
3.56535
3.56559
3.56581
3.56598
3.56611
3.56619
3.56622
3.5662
3.56613
3.566
3.56582
3.56557
3.56527
3.5649
3.56448
3.56399
3.56344
3.56283
3.56215
3.56143
3.56064
3.5598
3.5589
3.55796
3.55697
3.55594
3.55486
3.55375
3.55262
3.55145
3.55027
3.54907
3.54786
3.54665
3.54544
3.54424
3.54305
3.54188
3.54072
3.5396
3.53851
3.53744
3.53642
3.53543
3.53448
3.53356
3.53268
3.53184
3.53104
3.53027
3.52953
3.52882
3.52814
3.52749
3.52686
3.52626
3.52568
3.52512
3.52459
3.52407
3.52358
3.52312
3.52267
3.52225
3.52185
3.52148
3.52113
3.5208
3.5205
3.52022
3.51997
3.51974
3.51954
3.51935
3.51919
3.51905
3.51893
3.51883
3.51875
3.51867
3.51862
3.51857
3.51853
3.51851
3.51849
3.51848
3.51847
3.56054
3.56057
3.56061
3.56069
3.56078
3.56091
3.56105
3.56122
3.5614
3.56161
3.56184
3.56209
3.56236
3.56265
3.56295
3.56326
3.56359
3.56393
3.56429
3.56465
3.56501
3.56539
3.56577
3.56615
3.56652
3.5669
3.56727
3.56763
3.56798
3.56832
3.56864
3.56893
3.5692
3.56945
3.56966
3.56984
3.56998
3.57008
3.57014
3.57015
3.57011
3.57002
3.56988
3.56969
3.56944
3.56914
3.56877
3.56836
3.56788
3.56735
3.56676
3.56611
3.56541
3.56466
3.56386
3.563
3.56211
3.56117
3.56018
3.55917
3.55812
3.55704
3.55594
3.55482
3.55369
3.55255
3.5514
3.55025
3.54911
3.54798
3.54687
3.54578
3.5447
3.54366
3.54264
3.54165
3.5407
3.53978
3.53889
3.53804
3.53722
3.53643
3.53568
3.53495
3.53425
3.53358
3.53294
3.53232
3.53173
3.53116
3.53061
3.53009
3.52958
3.5291
3.52864
3.52821
3.52779
3.5274
3.52703
3.52669
3.52636
3.52607
3.52579
3.52554
3.52531
3.5251
3.52492
3.52475
3.52461
3.52448
3.52437
3.52428
3.5242
3.52414
3.52408
3.52404
3.52401
3.52399
3.52397
3.52397
3.56546
3.56548
3.56553
3.5656
3.56569
3.5658
3.56593
3.56609
3.56626
3.56646
3.56667
3.5669
3.56715
3.56741
3.56769
3.56799
3.56829
3.5686
3.56893
3.56926
3.5696
3.56994
3.57029
3.57063
3.57098
3.57132
3.57165
3.57198
3.57229
3.57259
3.57287
3.57313
3.57337
3.57358
3.57376
3.57391
3.57402
3.5741
3.57413
3.57412
3.57407
3.57397
3.57382
3.57362
3.57336
3.57306
3.5727
3.57229
3.57183
3.57131
3.57074
3.57012
3.56945
3.56873
3.56796
3.56715
3.56629
3.5654
3.56447
3.5635
3.56251
3.56149
3.56045
3.55939
3.55831
3.55723
3.55615
3.55506
3.55398
3.55291
3.55185
3.5508
3.54978
3.54878
3.5478
3.54685
3.54594
3.54505
3.54419
3.54336
3.54256
3.54179
3.54105
3.54034
3.53966
3.539
3.53837
3.53776
3.53718
3.53662
3.53608
3.53557
3.53507
3.5346
3.53415
3.53372
3.53331
3.53293
3.53256
3.53222
3.53191
3.53161
3.53134
3.53109
3.53086
3.53065
3.53046
3.53029
3.53014
3.53001
3.5299
3.5298
3.52971
3.52964
3.52959
3.52954
3.5295
3.52948
3.52946
3.52945
3.57036
3.57038
3.57042
3.57048
3.57057
3.57067
3.5708
3.57094
3.5711
3.57128
3.57148
3.57169
3.57192
3.57217
3.57242
3.57269
3.57297
3.57326
3.57356
3.57387
3.57418
3.57449
3.57481
3.57512
3.57543
3.57574
3.57604
3.57634
3.57662
3.57688
3.57713
3.57736
3.57756
3.57774
3.5779
3.57802
3.5781
3.57816
3.57817
3.57814
3.57807
3.57796
3.5778
3.57759
3.57734
3.57703
3.57668
3.57628
3.57583
3.57533
3.57478
3.57418
3.57354
3.57285
3.57211
3.57134
3.57052
3.56967
3.56879
3.56787
3.56693
3.56596
3.56497
3.56396
3.56295
3.56192
3.56089
3.55986
3.55883
3.55781
3.5568
3.55581
3.55483
3.55387
3.55294
3.55203
3.55114
3.55028
3.54945
3.54865
3.54787
3.54712
3.5464
3.54571
3.54504
3.5444
3.54378
3.54318
3.54261
3.54206
3.54153
3.54102
3.54054
3.54007
3.53963
3.53921
3.53881
3.53843
3.53807
3.53774
3.53742
3.53713
3.53686
3.53661
3.53638
3.53617
3.53598
3.53581
3.53566
3.53552
3.5354
3.5353
3.53521
3.53514
3.53508
3.53503
3.53499
3.53496
3.53494
3.53493
3.57523
3.57525
3.57529
3.57535
3.57543
3.57552
3.57564
3.57577
3.57592
3.57609
3.57627
3.57647
3.57668
3.57691
3.57714
3.57739
3.57765
3.57792
3.57819
3.57847
3.57875
3.57904
3.57933
3.57961
3.57989
3.58017
3.58044
3.5807
3.58095
3.58119
3.58141
3.5816
3.58178
3.58193
3.58206
3.58216
3.58222
3.58225
3.58225
3.5822
3.58212
3.58199
3.58183
3.58162
3.58136
3.58106
3.58071
3.58032
3.57988
3.57939
3.57886
3.57829
3.57767
3.57701
3.5763
3.57556
3.57479
3.57398
3.57313
3.57226
3.57137
3.57045
3.56951
3.56855
3.56759
3.56661
3.56564
3.56466
3.56368
3.56271
3.56175
3.5608
3.55986
3.55895
3.55805
3.55717
3.55632
3.55549
3.55469
3.55391
3.55316
3.55243
3.55172
3.55105
3.55039
3.54976
3.54916
3.54857
3.54801
3.54747
3.54695
3.54646
3.54598
3.54553
3.54509
3.54468
3.54428
3.54391
3.54356
3.54323
3.54292
3.54263
3.54236
3.54211
3.54188
3.54167
3.54148
3.54131
3.54116
3.54102
3.5409
3.54079
3.5407
3.54062
3.54055
3.5405
3.54046
3.54043
3.54041
3.5404
3.58009
3.5801
3.58014
3.58019
3.58027
3.58036
3.58046
3.58058
3.58072
3.58088
3.58105
3.58123
3.58142
3.58163
3.58185
3.58208
3.58232
3.58256
3.58281
3.58307
3.58332
3.58358
3.58385
3.5841
3.58436
3.58461
3.58485
3.58508
3.5853
3.58551
3.5857
3.58587
3.58602
3.58615
3.58625
3.58633
3.58637
3.58638
3.58636
3.5863
3.58621
3.58607
3.5859
3.58568
3.58543
3.58513
3.58479
3.5844
3.58397
3.5835
3.58299
3.58243
3.58184
3.58121
3.58053
3.57983
3.57909
3.57831
3.57751
3.57668
3.57583
3.57495
3.57406
3.57316
3.57224
3.57131
3.57038
3.56945
3.56852
3.56759
3.56668
3.56577
3.56488
3.564
3.56314
3.5623
3.56147
3.56067
3.5599
3.55914
3.55841
3.55771
3.55702
3.55636
3.55572
3.55511
3.55451
3.55394