/*--------------------------------*- C++ -*----------------------------------*\
| =========                 |                                                 |
| \\      /  F ield         | OpenFOAM: The Open Source CFD Toolbox           |
|  \\    /   O peration     | Version:  2406                                  |
|   \\  /    A nd           | Website:  www.openfoam.com                      |
|    \\/     M anipulation  |                                                 |
\*---------------------------------------------------------------------------*/
FoamFile
{
    version     2.0;
    format      ascii;
    arch        "LSB;label=32;scalar=64";
    class       volScalarField;
    location    "1.75";
    object      C_0_0;
}
// * * * * * * * * * * * * * * * * * * * * * * * * * * * * * * * * * * * * * //

dimensions      [1 -3 0 0 0 0 0];

internalField   nonuniform List<scalar> 
14400
(
2.01926
2.0145
2.0045
1.98784
1.9544
1.91285
1.88502
1.87756
1.89241
1.92755
1.97612
2.01493
2.03649
2.05201
2.06296
2.06993
2.07315
2.0726
2.06793
2.0584
2.04226
2.00957
1.97056
1.94692
1.94504
1.9668
2.01008
2.06789
2.11485
2.14378
2.16738
2.18746
2.20476
2.21978
2.2329
2.24437
2.25438
2.26308
2.2706
2.27702
2.28242
2.28685
2.29036
2.29298
2.29476
2.29569
2.29581
2.29512
2.29362
2.29132
2.28821
2.28428
2.27951
2.27387
2.26736
2.25991
2.25151
2.24208
2.23157
2.2199
2.20698
2.19268
2.17686
2.15933
2.13987
2.11816
2.0938
2.06624
2.03468
1.99625
1.93619
1.86001
1.7952
1.74765
1.71949
1.71124
1.72281
1.7535
1.80112
1.8601
1.90668
1.93351
1.95287
1.96728
1.97764
1.98451
1.98825
1.98906
1.987
1.98201
1.97392
1.96234
1.94665
1.92565
1.88837
1.84033
1.80392
1.78657
1.79024
1.81298
1.84771
1.87433
1.88498
1.88814
1.88447
1.87335
1.84622
1.81078
1.78723
1.78274
1.79927
1.83491
1.88224
1.91903
1.93974
1.95524
1.96675
1.97494
1.98021
1.98279
2.02402
2.01975
2.01091
1.99685
1.9746
1.94077
1.91081
1.90223
1.91829
1.95559
1.99558
2.02303
2.0422
2.05659
2.06694
2.07366
2.07693
2.07672
2.07279
2.06468
2.05158
2.03024
1.99828
1.97263
1.96969
1.99277
2.03815
2.08677
2.122
2.14846
2.17091
2.19024
2.20703
2.22169
2.23455
2.24582
2.25568
2.26427
2.2717
2.27805
2.28338
2.28777
2.29124
2.29384
2.29559
2.29651
2.29662
2.29592
2.29443
2.29213
2.28903
2.28511
2.28036
2.27476
2.26828
2.26088
2.25252
2.24316
2.23273
2.22116
2.20835
2.1942
2.17856
2.16127
2.14211
2.12081
2.09701
2.07022
2.03977
2.00467
1.95654
1.88895
1.82301
1.77431
1.74573
1.73745
1.74935
1.78114
1.82987
1.88145
1.91656
1.93989
1.95781
1.97132
1.98112
1.98764
1.99119
1.99193
1.98992
1.98512
1.97739
1.96645
1.95184
1.93281
1.90648
1.86764
1.82912
1.81068
1.81539
1.84034
1.86771
1.8839
1.89241
1.89498
1.89186
1.88281
1.86609
1.83809
1.81231
1.80675
1.82434
1.86205
1.90024
1.92612
1.94483
1.95923
1.97007
1.97786
1.98289
1.98537
2.03304
2.02956
2.02253
2.01189
1.99783
1.97898
1.95731
1.94734
1.96485
1.99312
2.01754
2.03677
2.05267
2.06521
2.07455
2.08085
2.08418
2.08454
2.08185
2.07595
2.06673
2.05438
2.03742
2.01921
2.01477
2.03958
2.07573
2.1078
2.13395
2.15715
2.17757
2.19555
2.21141
2.22542
2.23778
2.24868
2.25826
2.26662
2.27387
2.28008
2.2853
2.2896
2.293
2.29554
2.29725
2.29814
2.29823
2.29753
2.29603
2.29375
2.29067
2.28678
2.28208
2.27653
2.27011
2.2628
2.25455
2.24531
2.23503
2.22365
2.21107
2.1972
2.18191
2.16507
2.1465
2.12597
2.1032
2.07786
2.04952
2.01767
1.98179
1.93392
1.87517
1.82588
1.79726
1.78893
1.80074
1.83313
1.87498
1.9087
1.93227
1.95167
1.96715
1.9791
1.98787
1.99375
1.99693
1.99754
1.99562
1.99116
1.98409
1.97424
1.96143
1.94545
1.92625
1.90258
1.87411
1.85474
1.86053
1.87719
1.89062
1.90002
1.90578
1.90751
1.90517
1.8988
1.88879
1.87474
1.85732
1.85064
1.86909
1.89679
1.91987
1.93861
1.95423
1.96677
1.97646
1.98353
1.98814
1.99042
2.04555
2.04293
2.03777
2.03034
2.02131
2.01221
2.00383
1.99947
2.01074
2.02498
2.03954
2.05383
2.06651
2.07703
2.08521
2.091
2.0944
2.09543
2.09411
2.09053
2.085
2.07823
2.07189
2.06683
2.06759
2.08574
2.10675
2.12786
2.14888
2.16861
2.18667
2.20299
2.21766
2.23078
2.24248
2.25286
2.26204
2.27009
2.27708
2.28309
2.28815
2.29231
2.29561
2.29807
2.29972
2.30057
2.30063
2.29992
2.29843
2.29616
2.29311
2.28927
2.28463
2.27916
2.27284
2.26565
2.25755
2.2485
2.23844
2.22732
2.21507
2.2016
2.18682
2.17061
2.15284
2.13335
2.11197
2.0885
2.06278
2.0347
2.00443
1.97279
1.93531
1.89676
1.87068
1.86239
1.87145
1.89343
1.91628
1.93475
1.95215
1.96737
1.98002
1.99004
1.99752
2.00256
2.00525
2.00567
2.00386
1.99982
1.99354
1.985
1.9742
1.96129
1.94671
1.93165
1.91696
1.9042
1.90498
1.90933
1.91467
1.91979
1.92317
1.92413
1.92249
1.91844
1.91264
1.90658
1.90148
1.89984
1.91171
1.92569
1.94016
1.95422
1.9667
1.97716
1.98547
1.99164
1.99572
1.99775
2.06068
2.05883
2.05528
2.05039
2.04487
2.03991
2.03722
2.03853
2.04319
2.0515
2.0618
2.07249
2.0825
2.09119
2.09825
2.10354
2.107
2.10866
2.10861
2.10708
2.1045
2.10164
2.09984
2.10104
2.10716
2.1174
2.13161
2.14803
2.16508
2.18174
2.19749
2.21209
2.22544
2.23756
2.24848
2.25825
2.26695
2.27461
2.28129
2.28704
2.2919
2.2959
2.29906
2.30142
2.30299
2.30378
2.30381
2.30308
2.30159
2.29935
2.29634
2.29256
2.288
2.28264
2.27645
2.26942
2.26151
2.25269
2.24292
2.23214
2.22029
2.20733
2.19316
2.17771
2.1609
2.14263
2.12281
2.1014
2.07839
2.05393
2.02844
2.00278
1.97847
1.95567
1.93783
1.92978
1.93176
1.93943
1.94964
1.96184
1.97422
1.98564
1.99551
2.00353
2.0096
2.0137
2.01584
2.01604
2.01433
2.01072
2.00526
1.998
1.98908
1.97879
1.96765
1.95663
1.94714
1.94068
1.93705
1.937
1.93895
1.9413
1.94296
1.94334
1.94223
1.93983
1.93673
1.93401
1.93326
1.93606
1.94172
1.95048
1.96085
1.9714
1.9812
1.98969
1.99661
2.00185
2.00535
2.0071
2.07765
2.07642
2.07412
2.07108
2.06788
2.06533
2.06442
2.06591
2.06983
2.07601
2.08366
2.09185
2.0998
2.10698
2.11308
2.1179
2.1214
2.12359
2.1246
2.12469
2.12427
2.124
2.1248
2.12777
2.13376
2.14269
2.15426
2.16756
2.18165
2.19579
2.20948
2.22242
2.23447
2.24554
2.25563
2.26473
2.27288
2.2801
2.28643
2.29188
2.2965
2.30031
2.30332
2.30556
2.30704
2.30776
2.30775
2.307
2.30552
2.3033
2.30034
2.29664
2.29217
2.28693
2.2809
2.27406
2.26638
2.25784
2.24839
2.23801
2.22664
2.21425
2.20078
2.18618
2.17042
2.15344
2.13525
2.11588
2.09545
2.07419
2.0526
2.03142
2.01177
1.99496
1.98228
1.97481
1.9727
1.97514
1.98098
1.98877
1.99725
2.00547
2.01283
2.01896
2.02366
2.02681
2.02837
2.02832
2.02668
2.02348
2.01877
2.01267
2.00535
1.99712
1.98847
1.98007
1.97279
1.96735
1.96396
1.96267
1.96281
1.9635
1.96405
1.96402
1.96326
1.96192
1.96043
1.95948
1.95994
1.9625
1.96713
1.97366
1.98134
1.98935
1.99699
2.00379
2.00945
2.01379
2.01673
2.01821
2.09586
2.09509
2.09369
2.09193
2.09023
2.08913
2.0892
2.09086
2.0942
2.09906
2.105
2.11144
2.11786
2.12386
2.12916
2.13359
2.1371
2.1397
2.14152
2.14279
2.14388
2.14528
2.1476
2.15149
2.15739
2.16536
2.17516
2.1863
2.19819
2.21029
2.22221
2.23365
2.24446
2.25451
2.26375
2.27216
2.27974
2.28649
2.29243
2.29757
2.30192
2.30551
2.30835
2.31045
2.31183
2.31248
2.31242
2.31166
2.31018
2.30799
2.30509
2.30147
2.29711
2.29202
2.28617
2.27954
2.27212
2.26388
2.2548
2.24486
2.23401
2.22224
2.20952
2.19582
2.18114
2.16548
2.14888
2.13144
2.11332
2.0948
2.07634
2.05854
2.04222
2.02824
2.01745
2.01041
2.00722
2.00746
2.01036
2.01501
2.02052
2.02616
2.03139
2.03584
2.03926
2.04151
2.0425
2.0422
2.0406
2.03774
2.03368
2.02855
2.02252
2.01588
2.00902
2.00241
1.99658
1.99197
1.98876
1.98692
1.98611
1.98585
1.98572
1.98543
1.98488
1.98417
1.98358
1.98354
1.98452
1.98688
1.99065
1.99567
2.00152
2.00766
2.01363
2.01903
2.02359
2.02715
2.02957
2.03079
2.11483
2.11439
2.11362
2.11271
2.11197
2.11175
2.11239
2.11413
2.11705
2.12104
2.12582
2.13104
2.13635
2.14145
2.14611
2.15021
2.15369
2.15658
2.15898
2.16109
2.16319
2.16563
2.16883
2.17318
2.17895
2.18618
2.19473
2.2043
2.21451
2.22498
2.2354
2.24553
2.25519
2.26428
2.2727
2.28043
2.28743
2.2937
2.29923
2.30403
2.30811
2.31147
2.31412
2.31608
2.31734
2.31791
2.31781
2.31702
2.31555
2.3134
2.31056
2.30703
2.3028
2.29786
2.2922
2.28581
2.27867
2.27077
2.26209
2.2526
2.24231
2.23119
2.21923
2.20644
2.19283
2.17844
2.16335
2.14766
2.13158
2.11536
2.09941
2.08419
2.07031
2.05835
2.04885
2.04216
2.03833
2.0371
2.038
2.04039
2.04366
2.04726
2.05073
2.05373
2.05603
2.05746
2.05792
2.05737
2.05578
2.05319
2.04967
2.04532
2.04031
2.03487
2.02931
2.02396
2.01916
2.0152
2.01219
2.01014
2.00885
2.00807
2.00755
2.0071
2.00666
2.00629
2.00618
2.00657
2.00773
2.00984
2.01293
2.01687
2.02139
2.02615
2.03082
2.0351
2.03876
2.04163
2.0436
2.0446
2.13423
2.13402
2.13367
2.13333
2.1332
2.13351
2.13447
2.13623
2.13884
2.14222
2.1462
2.15056
2.15505
2.15946
2.16363
2.16745
2.17088
2.17395
2.17674
2.1794
2.18214
2.18522
2.18891
2.19347
2.19904
2.20568
2.21328
2.22166
2.23056
2.23971
2.24888
2.25787
2.26652
2.27471
2.28236
2.28942
2.29585
2.30164
2.30676
2.31121
2.315
2.31813
2.32059
2.32239
2.32353
2.32403
2.32387
2.32306
2.3216
2.31948
2.31672
2.31329
2.30919
2.30442
2.29897
2.29283
2.28599
2.27843
2.27016
2.26116
2.25143
2.24097
2.22978
2.21788
2.20531
2.19212
2.1784
2.16429
2.14996
2.13567
2.12173
2.10852
2.09647
2.08599
2.07745
2.07105
2.06683
2.06463
2.06412
2.06489
2.06649
2.06849
2.07053
2.07233
2.07367
2.07438
2.07436
2.07357
2.07197
2.06958
2.06648
2.06274
2.05852
2.05399
2.04939
2.04495
2.04091
2.03745
2.03468
2.03259
2.03109
2.03004
2.0293
2.02875
2.02836
2.02817
2.02827
2.02883
2.02998
2.03182
2.03435
2.03747
2.04102
2.04474
2.04841
2.05179
2.0547
2.05701
2.0586
2.05941
2.15385
2.15379
2.15372
2.15374
2.15399
2.15461
2.15575
2.15748
2.15985
2.16279
2.1662
2.16993
2.17382
2.17771
2.18149
2.18508
2.18844
2.1916
2.19462
2.19762
2.20075
2.2042
2.20813
2.21273
2.21808
2.22421
2.23106
2.2385
2.24635
2.25443
2.26255
2.27055
2.27829
2.28567
2.2926
2.29904
2.30492
2.31023
2.31495
2.31907
2.32257
2.32545
2.32771
2.32936
2.33038
2.33079
2.33058
2.32975
2.3283
2.32623
2.32353
2.32021
2.31625
2.31166
2.30643
2.30054
2.29401
2.28682
2.27897
2.27046
2.26129
2.25147
2.24103
2.22999
2.2184
2.20632
2.19386
2.18113
2.16831
2.15562
2.14331
2.13169
2.12105
2.11171
2.1039
2.09776
2.09332
2.09046
2.08898
2.08856
2.0889
2.08967
2.09058
2.0914
2.09192
2.09202
2.09159
2.09057
2.08893
2.0867
2.08391
2.08065
2.07703
2.07319
2.0693
2.06554
2.06207
2.05903
2.05648
2.05444
2.05288
2.05171
2.05085
2.05024
2.04986
2.04974
2.04992
2.0505
2.05155
2.05311
2.05517
2.05767
2.06046
2.06339
2.06627
2.06894
2.07126
2.0731
2.07437
2.07502
2.17353
2.17357
2.17368
2.17393
2.1744
2.17521
2.17642
2.17811
2.18028
2.18289
2.18589
2.18916
2.19259
2.19608
2.19954
2.20292
2.2062
2.20938
2.21253
2.21572
2.21906
2.22268
2.2267
2.23123
2.23633
2.24201
2.24824
2.25492
2.26192
2.26911
2.27634
2.28348
2.29043
2.29707
2.30335
2.3092
2.31457
2.31943
2.32375
2.32753
2.33074
2.33339
2.33545
2.33694
2.33785
2.33817
2.33791
2.33706
2.33562
2.3336
2.33098
2.32776
2.32395
2.31954
2.31453
2.30891
2.30269
2.29586
2.28843
2.2804
2.27179
2.26261
2.25288
2.24265
2.23197
2.22091
2.20957
2.19806
2.18654
2.17518
2.16422
2.15386
2.14435
2.13589
2.12867
2.12277
2.11822
2.11493
2.11275
2.11148
2.11088
2.1107
2.11072
2.11075
2.11061
2.11019
2.1094
2.10818
2.1065
2.10436
2.10182
2.09892
2.09575
2.09243
2.08909
2.08584
2.08281
2.0801
2.07776
2.07582
2.07427
2.07306
2.07214
2.0715
2.07111
2.07099
2.07117
2.07169
2.0726
2.07389
2.07557
2.07756
2.07976
2.08207
2.08435
2.08646
2.08829
2.08976
2.09077
2.09129
2.19318
2.19327
2.19349
2.19388
2.19449
2.19539
2.19663
2.19825
2.20025
2.20262
2.2053
2.20821
2.2113
2.21447
2.21768
2.22088
2.22405
2.22721
2.23039
2.23365
2.23708
2.24075
2.24476
2.24916
2.254
2.25928
2.26497
2.27101
2.2773
2.28374
2.29021
2.29662
2.30286
2.30885
2.31453
2.31983
2.32472
2.32915
2.3331
2.33655
2.33949
2.3419
2.34378
2.34511
2.3459
2.34614
2.34582
2.34496
2.34353
2.34155
2.33901
2.33591
2.33225
2.32803
2.32324
2.31788
2.31197
2.3055
2.29849
2.29093
2.28286
2.27428
2.26524
2.25577
2.24593
2.23579
2.22544
2.215
2.20459
2.19437
2.18451
2.17518
2.16658
2.15885
2.15211
2.14644
2.14185
2.13828
2.13563
2.13373
2.13243
2.13153
2.13086
2.13025
2.12958
2.12874
2.12764
2.12624
2.12451
2.12244
2.12007
2.11745
2.11463
2.11171
2.10877
2.10592
2.10323
2.1008
2.09865
2.09682
2.09531
2.0941
2.09317
2.09251
2.0921
2.09195
2.09208
2.09251
2.09325
2.0943
2.09564
2.09723
2.09897
2.10079
2.10258
2.10425
2.1057
2.10686
2.10766
2.10808
2.21272
2.21285
2.21314
2.2136
2.21428
2.21522
2.21646
2.21801
2.21987
2.22203
2.22446
2.2271
2.22991
2.23283
2.23582
2.23885
2.24191
2.24501
2.24817
2.25143
2.25485
2.2585
2.26241
2.26664
2.27122
2.27613
2.28136
2.28685
2.29254
2.29833
2.30415
2.30991
2.31553
2.32094
2.32608
2.33088
2.33532
2.33935
2.34295
2.34609
2.34876
2.35095
2.35264
2.35382
2.35449
2.35465
2.35429
2.35341
2.352
2.35007
2.34761
2.34463
2.34111
2.33707
2.3325
2.32742
2.32181
2.3157
2.30908
2.30198
2.29442
2.28642
2.27802
2.26925
2.26018
2.25087
2.24141
2.2319
2.22245
2.21319
2.20426
2.19579
2.18794
2.1808
2.17448
2.16903
2.16446
2.16072
2.15773
2.1554
2.15358
2.15213
2.15092
2.14983
2.14873
2.14754
2.14619
2.14464
2.14285
2.14083
2.13859
2.13617
2.13361
2.13099
2.12837
2.12582
2.12341
2.1212
2.11922
2.1175
2.11605
2.11487
2.11394
2.11326
2.11282
2.11262
2.11268
2.113
2.11359
2.11442
2.11548
2.11673
2.1181
2.11953
2.12094
2.12225
2.12339
2.12431
2.12495
2.12527
2.23213
2.23228
2.2326
2.23311
2.23382
2.23477
2.23597
2.23744
2.23918
2.24118
2.24341
2.24583
2.24841
2.25112
2.25392
2.2568
2.25973
2.26274
2.26583
2.26905
2.27241
2.27597
2.27975
2.28379
2.2881
2.29267
2.29749
2.3025
2.30766
2.3129
2.31816
2.32335
2.32842
2.33331
2.33795
2.3423
2.34633
2.34999
2.35325
2.3561
2.35852
2.36049
2.362
2.36304
2.3636
2.36369
2.36328
2.36238
2.361
2.35911
2.35674
2.35386
2.3505
2.34664
2.34229
2.33746
2.33216
2.32639
2.32016
2.3135
2.30643
2.29896
2.29115
2.28304
2.27467
2.26611
2.25744
2.24874
2.24012
2.23168
2.22353
2.21579
2.20857
2.20194
2.19599
2.19075
2.18623
2.18239
2.17919
2.17654
2.17435
2.17249
2.17088
2.1694
2.16796
2.1665
2.16495
2.16326
2.16143
2.15943
2.15729
2.15502
2.15266
2.15027
2.14789
2.14558
2.14339
2.14136
2.13953
2.13792
2.13653
2.13538
2.13445
2.13376
2.13329
2.13305
2.13303
2.13324
2.13367
2.13431
2.13514
2.13611
2.13718
2.13829
2.1394
2.14042
2.14132
2.14204
2.14254
2.1428
2.25138
2.25155
2.25188
2.2524
2.25312
2.25405
2.25521
2.25661
2.25824
2.26009
2.26215
2.2644
2.26679
2.26932
2.27195
2.27468
2.27749
2.28039
2.28339
2.28651
2.28977
2.29321
2.29683
2.30067
2.30471
2.30897
2.31341
2.318
2.3227
2.32746
2.33221
2.33691
2.3415
2.34591
2.35011
2.35405
2.3577
2.36101
2.36397
2.36655
2.36873
2.37049
2.37183
2.37274
2.3732
2.3732
2.37276
2.37185
2.37048
2.36865
2.36635
2.36359
2.36037
2.3567
2.35256
2.34799
2.34297
2.33753
2.33167
2.32543
2.31881
2.31186
2.3046
2.29707
2.28934
2.28145
2.27348
2.26551
2.25761
2.24988
2.2424
2.23528
2.22859
2.22241
2.21678
2.21175
2.2073
2.20344
2.2001
2.19724
2.19477
2.19262
2.1907
2.18892
2.18723
2.18555
2.18383
2.18204
2.18016
2.17818
2.1761
2.17395
2.17175
2.16954
2.16735
2.16523
2.16321
2.16133
2.15962
2.1581
2.15677
2.15565
2.15474
2.15404
2.15354
2.15324
2.15315
2.15325
2.15355
2.15402
2.15464
2.15538
2.15621
2.15707
2.15792
2.15872
2.15942
2.15998
2.16037
2.16057
2.27047
2.27064
2.27098
2.27149
2.2722
2.27311
2.27422
2.27554
2.27707
2.2788
2.28072
2.2828
2.28504
2.2874
2.28988
2.29247
2.29515
2.29793
2.30082
2.30382
2.30696
2.31025
2.31371
2.31733
2.32112
2.32508
2.32918
2.33339
2.33768
2.34201
2.34633
2.35059
2.35473
2.35873
2.36253
2.3661
2.36939
2.37239
2.37506
2.37739
2.37935
2.38092
2.3821
2.38288
2.38324
2.38318
2.38269
2.38178
2.38043
2.37865
2.37643
2.37378
2.37071
2.3672
2.36328
2.35895
2.35421
2.34908
2.34358
2.33772
2.33154
2.32505
2.3183
2.31132
2.30416
2.29688
2.28954
2.28219
2.27493
2.26781
2.26092
2.25434
2.24812
2.24232
2.23699
2.23215
2.2278
2.22394
2.22054
2.21753
2.21488
2.21251
2.21036
2.20837
2.20648
2.20463
2.20278
2.20091
2.19899
2.19702
2.195
2.19294
2.19085
2.18878
2.18674
2.18476
2.18289
2.18113
2.17952
2.17808
2.17681
2.17572
2.17482
2.17411
2.17358
2.17323
2.17307
2.17308
2.17325
2.17357
2.17402
2.17457
2.1752
2.17585
2.17651
2.17712
2.17766
2.17809
2.1784
2.17855
2.28939
2.28956
2.28989
2.2904
2.29108
2.29196
2.29302
2.29427
2.29571
2.29733
2.29912
2.30106
2.30315
2.30537
2.30771
2.31016
2.31271
2.31537
2.31813
2.321
2.324
2.32714
2.33041
2.33382
2.33737
2.34104
2.34483
2.3487
2.35263
2.35658
2.3605
2.36436
2.36813
2.37175
2.37518
2.37841
2.38139
2.3841
2.3865
2.38859
2.39034
2.39174
2.39277
2.39343
2.3937
2.39358
2.39306
2.39213
2.39081
2.38908
2.38694
2.3844
2.38147
2.37813
2.37441
2.37031
2.36583
2.36101
2.35584
2.35035
2.34457
2.33852
2.33223
2.32575
2.31911
2.31237
2.30559
2.29881
2.2921
2.28552
2.27914
2.27302
2.26721
2.26176
2.2567
2.25205
2.24782
2.244
2.24056
2.23748
2.2347
2.23218
2.22987
2.22772
2.22568
2.2237
2.22176
2.21982
2.21788
2.21591
2.21393
2.21194
2.20995
2.20798
2.20606
2.2042
2.20244
2.20079
2.19926
2.19789
2.19667
2.19561
2.19471
2.19399
2.19343
2.19304
2.19281
2.19273
2.1928
2.19299
2.1933
2.19369
2.19415
2.19464
2.19513
2.1956
2.19601
2.19634
2.19657
2.19669
2.30814
2.3083
2.30863
2.30912
2.30978
2.31061
2.31162
2.3128
2.31416
2.31568
2.31735
2.31918
2.32114
2.32323
2.32543
2.32775
2.33017
2.33269
2.33532
2.33806
2.34091
2.34388
2.34697
2.35017
2.35348
2.3569
2.3604
2.36396
2.36756
2.37116
2.37473
2.37825
2.38166
2.38494
2.38805
2.39097
2.39366
2.3961
2.39826
2.40014
2.4017
2.40293
2.40382
2.40437
2.40455
2.40437
2.40382
2.4029
2.40159
2.39991
2.39786
2.39542
2.39262
2.38945
2.38592
2.38204
2.37781
2.37327
2.36841
2.36327
2.35786
2.35221
2.34635
2.34033
2.33416
2.32791
2.32162
2.31534
2.30913
2.30303
2.2971
2.29139
2.28595
2.28081
2.276
2.27154
2.26743
2.26367
2.26024
2.25712
2.25427
2.25165
2.24923
2.24696
2.24481
2.24274
2.24073
2.23874
2.23678
2.23482
2.23287
2.23094
2.22902
2.22714
2.22531
2.22355
2.22188
2.22031
2.21886
2.21754
2.21636
2.21532
2.21444
2.2137
2.21312
2.21269
2.2124
2.21224
2.21222
2.2123
2.21249
2.21275
2.21307
2.21342
2.21378
2.21412
2.21443
2.21468
2.21485
2.21494
2.32673
2.32689
2.3272
2.32767
2.3283
2.3291
2.33005
2.33117
2.33244
2.33387
2.33544
2.33715
2.339
2.34096
2.34304
2.34523
2.34752
2.34991
2.35241
2.355
2.3577
2.3605
2.36341
2.36641
2.3695
2.37267
2.3759
2.37918
2.38248
2.38577
2.38903
2.39222
2.39532
2.3983
2.40111
2.40375
2.40618
2.40837
2.41032
2.41199
2.41337
2.41445
2.41522
2.41566
2.41577
2.41554
2.41496
2.41403
2.41275
2.41112
2.40914
2.40681
2.40414
2.40112
2.39777
2.3941
2.39012
2.38584
2.38128
2.37645
2.37139
2.36611
2.36065
2.35503
2.3493
2.34349
2.33765
2.33182
2.32604
2.32037
2.31484
2.3095
2.30438
2.29953
2.29495
2.29067
2.28669
2.283
2.27961
2.27648
2.27359
2.27092
2.26842
2.26608
2.26386
2.26173
2.25966
2.25765
2.25567
2.25372
2.2518
2.24991
2.24806
2.24624
2.24449
2.24281
2.24121
2.23971
2.23832
2.23704
2.2359
2.23489
2.23401
2.23327
2.23266
2.23219
2.23185
2.23163
2.23152
2.23152
2.2316
2.23175
2.23195
2.23219
2.23244
2.23269
2.23291
2.23309
2.23321
2.23328
2.34517
2.34532
2.34561
2.34606
2.34666
2.34741
2.34832
2.34937
2.35057
2.35191
2.35339
2.355
2.35673
2.35858
2.36054
2.3626
2.36477
2.36703
2.36939
2.37184
2.37439
2.37703
2.37975
2.38255
2.38543
2.38837
2.39136
2.39438
2.3974
2.40042
2.40339
2.4063
2.40911
2.41181
2.41436
2.41674
2.41893
2.4209
2.42264
2.42413
2.42535
2.42629
2.42694
2.42729
2.42733
2.42705
2.42645
2.42552
2.42427
2.42268
2.42078
2.41855
2.41599
2.41313
2.40995
2.40648
2.40272
2.39869
2.3944
2.38988
2.38513
2.3802
2.3751
2.36986
2.36452
2.35911
2.35367
2.34824
2.34285
2.33756
2.33239
2.32738
2.32256
2.31796
2.3136
2.3095
2.30565
2.30205
2.29871
2.2956
2.29271
2.29
2.28747
2.28508
2.28281
2.28064
2.27855
2.27651
2.27453
2.2726
2.2707
2.26885
2.26704
2.26529
2.2636
2.26198
2.26044
2.259
2.25766
2.25642
2.25531
2.25431
2.25344
2.25269
2.25207
2.25156
2.25118
2.2509
2.25072
2.25064
2.25063
2.25069
2.25081
2.25095
2.25111
2.25127
2.25142
2.25155
2.25164
2.25169
2.36345
2.36359
2.36388
2.3643
2.36487
2.36558
2.36643
2.36743
2.36855
2.36982
2.3712
2.37272
2.37435
2.37609
2.37793
2.37988
2.38192
2.38406
2.38628
2.38859
2.39098
2.39346
2.39601
2.39862
2.4013
2.40403
2.40679
2.40957
2.41234
2.4151
2.41781
2.42046
2.42302
2.42546
2.42777
2.42992
2.43189
2.43366
2.43521
2.43654
2.43761
2.43842
2.43896
2.43923
2.4392
2.43888
2.43826
2.43733
2.4361
2.43457
2.43274
2.4306
2.42816
2.42544
2.42243
2.41914
2.4156
2.4118
2.40777
2.40352
2.39907
2.39445
2.38968
2.38478
2.3798
2.37475
2.36968
2.36461
2.35958
2.35462
2.34978
2.34506
2.34052
2.33616
2.332
2.32806
2.32435
2.32085
2.31757
2.3145
2.31162
2.30892
2.30637
2.30396
2.30167
2.29948
2.29737
2.29533
2.29335
2.29143
2.28956
2.28774
2.28598
2.28427
2.28263
2.28107
2.27958
2.27819
2.27689
2.27569
2.2746
2.27362
2.27275
2.27199
2.27135
2.27082
2.27039
2.27007
2.26983
2.26968
2.26961
2.26959
2.26962
2.26969
2.26978
2.26987
2.26997
2.27005
2.27011
2.27014
2.38159
2.38172
2.38199
2.3824
2.38293
2.38361
2.38441
2.38534
2.38641
2.38759
2.3889
2.39032
2.39185
2.39349
2.39522
2.39705
2.39898
2.40099
2.40308
2.40525
2.4075
2.40982
2.4122
2.41464
2.41712
2.41965
2.4222
2.42475
2.4273
2.42983
2.4323
2.43471
2.43704
2.43925
2.44134
2.44328
2.44505
2.44664
2.44802
2.44919
2.45013
2.45082
2.45127
2.45145
2.45136
2.45101
2.45037
2.44945
2.44825
2.44676
2.44499
2.44295
2.44062
2.43803
2.43518
2.43207
2.42872
2.42514
2.42135
2.41735
2.41318
2.40885
2.40438
2.3998
2.39514
2.39042
2.38568
2.38093
2.37622
2.37158
2.36702
2.36259
2.35829
2.35415
2.35019
2.34641
2.34283
2.33943
2.33623
2.33321
2.33037
2.32768
2.32514
2.32272
2.32043
2.31823
2.31611
2.31408
2.31211
2.31021
2.30836
2.30658
2.30485
2.30319
2.3016
2.30008
2.29863
2.29728
2.29601
2.29484
2.29377
2.2928
2.29194
2.29118
2.29052
2.28997
2.28951
2.28914
2.28886
2.28865
2.28851
2.28843
2.2884
2.28841
2.28843
2.28848
2.28852
2.28857
2.2886
2.28862
2.39959
2.39972
2.39998
2.40036
2.40086
2.4015
2.40225
2.40313
2.40413
2.40525
2.40647
2.40781
2.40925
2.41078
2.41242
2.41414
2.41595
2.41783
2.4198
2.42184
2.42394
2.42611
2.42833
2.4306
2.43291
2.43524
2.43759
2.43995
2.44229
2.4446
2.44686
2.44905
2.45117
2.45317
2.45506
2.45681
2.4584
2.45981
2.46104
2.46207
2.46288
2.46347
2.46383
2.46394
2.4638
2.46341
2.46276
2.46185
2.46067
2.45923
2.45753
2.45557
2.45335
2.45089
2.44818
2.44524
2.44207
2.4387
2.43512
2.43137
2.42745
2.42338
2.41919
2.4149
2.41054
2.40612
2.40167
2.39723
2.39281
2.38844
2.38415
2.37997
2.3759
2.37197
2.36818
2.36456
2.36111
2.35782
2.35471
2.35175
2.34895
2.34629
2.34377
2.34137
2.33908
2.33689
2.33479
2.33276
2.33081
2.32893
2.32711
2.32535
2.32366
2.32204
2.32048
2.319
2.3176
2.31628
2.31504
2.3139
2.31284
2.31189
2.31103
2.31026
2.3096
2.30902
2.30853
2.30813
2.3078
2.30755
2.30736
2.30723
2.30715
2.3071
2.30707
2.30707
2.30708
2.30709
2.30711
2.30711
2.41747
2.41759
2.41783
2.41819
2.41867
2.41926
2.41998
2.4208
2.42174
2.42279
2.42394
2.42519
2.42654
2.42799
2.42952
2.43114
2.43283
2.43461
2.43645
2.43835
2.44032
2.44234
2.44441
2.44652
2.44866
2.45082
2.45299
2.45515
2.4573
2.45941
2.46148
2.46348
2.46539
2.46721
2.46892
2.47049
2.47191
2.47318
2.47426
2.47516
2.47587
2.47636
2.47663
2.47668
2.4765
2.47608
2.47541
2.47451
2.47336
2.47196
2.47033
2.46845
2.46633
2.46399
2.46141
2.45863
2.45563
2.45245
2.44908
2.44554
2.44186
2.43804
2.43411
2.43008
2.42598
2.42184
2.41766
2.41349
2.40934
2.40523
2.40118
2.39722
2.39337
2.38963
2.38602
2.38255
2.37922
2.37605
2.37302
2.37013
2.36739
2.36477
2.36228
2.35991
2.35764
2.35546
2.35337
2.35137
2.34944
2.34758
2.34579
2.34406
2.34241
2.34082
2.3393
2.33785
2.33648
2.33519
2.33398
2.33286
2.33182
2.33088
2.33002
2.32925
2.32857
2.32798
2.32747
2.32704
2.32668
2.32639
2.32616
2.32598
2.32585
2.32576
2.32569
2.32566
2.32563
2.32562
2.32562
2.32561
2.43522
2.43534
2.43556
2.4359
2.43635
2.43691
2.43758
2.43836
2.43924
2.44022
2.4413
2.44248
2.44375
2.4451
2.44654
2.44806
2.44965
2.4513
2.45303
2.45481
2.45665
2.45853
2.46045
2.46241
2.46439
2.46639
2.46839
2.47038
2.47234
2.47428
2.47616
2.47798
2.47972
2.48137
2.4829
2.48432
2.48559
2.48671
2.48767
2.48846
2.48906
2.48946
2.48966
2.48965
2.48943
2.48898
2.48831
2.48741
2.48629
2.48494
2.48336
2.48156
2.47954
2.47731
2.47486
2.47222
2.46939
2.46638
2.4632
2.45987
2.4564
2.45281
2.44911
2.44533
2.44148
2.43758
2.43366
2.42973
2.42582
2.42195
2.41813
2.41438
2.41072
2.40716
2.40371
2.40039
2.39719
2.39412
2.39118
2.38837
2.38569
2.38313
2.38068
2.37833
2.37609
2.37394
2.37188
2.3699
2.368
2.36616
2.3644
2.36271
2.36108
2.35952
2.35803
2.35662
2.35528
2.35402
2.35283
2.35173
2.35071
2.34977
2.34892
2.34815
2.34746
2.34686
2.34633
2.34587
2.34548
2.34516
2.3449
2.34468
2.34452
2.34439
2.34429
2.34422
2.34417
2.34414
2.34412
2.34411
2.45286
2.45297
2.45318
2.4535
2.45392
2.45445
2.45508
2.45581
2.45664
2.45756
2.45857
2.45968
2.46086
2.46213
2.46348
2.4649
2.46639
2.46794
2.46955
2.47121
2.47292
2.47467
2.47646
2.47828
2.48011
2.48195
2.48379
2.48562
2.48742
2.48919
2.49091
2.49256
2.49414
2.49563
2.49701
2.49828
2.49942
2.50041
2.50125
2.50193
2.50244
2.50276
2.5029
2.50284
2.50258
2.50211
2.50143
2.50055
2.49945
2.49814
2.49662
2.49489
2.49296
2.49083
2.48851
2.48601
2.48333
2.48048
2.47748
2.47433
2.47106
2.46768
2.4642
2.46064
2.45702
2.45335
2.44966
2.44596
2.44227
2.43861
2.435
2.43145
2.42797
2.42458
2.42129
2.4181
2.41502
2.41206
2.40922
2.40649
2.40387
2.40136
2.39896
2.39666
2.39446
2.39234
2.39031
2.38836
2.38648
2.38468
2.38294
2.38128
2.37968
2.37816
2.3767
2.37531
2.374
2.37276
2.3716
2.37052
2.36951
2.36858
2.36773
2.36696
2.36627
2.36566
2.36511
2.36464
2.36422
2.36388
2.36358
2.36334
2.36314
2.36298
2.36286
2.36277
2.3627
2.36265
2.36262
2.3626
2.4704
2.4705
2.4707
2.471
2.47139
2.47189
2.47248
2.47316
2.47394
2.4748
2.47575
2.47678
2.4779
2.47908
2.48034
2.48167
2.48306
2.48451
2.48601
2.48756
2.48916
2.49078
2.49244
2.49412
2.49582
2.49751
2.49921
2.50089
2.50254
2.50415
2.50572
2.50722
2.50865
2.50999
2.51124
2.51237
2.51338
2.51426
2.515
2.51558
2.516
2.51626
2.51633
2.51622
2.51593
2.51544
2.51476
2.51389
2.51281
2.51155
2.51008
2.50843
2.50658
2.50455
2.50234
2.49997
2.49742
2.49473
2.49189
2.48893
2.48584
2.48265
2.47937
2.47602
2.4726
2.46915
2.46566
2.46217
2.45869
2.45523
2.45181
2.44844
2.44513
2.4419
2.43875
2.4357
2.43274
2.42989
2.42713
2.42449
2.42194
2.4195
2.41715
2.41489
2.41273
2.41065
2.40865
2.40673
2.40489
2.40312
2.40141
2.39978
2.39822
2.39672
2.39529
2.39393
2.39265
2.39143
2.39029
2.38922
2.38823
2.38731
2.38647
2.3857
2.38501
2.38438
2.38382
2.38333
2.3829
2.38253
2.38222
2.38195
2.38173
2.38155
2.3814
2.38128
2.3812
2.38114
2.3811
2.38108
2.48783
2.48792
2.48811
2.48839
2.48876
2.48923
2.48978
2.49042
2.49115
2.49196
2.49285
2.49381
2.49485
2.49596
2.49714
2.49838
2.49968
2.50103
2.50243
2.50387
2.50535
2.50686
2.5084
2.50995
2.51152
2.51308
2.51464
2.51618
2.51769
2.51916
2.52059
2.52195
2.52325
2.52446
2.52557
2.52659
2.52749
2.52826
2.5289
2.52939
2.52974
2.52992
2.52994
2.5298
2.52947
2.52897
2.52829
2.52743
2.52638
2.52515
2.52374
2.52215
2.52038
2.51845
2.51635
2.51409
2.51168
2.50912
2.50644
2.50363
2.50072
2.49771
2.49461
2.49145
2.48823
2.48497
2.48168
2.47838
2.47509
2.47181
2.46856
2.46536
2.46222
2.45914
2.45613
2.4532
2.45036
2.44761
2.44495
2.44238
2.43991
2.43753
2.43524
2.43304
2.43092
2.42888
2.42692
2.42504
2.42323
2.42149
2.41982
2.41821
2.41668
2.41521
2.41381
2.41248
2.41122
2.41003
2.40891
2.40786
2.40688
2.40597
2.40513
2.40436
2.40367
2.40304
2.40247
2.40197
2.40152
2.40114
2.4008
2.40051
2.40027
2.40007
2.39991
2.39977
2.39967
2.3996
2.39955
2.39953
2.50517
2.50525
2.50543
2.50569
2.50604
2.50648
2.50699
2.50759
2.50827
2.50903
2.50986
2.51077
2.51174
2.51278
2.51387
2.51503
2.51624
2.5175
2.5188
2.52014
2.52152
2.52292
2.52434
2.52577
2.52722
2.52866
2.53009
2.5315
2.53288
2.53422
2.53552
2.53676
2.53792
2.53901
2.54001
2.54092
2.54171
2.54239
2.54294
2.54335
2.54363
2.54375
2.54373
2.54354
2.54319
2.54268
2.542
2.54115
2.54012
2.53893
2.53757
2.53604
2.53435
2.53251
2.5305
2.52836
2.52607
2.52365
2.52111
2.51845
2.5157
2.51285
2.50992
2.50693
2.50389
2.50081
2.4977
2.49458
2.49146
2.48836
2.48528
2.48223
2.47924
2.4763
2.47342
2.47061
2.46788
2.46523
2.46267
2.46018
2.45779
2.45547
2.45324
2.45109
2.44902
2.44703
2.44511
2.44327
2.44149
2.43979
2.43815
2.43658
2.43508
2.43364
2.43227
2.43096
2.42972
2.42855
2.42745
2.42642
2.42545
2.42455
2.42372
2.42296
2.42226
2.42163
2.42105
2.42054
2.42008
2.41968
2.41933
2.41903
2.41877
2.41856
2.41838
2.41823
2.41812
2.41804
2.41799
2.41796
2.52241
2.5225
2.52266
2.52291
2.52323
2.52364
2.52412
2.52468
2.52532
2.52603
2.5268
2.52765
2.52856
2.52952
2.53055
2.53163
2.53275
2.53392
2.53513
2.53638
2.53765
2.53895
2.54026
2.54159
2.54292
2.54424
2.54555
2.54684
2.5481
2.54933
2.5505
2.55162
2.55268
2.55366
2.55455
2.55535
2.55605
2.55664
2.55711
2.55745
2.55766
2.55774
2.55767
2.55745
2.55708
2.55656
2.55587
2.55503
2.55404
2.55288
2.55157
2.5501
2.54848
2.54672
2.54481
2.54276
2.54059
2.53829
2.53588
2.53337
2.53076
2.52807
2.5253
2.52247
2.51959
2.51668
2.51374
2.51078
2.50782
2.50488
2.50195
2.49905
2.4962
2.49339
2.49064
2.48795
2.48533
2.48278
2.4803
2.4779
2.47558
2.47333
2.47116
2.46907
2.46705
2.4651
2.46323
2.46142
2.45969
2.45802
2.45641
2.45488
2.4534
2.45199
2.45065
2.44937
2.44816
2.44701
2.44593
2.44491
2.44396
2.44307
2.44224
2.44148
2.44079
2.44015
2.43958
2.43906
2.43859
2.43818
2.43782
2.4375
2.43723
2.437
2.43681
2.43666
2.43654
2.43645
2.43639
2.43636
2.53958
2.53966
2.53981
2.54004
2.54035
2.54072
2.54118
2.5417
2.54229
2.54295
2.54368
2.54447
2.54531
2.54622
2.54717
2.54817
2.54922
2.55031
2.55143
2.55259
2.55377
2.55496
2.55618
2.5574
2.55862
2.55983
2.56104
2.56222
2.56337
2.56448
2.56555
2.56656
2.56751
2.56838
2.56918
2.56989
2.5705
2.57101
2.5714
2.57168
2.57184
2.57186
2.57175
2.57151
2.57112
2.57059
2.56991
2.56908
2.56811
2.56699
2.56572
2.56431
2.56276
2.56107
2.55925
2.5573
2.55523
2.55305
2.55077
2.54838
2.54591
2.54336
2.54074
2.53806
2.53533
2.53257
2.52978
2.52698
2.52418
2.52138
2.51859
2.51583
2.51311
2.51043
2.5078
2.50522
2.5027
2.50025
2.49786
2.49554
2.49329
2.49111
2.489
2.48697
2.485
2.4831
2.48127
2.47951
2.47781
2.47618
2.47461
2.47311