/*--------------------------------*- C++ -*----------------------------------*\
| =========                 |                                                 |
| \\      /  F ield         | OpenFOAM: The Open Source CFD Toolbox           |
|  \\    /   O peration     | Version:  2406                                  |
|   \\  /    A nd           | Website:  www.openfoam.com                      |
|    \\/     M anipulation  |                                                 |
\*---------------------------------------------------------------------------*/
FoamFile
{
    version     2.0;
    format      ascii;
    arch        "LSB;label=32;scalar=64";
    class       volScalarField;
    location    "8.1";
    object      Da;
}
// * * * * * * * * * * * * * * * * * * * * * * * * * * * * * * * * * * * * * //

dimensions      [0 2 -1 0 0 0 0];

internalField   nonuniform List<scalar> 
14400
(
4.84487e-05
4.84246e-05
4.83902e-05
4.83588e-05
4.83366e-05
4.83239e-05
4.83179e-05
4.83164e-05
4.83192e-05
4.83293e-05
4.83522e-05
4.83934e-05
4.84551e-05
4.8528e-05
4.85844e-05
4.85794e-05
4.84831e-05
4.83276e-05
4.81458e-05
4.7948e-05
4.77268e-05
4.74691e-05
4.71647e-05
4.68121e-05
4.6421e-05
4.60103e-05
4.5603e-05
4.52208e-05
4.48798e-05
4.45904e-05
4.4359e-05
4.41911e-05
4.40954e-05
4.40898e-05
4.42151e-05
4.4578e-05
4.55501e-05
4.91591e-05
7.68194e-05
7.8e-05
7.8e-05
7.8e-05
7.8e-05
7.8e-05
7.8e-05
7.8e-05
7.8e-05
7.8e-05
7.8e-05
7.8e-05
7.8e-05
7.8e-05
7.8e-05
7.8e-05
7.8e-05
7.8e-05
7.8e-05
7.8e-05
7.8e-05
7.28883e-05
4.79976e-05
4.53711e-05
4.46773e-05
4.44484e-05
4.44287e-05
4.45442e-05
4.47697e-05
4.5099e-05
4.55325e-05
4.60697e-05
4.66996e-05
4.7391e-05
4.80888e-05
4.87237e-05
4.92325e-05
4.95747e-05
4.97359e-05
4.97239e-05
4.95641e-05
4.92976e-05
4.89783e-05
4.86701e-05
4.84471e-05
4.84081e-05
4.87481e-05
5.0149e-05
5.69305e-05
7.78241e-05
6.18433e-05
5.01866e-05
4.80857e-05
4.73999e-05
4.71343e-05
4.7063e-05
4.71018e-05
4.72074e-05
4.73521e-05
4.7515e-05
4.76791e-05
4.783e-05
4.79544e-05
4.80401e-05
4.80759e-05
4.80532e-05
4.79691e-05
4.7828e-05
4.76396e-05
4.74166e-05
4.71733e-05
4.69246e-05
4.66862e-05
4.64744e-05
4.6307e-05
4.62054e-05
4.62006e-05
4.63489e-05
4.67802e-05
4.79079e-05
5.17985e-05
7.67006e-05
4.82554e-05
4.8203e-05
4.81299e-05
4.80619e-05
4.80104e-05
4.79767e-05
4.79585e-05
4.79533e-05
4.79609e-05
4.79842e-05
4.80292e-05
4.81031e-05
4.82102e-05
4.83429e-05
4.8465e-05
4.84975e-05
4.83615e-05
4.8146e-05
4.79158e-05
4.76876e-05
4.74523e-05
4.71946e-05
4.69024e-05
4.65722e-05
4.62111e-05
4.58341e-05
4.54608e-05
4.51098e-05
4.4796e-05
4.45293e-05
4.4317e-05
4.41659e-05
4.40864e-05
4.40996e-05
4.42545e-05
4.46919e-05
4.60148e-05
5.27428e-05
7.78676e-05
7.8e-05
7.8e-05
7.8e-05
7.8e-05
7.8e-05
7.8e-05
7.8e-05
7.8e-05
7.8e-05
7.8e-05
7.8e-05
7.8e-05
7.8e-05
7.8e-05
7.8e-05
7.8e-05
7.8e-05
7.8e-05
7.8e-05
7.8e-05
7.61374e-05
4.87915e-05
4.56071e-05
4.47607e-05
4.44761e-05
4.44266e-05
4.45194e-05
4.47224e-05
4.50252e-05
4.54256e-05
4.59208e-05
4.64997e-05
4.71342e-05
4.77762e-05
4.83645e-05
4.88411e-05
4.9166e-05
4.93231e-05
4.93188e-05
4.91778e-05
4.89405e-05
4.86592e-05
4.83953e-05
4.82206e-05
4.82357e-05
4.86579e-05
5.03727e-05
6.03343e-05
7.79722e-05
6.73619e-05
5.05858e-05
4.81065e-05
4.73258e-05
4.70084e-05
4.68983e-05
4.69035e-05
4.69789e-05
4.70969e-05
4.72381e-05
4.73871e-05
4.753e-05
4.76536e-05
4.77438e-05
4.77858e-05
4.77676e-05
4.76847e-05
4.7544e-05
4.73593e-05
4.71461e-05
4.69195e-05
4.66937e-05
4.64825e-05
4.63001e-05
4.61631e-05
4.60927e-05
4.6122e-05
4.63162e-05
4.68432e-05
4.83771e-05
5.56849e-05
7.78727e-05
4.79935e-05
4.78713e-05
4.77147e-05
4.75763e-05
4.74724e-05
4.74034e-05
4.73648e-05
4.73531e-05
4.73676e-05
4.74113e-05
4.74921e-05
4.76213e-05
4.78122e-05
4.80693e-05
4.83565e-05
4.85145e-05
4.82379e-05
4.78675e-05
4.75335e-05
4.7247e-05
4.69865e-05
4.67286e-05
4.64566e-05
4.61635e-05
4.58513e-05
4.55298e-05
4.52127e-05
4.49143e-05
4.4647e-05
4.44205e-05
4.42429e-05
4.41231e-05
4.40747e-05
4.41249e-05
4.43377e-05
4.49131e-05
4.69206e-05
6.2643e-05
7.79989e-05
7.8e-05
7.8e-05
7.8e-05
7.8e-05
7.8e-05
7.8e-05
7.8e-05
7.8e-05
7.8e-05
7.8e-05
7.8e-05
7.8e-05
7.8e-05
7.8e-05
7.8e-05
7.8e-05
7.8e-05
7.8e-05
7.8e-05
7.8e-05
7.79524e-05
5.49065e-05
4.63812e-05
4.4955e-05
4.45374e-05
4.44271e-05
4.44761e-05
4.4637e-05
4.48919e-05
4.52336e-05
4.56558e-05
4.61465e-05
4.66821e-05
4.72247e-05
4.77263e-05
4.8139e-05
4.84273e-05
4.85747e-05
4.85855e-05
4.84822e-05
4.83021e-05
4.80932e-05
4.79121e-05
4.78272e-05
4.79437e-05
4.85133e-05
5.07301e-05
6.67217e-05
7.79993e-05
7.49515e-05
5.15248e-05
4.82666e-05
4.72431e-05
4.68129e-05
4.6629e-05
4.6575e-05
4.65993e-05
4.66735e-05
4.67795e-05
4.69039e-05
4.70347e-05
4.71583e-05
4.7258e-05
4.7313e-05
4.73036e-05
4.72215e-05
4.70795e-05
4.6899e-05
4.67006e-05
4.65002e-05
4.63106e-05
4.61428e-05
4.60085e-05
4.59224e-05
4.59063e-05
4.59984e-05
4.62792e-05
4.69811e-05
4.92806e-05
6.58379e-05
7.79994e-05
4.78987e-05
4.76074e-05
4.72974e-05
4.70534e-05
4.68814e-05
4.67699e-05
4.67078e-05
4.66882e-05
4.67089e-05
4.67739e-05
4.68941e-05
4.70902e-05
4.73972e-05
4.78675e-05
4.85527e-05
4.92765e-05
4.8367e-05
4.76269e-05
4.71145e-05
4.6744e-05
4.64495e-05
4.61893e-05
4.59387e-05
4.56854e-05
4.54265e-05
4.51659e-05
4.49119e-05
4.4674e-05
4.44622e-05
4.42854e-05
4.41528e-05
4.40761e-05
4.40737e-05
4.41829e-05
4.44954e-05
4.53126e-05
4.82283e-05
7.40856e-05
7.8e-05
7.8e-05
7.8e-05
7.8e-05
7.8e-05
7.8e-05
7.8e-05
7.8e-05
7.8e-05
7.8e-05
7.8e-05
7.8e-05
7.8e-05
7.8e-05
7.8e-05
7.8e-05
7.8e-05
7.8e-05
7.8e-05
7.8e-05
7.8e-05
7.79999e-05
6.75979e-05
4.7546e-05
4.52555e-05
4.4642e-05
4.44412e-05
4.44269e-05
4.453e-05
4.47226e-05
4.4991e-05
4.5325e-05
4.57116e-05
4.61309e-05
4.65547e-05
4.69483e-05
4.72772e-05
4.75144e-05
4.76466e-05
4.76769e-05
4.76239e-05
4.75192e-05
4.74039e-05
4.73293e-05
4.73646e-05
4.76319e-05
4.84549e-05
5.13651e-05
7.4105e-05
7.8e-05
7.7986e-05
6.02529e-05
4.91523e-05
4.72849e-05
4.66383e-05
4.63442e-05
4.6213e-05
4.6176e-05
4.62006e-05
4.62685e-05
4.63679e-05
4.64883e-05
4.66167e-05
4.67338e-05
4.68108e-05
4.68153e-05
4.67298e-05
4.65789e-05
4.63965e-05
4.62092e-05
4.6034e-05
4.58814e-05
4.57599e-05
4.56791e-05
4.56532e-05
4.57069e-05
4.58897e-05
4.63169e-05
4.73436e-05
5.08014e-05
7.59962e-05
7.8e-05
4.85329e-05
4.76532e-05
4.70262e-05
4.66223e-05
4.63648e-05
4.62057e-05
4.61186e-05
4.60901e-05
4.61161e-05
4.62013e-05
4.63617e-05
4.66335e-05
4.70981e-05
4.79593e-05
4.99173e-05
5.56983e-05
4.93481e-05
4.75823e-05
4.67685e-05
4.62832e-05
4.59439e-05
4.56753e-05
4.54406e-05
4.52209e-05
4.50086e-05
4.48029e-05
4.46072e-05
4.44277e-05
4.42717e-05
4.4148e-05
4.4067e-05
4.40439e-05
4.41051e-05
4.43086e-05
4.48268e-05
4.65444e-05
5.92138e-05
7.79954e-05
7.8e-05
7.8e-05
7.8e-05
7.8e-05
7.8e-05
7.8e-05
7.8e-05
7.8e-05
7.8e-05
7.8e-05
7.8e-05
7.8e-05
7.8e-05
7.8e-05
7.8e-05
7.8e-05
7.8e-05
7.8e-05
7.8e-05
7.8e-05
7.8e-05
7.8e-05
7.73053e-05
4.99384e-05
4.58434e-05
4.4844e-05
4.4494e-05
4.43908e-05
4.4422e-05
4.45438e-05
4.47343e-05
4.49791e-05
4.52639e-05
4.5572e-05
4.58825e-05
4.61721e-05
4.64179e-05
4.66026e-05
4.6718e-05
4.67675e-05
4.67657e-05
4.67377e-05
4.67186e-05
4.67568e-05
4.69317e-05
4.74232e-05
4.89304e-05
5.69356e-05
7.79262e-05
7.8e-05
7.8e-05
7.48532e-05
5.08268e-05
4.76021e-05
4.65936e-05
4.61354e-05
4.59056e-05
4.58002e-05
4.57752e-05
4.58089e-05
4.58893e-05
4.60078e-05
4.61527e-05
4.63033e-05
4.64199e-05
4.64488e-05
4.63461e-05
4.61667e-05
4.59654e-05
4.57761e-05
4.56158e-05
4.54924e-05
4.54117e-05
4.53825e-05
4.54205e-05
4.55584e-05
4.58749e-05
4.66044e-05
4.88991e-05
6.56704e-05
7.79995e-05
7.8e-05
5.34102e-05
4.85571e-05
4.70636e-05
4.63789e-05
4.60017e-05
4.57826e-05
4.56658e-05
4.56268e-05
4.56583e-05
4.57658e-05
4.59731e-05
4.63415e-05
4.70492e-05
4.88453e-05
5.8084e-05
7.74309e-05
5.29447e-05
4.79641e-05
4.65923e-05
4.59366e-05
4.55329e-05
4.52449e-05
4.50159e-05
4.48191e-05
4.46419e-05
4.44798e-05
4.43331e-05
4.42049e-05
4.41014e-05
4.40312e-05
4.40074e-05
4.40512e-05
4.42033e-05
4.4562e-05
4.54534e-05
4.87093e-05
7.62034e-05
7.8e-05
7.8e-05
7.8e-05
7.8e-05
7.8e-05
7.8e-05
7.8e-05
7.8e-05
7.8e-05
7.8e-05
7.8e-05
7.8e-05
7.8e-05
7.8e-05
7.8e-05
7.8e-05
7.8e-05
7.8e-05
7.8e-05
7.8e-05
7.8e-05
7.8e-05
7.8e-05
7.8e-05
6.84271e-05
4.76438e-05
4.5284e-05
4.46292e-05
4.43932e-05
4.43359e-05
4.43809e-05
4.44943e-05
4.46565e-05
4.4852e-05
4.5066e-05
4.52829e-05
4.54874e-05
4.56653e-05
4.5807e-05
4.59087e-05
4.59744e-05
4.60165e-05
4.6056e-05
4.61249e-05
4.62743e-05
4.66046e-05
4.73936e-05
5.00003e-05
7.04713e-05
7.8e-05
7.8e-05
7.8e-05
7.79996e-05
6.60624e-05
4.93282e-05
4.69173e-05
4.61092e-05
4.57267e-05
4.55358e-05
4.54588e-05
4.54631e-05
4.55346e-05
4.56666e-05
4.58522e-05
4.60737e-05
4.62763e-05
4.63662e-05
4.62018e-05
4.59427e-05
4.56844e-05
4.54673e-05
4.53048e-05
4.51988e-05
4.51516e-05
4.51722e-05
4.52822e-05
4.55297e-05
4.60589e-05
4.74522e-05
5.39823e-05
7.78473e-05
7.8e-05
7.8e-05
7.73307e-05
5.2816e-05
4.77707e-05
4.6441e-05
4.5857e-05
4.55445e-05
4.53841e-05
4.53299e-05
4.53698e-05
4.55105e-05
4.57892e-05
4.63141e-05
4.74775e-05
5.14396e-05
7.69592e-05
7.8e-05
7.08357e-05
4.95478e-05
4.6735e-05
4.57624e-05
4.52521e-05
4.49257e-05
4.46889e-05
4.45024e-05
4.43481e-05
4.42184e-05
4.41107e-05
4.40268e-05
4.39722e-05
4.39573e-05
4.40005e-05
4.41366e-05
4.44446e-05
4.51722e-05
4.76642e-05
6.93184e-05
7.8e-05
7.8e-05
7.8e-05
7.8e-05
7.8e-05
7.8e-05
7.8e-05
7.8e-05
7.8e-05
7.8e-05
7.8e-05
7.8e-05
7.8e-05
7.8e-05
7.8e-05
7.8e-05
7.8e-05
7.8e-05
7.8e-05
7.8e-05
7.8e-05
7.8e-05
7.8e-05
7.8e-05
7.8e-05
7.79563e-05
5.46729e-05
4.63232e-05
4.49234e-05
4.44707e-05
4.4298e-05
4.42574e-05
4.42947e-05
4.43824e-05
4.45027e-05
4.46413e-05
4.47863e-05
4.49271e-05
4.50553e-05
4.51662e-05
4.5259e-05
4.53389e-05
4.54175e-05
4.55151e-05
4.56662e-05
4.5935e-05
4.64755e-05
4.78781e-05
5.45192e-05
7.78484e-05
7.8e-05
7.8e-05
7.8e-05
7.8e-05
7.79767e-05
5.80976e-05
4.83179e-05
4.64605e-05
4.57674e-05
4.54408e-05
4.52975e-05
4.52744e-05
4.535e-05
4.55246e-05
4.58067e-05
4.6209e-05
4.6662e-05
4.70205e-05
4.65648e-05
4.60507e-05
4.56367e-05
4.53372e-05
4.51451e-05
4.50424e-05
4.50236e-05
4.51012e-05
4.53136e-05
4.57425e-05
4.67246e-05
5.01401e-05
7.62573e-05
7.8e-05
7.8e-05
7.8e-05
7.8e-05
7.65644e-05
5.0819e-05
4.71614e-05
4.60732e-05
4.55611e-05
4.53181e-05
4.52357e-05
4.52936e-05
4.55002e-05
4.59306e-05
4.68565e-05
4.99337e-05
7.40085e-05
7.8e-05
7.8e-05
7.7982e-05
5.81568e-05
4.76876e-05
4.58491e-05
4.51347e-05
4.4736e-05
4.44724e-05
4.42817e-05
4.41384e-05
4.40308e-05
4.39546e-05
4.39104e-05
4.39047e-05
4.39523e-05
4.40851e-05
4.43737e-05
4.50246e-05
4.70739e-05
6.15621e-05
7.79986e-05
7.8e-05
7.8e-05
7.8e-05
7.8e-05
7.8e-05
7.8e-05
7.8e-05
7.8e-05
7.8e-05
7.8e-05
7.8e-05
7.8e-05
7.8e-05
7.8e-05
7.8e-05
7.8e-05
7.8e-05
7.8e-05
7.8e-05
7.8e-05
7.8e-05
7.8e-05
7.8e-05
7.8e-05
7.8e-05
7.8e-05
7.6058e-05
4.87388e-05
4.55665e-05
4.4698e-05
4.43479e-05
4.41994e-05
4.41553e-05
4.41728e-05
4.42284e-05
4.43067e-05
4.43968e-05
4.44911e-05
4.45845e-05
4.46752e-05
4.47645e-05
4.48587e-05
4.49704e-05
4.51233e-05
4.53625e-05
4.5787e-05
4.66848e-05
4.95324e-05
7.23685e-05
7.8e-05
7.8e-05
7.8e-05
7.8e-05
7.8e-05
7.8e-05
7.79055e-05
5.53765e-05
4.80154e-05
4.6266e-05
4.56238e-05
4.53651e-05
4.53088e-05
4.54105e-05
4.56975e-05
4.62542e-05
4.73594e-05
4.90912e-05
5.17181e-05
4.88643e-05
4.69934e-05
4.60314e-05
4.54849e-05
4.52068e-05
4.50868e-05
4.50975e-05
4.52642e-05
4.56982e-05
4.66028e-05
4.9596e-05
7.42518e-05
7.8e-05
7.8e-05
7.8e-05
7.8e-05
7.8e-05
7.8e-05
7.60585e-05
5.07169e-05
4.73106e-05
4.6068e-05
4.56053e-05
4.54458e-05
4.55572e-05
4.59455e-05
4.68626e-05
4.96498e-05
7.23868e-05
7.8e-05
7.8e-05
7.8e-05
7.8e-05
7.7003e-05
5.03089e-05
4.6397e-05
4.52521e-05
4.47099e-05
4.43859e-05
4.41702e-05
4.40242e-05
4.39301e-05
4.38807e-05
4.38769e-05
4.39281e-05
4.40598e-05
4.43423e-05
4.49701e-05
4.68185e-05
5.75482e-05
7.79889e-05
7.8e-05
7.8e-05
7.8e-05
7.8e-05
7.8e-05
7.8e-05
7.8e-05
7.8e-05
7.8e-05
7.8e-05
7.8e-05
7.8e-05
7.8e-05
7.8e-05
7.8e-05
7.8e-05
7.8e-05
7.8e-05
7.8e-05
7.8e-05
7.8e-05
7.8e-05
7.8e-05
7.8e-05
7.8e-05
7.8e-05
7.8e-05
7.8e-05
7.10337e-05
4.79635e-05
4.5332e-05
4.45703e-05
4.42465e-05
4.40987e-05
4.40417e-05
4.40366e-05
4.40631e-05
4.41094e-05
4.41687e-05
4.42379e-05
4.43167e-05
4.44081e-05
4.45198e-05
4.46676e-05
4.48834e-05
4.52389e-05
4.59374e-05
4.79281e-05
6.09696e-05
7.79958e-05
7.8e-05
7.8e-05
7.8e-05
7.8e-05
7.8e-05
7.8e-05
7.8e-05
7.79127e-05
5.82371e-05
4.85019e-05
4.64566e-05
4.58919e-05
4.57727e-05
4.59559e-05
4.66246e-05
4.84911e-05
5.50036e-05
7.32334e-05
7.75902e-05
7.17689e-05
5.23174e-05
4.79948e-05
4.62427e-05
4.57069e-05
4.55203e-05
4.55792e-05
4.59528e-05
4.73215e-05
5.04831e-05
7.50192e-05
7.8e-05
7.8e-05
7.8e-05
7.8e-05
7.8e-05
7.8e-05
7.8e-05
7.8e-05
7.70592e-05
5.53458e-05
4.83935e-05
4.68957e-05
4.63444e-05
4.6732e-05
4.80413e-05
5.18143e-05
7.48772e-05
7.8e-05
7.8e-05
7.8e-05
7.8e-05
7.8e-05
7.8e-05
7.40721e-05
4.89433e-05
4.58943e-05
4.49526e-05
4.44836e-05
4.42e-05
4.40308e-05
4.39414e-05
4.39187e-05
4.39665e-05
4.41042e-05
4.43817e-05
4.50218e-05
4.69686e-05
5.75344e-05
7.79809e-05
7.8e-05
7.8e-05
7.8e-05
7.8e-05
7.8e-05
7.8e-05
7.8e-05
7.8e-05
7.8e-05
7.8e-05
7.8e-05
7.8e-05
7.8e-05
7.8e-05
7.8e-05
7.8e-05
7.8e-05
7.8e-05
7.8e-05
7.8e-05
7.8e-05
7.8e-05
7.8e-05
7.8e-05
7.8e-05
7.8e-05
7.8e-05
7.8e-05
7.8e-05
7.79999e-05
6.6264e-05
4.76009e-05
4.52059e-05
4.44808e-05
4.41637e-05
4.40107e-05
4.39383e-05
4.39139e-05
4.39207e-05
4.39514e-05
4.40033e-05
4.40772e-05
4.41777e-05
4.43152e-05
4.45117e-05
4.48154e-05
4.5358e-05
4.66281e-05
5.18932e-05
7.76887e-05
7.8e-05
7.8e-05
7.8e-05
7.8e-05
7.8e-05
7.8e-05
7.8e-05
7.8e-05
7.8e-05
7.79846e-05
6.80088e-05
5.01264e-05
4.81885e-05
4.78213e-05
4.83507e-05
5.12198e-05
6.88849e-05
7.793e-05
7.8e-05
7.8e-05
7.8e-05
7.77295e-05
6.53076e-05
4.94823e-05
4.7871e-05
4.73162e-05
4.75784e-05
4.87316e-05
5.9519e-05
7.72302e-05
7.8e-05
7.8e-05
7.8e-05
7.8e-05
7.8e-05
7.8e-05
7.8e-05
7.8e-05
7.8e-05
7.8e-05
7.79457e-05
6.88801e-05
5.46096e-05
5.00176e-05
5.31037e-05
6.62767e-05
7.76578e-05
7.8e-05
7.8e-05
7.8e-05
7.8e-05
7.8e-05
7.8e-05
7.8e-05
7.8e-05
7.23508e-05
4.87013e-05
4.58757e-05
4.49508e-05
4.4463e-05
4.42257e-05
4.41291e-05
4.41416e-05
4.42832e-05
4.46232e-05
4.52672e-05
4.7497e-05
6.17373e-05
7.79895e-05
7.8e-05
7.8e-05
7.8e-05
7.8e-05
7.8e-05
7.8e-05
7.8e-05
7.8e-05
7.8e-05
7.8e-05
7.8e-05
7.8e-05
7.8e-05
7.8e-05
7.8e-05
7.8e-05
7.8e-05
7.8e-05
7.8e-05
7.8e-05
7.8e-05
7.8e-05
7.8e-05
7.8e-05
7.8e-05
7.8e-05
7.8e-05
7.8e-05
7.8e-05
7.8e-05
7.8e-05
7.79996e-05
6.45028e-05
4.75101e-05
4.51597e-05
4.44437e-05
4.41295e-05
4.39611e-05
4.3874e-05
4.38372e-05
4.38399e-05
4.38787e-05
4.39552e-05
4.40768e-05
4.42586e-05
4.45388e-05
4.50045e-05
4.59823e-05
4.9253e-05
7.58843e-05
7.8e-05
7.8e-05
7.8e-05
7.8e-05
7.8e-05
7.8e-05
7.8e-05
7.8e-05
7.8e-05
7.8e-05
7.8e-05
7.79999e-05
7.69779e-05
6.88722e-05
6.46181e-05
7.02742e-05
7.75354e-05
7.8e-05
7.8e-05
7.8e-05
7.8e-05
7.8e-05
7.8e-05
7.79997e-05
7.62582e-05
6.66226e-05
6.00381e-05
6.36143e-05
7.3556e-05
7.79939e-05
7.8e-05
7.8e-05
7.8e-05
7.8e-05
7.8e-05
7.8e-05
7.8e-05
7.8e-05
7.8e-05
7.8e-05
7.8e-05
7.8e-05
7.8e-05
7.79225e-05
7.69521e-05
7.7835e-05
7.79998e-05
7.8e-05
7.8e-05
7.8e-05
7.8e-05
7.8e-05
7.8e-05
7.8e-05
7.8e-05
7.8e-05
7.8e-05
7.46405e-05
5.01491e-05
4.68178e-05
4.5287e-05
4.48382e-05
4.47094e-05
4.4791e-05
4.52033e-05
4.65454e-05
4.87516e-05
7.01129e-05
7.79988e-05
7.8e-05
7.8e-05
7.8e-05
7.8e-05
7.8e-05
7.8e-05
7.8e-05
7.8e-05
7.8e-05
7.8e-05
7.8e-05
7.8e-05
7.8e-05
7.8e-05
7.8e-05
7.8e-05
7.8e-05
7.8e-05
7.8e-05
7.8e-05
7.8e-05
7.8e-05
7.8e-05
7.8e-05
7.8e-05
7.8e-05
7.8e-05
7.8e-05
7.8e-05
7.8e-05
7.8e-05
7.8e-05
7.8e-05
7.79996e-05
6.62206e-05
4.77171e-05
4.5259e-05
4.45515e-05
4.41813e-05
4.399e-05
4.38872e-05
4.38541e-05
4.38816e-05
4.3972e-05
4.41403e-05
4.4414e-05
4.48899e-05
4.57969e-05
4.87593e-05
7.38873e-05
7.8e-05
7.8e-05
7.8e-05
7.8e-05
7.8e-05
7.8e-05
7.8e-05
7.8e-05
7.8e-05
7.8e-05
7.8e-05
7.8e-05
7.8e-05
7.8e-05
7.8e-05
7.79994e-05
7.8e-05
7.8e-05
7.8e-05
7.8e-05
7.8e-05
7.8e-05
7.8e-05
7.8e-05
7.8e-05
7.8e-05
7.79998e-05
7.79943e-05
7.79991e-05
7.8e-05
7.8e-05
7.8e-05
7.8e-05
7.8e-05
7.8e-05
7.8e-05
7.8e-05
7.8e-05
7.8e-05
7.8e-05
7.8e-05
7.8e-05
7.8e-05
7.8e-05
7.8e-05
7.8e-05
7.8e-05
7.8e-05
7.8e-05
7.8e-05
7.8e-05
7.8e-05
7.8e-05
7.8e-05
7.8e-05
7.8e-05
7.8e-05
7.8e-05
7.8e-05
7.74794e-05
6.27251e-05
4.84947e-05
4.71834e-05
4.69177e-05
4.72364e-05
4.89323e-05
6.33076e-05
7.68675e-05
7.8e-05
7.8e-05
7.8e-05
7.8e-05
7.8e-05
7.8e-05
7.8e-05
7.8e-05
7.8e-05
7.8e-05
7.8e-05
7.8e-05
7.8e-05
7.8e-05
7.8e-05
7.8e-05
7.8e-05
7.8e-05
7.8e-05
7.8e-05
7.8e-05
7.8e-05
7.8e-05
7.8e-05
7.8e-05
7.8e-05
7.8e-05
7.8e-05
7.8e-05
7.8e-05
7.8e-05
7.8e-05
7.8e-05
7.8e-05
7.8e-05
7.8e-05
7.79999e-05
7.13309e-05
4.8466e-05
4.60602e-05
4.48638e-05
4.44159e-05
4.4158e-05
4.40599e-05
4.40751e-05
4.42034e-05
4.44976e-05
4.50234e-05
4.62791e-05
4.92511e-05
7.46042e-05
7.8e-05
7.8e-05
7.8e-05
7.8e-05
7.8e-05
7.8e-05
7.8e-05
7.8e-05
7.8e-05
7.8e-05
7.8e-05
7.8e-05
7.8e-05
7.8e-05
7.8e-05
7.8e-05
7.8e-05
7.8e-05
7.8e-05
7.8e-05
7.8e-05
7.8e-05
7.8e-05
7.8e-05
7.8e-05
7.8e-05
7.8e-05
7.8e-05
7.8e-05
7.8e-05
7.8e-05
7.8e-05
7.8e-05
7.8e-05
7.8e-05
7.8e-05
7.8e-05
7.8e-05
7.8e-05
7.8e-05
7.8e-05
7.8e-05
7.8e-05
7.8e-05
7.8e-05
7.8e-05
7.8e-05
7.8e-05
7.8e-05
7.8e-05
7.8e-05
7.8e-05
7.8e-05
7.8e-05
7.8e-05
7.8e-05
7.8e-05
7.8e-05
7.8e-05
7.8e-05
7.8e-05
7.79992e-05
7.62883e-05
6.91446e-05
6.6573e-05
7.08062e-05
7.71358e-05
7.79995e-05
7.8e-05
7.8e-05
7.8e-05
7.8e-05
7.8e-05
7.8e-05
7.8e-05
7.8e-05
7.8e-05
7.8e-05
7.8e-05
7.8e-05
7.8e-05
7.8e-05
7.8e-05
7.8e-05
7.8e-05
7.8e-05
7.8e-05
7.8e-05
7.8e-05
7.8e-05
7.8e-05
7.8e-05
7.8e-05
7.8e-05
7.8e-05
7.8e-05
7.8e-05
7.8e-05
7.8e-05
7.8e-05
7.8e-05
7.8e-05
7.8e-05
7.8e-05
7.8e-05
7.8e-05
7.8e-05
7.64385e-05
5.69296e-05
4.74778e-05
4.5951e-05
4.4966e-05
4.46933e-05
4.46873e-05
4.49252e-05
4.57687e-05
4.74639e-05
5.56472e-05
7.69303e-05
7.8e-05
7.8e-05
7.8e-05
7.8e-05
7.8e-05
7.8e-05
7.8e-05
7.8e-05
7.8e-05
7.8e-05
7.8e-05
7.8e-05
7.8e-05
7.8e-05
7.8e-05
7.8e-05
7.8e-05
7.8e-05
7.8e-05
7.8e-05
7.8e-05
7.8e-05
7.8e-05
7.8e-05
7.8e-05
7.8e-05
7.8e-05
7.8e-05
7.8e-05
7.8e-05
7.8e-05
7.8e-05
7.8e-05
7.8e-05
7.8e-05
7.8e-05
7.8e-05
7.8e-05
7.8e-05
7.8e-05
7.8e-05
7.8e-05
7.8e-05
7.8e-05
7.8e-05
7.8e-05
7.8e-05
7.8e-05
7.8e-05
7.8e-05
7.8e-05
7.8e-05
7.8e-05
7.8e-05
7.8e-05
7.8e-05
7.8e-05
7.8e-05
7.8e-05
7.8e-05
7.8e-05
7.8e-05
7.8e-05
7.8e-05
7.8e-05
7.79999e-05
7.8e-05
7.8e-05
7.8e-05
7.8e-05
7.8e-05
7.8e-05
7.8e-05
7.8e-05
7.8e-05
7.8e-05
7.8e-05
7.8e-05
7.8e-05
7.8e-05
7.8e-05
7.8e-05
7.8e-05
7.8e-05
7.8e-05
7.8e-05
7.8e-05
7.8e-05
7.8e-05
7.8e-05
7.8e-05
7.8e-05
7.8e-05
7.8e-05
7.8e-05
7.8e-05
7.8e-05
7.8e-05
7.8e-05
7.8e-05
7.8e-05
7.8e-05
7.8e-05
7.8e-05
7.8e-05
7.8e-05
7.8e-05
7.8e-05
7.8e-05
7.79896e-05
7.18847e-05
5.69388e-05
4.80708e-05
4.71441e-05
4.70746e-05
4.76727e-05
5.33775e-05
6.99083e-05
7.79764e-05
7.8e-05
7.8e-05
7.8e-05
7.8e-05
7.8e-05
7.8e-05
7.8e-05
7.8e-05
7.8e-05
7.8e-05
7.8e-05
7.8e-05
7.8e-05
7.8e-05
7.8e-05
7.8e-05
7.8e-05
7.8e-05
7.8e-05
7.8e-05
7.8e-05
7.8e-05
7.8e-05
7.8e-05
7.8e-05
7.8e-05
7.8e-05
7.8e-05
7.8e-05
7.8e-05
7.8e-05
7.8e-05
7.8e-05
7.8e-05
7.8e-05
7.8e-05
7.8e-05
7.8e-05
7.8e-05
7.8e-05
7.8e-05
7.8e-05
7.8e-05
7.8e-05
7.8e-05
7.8e-05
7.8e-05
7.8e-05
7.8e-05
7.8e-05
7.8e-05
7.8e-05
7.8e-05
7.8e-05
7.8e-05
7.8e-05
7.8e-05
7.8e-05
7.8e-05
7.8e-05
7.8e-05
7.8e-05
7.8e-05
7.8e-05
7.8e-05
7.8e-05
7.8e-05
7.8e-05
7.8e-05
7.8e-05
7.8e-05
7.8e-05
7.8e-05
7.8e-05
7.8e-05
7.8e-05
7.8e-05
7.8e-05
7.8e-05
7.8e-05
7.8e-05
7.8e-05
7.8e-05
7.8e-05
7.8e-05
7.8e-05
7.8e-05
7.8e-05
7.8e-05
7.8e-05
7.8e-05
7.8e-05
7.8e-05
7.8e-05
7.8e-05
7.8e-05
7.8e-05
7.8e-05
7.8e-05
7.8e-05
7.8e-05
7.8e-05
7.8e-05
7.8e-05
7.8e-05
7.8e-05
7.8e-05
7.8e-05
7.8e-05
7.8e-05
7.8e-05
7.8e-05
7.7989e-05
7.62701e-05
7.15645e-05
7.05027e-05
7.45726e-05
7.79353e-05
7.8e-05
7.8e-05
7.8e-05
7.8e-05
7.8e-05
7.8e-05
7.8e-05
7.8e-05
7.8e-05
7.8e-05
7.8e-05
7.8e-05
7.8e-05
7.8e-05
7.8e-05
7.8e-05
7.8e-05
7.8e-05
7.8e-05
7.8e-05
7.8e-05
7.8e-05
7.8e-05
7.8e-05
7.8e-05
7.8e-05
7.8e-05
7.8e-05
7.8e-05
7.8e-05
7.8e-05
7.8e-05
7.8e-05
7.8e-05
7.8e-05
7.8e-05
7.8e-05
7.8e-05
7.8e-05
7.8e-05
7.8e-05
7.8e-05
7.8e-05
7.8e-05
7.8e-05
7.8e-05
7.8e-05
7.8e-05
7.8e-05
7.8e-05
7.8e-05
7.8e-05
7.8e-05
7.8e-05
7.8e-05
7.8e-05
7.8e-05
7.8e-05
7.8e-05
7.8e-05
7.8e-05
7.8e-05
7.8e-05
7.8e-05
7.8e-05
7.8e-05
7.8e-05
7.8e-05
7.8e-05
7.8e-05
7.8e-05
7.8e-05
7.8e-05
7.8e-05
7.8e-05
7.8e-05
7.8e-05
7.8e-05
7.8e-05
7.8e-05
7.8e-05
7.8e-05
7.8e-05
7.8e-05
7.8e-05
7.8e-05
7.8e-05
7.8e-05
7.8e-05
7.8e-05
7.8e-05
7.8e-05
7.8e-05
7.8e-05
7.8e-05
7.8e-05
7.8e-05
7.8e-05
7.8e-05
7.8e-05
7.8e-05
7.8e-05
7.8e-05
7.8e-05
7.8e-05
7.8e-05
7.8e-05
7.8e-05
7.8e-05
7.8e-05
7.8e-05
7.8e-05
7.8e-05
7.8e-05
7.8e-05
7.8e-05
7.8e-05
7.8e-05
7.8e-05
7.8e-05
7.8e-05
7.8e-05
7.8e-05
7.8e-05
7.8e-05
7.8e-05
7.8e-05
7.8e-05
7.8e-05
7.8e-05
7.8e-05
7.8e-05
7.8e-05
7.8e-05
7.8e-05
7.8e-05
7.8e-05
7.8e-05
7.8e-05
7.8e-05
7.8e-05
7.8e-05
7.8e-05
7.8e-05
7.8e-05
7.8e-05
7.8e-05
7.8e-05
7.8e-05
7.8e-05
7.8e-05
7.8e-05
7.8e-05
7.8e-05
7.8e-05
7.8e-05
7.8e-05
7.8e-05
7.8e-05
7.8e-05
7.8e-05
7.8e-05
7.8e-05
7.8e-05
7.8e-05
7.8e-05
7.8e-05
7.8e-05
7.8e-05
7.8e-05
7.8e-05
7.8e-05
7.8e-05
7.8e-05
7.8e-05
7.8e-05
7.8e-05
7.8e-05
7.8e-05
7.8e-05
7.8e-05
7.8e-05
7.8e-05
7.8e-05
7.8e-05
7.8e-05
7.8e-05
7.8e-05
7.8e-05
7.8e-05
7.8e-05
7.8e-05
7.8e-05
7.8e-05
7.8e-05
7.8e-05
7.8e-05
7.8e-05
7.8e-05
7.8e-05
7.8e-05
7.8e-05
7.8e-05
7.8e-05
7.8e-05
7.8e-05
7.8e-05
7.8e-05
7.8e-05
7.8e-05
7.8e-05
7.8e-05
7.8e-05
7.8e-05
7.8e-05
7.8e-05
7.8e-05
7.8e-05
7.8e-05
7.8e-05
7.8e-05
7.8e-05
7.8e-05
7.8e-05
7.8e-05
7.8e-05
7.8e-05
7.8e-05
7.8e-05
7.8e-05
7.8e-05
7.8e-05
7.8e-05
7.8e-05
7.8e-05
7.8e-05
7.8e-05
7.8e-05
7.8e-05
7.8e-05
7.8e-05
7.8e-05
7.8e-05
7.8e-05
7.8e-05
7.8e-05
7.8e-05
7.8e-05
7.8e-05
7.8e-05
7.8e-05
7.8e-05
7.8e-05
7.8e-05
7.8e-05
7.8e-05
7.8e-05
7.8e-05
7.8e-05
7.8e-05
7.8e-05
7.8e-05
7.8e-05
7.8e-05
7.8e-05
7.8e-05
7.8e-05
7.8e-05
7.8e-05
7.8e-05
7.8e-05
7.8e-05
7.8e-05
7.8e-05
7.8e-05
7.8e-05
7.8e-05
7.8e-05
7.8e-05
7.8e-05
7.8e-05
7.8e-05
7.8e-05
7.8e-05
7.8e-05
7.8e-05
7.8e-05
7.8e-05
7.8e-05
7.8e-05
7.8e-05
7.8e-05
7.8e-05
7.8e-05
7.8e-05
7.8e-05
7.8e-05
7.8e-05
7.8e-05
7.8e-05
7.8e-05
7.8e-05
7.8e-05
7.8e-05
7.8e-05
7.8e-05
7.8e-05
7.8e-05
7.8e-05
7.8e-05
7.8e-05
7.8e-05
7.8e-05
7.8e-05
7.8e-05
7.8e-05
7.8e-05
7.8e-05
7.8e-05
7.8e-05
7.8e-05
7.8e-05
7.8e-05
7.8e-05
7.8e-05
7.8e-05
7.8e-05
7.8e-05
7.8e-05
7.8e-05
7.8e-05
7.8e-05
7.8e-05
7.8e-05
7.8e-05
7.8e-05
7.8e-05
7.8e-05
7.8e-05
7.8e-05
7.8e-05
7.8e-05
7.8e-05
7.8e-05
7.8e-05
7.8e-05
7.8e-05
7.8e-05
7.8e-05
7.8e-05
7.8e-05
7.8e-05
7.8e-05
7.8e-05
7.8e-05
7.8e-05
7.8e-05
7.8e-05
7.8e-05
7.8e-05
7.8e-05
7.8e-05
7.8e-05
7.8e-05
7.8e-05
7.8e-05
7.8e-05
7.8e-05
7.8e-05
7.8e-05
7.8e-05
7.8e-05
7.8e-05
7.8e-05
7.8e-05
7.8e-05
7.8e-05
7.8e-05
7.8e-05
7.8e-05
7.8e-05
7.8e-05
7.8e-05
7.8e-05
7.8e-05
7.8e-05
7.8e-05
7.8e-05
7.8e-05
7.8e-05
7.8e-05
7.8e-05
7.8e-05
7.8e-05
7.8e-05
7.8e-05
7.8e-05
7.8e-05
7.8e-05
7.8e-05
7.8e-05
7.8e-05
7.8e-05
7.8e-05
7.8e-05
7.8e-05
7.8e-05
7.8e-05
7.8e-05
7.8e-05
7.8e-05
7.8e-05
7.8e-05
7.8e-05
7.8e-05
7.8e-05
7.8e-05
7.8e-05
7.8e-05
7.8e-05
7.8e-05
7.8e-05
7.8e-05
7.8e-05
7.8e-05
7.8e-05
7.8e-05
7.8e-05
7.8e-05
7.8e-05
7.8e-05
7.8e-05
7.8e-05
7.8e-05
7.8e-05
7.8e-05
7.8e-05
7.8e-05
7.8e-05
7.8e-05
7.8e-05
7.8e-05
7.8e-05
7.8e-05
7.8e-05
7.8e-05
7.8e-05
7.8e-05
7.8e-05
7.8e-05
7.8e-05
7.8e-05
7.8e-05
7.8e-05
7.8e-05
7.8e-05
7.8e-05
7.8e-05
7.8e-05
7.8e-05
7.8e-05
7.8e-05
7.8e-05
7.8e-05
7.8e-05
7.8e-05
7.8e-05
7.8e-05
7.8e-05
7.8e-05
7.8e-05
7.8e-05
7.8e-05
7.8e-05
7.8e-05
7.8e-05
7.8e-05
7.8e-05
7.8e-05
7.8e-05
7.8e-05
7.8e-05
7.8e-05
7.8e-05
7.8e-05
7.8e-05
7.8e-05
7.8e-05
7.8e-05
7.8e-05
7.8e-05
7.8e-05
7.8e-05
7.8e-05
7.8e-05
7.8e-05
7.8e-05
7.8e-05
7.8e-05
7.8e-05
7.8e-05
7.8e-05
7.8e-05
7.8e-05
7.8e-05
7.8e-05
7.8e-05
7.8e-05
7.8e-05
7.8e-05
7.8e-05
7.8e-05
7.8e-05
7.8e-05
7.8e-05
7.8e-05
7.8e-05
7.8e-05
7.8e-05
7.8e-05
7.8e-05
7.8e-05
7.8e-05
7.8e-05
7.8e-05
7.8e-05
7.8e-05
7.8e-05
7.8e-05
7.8e-05
7.8e-05
7.8e-05
7.8e-05
7.8e-05
7.8e-05
7.8e-05
7.8e-05
7.8e-05
7.8e-05
7.8e-05
7.8e-05
7.8e-05
7.8e-05
7.8e-05
7.8e-05
7.8e-05
7.8e-05
7.8e-05
7.8e-05
7.8e-05
7.8e-05
7.8e-05
7.8e-05
7.8e-05
7.8e-05
7.8e-05
7.8e-05
7.8e-05
7.8e-05
7.8e-05
7.8e-05
7.8e-05
7.8e-05
7.8e-05
7.8e-05
7.8e-05
7.8e-05
7.8e-05
7.8e-05
7.8e-05
7.8e-05
7.8e-05
7.8e-05
7.8e-05
7.8e-05
7.8e-05
7.8e-05
7.8e-05
7.8e-05
7.8e-05
7.8e-05
7.8e-05
7.8e-05
7.8e-05
7.8e-05
7.8e-05
7.8e-05
7.8e-05
7.8e-05
7.8e-05
7.8e-05
7.8e-05
7.8e-05
7.8e-05
7.8e-05
7.8e-05
7.8e-05
7.8e-05
7.8e-05
7.8e-05
7.8e-05
7.8e-05
7.8e-05
7.8e-05
7.8e-05
7.8e-05
7.8e-05
7.8e-05
7.8e-05
7.8e-05
7.8e-05
7.8e-05
7.8e-05
7.8e-05
7.8e-05
7.8e-05
7.8e-05
7.8e-05
7.8e-05
7.8e-05
7.8e-05
7.8e-05
7.8e-05
7.8e-05
7.8e-05
7.8e-05
7.8e-05
7.8e-05
7.8e-05
7.8e-05
7.8e-05
7.8e-05
7.8e-05
7.8e-05
7.8e-05
7.8e-05
7.8e-05
7.8e-05
7.8e-05
7.8e-05
7.8e-05
7.8e-05
7.8e-05
7.8e-05
7.8e-05
7.8e-05
7.8e-05
7.8e-05
7.8e-05
7.8e-05
7.8e-05
7.8e-05
7.8e-05
7.8e-05
7.8e-05
7.8e-05
7.8e-05
7.8e-05
7.8e-05
7.8e-05
7.8e-05
7.8e-05
7.8e-05
7.8e-05
7.8e-05
7.8e-05
7.8e-05
7.8e-05
7.8e-05
7.8e-05
7.8e-05
7.8e-05
7.8e-05
7.8e-05
7.8e-05
7.8e-05
7.8e-05
7.8e-05
7.8e-05
7.8e-05
7.8e-05
7.8e-05
7.8e-05
7.8e-05
7.8e-05
7.8e-05
7.8e-05
7.8e-05
7.8e-05
7.8e-05
7.8e-05
7.8e-05
7.8e-05
7.8e-05
7.8e-05
7.8e-05
7.8e-05
7.8e-05
7.8e-05
7.8e-05
7.8e-05
7.8e-05
7.8e-05
7.8e-05
7.8e-05
7.8e-05
7.8e-05
7.8e-05
7.8e-05
7.8e-05
7.8e-05
7.8e-05
7.8e-05
7.8e-05
7.8e-05
7.8e-05
7.8e-05
7.8e-05
7.8e-05
7.8e-05
7.8e-05
7.8e-05
7.8e-05
7.8e-05
7.8e-05
7.8e-05
7.8e-05
7.8e-05
7.8e-05
7.8e-05
7.8e-05
7.8e-05
7.8e-05
7.8e-05
7.8e-05
7.8e-05
7.8e-05
7.8e-05
7.8e-05
7.8e-05
7.8e-05
7.8e-05
7.8e-05
7.8e-05
7.8e-05
7.8e-05
7.8e-05
7.8e-05
7.8e-05
7.8e-05
7.8e-05
7.8e-05
7.8e-05
7.8e-05
7.8e-05
7.8e-05
7.8e-05
7.8e-05
7.8e-05
7.8e-05
7.8e-05
7.8e-05
7.8e-05
7.8e-05
7.8e-05
7.8e-05
7.8e-05
7.8e-05
7.8e-05
7.8e-05
7.8e-05
7.8e-05
7.8e-05
7.8e-05
7.8e-05
7.8e-05
7.8e-05
7.8e-05
7.8e-05
7.8e-05
7.8e-05
7.8e-05
7.8e-05
7.8e-05
7.8e-05
7.8e-05
7.8e-05
7.8e-05
7.8e-05
7.8e-05
7.8e-05
7.8e-05
7.8e-05
7.8e-05
7.8e-05
7.8e-05
7.8e-05
7.8e-05
7.8e-05
7.8e-05
7.8e-05
7.8e-05
7.8e-05
7.8e-05
7.8e-05
7.8e-05
7.8e-05
7.8e-05
7.8e-05
7.8e-05
7.8e-05
7.8e-05
7.8e-05
7.8e-05
7.8e-05
7.8e-05
7.8e-05
7.8e-05
7.8e-05
7.8e-05
7.8e-05
7.8e-05
7.8e-05
7.8e-05
7.8e-05
7.8e-05
7.8e-05
7.8e-05
7.8e-05
7.8e-05
7.8e-05
7.8e-05
7.8e-05
7.8e-05
7.8e-05
7.8e-05
7.8e-05
7.8e-05
7.8e-05
7.8e-05
7.8e-05
7.8e-05
7.8e-05
7.8e-05
7.8e-05
7.8e-05
7.8e-05
7.8e-05
7.8e-05
7.8e-05
7.8e-05
7.8e-05
7.8e-05
7.8e-05
7.8e-05
7.8e-05
7.8e-05
7.8e-05
7.8e-05
7.8e-05
7.8e-05
7.8e-05
7.8e-05
7.8e-05
7.8e-05
7.8e-05
7.8e-05
7.8e-05
7.8e-05
7.8e-05
7.8e-05
7.8e-05
7.8e-05
7.8e-05
7.8e-05
7.8e-05
7.8e-05
7.8e-05
7.8e-05
7.8e-05
7.8e-05
7.8e-05
7.8e-05
7.8e-05
7.8e-05
7.8e-05
7.8e-05
7.8e-05
7.8e-05
7.8e-05
7.8e-05
7.8e-05
7.8e-05
7.8e-05
7.8e-05
7.8e-05
7.8e-05
7.8e-05
7.8e-05
7.8e-05
7.8e-05
7.8e-05
7.8e-05
7.8e-05
7.8e-05
7.8e-05
7.8e-05
7.8e-05
7.8e-05
7.8e-05
7.8e-05
7.8e-05
7.8e-05
7.8e-05
7.8e-05
7.8e-05
7.8e-05
7.8e-05
7.8e-05
7.8e-05
7.8e-05
7.8e-05
7.8e-05
7.8e-05
7.8e-05
7.8e-05
7.8e-05
7.8e-05
7.8e-05
7.8e-05
7.8e-05
7.8e-05
7.8e-05
7.8e-05
7.8e-05
7.8e-05
7.8e-05
7.8e-05
7.8e-05
7.8e-05
7.8e-05
7.8e-05
7.8e-05
7.8e-05
7.8e-05
7.8e-05
7.8e-05
7.8e-05
7.8e-05
7.8e-05
7.8e-05
7.8e-05
7.8e-05
7.8e-05
7.8e-05
7.8e-05
7.8e-05
7.8e-05
7.8e-05
7.8e-05
7.8e-05
7.8e-05
7.8e-05
7.8e-05
7.8e-05
7.8e-05
7.8e-05
7.8e-05
7.8e-05
7.8e-05
7.8e-05
7.8e-05
7.8e-05
7.8e-05
7.8e-05
7.8e-05
7.8e-05
7.8e-05
7.8e-05
7.8e-05
7.8e-05
7.8e-05
7.8e-05
7.8e-05
7.8e-05
7.8e-05
7.8e-05
7.8e-05
7.8e-05
7.8e-05
7.8e-05
7.8e-05
7.8e-05
7.8e-05
7.8e-05
7.8e-05
7.8e-05
7.8e-05
7.8e-05
7.8e-05
7.8e-05
7.8e-05
7.8e-05
7.8e-05
7.8e-05
7.8e-05
7.8e-05
7.8e-05
7.8e-05
7.8e-05
7.8e-05
7.8e-05
7.8e-05
7.8e-05
7.8e-05
7.8e-05
7.8e-05
7.8e-05
7.8e-05
7.8e-05
7.8e-05
7.8e-05
7.8e-05
7.8e-05
7.8e-05
7.8e-05
7.8e-05
7.8e-05
7.8e-05
7.8e-05
7.8e-05
7.8e-05
7.8e-05
7.8e-05
7.8e-05
7.8e-05
7.8e-05
7.8e-05
7.8e-05
7.8e-05
7.8e-05
7.8e-05
7.8e-05
7.8e-05
7.8e-05
7.8e-05
7.8e-05
7.8e-05
7.8e-05
7.8e-05
7.8e-05
7.8e-05
7.8e-05
7.8e-05
7.8e-05
7.8e-05
7.8e-05
7.8e-05
7.8e-05
7.8e-05
7.8e-05
7.8e-05
7.8e-05
7.8e-05
7.8e-05
7.8e-05
7.8e-05
7.8e-05
7.8e-05
7.8e-05
7.8e-05
7.8e-05
7.8e-05
7.8e-05
7.8e-05
7.8e-05
7.8e-05
7.8e-05
7.8e-05
7.8e-05
7.8e-05
7.8e-05
7.8e-05
7.8e-05
7.8e-05
7.8e-05
7.8e-05
7.8e-05
7.8e-05
7.8e-05
7.8e-05
7.8e-05
7.8e-05
7.8e-05
7.8e-05
7.8e-05
7.8e-05
7.8e-05
7.8e-05
7.8e-05
7.8e-05
7.8e-05
7.8e-05
7.8e-05
7.8e-05
7.8e-05
7.8e-05
7.8e-05
7.8e-05
7.8e-05
7.8e-05
7.8e-05
7.8e-05
7.8e-05
7.8e-05
7.8e-05
7.8e-05
7.8e-05
7.8e-05
7.8e-05
7.8e-05
7.8e-05
7.8e-05
7.8e-05
7.8e-05
7.8e-05
7.8e-05
7.8e-05
7.8e-05
7.8e-05
7.8e-05
7.8e-05
7.8e-05
7.8e-05
7.8e-05
7.8e-05
7.8e-05
7.8e-05
7.8e-05
7.8e-05
7.8e-05
7.8e-05
7.8e-05
7.8e-05
7.8e-05
7.8e-05
7.8e-05
7.8e-05
7.8e-05
7.8e-05
7.8e-05
7.8e-05
7.8e-05
7.8e-05
7.8e-05
7.8e-05
7.8e-05
7.8e-05
7.8e-05
7.8e-05
7.8e-05
7.8e-05
7.8e-05
7.8e-05
7.8e-05
7.8e-05
7.8e-05
7.8e-05
7.8e-05
7.8e-05
7.8e-05
7.8e-05
7.8e-05
7.8e-05
7.8e-05
7.8e-05
7.8e-05
7.8e-05
7.8e-05
7.8e-05
7.8e-05
7.8e-05
7.8e-05
7.8e-05
7.8e-05
7.8e-05
7.8e-05
7.8e-05
7.8e-05
7.8e-05
7.8e-05
7.8e-05
7.8e-05
7.8e-05
7.8e-05
7.8e-05
7.8e-05
7.8e-05
7.8e-05
7.8e-05
7.8e-05
7.8e-05
7.8e-05
7.8e-05
7.8e-05
7.8e-05
7.8e-05
7.8e-05
7.8e-05
7.8e-05
7.8e-05
7.8e-05
7.8e-05
7.8e-05
7.8e-05
7.8e-05
7.8e-05
7.8e-05
7.8e-05
7.8e-05
7.8e-05
7.8e-05
7.8e-05
7.8e-05
7.8e-05
7.8e-05
7.8e-05
7.8e-05
7.8e-05
7.8e-05
7.8e-05
7.8e-05
7.8e-05
7.8e-05
7.8e-05
7.8e-05
7.8e-05
7.8e-05
7.8e-05
7.8e-05
7.8e-05
7.8e-05
7.8e-05
7.8e-05
7.8e-05
7.8e-05
7.8e-05
7.8e-05
7.8e-05
7.8e-05
7.8e-05
7.8e-05
7.8e-05
7.8e-05
7.8e-05