/*--------------------------------*- C++ -*----------------------------------*\
| =========                 |                                                 |
| \\      /  F ield         | OpenFOAM: The Open Source CFD Toolbox           |
|  \\    /   O peration     | Version:  2406                                  |
|   \\  /    A nd           | Website:  www.openfoam.com                      |
|    \\/     M anipulation  |                                                 |
\*---------------------------------------------------------------------------*/
FoamFile
{
    version     2.0;
    format      ascii;
    arch        "LSB;label=32;scalar=64";
    class       volScalarField;
    location    "2.9";
    object      C;
}
// * * * * * * * * * * * * * * * * * * * * * * * * * * * * * * * * * * * * * //

dimensions      [1 -3 0 0 0 0 0];

internalField   nonuniform List<scalar> 
14400
(
0.79094
0.778614
0.753653
0.726357
0.703656
0.687577
0.679057
0.678608
0.686462
0.702602
0.726734
0.758134
0.794913
0.829945
0.851264
0.860082
0.861431
0.854995
0.834648
0.80425
0.776879
0.756503
0.744782
0.742664
0.750761
0.769483
0.79907
0.839557
0.890648
0.951362
1.01837
1.06979
1.10301
1.13065
1.15496
1.17639
1.19532
1.212
1.22666
1.23945
1.25052
1.25997
1.26789
1.27434
1.27938
1.28305
1.28538
1.28639
1.2861
1.28451
1.28161
1.27739
1.27183
1.26489
1.25655
1.24674
1.23539
1.22243
1.20776
1.19125
1.17275
1.15207
1.12898
1.10317
1.07427
1.0418
0.998226
0.934101
0.861231
0.795788
0.73994
0.694026
0.657971
0.631568
0.614579
0.606772
0.607939
0.617894
0.636457
0.663413
0.6984
0.740617
0.787662
0.824406
0.845221
0.858439
0.866436
0.869625
0.868153
0.861918
0.850535
0.830661
0.796881
0.757241
0.722637
0.695053
0.675167
0.663164
0.658841
0.661584
0.670294
0.683193
0.697232
0.705997
0.697432
0.683615
0.670953
0.66252
0.660125
0.664895
0.677472
0.698094
0.726613
0.762386
0.803446
0.838483
0.859594
0.872566
0.88085
0.884892
0.800957
0.792377
0.770477
0.742254
0.718551
0.701739
0.692759
0.692151
0.700153
0.716735
0.741573
0.773947
0.811692
0.842794
0.859375
0.867548
0.869159
0.864071
0.849311
0.821378
0.792783
0.771376
0.758922
0.756387
0.764372
0.783285
0.81336
0.854618
0.906654
0.967991
1.03139
1.07611
1.10696
1.13399
1.15783
1.17891
1.19756
1.21403
1.22851
1.24118
1.25214
1.2615
1.26935
1.27575
1.28075
1.28439
1.2867
1.2877
1.2874
1.28581
1.28293
1.27873
1.2732
1.26631
1.25801
1.24827
1.23701
1.22415
1.2096
1.19324
1.17493
1.15448
1.13169
1.10626
1.07784
1.04593
1.007
0.94897
0.876114
0.810002
0.753384
0.706773
0.670165
0.643373
0.62617
0.618328
0.619637
0.629902
0.64894
0.676533
0.712281
0.755109
0.801169
0.833039
0.851206
0.86366
0.871244
0.874287
0.872915
0.867067
0.856476
0.840092
0.811448
0.77235
0.737184
0.708989
0.688719
0.676693
0.672783
0.676414
0.686527
0.701403
0.717707
0.724845
0.717919
0.701822
0.687161
0.677306
0.674006
0.678343
0.690924
0.711908
0.741009
0.777294
0.817682
0.847462
0.865083
0.877254
0.885092
0.888934
0.818892
0.813454
0.799424
0.773016
0.747949
0.729889
0.720033
0.719116
0.727411
0.744831
0.770848
0.804405
0.839998
0.862053
0.87436
0.881574
0.883588
0.880337
0.871634
0.852209
0.82364
0.800803
0.787032
0.783723
0.791492
0.810771
0.841771
0.884479
0.93816
1.00003
1.0506
1.08559
1.11471
1.14051
1.16345
1.18385
1.20198
1.21804
1.2322
1.2446
1.25535
1.26455
1.27227
1.27856
1.28347
1.28705
1.28932
1.2903
1.29
1.28842
1.28556
1.2814
1.27593
1.26912
1.26093
1.25132
1.24021
1.22755
1.21324
1.19718
1.17924
1.15925
1.13703
1.11235
1.0849
1.05432
1.02012
0.97296
0.905235
0.838372
0.78031
0.732329
0.694629
0.667066
0.649437
0.641526
0.64312
0.653999
0.673948
0.702744
0.739971
0.78415
0.823563
0.846976
0.862636
0.87375
0.880593
0.883363
0.882152
0.876957
0.867688
0.854215
0.834133
0.801847
0.765955
0.736629
0.715579
0.703471
0.700328
0.705594
0.718098
0.735626
0.749076
0.751828
0.749241
0.736027
0.718678
0.706392
0.701423
0.704956
0.717581
0.739299
0.769488
0.80643
0.83965
0.860777
0.87549
0.886274
0.89333
0.896816
0.842262
0.838614
0.831769
0.816106
0.790881
0.771619
0.760527
0.759178
0.767902
0.786514
0.81375
0.847602
0.87096
0.884367
0.894427
0.9008
0.903279
0.901859
0.896756
0.88746
0.868241
0.844284
0.828709
0.824399
0.831857
0.851644
0.883835
0.928337
0.982652
1.03281
1.06926
1.09893
1.12575
1.14991
1.17161
1.19107
1.20846
1.22394
1.23764
1.24967
1.26013
1.26908
1.2766
1.28274
1.28754
1.29103
1.29324
1.29418
1.29387
1.2923
1.28948
1.28539
1.28001
1.27332
1.26528
1.25585
1.24498
1.2326
1.21864
1.20301
1.18558
1.16625
1.14485
1.1212
1.09509
1.06629
1.03455
0.998453
0.947293
0.880654
0.820703
0.770751
0.731484
0.702786
0.684524
0.676518
0.678544
0.690323
0.711521
0.741792
0.780204
0.821871
0.84867
0.865462
0.878611
0.888109
0.894017
0.896418
0.895373
0.890921
0.883103
0.872013
0.857929
0.837185
0.80703
0.777229
0.755112
0.742826
0.740705
0.748064
0.762609
0.776312
0.781938
0.782957
0.78201
0.776549
0.763087
0.748705
0.741606
0.744056
0.756803
0.779506
0.81008
0.840916
0.862478
0.877573
0.889823
0.899023
0.905138
0.908185
0.869281
0.866915
0.86255
0.856655
0.843595
0.825606
0.81324
0.811473
0.820651
0.840437
0.866669
0.886987
0.899347
0.909842
0.918181
0.92392
0.926868
0.927064
0.924787
0.920622
0.913323
0.899344
0.882704
0.877772
0.8848
0.905214
0.938338
0.983653
1.02685
1.06071
1.08877
1.11512
1.13947
1.16176
1.18202
1.20036
1.21686
1.23163
1.24476
1.25632
1.2664
1.27505
1.28232
1.28827
1.29291
1.29629
1.29842
1.29932
1.29899
1.29744
1.29467
1.29066
1.2854
1.27886
1.27101
1.26183
1.25125
1.23924
1.22572
1.21062
1.19385
1.17531
1.15491
1.1325
1.10798
1.08121
1.05212
1.02068
0.984533
0.934571
0.874051
0.821877
0.780811
0.750658
0.73157
0.723448
0.726069
0.739032
0.761661
0.793369
0.831827
0.858288
0.874207
0.887561
0.898239
0.906056
0.910949
0.912919
0.911999
0.908253
0.901788
0.892806
0.881673
0.869014
0.851348
0.8286
0.805756
0.793324
0.792205
0.801266
0.810022
0.814603
0.815631
0.816052
0.815654
0.814656
0.810213
0.801645
0.792834
0.794183
0.807018
0.830286
0.853505
0.871747
0.8852
0.897213
0.907205
0.914857
0.920012
0.922601
0.898667
0.897215
0.894592
0.891348
0.888138
0.881186
0.874484
0.873186
0.882041
0.896307
0.910182
0.91973
0.929011
0.937474
0.944534
0.949829
0.953211
0.954741
0.954705
0.95364
0.952359
0.95005
0.944712
0.941783
0.948065
0.969256
1.00098
1.03332
1.06079
1.0856
1.10997
1.13331
1.15525
1.17562
1.19436
1.21147
1.22699
1.24096
1.25343
1.26446
1.2741
1.28239
1.28938
1.29509
1.29955
1.3028
1.30484
1.30568
1.30534
1.30381
1.3011
1.29718
1.29206
1.2857
1.27809
1.26919
1.25897
1.24738
1.23437
1.21989
1.20387
1.18625
1.16696
1.14593
1.1231
1.09846
1.07202
1.04392
1.01445
0.981172
0.937359
0.884661
0.842478
0.810604
0.790539
0.782274
0.785631
0.80003
0.823481
0.854387
0.876622
0.890109
0.901997
0.912335
0.920727
0.926926
0.930803
0.932308
0.931453
0.928302
0.922991
0.915748
0.906942
0.89712
0.887038
0.875216
0.861568
0.851231
0.84845
0.850003
0.850475
0.849945
0.84993
0.849965
0.849896
0.849883
0.850396
0.85
0.84856
0.851531
0.862115
0.876066
0.888263
0.89891
0.909359
0.918872
0.926928
0.933189
0.937451
0.939606
0.929505
0.928684
0.927253
0.925628
0.924415
0.924433
0.924658
0.926315
0.93184
0.938443
0.944785
0.952052
0.959493
0.966508
0.972653
0.977653
0.981404
0.983983
0.985651
0.986875
0.988335
0.990948
0.995312
0.999763
1.00958
1.0275
1.04865
1.06881
1.08957
1.11094
1.13222
1.15289
1.17259
1.19111
1.20833
1.22419
1.23867
1.25178
1.26354
1.27399
1.28314
1.29104
1.2977
1.30315
1.30742
1.31051
1.31244
1.31323
1.31287
1.31137
1.30872
1.30492
1.29995
1.2938
1.28645
1.27788
1.26805
1.25694
1.2445
1.2307
1.2155
1.19887
1.18075
1.16115
1.14005
1.1175
1.09359
1.06852
1.04262
1.01638
0.988787
0.954146
0.915099
0.881582
0.86077
0.852273
0.856059
0.871545
0.889327
0.904263
0.91353
0.922642
0.931335
0.939056
0.945407
0.950119
0.953029
0.954059
0.9532
0.950512
0.946125
0.940254
0.933226
0.925484
0.917598
0.910243
0.903866
0.897467
0.892779
0.888592
0.886074
0.884772
0.884178
0.883983
0.884081
0.884583
0.885805
0.888259
0.89243
0.8972
0.903706
0.910318
0.918001
0.926269
0.934452
0.941988
0.948446
0.953517
0.956998
0.958766
0.961164
0.960762
0.96011
0.959493
0.959308
0.959995
0.96185
0.964908
0.968382
0.972836
0.978205
0.984201
0.990402
0.996411
1.00192
1.00672
1.01077
1.01413
1.01704
1.01987
1.02316
1.02756
1.03383
1.0428
1.05442
1.06777
1.08286
1.0997
1.11773
1.13637
1.15508
1.17344
1.19112
1.20791
1.22366
1.23828
1.25171
1.26395
1.27498
1.28481
1.29345
1.30092
1.30723
1.3124
1.31645
1.31938
1.3212
1.32192
1.32154
1.32007
1.3175
1.31382
1.30903
1.3031
1.29604
1.28782
1.27842
1.26782
1.25599
1.24291
1.22857
1.21295
1.19604
1.17786
1.15845
1.13789
1.11632
1.09396
1.07113
1.04829
1.02602
1.0047
0.980897
0.957345
0.938962
0.929956
0.929498
0.934348
0.939918
0.944017
0.949503
0.955595
0.961644
0.967147
0.971726
0.975113
0.977134
0.977697
0.976778
0.974422
0.97074
0.965919
0.960222
0.953991
0.947628
0.941541
0.936023
0.931095
0.926569
0.922967
0.920457
0.918888
0.918029
0.917707
0.917862
0.918561
0.919981
0.922362
0.925867
0.930341
0.9353
0.940912
0.94715
0.953714
0.960191
0.966183
0.971351
0.975437
0.978256
0.979693
0.993223
0.993092
0.99293
0.992927
0.99333
0.994386
0.996258
0.998952
1.00228
1.00631
1.011
1.01614
1.0215
1.02682
1.03188
1.03655
1.04082
1.04474
1.04851
1.05242
1.05686
1.06229
1.0692
1.07795
1.08858
1.10079
1.11446
1.1294
1.14529
1.16172
1.17829
1.19465
1.21055
1.22575
1.24012
1.25355
1.26596
1.27733
1.28761
1.29681
1.30493
1.31196
1.31791
1.32278
1.3266
1.32935
1.33105
1.33171
1.33131
1.32987
1.32738
1.32383
1.31923
1.31355
1.30679
1.29894
1.28999
1.27992
1.26872
1.25639
1.24292
1.22832
1.2126
1.19581
1.17801
1.1593
1.13984
1.11986
1.09966
1.07962
1.06022
1.04202
1.02567
1.01131
0.998437
0.989389
0.984165
0.980839
0.980284
0.981886
0.984871
0.98859
0.9925
0.996162
0.999236
1.00147
1.0027
1.00282
1.00179
0.999656
0.996495
0.992459
0.987752
0.982631
0.977379
0.972271
0.967513
0.963201
0.959382
0.956249
0.953899
0.952295
0.951341
0.950952
0.9511
0.951819
0.953197
0.955339
0.95829
0.961963
0.966176
0.970881
0.975974
0.981246
0.986416
0.9912
0.995338
0.998622
1.0009
1.00206
1.02541
1.02545
1.02559
1.02596
1.0267
1.02796
1.02984
1.03236
1.03547
1.03914
1.04332
1.04788
1.05265
1.05748
1.06222
1.0668
1.0712
1.0755
1.07984
1.08443
1.08957
1.09556
1.10271
1.11122
1.12114
1.13237
1.14477
1.15817
1.17232
1.18692
1.20169
1.21635
1.23066
1.24443
1.25752
1.26983
1.28126
1.29178
1.30133
1.30991
1.31749
1.32407
1.32965
1.33423
1.3378
1.34038
1.34196
1.34254
1.34213
1.34072
1.33832
1.33491
1.3305
1.32507
1.31863
1.31117
1.30267
1.29315
1.28259
1.27101
1.2584
1.2448
1.23023
1.21476
1.19846
1.18145
1.16389
1.14599
1.12802
1.1103
1.09323
1.07721
1.06268
1.04994
1.03926
1.03066
1.02432
1.02032
1.01847
1.01837
1.01951
1.02139
1.0236
1.02576
1.02759
1.02884
1.02937
1.02908
1.02792
1.02591
1.02313
1.01967
1.0157
1.0114
1.00699
1.00265
0.998556
0.994813
0.991509
0.988748
0.986595
0.985053
0.984087
0.983662
0.983766
0.984416
0.98565
0.987508
0.989991
0.993043
0.996562
1.00046
1.00462
1.00888
1.01303
1.01686
1.02018
1.02282
1.02465
1.02558
1.05757
1.05771
1.05803
1.05861
1.05954
1.06091
1.06279
1.06519
1.06809
1.07147
1.07526
1.07939
1.08375
1.08822
1.09273
1.09722
1.1017
1.10622
1.1109
1.11591
1.12143
1.12768
1.13485
1.14308
1.15241
1.16277
1.17408
1.18618
1.19888
1.21197
1.22521
1.23839
1.2513
1.26379
1.27571
1.28697
1.29748
1.30718
1.31603
1.324
1.33105
1.33719
1.3424
1.34667
1.35001
1.35241
1.35386
1.35437
1.35395
1.35257
1.35026
1.34699
1.34278
1.33761
1.33149
1.32442
1.31639
1.30741
1.29749
1.28664
1.27488
1.26224
1.24878
1.23454
1.21963
1.20416
1.18828
1.17219
1.15612
1.14035
1.12517
1.11092
1.09789
1.08634
1.07647
1.06835
1.06208
1.05765
1.05492
1.05361
1.05339
1.05388
1.05475
1.05571
1.0565
1.05693
1.05686
1.0562
1.0549
1.05296
1.05043
1.04739
1.04396
1.04029
1.03651
1.03279
1.02925
1.02598
1.02309
1.02064
1.01868
1.01723
1.01629
1.01584
1.01589
1.01643
1.01748
1.01905
1.02112
1.02366
1.02657
1.02977
1.03317
1.03661
1.03996
1.04304
1.0457
1.04782
1.04929
1.05004
1.08958
1.08978
1.09021
1.09091
1.09194
1.09337
1.09522
1.09751
1.10024
1.10337
1.10687
1.11068
1.11472
1.11893
1.12325
1.12765
1.13215
1.13679
1.14165
1.14686
1.15255
1.15887
1.16594
1.17385
1.18263
1.19223
1.20259
1.21359
1.22507
1.23687
1.2488
1.26069
1.27237
1.28371
1.29457
1.30487
1.31451
1.32345
1.33162
1.33899
1.34554
1.35124
1.35608
1.36006
1.36315
1.36537
1.3667
1.36715
1.3667
1.36537
1.36314
1.36002
1.35601
1.3511
1.34531
1.33862
1.33106
1.32262
1.31332
1.30318
1.29224
1.28052
1.26808
1.255
1.24136
1.22727
1.21288
1.19837
1.18393
1.16979
1.15619
1.14339
1.13162
1.12107
1.1119
1.1042
1.098
1.09329
1.08994
1.08778
1.08655
1.08598
1.08581
1.08581
1.08577
1.08553
1.08495
1.08396
1.08251
1.08059
1.07823
1.0755
1.07248
1.06927
1.06599
1.06275
1.05965
1.05679
1.05423
1.05204
1.05026
1.04891
1.048
1.04753
1.04751
1.04793
1.04879
1.05009
1.0518
1.05389
1.05628
1.0589
1.06167
1.06445
1.06715
1.06963
1.07177
1.07347
1.07465
1.07526
1.12139
1.12163
1.12211
1.12288
1.12396
1.12539
1.1272
1.1294
1.13197
1.13491
1.13818
1.14173
1.14553
1.14952
1.15368
1.15799
1.16246
1.16712
1.17205
1.17733
1.18305
1.18931
1.1962
1.20376
1.21202
1.22094
1.23047
1.2405
1.25094
1.26162
1.27242
1.28319
1.29379
1.3041
1.314
1.32341
1.33226
1.34047
1.348
1.35481
1.36086
1.36615
1.37063
1.37432
1.37718
1.37922
1.38043
1.38081
1.38035
1.37905
1.37692
1.37394
1.37013
1.36549
1.36001
1.35371
1.3466
1.33868
1.32999
1.32054
1.31036
1.29951
1.28804
1.27601
1.26352
1.25068
1.23761
1.22448
1.21144
1.19869
1.18642
1.17484
1.16412
1.15443
1.14588
1.13854
1.13244
1.12755
1.12379
1.12101
1.11904
1.11768
1.11671
1.11596
1.11525
1.11446
1.11346
1.11218
1.11058
1.10866
1.10642
1.10391
1.10118
1.09833
1.09543
1.09257
1.08983
1.08729
1.085
1.08303
1.0814
1.08014
1.07927
1.07878
1.07869
1.07898
1.07966
1.08071
1.08211
1.08381
1.08576
1.08789
1.09013
1.09239
1.09456
1.09655
1.09828
1.09964
1.10059
1.10108
1.15297
1.15322
1.15373
1.15453
1.15562
1.15704
1.1588
1.1609
1.16335
1.16612
1.16919
1.17255
1.17614
1.17996
1.18397
1.18817
1.19257
1.1972
1.20211
1.20735
1.21301
1.21913
1.22577
1.23297
1.24074
1.24904
1.25783
1.26703
1.27655
1.28627
1.29608
1.30587
1.3155
1.32489
1.33392
1.34253
1.35063
1.35817
1.3651
1.37138
1.37697
1.38184
1.38599
1.38939
1.39203
1.3939
1.39499
1.39531
1.39484
1.39358
1.39153
1.3887
1.38509
1.3807
1.37554
1.36961
1.36294
1.35553
1.34741
1.33861
1.32917
1.31913
1.30854
1.29749
1.28604
1.27432
1.26242
1.25048
1.23866
1.2271
1.21596
1.20542
1.19561
1.18665
1.17864
1.17163
1.16566
1.16068
1.15665
1.15344
1.15094
1.14897
1.1474
1.14606
1.14483
1.14358
1.14223
1.14072
1.13899
1.13704
1.13487
1.13252
1.13002
1.12743
1.12482
1.12226
1.11981
1.11753
1.11547
1.11367
1.11217
1.11099
1.11014
1.10964
1.10948
1.10966
1.11017
1.11099
1.11211
1.11348
1.11505
1.11678
1.11859
1.1204
1.12215
1.12375
1.12513
1.12623
1.12699
1.12738
1.1843
1.18455
1.18508
1.18587
1.18696
1.18835
1.19005
1.19206
1.19439
1.19702
1.19994
1.20312
1.20654
1.21019
1.21406
1.21814
1.22244
1.22699
1.23182
1.23697
1.24249
1.24842
1.25479
1.26162
1.26892
1.27665
1.28478
1.29324
1.30195
1.31083
1.31977
1.32868
1.33746
1.34602
1.35427
1.36214
1.36957
1.37649
1.38286
1.38863
1.39378
1.39827
1.4021
1.40523
1.40765
1.40936
1.41034
1.41059
1.41011
1.40889
1.40693
1.40425
1.40083
1.39668
1.39182
1.38626
1.38001
1.37308
1.36552
1.35733
1.34857
1.33928
1.32952
1.31935
1.30885
1.29812
1.28726
1.27638
1.26561
1.25508
1.24492
1.23527
1.22623
1.21792
1.21039
1.20371
1.19787
1.19288
1.18868
1.18518
1.18228
1.17988
1.17784
1.17606
1.17441
1.17281
1.17118
1.16947
1.16762
1.16564
1.16352
1.16127
1.15894
1.15656
1.15417
1.15185
1.14962
1.14755
1.14566
1.14401
1.14262
1.1415
1.14068
1.14015
1.13993
1.14
1.14035
1.14098
1.14185
1.14294
1.1442
1.14558
1.14703
1.14849
1.14989
1.15117
1.15228
1.15316
1.15377
1.15408
1.21537
1.21562
1.21614
1.21693
1.21799
1.21934
1.22098
1.22292
1.22514
1.22764
1.23041
1.23344
1.23671
1.24021
1.24394
1.24789
1.25208
1.25651
1.26122
1.26623
1.27157
1.27727
1.28335
1.28981
1.29666
1.30387
1.3114
1.3192
1.3272
1.33532
1.3435
1.35163
1.35965
1.36746
1.37501
1.38221
1.38901
1.39536
1.4012
1.40651
1.41124
1.41538
1.41889
1.42177
1.42398
1.42553
1.42641
1.42661
1.42611
1.42494
1.42307
1.42052
1.41729
1.41338
1.40882
1.4036
1.39775
1.39128
1.38423
1.37663
1.36851
1.35991
1.3509
1.34154
1.3319
1.32206
1.31211
1.30216
1.29232
1.28269
1.27338
1.2645
1.25614
1.24839
1.24131
1.23492
1.22925
1.22429
1.21999
1.2163
1.21314
1.21042
1.20804
1.20591
1.20395
1.20207
1.20022
1.19834
1.1964
1.19438
1.19228
1.19012
1.18791
1.18568
1.18347
1.18133
1.17928
1.17737
1.17563
1.1741
1.17279
1.17172
1.17091
1.17036
1.17008
1.17005
1.17027
1.17072
1.17139
1.17223
1.17322
1.17431
1.17547
1.17663
1.17774
1.17877
1.17965
1.18035
1.18084
1.18108
1.24618
1.24643
1.24694
1.24771
1.24874
1.25005
1.25163
1.25348
1.2556
1.25799
1.26063
1.26352
1.26665
1.27001
1.2736
1.27741
1.28146
1.28575
1.29031
1.29514
1.30028
1.30573
1.31151
1.31762
1.32405
1.33077
1.33775
1.34495
1.35231
1.35977
1.36726
1.3747
1.38203
1.38918
1.39608
1.40267
1.4089
1.41472
1.42009
1.42496
1.42931
1.43311
1.43633
1.43896
1.44099
1.44239
1.44317
1.44331
1.44281
1.44167
1.43989
1.43747
1.43442
1.43075
1.42646
1.42157
1.4161
1.41007
1.40351
1.39644
1.38891
1.38096
1.37264
1.36401
1.35514
1.3461
1.33697
1.32785
1.31882
1.30997
1.3014
1.2932
1.28545
1.2782
1.27152
1.26542
1.25993
1.25503
1.25071
1.2469
1.24356
1.24061
1.23798
1.2356
1.2334
1.23131
1.22928
1.22727
1.22525
1.2232
1.22112
1.21901
1.21689
1.21478
1.21271
1.21071
1.2088
1.20702
1.2054
1.20396
1.20272
1.20169
1.20089
1.20032
1.19997
1.19986
1.19995
1.20025
1.20074
1.20137
1.20214
1.20299
1.20389
1.20481
1.20569
1.2065
1.2072
1.20776
1.20814
1.20834
1.27673
1.27698
1.27748
1.27822
1.27922
1.28048
1.282
1.28377
1.2858
1.28808
1.2906
1.29336
1.29636
1.29958
1.30302
1.30669
1.3106
1.31473
1.31912
1.32376
1.32868
1.33387
1.33935
1.34511
1.35113
1.3574
1.36389
1.37055
1.37733
1.38419
1.39106
1.39788
1.40459
1.41114
1.41746
1.4235
1.42921
1.43455
1.43947
1.44394
1.44792
1.45141
1.45436
1.45676
1.45861
1.45987
1.46055
1.46065
1.46014
1.45904
1.45735
1.45506
1.45218
1.44872
1.4447
1.44013
1.43502
1.42939
1.42328
1.41672
1.40973
1.40237
1.39468
1.38672
1.37854
1.37022
1.36183
1.35344
1.34513
1.33698
1.32907
1.32147
1.31424
1.30745
1.30113
1.29532
1.29001
1.28521
1.2809
1.27704
1.27358
1.27049
1.26768
1.26512
1.26274
1.26049
1.25832
1.25621
1.25412
1.25205
1.24998
1.24791
1.24586
1.24385
1.24188
1.23999
1.23819
1.23652
1.23499
1.23362
1.23243
1.23143
1.23063
1.23004
1.22964
1.22944
1.22944
1.2296
1.22993
1.23039
1.23096
1.23161
1.23231
1.23302
1.23371
1.23435
1.2349
1.23533
1.23564
1.23579
1.30704
1.30728
1.30776
1.30848
1.30945
1.31066
1.31211
1.3138
1.31574
1.31792
1.32033
1.32297
1.32584
1.32892
1.33223
1.33575
1.33949
1.34347
1.34767
1.35211
1.3568
1.36173
1.36691
1.37233
1.37797
1.38382
1.38985
1.39601
1.40228
1.40859
1.41491
1.42117
1.42733
1.43333
1.43912
1.44466
1.44989
1.45478
1.45929
1.46339
1.46705
1.47024
1.47294
1.47513
1.4768
1.47794
1.47853
1.47858
1.47807
1.47701
1.47539
1.47323
1.47052
1.46727
1.4635
1.45922
1.45444
1.4492
1.44351
1.43741
1.43093
1.42411
1.417
1.40964
1.4021
1.39442
1.38668
1.37894
1.37127
1.36374
1.35641
1.34935
1.34261
1.33623
1.33025
1.3247
1.31958
1.3149
1.31063
1.30676
1.30325
1.30006
1.29714
1.29445
1.29194
1.28957
1.28731
1.28512
1.28299
1.2809
1.27883
1.2768
1.2748
1.27286
1.27097
1.26917
1.26746
1.26587
1.26441
1.2631
1.26195
1.26097
1.26017
1.25955
1.25911
1.25884
1.25874
1.2588
1.25899
1.2593
1.25971
1.26019
1.26072
1.26126
1.26179
1.26228
1.2627
1.26304
1.26328
1.2634
1.33711
1.33734
1.33781
1.3385
1.33943
1.34058
1.34198
1.3436
1.34545
1.34753
1.34983
1.35236
1.35509
1.35805
1.36121
1.36458
1.36817
1.37197
1.37598
1.38022
1.38467
1.38934
1.39423
1.39933
1.40461
1.41007
1.41567
1.42138
1.42717
1.43299
1.4388
1.44456
1.45022
1.45573
1.46104
1.46612
1.47091
1.4754
1.47953
1.48329
1.48664
1.48955
1.49202
1.49402
1.49553
1.49655
1.49706
1.49707
1.49656
1.49553
1.49399
1.49194
1.48939
1.48634
1.4828
1.4788
1.47434
1.46945
1.46416
1.45849
1.45247
1.44615
1.43956
1.43275
1.42578
1.41869
1.41153
1.40438
1.39729
1.39031
1.3835
1.37692
1.3706
1.3646
1.35894
1.35365
1.34872
1.34417
1.33998
1.33613
1.3326
1.32936
1.32637
1.3236
1.32101
1.31856
1.31623
1.31399
1.31182
1.30971
1.30765
1.30565
1.3037
1.30181
1.29999
1.29825
1.29662
1.29509
1.29369
1.29242
1.2913
1.29034
1.28953
1.28889
1.28841
1.28808
1.28789
1.28785
1.28793
1.28811
1.28838
1.28872
1.2891
1.2895
1.2899
1.29027
1.2906
1.29086
1.29104
1.29113
1.36695
1.36718
1.36762
1.36828
1.36917
1.37028
1.37161
1.37316
1.37493
1.37692
1.37912
1.38152
1.38414
1.38696
1.38998
1.3932
1.39663
1.40025
1.40407
1.4081
1.41232
1.41674
1.42135
1.42613
1.43108
1.43617
1.44137
1.44667
1.45203
1.4574
1.46276
1.46806
1.47326
1.47832
1.48319
1.48785
1.49225
1.49636
1.50015
1.50359
1.50666
1.50932
1.51157
1.51339
1.51475
1.51566
1.5161
1.51607
1.51556
1.51457
1.5131
1.51116
1.50876
1.50589
1.50258
1.49883
1.49467
1.49011
1.48518
1.4799
1.47431
1.46845
1.46234
1.45604
1.44958
1.44301
1.43639
1.42976
1.42318
1.4167
1.41036
1.40421
1.39829
1.39264
1.38727
1.38222
1.37749
1.37307
1.36898
1.36518
1.36167
1.35841
1.35539
1.35257
1.34992
1.34742
1.34505
1.34277
1.34059
1.33847
1.33643
1.33445
1.33253
1.33069
1.32892
1.32724
1.32566
1.32418
1.32283
1.3216
1.3205
1.31955
1.31873
1.31807
1.31754
1.31716
1.31691
1.31678
1.31676
1.31684
1.31699
1.31721
1.31747
1.31775
1.31804
1.31831
1.31855
1.31875
1.31888
1.31895
1.39657
1.39678
1.39721
1.39785
1.39869
1.39975
1.40103
1.40251
1.4042
1.40609
1.40819
1.41048
1.41298
1.41567
1.41855
1.42162
1.42488
1.42833
1.43197
1.43578
1.43978
1.44395
1.44828
1.45277
1.4574
1.46215
1.46699
1.47191
1.47686
1.48183
1.48677
1.49165
1.49644
1.50109
1.50557
1.50984
1.51388
1.51765
1.52112
1.52427
1.52707
1.52951
1.53156
1.5332
1.53444
1.53524
1.53562
1.53555
1.53504
1.53408
1.53269
1.53085
1.52858
1.52589
1.52278
1.51928
1.51539
1.51113
1.50654
1.50163
1.49644
1.49099
1.48532
1.47947
1.47348
1.46739
1.46125
1.45509
1.44898
1.44294
1.43703
1.43127
1.42571
1.42038
1.4153
1.41047
1.40593
1.40166
1.39767
1.39395
1.39047
1.38723
1.3842
1.38136
1.37869
1.37617
1.37377
1.37147
1.36928
1.36717
1.36513
1.36318
1.36129
1.35949
1.35776
1.35613
1.35459
1.35316
1.35184
1.35064
1.34956
1.34861
1.34779
1.3471
1.34654
1.34611
1.3458
1.3456
1.3455
1.34548
1.34554
1.34566
1.34582
1.346
1.3462
1.34639
1.34656
1.34669
1.34679
1.34684
1.42598
1.42618
1.42659
1.42719
1.42801
1.42902
1.43023
1.43164
1.43325
1.43506
1.43706
1.43925
1.44162
1.44419
1.44693
1.44985
1.45295
1.45623
1.45967
1.46329
1.46706
1.47099
1.47507
1.47927
1.4836
1.48803
1.49254
1.4971
1.50169
1.50628
1.51085
1.51535
1.51975
1.52403
1.52814
1.53207
1.53578
1.53923
1.54242
1.5453
1.54786
1.55008
1.55194
1.55344
1.55454
1.55526
1.55557
1.55547
1.55496
1.55404
1.55271
1.55097
1.54883
1.5463
1.54339
1.54011
1.53647
1.5325
1.52822
1.52365
1.51882
1.51375
1.50848
1.50305
1.49748
1.49182
1.48611
1.48039
1.4747
1.46906
1.46353
1.45814
1.45291
1.44787
1.44305
1.43845
1.4341
1.42998
1.4261
1.42246
1.41904
1.41584
1.41283
1.40999
1.40732
1.40478
1.40238
1.40008
1.39789
1.39578
1.39376
1.39183
1.38997
1.3882
1.38652
1.38492
1.38342
1.38202
1.38073
1.37955
1.37848
1.37754
1.37671
1.37601
1.37542
1.37495
1.37458
1.37432
1.37414
1.37405
1.37403
1.37406
1.37413
1.37424
1.37436
1.37448
1.37459
1.37468
1.37475
1.37478
1.45518
1.45537
1.45576
1.45634
1.45711
1.45808
1.45924
1.46058
1.46212
1.46384
1.46574
1.46782
1.47009
1.47252
1.47513
1.47791
1.48085
1.48395
1.48722
1.49063
1.49419
1.49789
1.50172
1.50566
1.5097
1.51383
1.51803
1.52226
1.52652
1.53077
1.53498
1.53913
1.54319
1.54713
1.55091
1.55452
1.55792
1.56109
1.56401
1.56664
1.56898
1.57101
1.5727
1.57405
1.57505
1.57567
1.57593
1.5758
1.5753
1.57441
1.57314
1.57149
1.56948
1.5671
1.56436
1.56129
1.55789
1.55418
1.55019
1.54593
1.54143
1.53671
1.53181
1.52675
1.52157
1.51631
1.511
1.50566
1.50035
1.49508
1.48991
1.48484
1.47992
1.47516
1.47058
1.46619
1.46202
1.45805
1.4543
1.45075
1.44741
1.44425
1.44127
1.43846
1.4358
1.43327
1.43087
1.42859
1.4264
1.42431
1.42231
1.4204
1.41858
1.41683
1.41518
1.41362
1.41215
1.41078
1.40951
1.40835
1.40729
1.40635
1.40552
1.40479
1.40418
1.40367
1.40326
1.40294
1.40271
1.40255
1.40246
1.40242
1.40242
1.40246
1.40251
1.40258
1.40264
1.4027
1.40274
1.40276
1.48419
1.48437
1.48474
1.48529
1.48603
1.48695
1.48805
1.48933
1.49079
1.49243
1.49424
1.49622
1.49837
1.50068
1.50316
1.50579
1.50858
1.51152
1.5146
1.51783
1.52118
1.52466
1.52825
1.53194
1.53572
1.53957
1.54347
1.54741
1.55135
1.55529
1.55918
1.56301
1.56675
1.57038
1.57386
1.57717
1.5803
1.5832
1.58587
1.58829
1.59042
1.59227
1.59381
1.59503
1.59591
1.59646
1.59666
1.59651
1.59601
1.59515
1.59395
1.59239
1.59048
1.58824
1.58568
1.5828
1.57962
1.57615
1.57242
1.56845
1.56425
1.55985
1.55529
1.55058
1.54575
1.54085
1.53589
1.53091
1.52595
1.52102
1.51616
1.5114
1.50676
1.50225
1.49791
1.49373
1.48973
1.48592
1.48229
1.47884
1.47558
1.47248
1.46955
1.46678
1.46414
1.46164
1.45926
1.45699
1.45482
1.45275
1.45078
1.44889
1.44709
1.44538
1.44375
1.44222
1.44078
1.43943
1.43818
1.43704
1.43599
1.43505
1.43421
1.43347
1.43284
1.43229
1.43185
1.43148
1.4312
1.43099
1.43084
1.43074
1.43068
1.43066
1.43066
1.43068
1.4307
1.43073
1.43075
1.43076
1.51301
1.51318
1.51354
1.51406
1.51477
1.51564
1.51669
1.51791
1.5193
1.52085
1.52257
1.52445
1.52649
1.52868
1.53103
1.53353
1.53616
1.53894
1.54185
1.54489
1.54805
1.55131
1.55468
1.55813
1.56167
1.56525
1.56889
1.57254
1.5762
1.57984
1.58344
1.58698
1.59043
1.59377
1.59697
1.60002
1.60289
1.60555
1.608
1.61021
1.61216
1.61384
1.61523
1.61633
1.61712
1.6176
1.61775
1.61758
1.61708
1.61625
1.6151
1.61362
1.61183
1.60972
1.60731
1.60461
1.60163
1.59839
1.5949
1.59119
1.58727
1.58317
1.57891
1.57452
1.57002
1.56544
1.56081
1.55616
1.55151
1.54689
1.54233
1.53784
1.53346
1.5292
1.52507
1.52108
1.51726
1.51359
1.51009
1.50675
1.50357
1.50055
1.49768
1.49495
1.49235
1.48988
1.48753
1.48529
1.48314
1.4811
1.47915
1.47729
1.47552
1.47383
1.47224
1.47073
1.46931
1.46799
1.46676
1.46562
1.46458
1.46364
1.4628
1.46205
1.46139
1.46083
1.46035
1.45995
1.45962
1.45936
1.45916
1.45901
1.45891
1.45884
1.4588
1.45877
1.45876
1.45876
1.45876
1.45876
1.54165
1.54182
1.54216
1.54266
1.54333
1.54416
1.54515
1.54631
1.54763
1.54911
1.55074
1.55252
1.55445
1.55653
1.55876
1.56112
1.56361
1.56623
1.56897
1.57183
1.5748
1.57787
1.58102
1.58425
1.58755
1.5909
1.59428
1.59767
1.60107
1.60444
1.60777
1.61104
1.61422
1.6173
1.62024
1.62305
1.62568
1.62812
1.63036
1.63238
1.63416
1.63569
1.63695
1.63794
1.63864
1.63905
1.63916
1.63897
1.63848
1.63768
1.63658
1.63518
1.63348
1.63149
1.62923
1.62669
1.6239
1.62087
1.61761
1.61414
1.61047
1.60664
1.60267
1.59856
1.59436
1.59008
1.58575
1.58139
1.57704
1.5727
1.56841
1.56418
1.56004
1.55601
1.55208
1.54828
1.54462
1.5411
1.53773
1.5345
1.53141
1.52847
1.52567
1.52299
1.52044
1.51801
1.51569
1.51348
1.51137
1.50935
1.50743
1.5056
1.50386
1.5022
1.50063
1.49915
1.49775
1.49645
1.49524
1.49411
1.49308
1.49214
1.49129
1.49053
1.48986
1.48927
1.48877
1.48833
1.48797
1.48767
1.48743
1.48724
1.4871
1.48699
1.48691
1.48685
1.48682
1.48679
1.48678
1.48677
1.57013
1.57029
1.57061
1.57109
1.57172
1.57251
1.57346
1.57455
1.5758
1.5772
1.57875
1.58044
1.58227
1.58424
1.58634
1.58857
1.59092
1.5934
1.59598
1.59867
1.60146
1.60433
1.60729
1.61031
1.61339
1.6165
1.61965
1.6228
1.62595
1.62908
1.63216
1.63518
1.63811
1.64095
1.64366
1.64624
1.64866
1.6509
1.65295
1.65479
1.65642
1.6578
1.65895
1.65983
1.66045
1.6608
1.66088
1.66067
1.66018
1.65941
1.65836
1.65703
1.65542
1.65355
1.65142
1.64904
1.64642
1.64358
1.64052
1.63727
1.63385
1.63027
1.62655
1.62271
1.61878
1.61477
1.61072
1.60663
1.60254
1.59847
1.59443
1.59044
1.58653
1.5827
1.57897
1.57535
1.57185
1.56847
1.56522
1.5621
1.55911
1.55625
1.55352
1.55091
1.54841
1.54603
1.54375
1.54157
1.5395
1.53752
1.53562
1.53382
1.53211
1.53048
1.52893
1.52748
1.52611
1.52482
1.52362
1.52251
1.52149
1.52055
1.5197
1.51893
1.51825
1.51764
1.51711
1.51665
1.51626
1.51593
1.51565
1.51543
1.51525
1.51511
1.515
1.51491
1.51485
1.51481
1.51479
1.51478
1.59845
1.5986
1.5989
1.59936
1.59996
1.60071
1.6016
1.60265
1.60383
1.60516
1.60662
1.60822
1.60995
1.61181
1.6138
1.6159
1.61812
1.62045
1.62288
1.62541
1.62802
1.63072
1.63348
1.63631
1.63918
1.64209
1.64501
1.64794
1.65086
1.65376
1.65661
1.6594
1.66211
1.66472
1.66722
1.66959
1.67181
1.67387
1.67574
1.67743
1.67891
1.68017
1.6812
1.68199
1.68254
1.68283
1.68287
1.68265
1.68217
1.68142
1.68041
1.67915
1.67763
1.67586
1.67386
1.67162
1.66916
1.66649
1.66363
1.66059
1.65738
1.65403
1.65054
1.64695
1.64327
1.63951
1.63571
1.63188
1.62803
1.6242
1.62039
1.61663
1.61292
1.60929
1.60574
1.60229
1.59895
1.59571
1.59258
1.58958
1.58668
1.58391
1.58125
1.5787
1.57627
1.57393
1.5717
1.56957
1.56753
1.56558
1.56373
1.56196
1.56027
1.55867
1.55715
1.55572
1.55437
1.5531
1.55192
1.55082
1.54981
1.54887
1.54802
1.54725
1.54655
1.54593
1.54538
1.5449
1.54449
1.54413
1.54383
1.54357
1.54336
1.54319
1.54306
1.54295
1.54287
1.54282
1.54278
1.54276
1.62662
1.62676
1.62705
1.62748
1.62805
1.62876
1.62961
1.63059
1.63171
1.63297
1.63435
1.63587
1.6375
1.63926
1.64113
1.64312
1.64521
1.6474
1.64969
1.65206
1.65451
1.65704
1.65962
1.66226
1.66494
1.66765
1.67037
1.67309
1.6758
1.67848
1.68112
1.6837
1.6862
1.68861
1.69091
1.69309
1.69513
1.69701
1.69873
1.70027
1.70161
1.70276
1.70368
1.70439
1.70487
1.70512
1.70513
1.70489
1.70441
1.70369
1.70273
1.70153
1.70009
1.69842
1.69653
1.69442
1.69211
1.6896
1.68692
1.68406
1.68106
1.67791
1.67465
1.67128
1.66783
1.6643
1.66073
1.65713
1.65351
1.6499
1.64631
1.64275
1.63924
1.6358
1.63242
1.62913
1.62593
1.62283
1.61983
1.61693
1.61414
1.61145
1.60887
1.60639
1.60402
1.60174
1.59956
1.59747
1.59547
1.59356
1.59174
1.59001
1.58835
1.58678
1.58529
1.58388
1.58255
1.5813
1.58014
1.57905
1.57804
1.57711
1.57626
1.57548
1.57478
1.57415
1.57359
1.57309
1.57265
1.57227
1.57195
1.57167
1.57144
1.57125
1.57109
1.57097
1.57087
1.5708
1.57076
1.57074