/*--------------------------------*- C++ -*----------------------------------*\
| =========                 |                                                 |
| \\      /  F ield         | OpenFOAM: The Open Source CFD Toolbox           |
|  \\    /   O peration     | Version:  2406                                  |
|   \\  /    A nd           | Website:  www.openfoam.com                      |
|    \\/     M anipulation  |                                                 |
\*---------------------------------------------------------------------------*/
FoamFile
{
    version     2.0;
    format      ascii;
    arch        "LSB;label=32;scalar=64";
    class       volScalarField;
    location    "6.5";
    object      C;
}
// * * * * * * * * * * * * * * * * * * * * * * * * * * * * * * * * * * * * * //

dimensions      [1 -3 0 0 0 0 0];

internalField   nonuniform List<scalar> 
14400
(
0.252117
0.250747
0.248389
0.245589
0.242882
0.240713
0.239409
0.239173
0.24009
0.242127
0.245124
0.248784
0.252652
0.256107
0.258384
0.258708
0.256669
0.252815
0.248038
0.243216
0.239085
0.236235
0.23513
0.236154
0.239635
0.245875
0.255166
0.267807
0.284114
0.304425
0.329101
0.358517
0.393044
0.432977
0.47834
0.527952
0.572938
0.604288
0.626913
0.64656
0.66354
0.678086
0.690382
0.700571
0.708761
0.715039
0.719466
0.722089
0.722934
0.722015
0.719332
0.714867
0.70859
0.700454
0.690394
0.678324
0.664134
0.647682
0.628791
0.607231
0.582515
0.545662
0.495001
0.445775
0.401337
0.362275
0.328473
0.299603
0.275279
0.25512
0.238774
0.225923
0.216291
0.209641
0.205774
0.204532
0.205792
0.209467
0.215497
0.223841
0.234463
0.247307
0.262267
0.27913
0.297456
0.31614
0.330939
0.337631
0.336807
0.327994
0.314884
0.301347
0.288549
0.27703
0.267066
0.258772
0.252154
0.247133
0.243557
0.241218
0.239864
0.23923
0.239073
0.239224
0.239635
0.240402
0.241735
0.243921
0.247266
0.252069
0.258589
0.267042
0.277582
0.290294
0.305172
0.322074
0.340611
0.359723
0.375084
0.382191
0.260727
0.258964
0.256038
0.252667
0.249479
0.246955
0.24543
0.24511
0.246082
0.248315
0.251657
0.25582
0.26035
0.264592
0.267647
0.268384
0.265829
0.261104
0.255455
0.249891
0.245176
0.241887
0.240472
0.241294
0.244671
0.250892
0.260245
0.273023
0.28954
0.310129
0.33515
0.364974
0.399962
0.44039
0.486246
0.536228
0.57877
0.607667
0.629888
0.649229
0.665972
0.680336
0.69249
0.702568
0.710674
0.716889
0.721272
0.723866
0.724698
0.723781
0.721113
0.716679
0.710449
0.702378
0.692404
0.680445
0.666395
0.650123
0.631459
0.610193
0.586033
0.551713
0.503063
0.453172
0.408043
0.368401
0.334104
0.304805
0.280111
0.259638
0.243031
0.229971
0.220182
0.213428
0.20951
0.208273
0.209595
0.213392
0.219607
0.228202
0.239144
0.252382
0.267813
0.285224
0.304157
0.323437
0.338119
0.344237
0.344083
0.336257
0.322911
0.308861
0.295571
0.283653
0.273392
0.264903
0.258191
0.25317
0.249683
0.247503
0.246353
0.245924
0.245922
0.246129
0.246479
0.247087
0.248216
0.250201
0.253392
0.25811
0.264632
0.273178
0.283907
0.296905
0.312163
0.329523
0.348546
0.368009
0.382519
0.388341
0.278506
0.275764
0.271552
0.266965
0.262785
0.259539
0.257571
0.257083
0.258161
0.260778
0.264799
0.269957
0.275819
0.281715
0.286573
0.288563
0.284543
0.277825
0.270348
0.263289
0.257415
0.253264
0.251237
0.251665
0.254836
0.261024
0.270503
0.283557
0.300492
0.321639
0.347349
0.377985
0.413883
0.455244
0.50179
0.551218
0.58879
0.614285
0.635742
0.654495
0.670785
0.684795
0.696674
0.706538
0.714479
0.72057
0.724866
0.727404
0.728211
0.727296
0.72466
0.720286
0.714149
0.706205
0.696399
0.684655
0.670879
0.654954
0.636731
0.61603
0.592627
0.56257
0.518383
0.467632
0.421386
0.380693
0.345446
0.315304
0.289875
0.268775
0.251647
0.238172
0.228071
0.221111
0.217095
0.215869
0.217317
0.221359
0.227943
0.237037
0.248615
0.262632
0.278993
0.297473
0.317529
0.337589
0.351189
0.356555
0.357138
0.351977
0.338919
0.323897
0.309662
0.296975
0.286139
0.277273
0.270381
0.265375
0.262083
0.260253
0.259553
0.259587
0.259944
0.260282
0.260486
0.260727
0.261393
0.262936
0.265787
0.270317
0.276829
0.285554
0.296653
0.310211
0.32621
0.344456
0.36435
0.383893
0.395507
0.399855
0.306584
0.301748
0.295243
0.288683
0.282969
0.278636
0.276005
0.275264
0.276493
0.27967
0.284675
0.291279
0.299096
0.30751
0.315413
0.320184
0.313085
0.303001
0.292716
0.283455
0.275901
0.2705
0.267587
0.267441
0.270316
0.276461
0.286134
0.299605
0.317171
0.339153
0.365894
0.397737
0.434983
0.477728
0.525207
0.570327
0.601008
0.623943
0.644299
0.662226
0.677876
0.691387
0.702873
0.712429
0.720134
0.726047
0.730216
0.732675
0.733444
0.732534
0.729943
0.725658
0.719654
0.711896
0.702331
0.690897
0.677514
0.662081
0.644481
0.624568
0.60216
0.576236
0.538788
0.488715
0.441373
0.399284
0.362676
0.331294
0.304773
0.282735
0.264828
0.250731
0.240168
0.232902
0.228744
0.227541
0.229182
0.233594
0.240731
0.250568
0.263085
0.278249
0.295967
0.315998
0.337638
0.35778
0.368639
0.373473
0.374656
0.372178
0.362113
0.346297
0.330869
0.317129
0.305484
0.296079
0.288939
0.283982
0.28103
0.279797
0.279881
0.28075
0.281785
0.282376
0.282294
0.281839
0.281673
0.282446
0.284715
0.28892
0.29539
0.304363
0.315995
0.330356
0.347407
0.366878
0.387814
0.404675
0.412263
0.41567
0.345933
0.337171
0.327212
0.317934
0.310191
0.304442
0.300948
0.299875
0.301296
0.305185
0.311428
0.319828
0.330018
0.341338
0.352034
0.354717
0.349464
0.335976
0.322342
0.310389
0.300755
0.293792
0.289758
0.28888
0.291381
0.297483
0.307423
0.321458
0.33987
0.362963
0.391057
0.424461
0.463384
0.507591
0.554788
0.590314
0.614817
0.636177
0.655286
0.672232
0.687107
0.700003
0.711001
0.720173
0.72758
0.733268
0.737278
0.739635
0.740358
0.739453
0.736921
0.732748
0.726915
0.719391
0.710133
0.69909
0.686197
0.671377
0.654544
0.635599
0.61444
0.590994
0.561194
0.516836
0.468269
0.424431
0.386074
0.353068
0.3251
0.301817
0.282872
0.267949
0.256773
0.249108
0.244765
0.2436
0.245505
0.250414
0.258285
0.269102
0.28285
0.299493
0.318915
0.340771
0.363858
0.381415
0.389471
0.394039
0.395711
0.394644
0.389494
0.375639
0.359203
0.34428
0.331659
0.32158
0.314142
0.309293
0.306862
0.306545
0.307872
0.310132
0.312406
0.313471
0.312849
0.311126
0.309575
0.309129
0.310508
0.314212
0.320586
0.32986
0.342162
0.357512
0.375788
0.396331
0.41635
0.427121
0.432246
0.434892
0.385584
0.379747
0.366807
0.354566
0.344514
0.337134
0.33262
0.331148
0.332801
0.337532
0.345188
0.355586
0.368182
0.381516
0.388141
0.387708
0.385674
0.375048
0.35875
0.344044
0.332134
0.323396
0.318056
0.316318
0.318381
0.324449
0.334741
0.349491
0.368962
0.393432
0.42317
0.458401
0.499155
0.544287
0.583073
0.609328
0.630955
0.650661
0.668437
0.684308
0.698318
0.710516
0.720955
0.729683
0.736743
0.742169
0.745991
0.748229
0.748897
0.748001
0.745538
0.741499
0.735868
0.728619
0.719721
0.709132
0.696805
0.682687
0.666719
0.648843
0.629007
0.607183
0.583075
0.549136
0.501694
0.456341
0.415978
0.381
0.351244
0.326408
0.306168
0.290214
0.278274
0.270115
0.265551
0.264439
0.266681
0.272213
0.281
0.293027
0.308277
0.326694
0.348078
0.371721
0.394385
0.406654
0.413221
0.417502
0.419502
0.419364
0.417367
0.410081
0.394369
0.378528
0.364906
0.354043
0.346273
0.341605
0.3399
0.340868
0.344031
0.34844
0.352976
0.354911
0.353297
0.349272
0.34559
0.343356
0.343487
0.346491
0.352705
0.362316
0.375396
0.391825
0.411347
0.432136
0.444863
0.450705
0.454699
0.456759
0.420584
0.419439
0.412057
0.398052
0.385848
0.376844
0.371202
0.369276
0.371209
0.376897
0.385996
0.398352
0.412389
0.420884
0.422241
0.421664
0.420308
0.415652
0.40111
0.384349
0.370236
0.359635
0.35286
0.350157
0.351732
0.357788
0.368523
0.384143
0.404881
0.430972
0.462555
0.49958
0.541263
0.580964
0.608265
0.629367
0.649012
0.667075
0.683493
0.698247
0.711339
0.722789
0.732621
0.740862
0.747538
0.752674
0.756288
0.758394
0.759001
0.758114
0.755731
0.751843
0.746438
0.739498
0.730998
0.720912
0.709206
0.695847
0.680803
0.664046
0.645562
0.625357
0.60347
0.578386
0.541584
0.49532
0.452767
0.41552
0.383658
0.356972
0.335182
0.317993
0.305139
0.296391
0.291565
0.290525
0.293175
0.299458
0.309339
0.322792
0.339781
0.360203
0.383675
0.408558
0.42539
0.433406
0.439248
0.443246
0.445433
0.445935
0.44497
0.442753
0.434803
0.419568
0.405342
0.393622
0.385533
0.381118
0.38032
0.382885
0.388499
0.3956
0.403753
0.406889
0.403891
0.396222
0.389862
0.385264
0.383839
0.385962
0.391958
0.401911
0.415799
0.433025
0.452795
0.465462
0.471562
0.47598
0.479085
0.480687
0.454981
0.454824
0.453491
0.446592
0.433607
0.423552
0.416708
0.414278
0.416554
0.423327
0.433446
0.446795
0.454829
0.456951
0.456878
0.456401
0.455441
0.453971
0.447341
0.431042
0.415256
0.402879
0.394585
0.39084
0.391887
0.397962
0.409248
0.425884
0.448063
0.475968
0.509399
0.547349
0.585182
0.611956
0.631901
0.650862
0.668652
0.685133
0.700214
0.713846
0.726004
0.736679
0.745876
0.753605
0.759875
0.764701
0.768092
0.770057
0.7706
0.769724
0.767427
0.763703
0.758544
0.751935
0.743863
0.73431
0.723259
0.710692
0.6966
0.680977
0.663837
0.645213
0.625167
0.603798
0.577856
0.540049
0.496477
0.457002
0.422824
0.394026
0.370449
0.351825
0.337906
0.328473
0.323344
0.32239
0.32552
0.332678
0.34382
0.358885
0.377766
0.40021
0.425134
0.445415
0.455395
0.461977
0.46712
0.470799
0.473049
0.473974
0.473749
0.472614
0.470707
0.463894
0.452217
0.439965
0.431808
0.427712
0.427906
0.431949
0.440092
0.447483
0.451357
0.45267
0.451803
0.448364
0.441298
0.434298
0.431386
0.432513
0.438268
0.448414
0.462739
0.47878
0.489548
0.494979
0.499161
0.50257
0.504974
0.506216
0.489537
0.489547
0.489636
0.48908
0.484325
0.476304
0.468429
0.465607
0.468186
0.47603
0.484988
0.490633
0.49209
0.49203
0.491917
0.491622
0.491079
0.490281
0.489212
0.482221
0.466939
0.453392
0.443578
0.438776
0.439255
0.445397
0.457366
0.475122
0.498765
0.528486
0.562852
0.595928
0.620403
0.638726
0.656505
0.673526
0.689602
0.70459
0.718385
0.73092
0.74215
0.752048
0.760601
0.767805
0.773658
0.778162
0.781323
0.783141
0.783618
0.782756
0.780551
0.777
0.772098
0.765836
0.758209
0.749207
0.738826
0.727064
0.713925
0.699426
0.683597
0.666491
0.648187
0.628798
0.60848
0.582799
0.546098
0.505607
0.46918
0.438092
0.41254
0.392298
0.377172
0.366959
0.361483
0.360622
0.364292
0.372439
0.384993
0.401792
0.422494
0.446231
0.468242
0.4798
0.486405
0.491986
0.496456
0.499782
0.501991
0.503162
0.503438
0.503013
0.502138
0.501074
0.496925
0.490531
0.48367
0.47995
0.481044
0.484792
0.488157
0.490052
0.489677
0.489618
0.490481
0.491516
0.490194
0.487532
0.484628
0.484774
0.490301
0.499721
0.509341
0.516854
0.520777
0.524321
0.527533
0.530164
0.532025
0.532988
0.524082
0.524189
0.524458
0.525004
0.525847
0.524214
0.521823
0.520668
0.522193
0.525172
0.527643
0.527521
0.527241
0.527161
0.52714
0.527089
0.526971
0.526802
0.526649
0.526493
0.521207
0.510481
0.499704
0.494131
0.493988
0.500264
0.513113
0.531942
0.55641
0.586774
0.612955
0.633451
0.649786
0.666008
0.681865
0.697136
0.711641
0.725238
0.737817
0.749299
0.759627
0.768761
0.776676
0.783355
0.788788
0.792969
0.795895
0.797565
0.797977
0.797129
0.79502
0.791648
0.78701
0.781104
0.773929
0.765484
0.755775
0.744812
0.732612
0.719204
0.704635
0.688967
0.672291
0.654726
0.636424
0.617568
0.593576
0.560295
0.522857
0.489545
0.46201
0.440003
0.423556
0.412479
0.406609
0.405836
0.410079
0.419293
0.433363
0.451866
0.473634
0.495024
0.506914
0.513003
0.518436
0.523107
0.526935
0.529884
0.531968
0.533247
0.533828
0.533862
0.53354
0.533093
0.532791
0.531761
0.529364
0.527506
0.527136
0.527318
0.526273
0.525102
0.524628
0.524743
0.525524
0.526926
0.529108
0.530959
0.531844
0.533686
0.537463
0.542171
0.545936
0.548469
0.551246
0.553994
0.556485
0.558528
0.559974
0.560723
0.558521
0.55867
0.559003
0.559586
0.560506
0.561883
0.563287
0.563834
0.564123
0.563572
0.562753
0.562335
0.562191
0.562235
0.562394
0.562623
0.562916
0.563308
0.563884
0.564792
0.566217
0.564481
0.560522
0.555865
0.555156
0.561685
0.57557
0.594805
0.616094
0.635227
0.650711
0.66484
0.679252
0.693657
0.707811
0.721512
0.734589
0.746903
0.758347
0.768833
0.778298
0.786694
0.793987
0.800151
0.805169
0.80903
0.811724
0.813247
0.813594
0.812764
0.810753
0.807562
0.803191
0.797641
0.790917
0.783025
0.773979
0.763797
0.752505
0.740145
0.726769
0.712451
0.697285
0.681391
0.664919
0.648046
0.63098
0.610136
0.582243
0.548082
0.519225
0.495385
0.477606
0.46562
0.4593
0.458589
0.463362
0.473586
0.489092
0.508485
0.526371
0.536922
0.542038
0.546847
0.55123
0.555071
0.558291
0.560851
0.56275
0.56403
0.564765
0.565067
0.565069
0.564921
0.56476
0.564638
0.564566
0.564019
0.562731
0.561217
0.560048
0.559275
0.558988
0.559202
0.559946
0.561225
0.563067
0.565426
0.568312
0.571144
0.573413
0.575298
0.577326
0.579497
0.581745
0.583925
0.585886
0.587488
0.58862
0.589207
0.592811
0.592968
0.593298
0.593829
0.594582
0.595537
0.596512
0.597237
0.59739
0.59722
0.596976
0.596876
0.596952
0.597193
0.597576
0.598093
0.598761
0.599628
0.600787
0.602378
0.604611
0.607789
0.610583
0.612522
0.616309
0.623689
0.634597
0.647441
0.660263
0.671495
0.683432
0.695935
0.708725
0.721555
0.734212
0.746512
0.758298
0.769441
0.779832
0.789388
0.798038
0.805731
0.812426
0.818093
0.822709
0.826257
0.828725
0.830105
0.83039
0.829578
0.827666
0.824656
0.82055
0.815352
0.809072
0.801721
0.793319
0.78389
0.773468
0.762101
0.749847
0.736783
0.723006
0.708635
0.693814
0.678713
0.663533
0.648513
0.63192
0.610153
0.583467
0.558167
0.539505
0.526673
0.519832
0.51914
0.524189
0.534758
0.550507
0.562524
0.569993
0.573655
0.577427
0.581116
0.584565
0.587656
0.590309
0.592478
0.594153
0.595356
0.596137
0.59657
0.596747
0.596761
0.596688
0.596558
0.596335
0.595856
0.595066
0.59417
0.593428
0.59296
0.592848
0.593131
0.593834
0.594962
0.596508
0.598424
0.600615
0.602829
0.604853
0.606715
0.608569
0.610447
0.612311
0.614077
0.615644
0.616917
0.617814
0.618277
0.626944
0.627092
0.627392
0.62785
0.628456
0.629169
0.629881
0.630456
0.630784
0.630942
0.631055
0.631239
0.63155
0.632008
0.632624
0.633413
0.634406
0.635659
0.637256
0.639322
0.642015
0.645533
0.650066
0.655899
0.662534
0.6697
0.677421
0.685693
0.694863
0.704893
0.715586
0.726745
0.738158
0.749627
0.76097
0.772025
0.782651
0.792728
0.802155
0.810847
0.818735
0.825765
0.831894
0.837086
0.841316
0.844563
0.846814
0.848056
0.848283
0.847491
0.845679
0.842847
0.839
0.834146
0.828297
0.82147
0.813685
0.804975
0.795377
0.784943
0.773733
0.761828
0.749322
0.73633
0.722989
0.709458
0.695923
0.682602
0.669745
0.657251
0.641815
0.624628
0.607616
0.594335
0.586908
0.586165
0.590634
0.597067
0.602793
0.605954
0.607826
0.610231
0.612899
0.615626
0.618258
0.620679
0.622809
0.624599
0.626028
0.627104
0.627856
0.628331
0.628589
0.628688
0.628675
0.62857
0.628361
0.628003
0.627506
0.62697
0.626532
0.62629
0.626313
0.626641
0.627296
0.628282
0.62958
0.631145
0.632894
0.634699
0.636454
0.638139
0.639789
0.641411
0.642975
0.644426
0.645698
0.646722
0.64744
0.64781
0.66093
0.661063
0.661329
0.661721
0.662225
0.662801
0.663389
0.663919
0.66435
0.664709
0.665061
0.665475
0.666
0.666667
0.6675
0.668529
0.669792
0.671343
0.673259
0.675637
0.678595
0.68226
0.686744
0.692116
0.69823
0.704931
0.712174
0.720005
0.728499
0.737628
0.747276
0.757299
0.767535
0.777824
0.788015
0.797966
0.807554
0.816667
0.825212
0.833109
0.840291
0.846702
0.852297
0.857041
0.860905
0.863867
0.86591
0.867023
0.867196
0.866425
0.86471
0.862052
0.858458
0.853936
0.848501
0.842174
0.834978
0.826947
0.818124
0.808559
0.798317
0.787474
0.776123
0.764374
0.752353
0.740206
0.728101
0.716226
0.70479
0.694019
0.684196
0.674662
0.664326
0.65512
0.648639
0.645547
0.645027
0.645118
0.644166
0.644226
0.645108
0.646545
0.648312
0.650231
0.652161
0.653993
0.65565
0.65708
0.658257
0.659176
0.65985
0.660309
0.660589
0.660726
0.660753
0.660688
0.660534
0.660291
0.659983
0.659673
0.65944
0.659355
0.659471
0.659823
0.660429
0.661288
0.662385
0.663682
0.665119
0.666621
0.668124
0.669599
0.671039
0.672431
0.673751
0.674956
0.676
0.676833
0.677415
0.677713
0.694782
0.694902
0.695138
0.695482
0.69592
0.696423
0.696955
0.697482
0.697987
0.698483
0.699007
0.699602
0.700308
0.701157
0.702181
0.703411
0.704888
0.706663
0.708799
0.711373
0.714468
0.718167
0.722534
0.727592
0.733286
0.739547
0.746337
0.753654
0.761502
0.769842
0.778591
0.787639
0.796859
0.806121
0.815299
0.824272
0.83293
0.841174
0.848918
0.856087
0.862617
0.868453
0.873552
0.877876
0.881397
0.88409
0.885938
0.886928
0.887052
0.886304
0.884684
0.882194
0.878842
0.874638
0.869599
0.863746
0.857105
0.849713
0.841611
0.832852
0.8235
0.813628
0.803324
0.79269
0.781842
0.770913
0.760049
0.749411
0.739171
0.729508
0.720596
0.712538
0.705562
0.69954
0.694317
0.689842
0.686206
0.683692
0.682235
0.681676
0.681837
0.682527
0.683573
0.684825
0.686161
0.687483
0.688718
0.689815
0.690744
0.691491
0.692061
0.692467
0.69273
0.692875
0.692925
0.692894
0.692796
0.692644
0.692463
0.692299
0.692201
0.69222
0.692394
0.692752
0.693306
0.694058
0.694991
0.696079
0.697278
0.69854
0.699823
0.701094
0.702335
0.703525
0.70464
0.705648
0.706511
0.707196
0.707672
0.707915
0.728516
0.728624
0.728838
0.729151
0.729549
0.730014
0.730527
0.731068
0.731632
0.732228
0.73288
0.733618
0.734472
0.735475
0.736655
0.738046
0.739687
0.741621
0.743902
0.746588
0.749737
0.753406
0.757633
0.762431
0.767775
0.773632
0.779971
0.786772
0.794012
0.801648
0.809609
0.817807
0.82614
0.834503
0.842788
0.850892
0.858719
0.866181
0.873199
0.879704
0.885636
0.890943
0.895581
0.899515
0.902715
0.905157
0.906824
0.907701
0.907779
0.907055
0.905527
0.903199
0.900078
0.896176
0.891511
0.886104
0.879985
0.873188
0.865756
0.85774
0.849202
0.840213
0.830854
0.821219
0.811414
0.801555
0.791771
0.782196
0.772975
0.764247
0.756142
0.748764
0.742206
0.736453
0.731459
0.727208
0.723746
0.721153
0.719405
0.718407
0.718036
0.718154
0.718627
0.719336
0.720175
0.72106
0.721924
0.722719
0.723412
0.723986
0.724435
0.724766
0.72499
0.725121
0.725175
0.725167
0.725111
0.725024
0.724928
0.724857
0.724845
0.724928
0.725134
0.725484
0.725988
0.726645
0.727444
0.728363
0.729374
0.730441
0.731532
0.732619
0.733681
0.734695
0.735638
0.736483
0.737202
0.737769
0.738161
0.738361
0.76214
0.762241
0.762441
0.762733
0.76311
0.763559
0.764069
0.764632
0.765246
0.765919
0.766668
0.767516
0.768489
0.769613
0.770918
0.772432
0.774191
0.776234
0.778601
0.781338
0.784487
0.788087
0.792163
0.796722
0.801753
0.807235
0.813144
0.819452
0.826128
0.833127
0.840388
0.847838
0.855393
0.862963
0.870458
0.877789
0.884873
0.891631
0.897993
0.903895
0.90928
0.914101
0.918315
0.921889
0.924791
0.927001
0.928498
0.929271
0.92931
0.928609
0.92717
0.924996
0.922094
0.918477
0.914164
0.909176
0.903542
0.897297
0.890483
0.883151
0.875357
0.867168
0.85866
0.849919
0.841039
0.832123
0.823282
0.81463
0.806285
0.798361
0.790961
0.784168
0.778044
0.772608
0.767853
0.763784
0.760417
0.757771
0.755823
0.754511
0.753745
0.753425
0.753447
0.753715
0.754143
0.754658
0.7552
0.755724
0.756199
0.756603
0.756929
0.757173
0.757342
0.757443
0.757488
0.757489
0.757458
0.757412
0.75737
0.757355
0.757395
0.757513
0.75773
0.758062
0.758515
0.759089
0.759775
0.760557
0.761413
0.762317
0.763244
0.764171
0.765075
0.765936
0.766733
0.767443
0.768044
0.768516
0.768841
0.769007
0.795663
0.79576
0.795951
0.796232
0.796598
0.797043
0.797559
0.798144
0.798799
0.799532
0.800356
0.80129
0.802354
0.803573
0.80497
0.806573
0.808413
0.810521
0.81293
0.815675
0.818787
0.822293
0.826208
0.83054
0.83528
0.840413
0.845916
0.851763
0.85792
0.864343
0.87098
0.877766
0.884631
0.891498
0.898292
0.904934
0.911353
0.917479
0.923247
0.928601
0.933489
0.937865
0.941691
0.944932
0.947561
0.949556
0.950898
0.951575
0.951579
0.950903
0.949549
0.94752
0.944824
0.941476
0.937491
0.932893
0.92771
0.921975
0.91573
0.909022
0.901905
0.894441
0.8867
0.878758
0.8707
0.862617
0.854603
0.846756
0.839175
0.831953
0.825172
0.818903
0.813196
0.808079
0.803563
0.799657
0.796366
0.793691
0.791607
0.790068
0.789009
0.788353
0.788021
0.787935
0.788025
0.788228
0.788493
0.788779
0.789055
0.7893
0.789502
0.789656
0.789761
0.789822
0.789846
0.789842
0.789821
0.789796
0.789783
0.7898
0.789865
0.789998
0.790212
0.790519
0.790922
0.791422
0.792011
0.792677
0.793404
0.79417
0.794957
0.795745
0.796512
0.797242
0.797915
0.798512
0.799016
0.799411
0.799681
0.799819
0.82909
0.829184
0.82937
0.829646
0.830009
0.830454
0.830981
0.831587
0.832275
0.833055
0.833936
0.834933
0.836066
0.837352
0.838816
0.840479
0.842367
0.844506
0.846924
0.849645
0.852693
0.856087
0.859838
0.863949
0.868414
0.87322
0.878345
0.883764
0.889445
0.895347
0.901422
0.907615
0.913865
0.920108
0.926276
0.932303
0.938126
0.943682
0.948916
0.953774
0.958209
0.96218
0.96565
0.968587
0.970965
0.972763
0.973964
0.974554
0.974526
0.973875
0.972602
0.97071
0.968209
0.96511
0.961431
0.957195
0.952428
0.947164
0.941441
0.935303
0.928801
0.921992
0.91494
0.907713
0.900387
0.89304
0.885756
0.878617
0.871707
0.865102
0.858872
0.853076
0.847759
0.842949
0.838664
0.834913
0.8317
0.829018
0.826846
0.825146
0.82387
0.822958
0.822348
0.821979
0.821792
0.821736
0.821765
0.821844
0.821942
0.822041
0.822125
0.822187
0.822224
0.822237
0.822231
0.822211
0.822187
0.822168
0.822166
0.822195
0.82227
0.822402
0.822602
0.822878
0.823233
0.823666
0.82417
0.824738
0.825354
0.826004
0.82667
0.827337
0.827988
0.828605
0.829173
0.829675
0.830098
0.830428
0.830654
0.830769
0.862423
0.862515
0.862699
0.862973
0.863336
0.863786
0.864322
0.864946
0.865661
0.866475
0.867398
0.868442
0.869622
0.870956
0.872462
0.874159
0.876069
0.878214
0.880613
0.883288
0.886254
0.889525
0.893108
0.897005
0.901209
0.905707
0.91048
0.915504
0.920748
0.926176
0.931745
0.937407
0.943107
0.948791
0.9544
0.959877
0.965165
0.970209
0.97496
0.979369
0.983394
0.986996
0.990141
0.992801
0.99495
0.996568
0.997639
0.998151
0.998096
0.99747
0.996274
0.994511
0.99219
0.989324
0.985929
0.982028
0.977645
0.972812
0.967566
0.961947
0.956003
0.949786
0.943354
0.936767
0.930093
0.923402
0.916764
0.910251
0.903933
0.897876
0.892138
0.886771
0.881813
0.877293
0.87323
0.869633
0.866504
0.863836
0.861612
0.859801
0.858366
0.85726
0.856435
0.855841
0.85543
0.855159
0.854989
0.854888
0.85483
0.854795
0.854769
0.854743
0.854711
0.854673
0.85463
0.854586
0.854548
0.854522
0.854518
0.854546
0.854616
0.854737
0.854916
0.855158
0.855466
0.855837
0.856267
0.856749
0.85727
0.85782
0.858383
0.858947
0.859496
0.860017
0.860495
0.860918
0.861273
0.861549
0.861738
0.861834
0.895663
0.895755
0.895938
0.896212
0.896576
0.89703
0.897575
0.898213
0.898949
0.899788
0.900739
0.901814
0.903026
0.904387
0.905916
0.907627
0.909538
0.911666
0.914028
0.916638
0.919509
0.92265
0.926065
0.929754
0.933709
0.937918
0.942364
0.947023
0.951868
0.956866
0.961977
0.967159
0.972367
0.977549
0.982658
0.98764
0.992447
0.997031
1.00135
1.00535
1.009
1.01227
1.01512
1.01753
1.01947
1.02092
1.02187
1.02231
1.02224
1.02163
1.02051
1.01887
1.01672
1.01407
1.01093
1.00734
1.00331
0.998874
0.994063
0.988917
0.983479
0.977796
0.971921
0.965909
0.959818
0.95371
0.947646
0.941689
0.935898
0.93033
0.925034
0.920056
0.91543
0.911181
0.907329
0.903884
0.900846
0.898211
0.895964
0.894081
0.892532
0.891282
0.890291
0.889519
0.888928
0.88848
0.888143
0.887889
0.887695
0.887541
0.887414
0.887303
0.887204
0.887113
0.887029
0.886955
0.886895
0.886854
0.886839
0.886856
0.886912
0.887014
0.887166
0.887373
0.887635
0.887949
0.888313
0.888719
0.889159
0.889622
0.890096
0.890571
0.891033
0.891471
0.891873
0.892228
0.892526
0.892757
0.892915
0.892996
0.928812
0.928904
0.929087
0.929361
0.929726
0.930184
0.930736
0.931384
0.932132
0.932987
0.933957
0.93505
0.936278
0.937653
0.939187
0.940894
0.942789
0.944885
0.947194
0.949728
0.952495
0.955502
0.958749
0.962236
0.965954
0.969892
0.974034
0.978357
0.982836
0.987441
0.992137
0.996887
1.00165
1.00638
1.01104
1.01558
1.01995
1.02412
1.02804
1.03168
1.03499
1.03796
1.04054
1.04272
1.04447
1.04577
1.04662
1.047
1.0469
1.04632
1.04527
1.04374
1.04174
1.03929
1.0364
1.03309
1.02939
1.02531
1.0209
1.01618
1.0112
1.006
1.00063
0.995129
0.98956
0.983973
0.978422
0.97296
0.96764
0.96251
0.957614
0.952989
0.948668
0.944673
0.941023
0.937726
0.934786
0.932198
0.929951
0.928026
0.9264
0.925044
0.923927
0.923017
0.922281
0.92169
0.921215
0.920831
0.920519
0.92026
0.920041
0.919853
0.919689
0.919545
0.919419
0.919311
0.919224
0.919161
0.919127
0.919125
0.919162
0.91924
0.919363
0.919533
0.91975
0.920013
0.920317
0.920656
0.921024
0.921412
0.921809
0.922207
0.922595
0.922962
0.923299
0.923596
0.923844
0.924038
0.92417
0.924238
0.96187
0.961961
0.962143
0.962418
0.962784
0.963244
0.9638
0.964453
0.965209
0.966073
0.967051
0.968152
0.969384
0.970758
0.972285
0.973975
0.97584
0.97789
0.980136
0.982584
0.985241
0.988112
0.991195
0.994487
0.99798
1.00166
1.00552
1.00953
1.01368
1.01792
1.02224
1.0266
1.03096
1.03529
1.03954
1.04368
1.04766
1.05146
1.05502
1.05833
1.06134
1.06403
1.06637
1.06834
1.06991
1.07108
1.07183
1.07216
1.07204
1.07149
1.0705
1.06907
1.06722
1.06495
1.06229
1.05924
1.05583
1.05208
1.04803
1.0437
1.03914
1.03438
1.02945
1.02442
1.01932
1.0142
1.00911
1.00409
0.999193
0.994457
0.989921
0.985619
0.981579
0.977821
0.974363
0.971213
0.968374
0.965845
0.963616
0.961673
0.959998
0.958568
0.957357
0.956341
0.955491
0.954784
0.954195
0.953702
0.953289
0.952938
0.952638
0.952379
0.952154
0.951959
0.951789
0.951646
0.951529
0.95144
0.951382
0.951357
0.951369
0.95142
0.951512
0.951646
0.951821
0.952035
0.952285
0.952565
0.95287
0.953192
0.953522
0.953854
0.954177
0.954483
0.954764
0.955011
0.955219
0.95538
0.95549
0.955546
0.994836
0.994926
0.995109
0.995382
0.995749
0.996209
0.996765
0.99742
0.998178
0.999043
1.00002
1.00112
1.00235
1.00371
1.00522
1.00688
1.00871
1.0107
1.01287
1.01523
1.01778
1.02051
1.02343
1.02654
1.02982
1.03326
1.03685
1.04058
1.04442
1.04833
1.05231
1.05632
1.06031
1.06427
1.06816
1.07193
1.07557
1.07902
1.08227
1.08527
1.08801
1.09045
1.09257
1.09435
1.09577
1.09682
1.09748
1.09775
1.09762
1.09709
1.09616
1.09483
1.09312
1.09102
1.08856
1.08575
1.08261
1.07916
1.07544
1.07147
1.06728
1.06291
1.0584
1.05378
1.0491
1.0444
1.03972
1.0351
1.03058
1.0262
1.022
1.01799
1.01421
1.01067
1.00739
1.00439
1.00165
0.999191
0.996994
0.995052
0.993351
0.991871
0.990594
0.989497
0.988559
0.987759
0.987077
0.986495
0.985996
0.985566
0.985194
0.984872
0.98459
0.984346
0.984134
0.983954
0.983806
0.983688
0.983604
0.983553
0.983538
0.98356
0.98362
0.983718
0.983853
0.984022
0.984222
0.98445
0.984698
0.984962
0.985235
0.985508
0.985775
0.986029
0.986262
0.986467
0.986639
0.986773
0.986865
0.986911
1.02771
1.0278
1.02798
1.02825
1.02862
1.02908
1.02963
1.03028
1.03104
1.0319
1.03287
1.03396
1.03518
1.03652
1.038
1.03962
1.0414
1.04333
1.04543
1.04769
1.05012
1.05272
1.05548
1.05841
1.06149
1.06471
1.06806
1.07152
1.07507
1.07869
1.08235
1.08603
1.0897
1.09333
1.09688
1.10033
1.10365
1.1068
1.10975
1.11249
1.11497
1.11718
1.1191
1.12071
1.12199
1.12293
1.12352
1.12374
1.1236
1.1231
1.12222
1.12098
1.11939
1.11745
1.11517
1.11258
1.10969
1.10652
1.1031
1.09945
1.0956
1.09159
1.08744
1.0832
1.0789
1.07458
1.07027
1.06601
1.06184
1.05778
1.05387
1.05013
1.04659
1.04326
1.04016
1.03729
1.03466
1.03227
1.03012
1.02819
1.02648
1.02497
1.02365
1.02249
1.02149
1.02062
1.01986
1.0192
1.01863
1.01814
1.0177
1.01732
1.01699
1.0167
1.01645
1.01623
1.01605
1.0159
1.01579
1.01571
1.01567
1.01566
1.01569
1.01575
1.01585
1.01598
1.01613
1.01631
1.01651
1.01673
1.01695
1.01717
1.01739
1.0176
1.01779
1.01796
1.0181
1.01821
1.01828
1.01832
1.0605
1.06058
1.06076
1.06103
1.0614
1.06185
1.0624
1.06305
1.0638
1.06465
1.06561
1.06668
1.06787
1.06919
1.07063
1.07222
1.07394
1.0758
1.07782
1.07998
1.0823
1.08476
1.08738
1.09013
1.09302
1.09603
1.09915
1.10236
1.10565
1.109
1.11238
1.11576
1.11913
1.12246
1.12571
1.12887
1.13189
1.13477
1.13746
1.13995
1.14221
1.14421
1.14595
1.14741
1.14856
1.1494
1.14992
1.1501
1.14995
1.14947
1.14864
1.14749
1.14601
1.14421
1.14211
1.13972
1.13705
1.13413
1.13098
1.12762
1.12408
1.12039
1.11658
1.11268
1.10872
1.10474
1.10077
1.09683
1.09297
1.08921
1.08557
1.08208
1.07876
1.07562
1.07268
1.06995
1.06743
1.06512
1.06301
1.06112
1.05941
1.05789
1.05654
1.05534
1.05429
1.05336
1.05254
1.05183
1.0512
1.05064
1.05015
1.04972
1.04935
1.04901
1.04872
1.04847
1.04826
1.04808
1.04794
1.04784
1.04777
1.04773
1.04773
1.04775
1.04782
1.0479
1.04802
1.04816
1.04831
1.04848
1.04866
1.04883
1.04901
1.04918
1.04934
1.04947
1.04959
1.04968
1.04974
1.04977
1.09319
1.09328
1.09346
1.09372
1.09408
1.09453
1.09507
1.09571
1.09645
1.09728
1.09823
1.09928
1.10045
1.10173
1.10314
1.10467
1.10633
1.10812
1.11005
1.11212
1.11432
1.11666
1.11913
1.12172
1.12442
1.12724
1.13015
1.13313
1.13618
1.13927
1.14239
1.14551
1.14861
1.15166
1.15464
1.15753
1.16029
1.16292
1.16537
1.16764
1.16969
1.17151
1.17309
1.1744
1.17544
1.17619
1.17664
1.1768
1.17664
1.17617
1.1754
1.17432
1.17295
1.17128
1.16934
1.16713
1.16467
1.16198
1.15907
1.15598
1.15272
1.14932
1.14581
1.14222
1.13857
1.1349
1.13123
1.12759
1.12401
1.12051
1.11712
1.11386
1.11074
1.10779
1.105
1.1024
1.09998
1.09775
1.09571
1.09384
1.09216
1.09063
1.08927
1.08805
1.08696
1.08599
1.08513
1.08436
1.08368
1.08308
1.08255
1.08208
1.08166
1.08129
1.08096
1.08068
1.08044
1.08023
1.08006
1.07993
1.07983
1.07976
1.07973
1.07973
1.07975
1.07981
1.07988
1.07998
1.0801
1.08023
1.08036
1.0805
1.08064
1.08078
1.0809
1.08101
1.0811
1.08118
1.08123
1.08125
1.1258
1.12588
1.12606
1.12632
1.12667
1.12711
1.12765
1.12827
1.129
1.12982
1.13074
1.13177
1.1329
1.13415
1.13551
1.13699
1.13859
1.14031
1.14216
1.14412
1.14621
1.14843
1.15075
1.15319
1.15572
1.15835
1.16106
1.16384
1.16667
1.16953
1.17241
1.17528
1.17813
1.18093
1.18366
1.18631
1.18884
1.19123
1.19347
1.19554
1.1974
1.19906
1.20049
1.20168
1.20261
1.20328
1.20368
1.2038
1.20363
1.20319
1.20246
1.20145
1.20017
1.19863
1.19683
1.19479
1.19251
1.19003
1.18735
1.1845
1.1815
1.17836
1.17513
1.17181
1.16845
1.16505
1.16166
1.15828
1.15496
1.15171
1.14854
1.14549
1.14257
1.13978
1.13714
1.13467
1.13235
1.1302
1.12822
1.1264
1.12474
1.12322
1.12185
1.12062
1.11951
1.11851
1.11761
1.11681
1.1161
1.11546
1.11488
1.11437
1.11392
1.11352
1.11316
1.11285
1.11257
1.11234
1.11214
1.11198
1.11186
1.11176
1.1117