/*--------------------------------*- C++ -*----------------------------------*\
| =========                 |                                                 |
| \\      /  F ield         | OpenFOAM: The Open Source CFD Toolbox           |
|  \\    /   O peration     | Version:  2406                                  |
|   \\  /    A nd           | Website:  www.openfoam.com                      |
|    \\/     M anipulation  |                                                 |
\*---------------------------------------------------------------------------*/
FoamFile
{
    version     2.0;
    format      ascii;
    arch        "LSB;label=32;scalar=64";
    class       volScalarField;
    location    "6.5";
    object      D;
}
// * * * * * * * * * * * * * * * * * * * * * * * * * * * * * * * * * * * * * //

dimensions      [0 2 -1 0 0 0 0];

internalField   nonuniform List<scalar> 
14400
(
6.48237e-05
6.47055e-05
6.45214e-05
6.43266e-05
6.41561e-05
6.4026e-05
6.39425e-05
6.39083e-05
6.39267e-05
6.40032e-05
6.41457e-05
6.43606e-05
6.4644e-05
6.49584e-05
6.5194e-05
6.51583e-05
6.47353e-05
6.4125e-05
6.35009e-05
6.29295e-05
6.24199e-05
6.19631e-05
6.15483e-05
6.11685e-05
6.08209e-05
6.05068e-05
6.02301e-05
5.99971e-05
5.98163e-05
5.97001e-05
5.96667e-05
5.97476e-05
6.00024e-05
6.05675e-05
6.18501e-05
6.58217e-05
9.10688e-05
0.000138214
0.00013824
0.00013824
0.00013824
0.00013824
0.00013824
0.00013824
0.00013824
0.00013824
0.00013824
0.00013824
0.00013824
0.00013824
0.00013824
0.00013824
0.00013824
0.00013824
0.00013824
0.00013824
0.00013824
0.00013824
0.00013824
0.00013824
0.000136081
7.24573e-05
6.39636e-05
6.16928e-05
6.08046e-05
6.04296e-05
6.03191e-05
6.03754e-05
6.05514e-05
6.08198e-05
6.11607e-05
6.15552e-05
6.19818e-05
6.24151e-05
6.28265e-05
6.31883e-05
6.34797e-05
6.3693e-05
6.38375e-05
6.39406e-05
6.40469e-05
6.42218e-05
6.4566e-05
6.52721e-05
6.68634e-05
7.18049e-05
0.000103073
0.000138232
0.000118163
7.28307e-05
6.68039e-05
6.4856e-05
6.39368e-05
6.3451e-05
6.3199e-05
6.30907e-05
6.30771e-05
6.3127e-05
6.32168e-05
6.33259e-05
6.34334e-05
6.35169e-05
6.35551e-05
6.35317e-05
6.34424e-05
6.32964e-05
6.31125e-05
6.29133e-05
6.27197e-05
6.25509e-05
6.24249e-05
6.2362e-05
6.23888e-05
6.25471e-05
6.29129e-05
6.36535e-05
6.52598e-05
7.01075e-05
0.000100981
0.000138231
6.49083e-05
6.47313e-05
6.4476e-05
6.42231e-05
6.40123e-05
6.38569e-05
6.37596e-05
6.37206e-05
6.37425e-05
6.38319e-05
6.39999e-05
6.42612e-05
6.46268e-05
6.50809e-05
6.55149e-05
6.56189e-05
6.50285e-05
6.42385e-05
6.35031e-05
6.28737e-05
6.23374e-05
6.18713e-05
6.14573e-05
6.10842e-05
6.07469e-05
6.04451e-05
6.01818e-05
5.99629e-05
5.97972e-05
5.96972e-05
5.96827e-05
5.97876e-05
6.00775e-05
6.07048e-05
6.21425e-05
6.69153e-05
0.00010536
0.000138239
0.00013824
0.00013824
0.00013824
0.00013824
0.00013824
0.00013824
0.00013824
0.00013824
0.00013824
0.00013824
0.00013824
0.00013824
0.00013824
0.00013824
0.00013824
0.00013824
0.00013824
0.00013824
0.00013824
0.00013824
0.00013824
0.00013824
0.000138024
8.12532e-05
6.50353e-05
6.19553e-05
6.09056e-05
6.04707e-05
6.03263e-05
6.0357e-05
6.05097e-05
6.07546e-05
6.10705e-05
6.14382e-05
6.18366e-05
6.22417e-05
6.26273e-05
6.29688e-05
6.32482e-05
6.34594e-05
6.36124e-05
6.37336e-05
6.38669e-05
6.40779e-05
6.44709e-05
6.52506e-05
6.69883e-05
7.25441e-05
0.00011324
0.000138239
0.000130379
7.45076e-05
6.73274e-05
6.50331e-05
6.39796e-05
6.34266e-05
6.31342e-05
6.29991e-05
6.29674e-05
6.30064e-05
6.30925e-05
6.32048e-05
6.33214e-05
6.34177e-05
6.34677e-05
6.34502e-05
6.33586e-05
6.3205e-05
6.30134e-05
6.281e-05
6.26178e-05
6.2456e-05
6.23426e-05
6.22977e-05
6.23489e-05
6.25413e-05
6.29595e-05
6.37936e-05
6.56156e-05
7.14007e-05
0.000116571
0.00013824
6.5245e-05
6.48897e-05
6.44541e-05
6.4072e-05
6.37789e-05
6.35744e-05
6.34507e-05
6.34026e-05
6.34309e-05
6.35436e-05
6.37589e-05
6.41083e-05
6.46406e-05
6.54191e-05
6.64541e-05
6.72672e-05
6.5884e-05
6.45509e-05
6.35479e-05
6.2793e-05
6.22004e-05
6.17136e-05
6.12985e-05
6.0936e-05
6.06163e-05
6.03363e-05
6.00976e-05
5.99052e-05
5.97683e-05
5.97006e-05
5.97251e-05
5.98818e-05
6.02522e-05
6.10336e-05
6.28695e-05
6.91648e-05
0.00012743
0.00013824
0.00013824
0.00013824
0.00013824
0.00013824
0.00013824
0.00013824
0.00013824
0.00013824
0.00013824
0.00013824
0.00013824
0.00013824
0.00013824
0.00013824
0.00013824
0.00013824
0.00013824
0.00013824
0.00013824
0.00013824
0.00013824
0.00013824
0.000138238
0.000104104
6.70528e-05
6.24635e-05
6.11168e-05
6.05641e-05
6.03511e-05
6.03305e-05
6.0438e-05
6.06385e-05
6.09083e-05
6.12274e-05
6.15757e-05
6.19315e-05
6.22729e-05
6.258e-05
6.28392e-05
6.30477e-05
6.32161e-05
6.33702e-05
6.35534e-05
6.38338e-05
6.43279e-05
6.52806e-05
6.74061e-05
7.42083e-05
0.000128753
0.00013824
0.000138133
8.92015e-05
6.92893e-05
6.5532e-05
6.41216e-05
6.34179e-05
6.30414e-05
6.28528e-05
6.27868e-05
6.28067e-05
6.2888e-05
6.30097e-05
6.31488e-05
6.32756e-05
6.33539e-05
6.33494e-05
6.32501e-05
6.3075e-05
6.28616e-05
6.26447e-05
6.2451e-05
6.23e-05
6.22087e-05
6.21974e-05
6.22967e-05
6.25602e-05
6.30977e-05
6.41737e-05
6.66489e-05
7.50967e-05
0.000135214
0.00013824
6.64165e-05
6.54496e-05
6.45928e-05
6.39712e-05
6.35451e-05
6.32667e-05
6.31047e-05
6.30435e-05
6.30803e-05
6.32254e-05
6.35071e-05
6.39849e-05
6.47818e-05
6.61887e-05
6.90432e-05
7.54776e-05
6.82424e-05
6.52641e-05
6.37156e-05
6.27434e-05
6.20573e-05
6.15332e-05
6.11104e-05
6.07574e-05
6.04579e-05
6.0205e-05
5.99983e-05
5.98423e-05
5.97467e-05
5.97281e-05
5.9815e-05
6.00614e-05
6.05859e-05
6.17309e-05
6.51391e-05
8.70542e-05
0.000138196
0.00013824
0.00013824
0.00013824
0.00013824
0.00013824
0.00013824
0.00013824
0.00013824
0.00013824
0.00013824
0.00013824
0.00013824
0.00013824
0.00013824
0.00013824
0.00013824
0.00013824
0.00013824
0.00013824
0.00013824
0.00013824
0.00013824
0.00013824
0.00013824
0.000130028
7.00061e-05
6.33855e-05
6.15059e-05
6.07437e-05
6.04162e-05
6.03157e-05
6.03567e-05
6.04952e-05
6.07033e-05
6.09598e-05
6.12454e-05
6.15414e-05
6.18302e-05
6.20973e-05
6.23342e-05
6.25414e-05
6.2731e-05
6.29289e-05
6.318e-05
6.35604e-05
6.42173e-05
6.55215e-05
6.8956e-05
8.59233e-05
0.000138025
0.00013824
0.00013824
0.00012494
7.32164e-05
6.65802e-05
6.44799e-05
6.35047e-05
6.29877e-05
6.27159e-05
6.26004e-05
6.25959e-05
6.26757e-05
6.28196e-05
6.30042e-05
6.31931e-05
6.33316e-05
6.33534e-05
6.32313e-05
6.30029e-05
6.27383e-05
6.24877e-05
6.22821e-05
6.21398e-05
6.20762e-05
6.21123e-05
6.22845e-05
6.26651e-05
6.34256e-05
6.50837e-05
7.02722e-05
0.000110076
0.000138239
0.00013824
7.17854e-05
6.71557e-05
6.51404e-05
6.40599e-05
6.34211e-05
6.30344e-05
6.2818e-05
6.27379e-05
6.27865e-05
6.29763e-05
6.33508e-05
6.40168e-05
6.52423e-05
6.79632e-05
7.78378e-05
0.000133821
7.60947e-05
6.68891e-05
6.41563e-05
6.2809e-05
6.19712e-05
6.1383e-05
6.09387e-05
6.05883e-05
6.03066e-05
6.0082e-05
5.99116e-05
5.97996e-05
5.97578e-05
5.98078e-05
5.999e-05
6.03859e-05
6.11939e-05
6.30648e-05
6.95956e-05
0.000129067
0.00013824
0.00013824
0.00013824
0.00013824
0.00013824
0.00013824
0.00013824
0.00013824
0.00013824
0.00013824
0.00013824
0.00013824
0.00013824
0.00013824
0.00013824
0.00013824
0.00013824
0.00013824
0.00013824
0.00013824
0.00013824
0.00013824
0.00013824
0.00013824
0.00013824
0.000138234
9.66267e-05
6.62498e-05
6.22955e-05
6.10825e-05
6.05621e-05
6.0343e-05
6.0294e-05
6.03547e-05
6.04903e-05
6.0677e-05
6.08956e-05
6.113e-05
6.13665e-05
6.15955e-05
6.18129e-05
6.20228e-05
6.22394e-05
6.24909e-05
6.28272e-05
6.33407e-05
6.42344e-05
6.61111e-05
7.20269e-05
0.000119217
0.00013824
0.00013824
0.00013824
0.000138227
9.79467e-05
6.98435e-05
6.53953e-05
6.3838e-05
6.30759e-05
6.26741e-05
6.24894e-05
6.24567e-05
6.25438e-05
6.27337e-05
6.30093e-05
6.33292e-05
6.36117e-05
6.36951e-05
6.35071e-05
6.31387e-05
6.27569e-05
6.24298e-05
6.219e-05
6.20482e-05
6.20156e-05
6.21152e-05
6.23954e-05
6.29636e-05
6.41293e-05
6.71002e-05
8.04918e-05
0.000137773
0.00013824
0.00013824
0.00012487
7.35353e-05
6.67374e-05
6.45785e-05
6.3555e-05
6.29929e-05
6.26909e-05
6.2581e-05
6.26481e-05
6.29082e-05
6.34317e-05
6.44343e-05
6.65775e-05
7.33824e-05
0.000127812
0.00013824
0.000121504
7.1545e-05
6.52533e-05
6.31324e-05
6.20255e-05
6.13241e-05
6.08332e-05
6.04718e-05
6.02008e-05
6.00022e-05
5.98703e-05
5.98101e-05
5.98375e-05
5.99853e-05
6.032e-05
6.09955e-05
6.24932e-05
6.73591e-05
0.000106946
0.000138239
0.00013824
0.00013824
0.00013824
0.00013824
0.00013824
0.00013824
0.00013824
0.00013824
0.00013824
0.00013824
0.00013824
0.00013824
0.00013824
0.00013824
0.00013824
0.00013824
0.00013824
0.00013824
0.00013824
0.00013824
0.00013824
0.00013824
0.00013824
0.00013824
0.00013824
0.00013824
0.000134833
7.12536e-05
6.37595e-05
6.17105e-05
6.08591e-05
6.04583e-05
6.02864e-05
6.02512e-05
6.0305e-05
6.04182e-05
6.05704e-05
6.07466e-05
6.09362e-05
6.11332e-05
6.13375e-05
6.15567e-05
6.18088e-05
6.21277e-05
6.25755e-05
6.328e-05
6.45702e-05
6.77502e-05
8.25736e-05
0.000137905
0.00013824
0.00013824
0.00013824
0.00013824
0.000137657
8.02124e-05
6.77245e-05
6.4735e-05
6.3483e-05
6.28497e-05
6.25587e-05
6.24912e-05
6.2602e-05
6.28857e-05
6.33583e-05
6.39959e-05
6.47439e-05
6.5035e-05
6.46086e-05
6.37719e-05
6.30991e-05
6.25967e-05
6.22775e-05
6.21201e-05
6.21233e-05
6.23166e-05
6.27812e-05
6.37013e-05
6.58153e-05
7.30686e-05
0.000132785
0.00013824
0.00013824
0.00013824
0.00013824
0.000124447
7.27261e-05
6.62127e-05
6.42422e-05
6.33264e-05
6.28598e-05
6.26926e-05
6.27962e-05
6.31926e-05
6.40122e-05
6.58824e-05
7.18295e-05
0.000115383
0.00013824
0.00013824
0.000138227
9.64569e-05
6.85252e-05
6.40304e-05
6.23545e-05
6.14387e-05
6.08541e-05
6.04576e-05
6.0185e-05
6.00079e-05
5.99173e-05
5.99199e-05
6.00421e-05
6.03419e-05
6.09525e-05
6.22502e-05
6.59918e-05
8.85497e-05
0.000138207
0.00013824
0.00013824
0.00013824
0.00013824
0.00013824
0.00013824
0.00013824
0.00013824
0.00013824
0.00013824
0.00013824
0.00013824
0.00013824
0.00013824
0.00013824
0.00013824
0.00013824
0.00013824
0.00013824
0.00013824
0.00013824
0.00013824
0.00013824
0.00013824
0.00013824
0.00013824
0.00013824
0.00013824
0.000120131
6.88502e-05
6.31459e-05
6.14742e-05
6.07417e-05
6.03846e-05
6.02247e-05
6.01836e-05
6.02191e-05
6.03062e-05
6.04292e-05
6.05789e-05
6.07519e-05
6.09517e-05
6.11904e-05
6.14924e-05
6.1904e-05
6.25164e-05
6.3541e-05
6.56338e-05
7.22763e-05
0.000127061
0.00013824
0.00013824
0.00013824
0.00013824
0.00013824
0.00013824
0.000136185
7.6242e-05
6.741e-05
6.46791e-05
6.34802e-05
6.29896e-05
6.28699e-05
6.3037e-05
6.35258e-05
6.45321e-05
6.61866e-05
6.97012e-05
7.1225e-05
6.93799e-05
6.57792e-05
6.42114e-05
6.32262e-05
6.27231e-05
6.25168e-05
6.25709e-05
6.2937e-05
6.38339e-05
6.56989e-05
7.21776e-05
0.000126697
0.00013824
0.00013824
0.00013824
0.00013824
0.00013824
0.00013824
0.000123291
7.26641e-05
6.64956e-05
6.453e-05
6.36199e-05
6.3303e-05
6.3505e-05
6.4272e-05
6.58695e-05
7.15979e-05
0.000111976
0.000138239
0.00013824
0.00013824
0.00013824
0.000137821
7.98713e-05
6.64298e-05
6.32627e-05
6.18791e-05
6.10958e-05
6.06182e-05
6.03227e-05
6.01608e-05
6.01186e-05
6.02073e-05
6.04785e-05
6.10605e-05
6.2321e-05
6.57021e-05
8.15274e-05
0.00013806
0.00013824
0.00013824
0.00013824
0.00013824
0.00013824
0.00013824
0.00013824
0.00013824
0.00013824
0.00013824
0.00013824
0.00013824
0.00013824
0.00013824
0.00013824
0.00013824
0.00013824
0.00013824
0.00013824
0.00013824
0.00013824
0.00013824
0.00013824
0.00013824
0.00013824
0.00013824
0.00013824
0.00013824
0.00013824
0.000138238
0.00010284
6.76142e-05
6.286e-05
6.1357e-05
6.06726e-05
6.03299e-05
6.01689e-05
6.01164e-05
6.01367e-05
6.021e-05
6.03264e-05
6.04841e-05
6.06905e-05
6.09644e-05
6.13427e-05
6.18993e-05
6.27996e-05
6.45391e-05
6.9603e-05
0.000105539
0.000138238
0.00013824
0.00013824
0.00013824
0.00013824
0.00013824
0.00013824
0.00013824
0.000136351
8.07041e-05
6.89984e-05
6.52746e-05
6.42792e-05
6.40455e-05
6.43635e-05
6.54067e-05
6.89374e-05
7.56574e-05
0.000116189
0.000131514
0.000113404
7.38822e-05
6.82787e-05
6.50263e-05
6.40156e-05
6.36604e-05
6.3823e-05
6.46273e-05
6.73395e-05
7.34364e-05
0.000128529
0.00013824
0.00013824
0.00013824
0.00013824
0.00013824
0.00013824
0.00013824
0.00013824
0.000130169
7.6826e-05
6.92036e-05
6.60464e-05
6.5104e-05
6.57168e-05
6.84402e-05
7.32793e-05
0.000121501
0.00013824
0.00013824
0.00013824
0.00013824
0.00013824
0.00013824
0.000136734
7.54626e-05
6.59613e-05
6.30802e-05
6.17655e-05
6.10988e-05
6.07338e-05
6.05782e-05
6.06085e-05
6.08421e-05
6.14115e-05
6.27181e-05
6.66124e-05
8.42625e-05
0.000138013
0.00013824
0.00013824
0.00013824
0.00013824
0.00013824
0.00013824
0.00013824
0.00013824
0.00013824
0.00013824
0.00013824
0.00013824
0.00013824
0.00013824
0.00013824
0.00013824
0.00013824
0.00013824
0.00013824
0.00013824
0.00013824
0.00013824
0.00013824
0.00013824
0.00013824
0.00013824
0.00013824
0.00013824
0.00013824
0.00013824
0.00013824
0.000138227
9.38537e-05
6.71159e-05
6.27825e-05
6.13315e-05
6.06634e-05
6.03263e-05
6.01595e-05
6.01028e-05
6.01256e-05
6.02135e-05
6.03655e-05
6.05944e-05
6.09314e-05
6.14389e-05
6.22602e-05
6.37792e-05
6.7698e-05
8.8638e-05
0.000138179
0.00013824
0.00013824
0.00013824
0.00013824
0.00013824
0.00013824
0.00013824
0.00013824
0.00013824
0.00013784
0.000102815
7.19533e-05
6.90278e-05
6.82328e-05
6.93205e-05
7.25337e-05
0.000105697
0.000136804
0.00013824
0.00013824
0.00013824
0.000135668
0.000100325
7.17127e-05
6.86999e-05
6.75017e-05
6.82014e-05
7.07689e-05
9.09477e-05
0.000135232
0.00013824
0.00013824
0.00013824
0.00013824
0.00013824
0.00013824
0.00013824
0.00013824
0.00013824
0.00013824
0.000137223
0.000108929
7.71338e-05
7.16462e-05
7.49534e-05
0.000102077
0.000134399
0.00013824
0.00013824
0.00013824
0.00013824
0.00013824
0.00013824
0.00013824
0.00013824
0.000136812
7.95478e-05
6.72543e-05
6.35221e-05
6.23206e-05
6.1732e-05
6.15628e-05
6.17693e-05
6.2353e-05
6.38327e-05
6.84885e-05
9.81089e-05
0.000138156
0.00013824
0.00013824
0.00013824
0.00013824
0.00013824
0.00013824
0.00013824
0.00013824
0.00013824
0.00013824
0.00013824
0.00013824
0.00013824
0.00013824
0.00013824
0.00013824
0.00013824
0.00013824
0.00013824
0.00013824
0.00013824
0.00013824
0.00013824
0.00013824
0.00013824
0.00013824
0.00013824
0.00013824
0.00013824
0.00013824
0.00013824
0.00013824
0.00013824
0.000138218
9.39133e-05
6.7465e-05
6.29283e-05
6.14527e-05
6.07923e-05
6.04381e-05
6.02739e-05
6.02366e-05
6.02982e-05
6.04568e-05
6.07354e-05
6.11943e-05
6.19606e-05
6.34152e-05
6.69439e-05
8.17864e-05
0.000137952
0.00013824
0.00013824
0.00013824
0.00013824
0.00013824
0.00013824
0.00013824
0.00013824
0.00013824
0.00013824
0.00013824
0.000138237
0.000130608
0.00010755
9.72132e-05
0.000111176
0.00013332
0.000138239
0.00013824
0.00013824
0.00013824
0.00013824
0.00013824
0.000138235
0.000130669
0.000106256
9.14535e-05
0.000100605
0.000125163
0.000138206
0.00013824
0.00013824
0.00013824
0.00013824
0.00013824
0.00013824
0.00013824
0.00013824
0.00013824
0.00013824
0.00013824
0.00013824
0.000138239
0.000137363
0.000131978
0.000136616
0.000138236
0.00013824
0.00013824
0.00013824
0.00013824
0.00013824
0.00013824
0.00013824
0.00013824
0.00013824
0.00013824
0.000137911
9.9588e-05
6.99054e-05
6.64575e-05
6.4586e-05
6.42979e-05
6.5459e-05
6.76454e-05
7.44051e-05
0.000122004
0.000138236
0.00013824
0.00013824
0.00013824
0.00013824
0.00013824
0.00013824
0.00013824
0.00013824
0.00013824
0.00013824
0.00013824
0.00013824
0.00013824
0.00013824
0.00013824
0.00013824
0.00013824
0.00013824
0.00013824
0.00013824
0.00013824
0.00013824
0.00013824
0.00013824
0.00013824
0.00013824
0.00013824
0.00013824
0.00013824
0.00013824
0.00013824
0.00013824
0.00013824
0.00013824
0.00013824
0.000138228
0.000103288
6.85989e-05
6.34775e-05
6.1979e-05
6.11691e-05
6.08075e-05
6.06795e-05
6.0711e-05
6.08976e-05
6.12857e-05
6.20319e-05
6.34924e-05
6.75393e-05
8.42019e-05
0.000137893
0.00013824
0.00013824
0.00013824
0.00013824
0.00013824
0.00013824
0.00013824
0.00013824
0.00013824
0.00013824
0.00013824
0.00013824
0.00013824
0.00013824
0.000138239
0.000138228
0.00013824
0.00013824
0.00013824
0.00013824
0.00013824
0.00013824
0.00013824
0.00013824
0.00013824
0.00013824
0.000138239
0.000138201
0.000138235
0.00013824
0.00013824
0.00013824
0.00013824
0.00013824
0.00013824
0.00013824
0.00013824
0.00013824
0.00013824
0.00013824
0.00013824
0.00013824
0.00013824
0.00013824
0.00013824
0.00013824
0.00013824
0.00013824
0.00013824
0.00013824
0.00013824
0.00013824
0.00013824
0.00013824
0.00013824
0.00013824
0.00013824
0.00013824
0.00013824
0.000138236
0.00012769
9.76589e-05
7.81663e-05
7.65891e-05
8.97848e-05
0.00011627
0.000137419
0.00013824
0.00013824
0.00013824
0.00013824
0.00013824
0.00013824
0.00013824
0.00013824
0.00013824
0.00013824
0.00013824
0.00013824
0.00013824
0.00013824
0.00013824
0.00013824
0.00013824
0.00013824
0.00013824
0.00013824
0.00013824
0.00013824
0.00013824
0.00013824
0.00013824
0.00013824
0.00013824
0.00013824
0.00013824
0.00013824
0.00013824
0.00013824
0.00013824
0.00013824
0.00013824
0.00013824
0.00013824
0.00013824
0.000138239
0.00012139
7.13047e-05
6.61497e-05
6.30837e-05
6.22048e-05
6.18765e-05
6.18498e-05
6.21268e-05
6.2809e-05
6.45954e-05
6.92879e-05
9.83121e-05
0.000138117
0.00013824
0.00013824
0.00013824
0.00013824
0.00013824
0.00013824
0.00013824
0.00013824
0.00013824
0.00013824
0.00013824
0.00013824
0.00013824
0.00013824
0.00013824
0.00013824
0.00013824
0.00013824
0.00013824
0.00013824
0.00013824
0.00013824
0.00013824
0.00013824
0.00013824
0.00013824
0.00013824
0.00013824
0.00013824
0.00013824
0.00013824
0.00013824
0.00013824
0.00013824
0.00013824
0.00013824
0.00013824
0.00013824
0.00013824
0.00013824
0.00013824
0.00013824
0.00013824
0.00013824
0.00013824
0.00013824
0.00013824
0.00013824
0.00013824
0.00013824
0.00013824
0.00013824
0.00013824
0.00013824
0.00013824
0.00013824
0.00013824
0.00013824
0.00013824
0.00013824
0.00013824
0.00013824
0.000138234
0.000137829
0.000137663
0.00013821
0.00013824
0.00013824
0.00013824
0.00013824
0.00013824
0.00013824
0.00013824
0.00013824
0.00013824
0.00013824
0.00013824
0.00013824
0.00013824
0.00013824
0.00013824
0.00013824
0.00013824
0.00013824
0.00013824
0.00013824
0.00013824
0.00013824
0.00013824
0.00013824
0.00013824
0.00013824
0.00013824
0.00013824
0.00013824
0.00013824
0.00013824
0.00013824
0.00013824
0.00013824
0.00013824
0.00013824
0.00013824
0.00013824
0.00013824
0.00013824
0.00013824
0.00013824
0.000135759
0.000102038
7.01613e-05
6.7278e-05
6.60264e-05
6.5687e-05
6.64785e-05
6.84136e-05
7.75763e-05
0.000122918
0.000138235
0.00013824
0.00013824
0.00013824
0.00013824
0.00013824
0.00013824
0.00013824
0.00013824
0.00013824
0.00013824
0.00013824
0.00013824
0.00013824
0.00013824
0.00013824
0.00013824
0.00013824
0.00013824
0.00013824
0.00013824
0.00013824
0.00013824
0.00013824
0.00013824
0.00013824
0.00013824
0.00013824
0.00013824
0.00013824
0.00013824
0.00013824
0.00013824
0.00013824
0.00013824
0.00013824
0.00013824
0.00013824
0.00013824
0.00013824
0.00013824
0.00013824
0.00013824
0.00013824
0.00013824
0.00013824
0.00013824
0.00013824
0.00013824
0.00013824
0.00013824
0.00013824
0.00013824
0.00013824
0.00013824
0.00013824
0.00013824
0.00013824
0.00013824
0.00013824
0.00013824
0.00013824
0.00013824
0.00013824
0.00013824
0.00013824
0.00013824
0.00013824
0.00013824
0.00013824
0.00013824
0.00013824
0.00013824
0.00013824
0.00013824
0.00013824
0.00013824
0.00013824
0.00013824
0.00013824
0.00013824
0.00013824
0.00013824
0.00013824
0.00013824
0.00013824
0.00013824
0.00013824
0.00013824
0.00013824
0.00013824
0.00013824
0.00013824
0.00013824
0.00013824
0.00013824
0.00013824
0.00013824
0.00013824
0.00013824
0.00013824
0.00013824
0.00013824
0.00013824
0.00013824
0.00013824
0.00013824
0.00013824
0.00013824
0.00013824
0.00013824
0.000138238
0.000134079
0.000113841
9.64826e-05
9.10934e-05
0.000100217
0.000121345
0.000137832
0.00013824
0.00013824
0.00013824
0.00013824
0.00013824
0.00013824
0.00013824
0.00013824
0.00013824
0.00013824
0.00013824
0.00013824
0.00013824
0.00013824
0.00013824
0.00013824
0.00013824
0.00013824
0.00013824
0.00013824
0.00013824
0.00013824
0.00013824
0.00013824
0.00013824
0.00013824
0.00013824
0.00013824
0.00013824
0.00013824
0.00013824
0.00013824
0.00013824
0.00013824
0.00013824
0.00013824
0.00013824
0.00013824
0.00013824
0.00013824
0.00013824
0.00013824
0.00013824
0.00013824
0.00013824
0.00013824
0.00013824
0.00013824
0.00013824
0.00013824
0.00013824
0.00013824
0.00013824
0.00013824
0.00013824
0.00013824
0.00013824
0.00013824
0.00013824
0.00013824
0.00013824
0.00013824
0.00013824
0.00013824
0.00013824
0.00013824
0.00013824
0.00013824
0.00013824
0.00013824
0.00013824
0.00013824
0.00013824
0.00013824
0.00013824
0.00013824
0.00013824
0.00013824
0.00013824
0.00013824
0.00013824
0.00013824
0.00013824
0.00013824
0.00013824
0.00013824
0.00013824
0.00013824
0.00013824
0.00013824
0.00013824
0.00013824
0.00013824
0.00013824
0.00013824
0.00013824
0.00013824
0.00013824
0.00013824
0.00013824
0.00013824
0.00013824
0.00013824
0.00013824
0.00013824
0.00013824
0.00013824
0.00013824
0.00013824
0.00013824
0.00013824
0.00013824
0.00013824
0.00013824
0.00013824
0.000138233
0.000138216
0.000138237
0.00013824
0.00013824
0.00013824
0.00013824
0.00013824
0.00013824
0.00013824
0.00013824
0.00013824
0.00013824
0.00013824
0.00013824
0.00013824
0.00013824
0.00013824
0.00013824
0.00013824
0.00013824
0.00013824
0.00013824
0.00013824
0.00013824
0.00013824
0.00013824
0.00013824
0.00013824
0.00013824
0.00013824
0.00013824
0.00013824
0.00013824
0.00013824
0.00013824
0.00013824
0.00013824
0.00013824
0.00013824
0.00013824
0.00013824
0.00013824
0.00013824
0.00013824
0.00013824
0.00013824
0.00013824
0.00013824
0.00013824
0.00013824
0.00013824
0.00013824
0.00013824
0.00013824
0.00013824
0.00013824
0.00013824
0.00013824
0.00013824
0.00013824
0.00013824
0.00013824
0.00013824
0.00013824
0.00013824
0.00013824
0.00013824
0.00013824
0.00013824
0.00013824
0.00013824
0.00013824
0.00013824
0.00013824
0.00013824
0.00013824
0.00013824
0.00013824
0.00013824
0.00013824
0.00013824
0.00013824
0.00013824
0.00013824
0.00013824
0.00013824
0.00013824
0.00013824
0.00013824
0.00013824
0.00013824
0.00013824
0.00013824
0.00013824
0.00013824
0.00013824
0.00013824
0.00013824
0.00013824
0.00013824
0.00013824
0.00013824
0.00013824
0.00013824
0.00013824
0.00013824
0.00013824
0.00013824
0.00013824
0.00013824
0.00013824
0.00013824
0.00013824
0.00013824
0.00013824
0.00013824
0.00013824
0.00013824
0.00013824
0.00013824
0.00013824
0.00013824
0.00013824
0.00013824
0.00013824
0.00013824
0.00013824
0.00013824
0.00013824
0.00013824
0.00013824
0.00013824
0.00013824
0.00013824
0.00013824
0.00013824
0.00013824
0.00013824
0.00013824
0.00013824
0.00013824
0.00013824
0.00013824
0.00013824
0.00013824
0.00013824
0.00013824
0.00013824
0.00013824
0.00013824
0.00013824
0.00013824
0.00013824
0.00013824
0.00013824
0.00013824
0.00013824
0.00013824
0.00013824
0.00013824
0.00013824
0.00013824
0.00013824
0.00013824
0.00013824
0.00013824
0.00013824
0.00013824
0.00013824
0.00013824
0.00013824
0.00013824
0.00013824
0.00013824
0.00013824
0.00013824
0.00013824
0.00013824
0.00013824
0.00013824
0.00013824
0.00013824
0.00013824
0.00013824
0.00013824
0.00013824
0.00013824
0.00013824
0.00013824
0.00013824
0.00013824
0.00013824
0.00013824
0.00013824
0.00013824
0.00013824
0.00013824
0.00013824
0.00013824
0.00013824
0.00013824
0.00013824
0.00013824
0.00013824
0.00013824
0.00013824
0.00013824
0.00013824
0.00013824
0.00013824
0.00013824
0.00013824
0.00013824
0.00013824
0.00013824
0.00013824
0.00013824
0.00013824
0.00013824
0.00013824
0.00013824
0.00013824
0.00013824
0.00013824
0.00013824
0.00013824
0.00013824
0.00013824
0.00013824
0.00013824
0.00013824
0.00013824
0.00013824
0.00013824
0.00013824
0.00013824
0.00013824
0.00013824
0.00013824
0.00013824
0.00013824
0.00013824
0.00013824
0.00013824
0.00013824
0.00013824
0.00013824
0.00013824
0.00013824
0.00013824
0.00013824
0.00013824
0.00013824
0.00013824
0.00013824
0.00013824
0.00013824
0.00013824
0.00013824
0.00013824
0.00013824
0.00013824
0.00013824
0.00013824
0.00013824
0.00013824
0.00013824
0.00013824
0.00013824
0.00013824
0.00013824
0.00013824
0.00013824
0.00013824
0.00013824
0.00013824
0.00013824
0.00013824
0.00013824
0.00013824
0.00013824
0.00013824
0.00013824
0.00013824
0.00013824
0.00013824
0.00013824
0.00013824
0.00013824
0.00013824
0.00013824
0.00013824
0.00013824
0.00013824
0.00013824
0.00013824
0.00013824
0.00013824
0.00013824
0.00013824
0.00013824
0.00013824
0.00013824
0.00013824
0.00013824
0.00013824
0.00013824
0.00013824
0.00013824
0.00013824
0.00013824
0.00013824
0.00013824
0.00013824
0.00013824
0.00013824
0.00013824
0.00013824
0.00013824
0.00013824
0.00013824
0.00013824
0.00013824
0.00013824
0.00013824
0.00013824
0.00013824
0.00013824
0.00013824
0.00013824
0.00013824
0.00013824
0.00013824
0.00013824
0.00013824
0.00013824
0.00013824
0.00013824
0.00013824
0.00013824
0.00013824
0.00013824
0.00013824
0.00013824
0.00013824
0.00013824
0.00013824
0.00013824
0.00013824
0.00013824
0.00013824
0.00013824
0.00013824
0.00013824
0.00013824
0.00013824
0.00013824
0.00013824
0.00013824
0.00013824
0.00013824
0.00013824
0.00013824
0.00013824
0.00013824
0.00013824
0.00013824
0.00013824
0.00013824
0.00013824
0.00013824
0.00013824
0.00013824
0.00013824
0.00013824
0.00013824
0.00013824
0.00013824
0.00013824
0.00013824
0.00013824
0.00013824
0.00013824
0.00013824
0.00013824
0.00013824
0.00013824
0.00013824
0.00013824
0.00013824
0.00013824
0.00013824
0.00013824
0.00013824
0.00013824
0.00013824
0.00013824
0.00013824
0.00013824
0.00013824
0.00013824
0.00013824
0.00013824
0.00013824
0.00013824
0.00013824
0.00013824
0.00013824
0.00013824
0.00013824
0.00013824
0.00013824
0.00013824
0.00013824
0.00013824
0.00013824
0.00013824
0.00013824
0.00013824
0.00013824
0.00013824
0.00013824
0.00013824
0.00013824
0.00013824
0.00013824
0.00013824
0.00013824
0.00013824
0.00013824
0.00013824
0.00013824
0.00013824
0.00013824
0.00013824
0.00013824
0.00013824
0.00013824
0.00013824
0.00013824
0.00013824
0.00013824
0.00013824
0.00013824
0.00013824
0.00013824
0.00013824
0.00013824
0.00013824
0.00013824
0.00013824
0.00013824
0.00013824
0.00013824
0.00013824
0.00013824
0.00013824
0.00013824
0.00013824
0.00013824
0.00013824
0.00013824
0.00013824
0.00013824
0.00013824
0.00013824
0.00013824
0.00013824
0.00013824
0.00013824
0.00013824
0.00013824
0.00013824
0.00013824
0.00013824
0.00013824
0.00013824
0.00013824
0.00013824
0.00013824
0.00013824
0.00013824
0.00013824
0.00013824
0.00013824
0.00013824
0.00013824
0.00013824
0.00013824
0.00013824
0.00013824
0.00013824
0.00013824
0.00013824
0.00013824
0.00013824
0.00013824
0.00013824
0.00013824
0.00013824
0.00013824
0.00013824
0.00013824
0.00013824
0.00013824
0.00013824
0.00013824
0.00013824
0.00013824
0.00013824
0.00013824
0.00013824
0.00013824
0.00013824
0.00013824
0.00013824
0.00013824
0.00013824
0.00013824
0.00013824
0.00013824
0.00013824
0.00013824
0.00013824
0.00013824
0.00013824
0.00013824
0.00013824
0.00013824
0.00013824
0.00013824
0.00013824
0.00013824
0.00013824
0.00013824
0.00013824
0.00013824
0.00013824
0.00013824
0.00013824
0.00013824
0.00013824
0.00013824
0.00013824
0.00013824
0.00013824
0.00013824
0.00013824
0.00013824
0.00013824
0.00013824
0.00013824
0.00013824
0.00013824
0.00013824
0.00013824
0.00013824
0.00013824
0.00013824
0.00013824
0.00013824
0.00013824
0.00013824
0.00013824
0.00013824
0.00013824
0.00013824
0.00013824
0.00013824
0.00013824
0.00013824
0.00013824
0.00013824
0.00013824
0.00013824
0.00013824
0.00013824
0.00013824
0.00013824
0.00013824
0.00013824
0.00013824
0.00013824
0.00013824
0.00013824
0.00013824
0.00013824
0.00013824
0.00013824
0.00013824
0.00013824
0.00013824
0.00013824
0.00013824
0.00013824
0.00013824
0.00013824
0.00013824
0.00013824
0.00013824
0.00013824
0.00013824
0.00013824
0.00013824
0.00013824
0.00013824
0.00013824
0.00013824
0.00013824
0.00013824
0.00013824
0.00013824
0.00013824
0.00013824
0.00013824
0.00013824
0.00013824
0.00013824
0.00013824
0.00013824
0.00013824
0.00013824
0.00013824
0.00013824
0.00013824
0.00013824
0.00013824
0.00013824
0.00013824
0.00013824
0.00013824
0.00013824
0.00013824
0.00013824
0.00013824
0.00013824
0.00013824
0.00013824
0.00013824
0.00013824
0.00013824
0.00013824
0.00013824
0.00013824
0.00013824
0.00013824
0.00013824
0.00013824
0.00013824
0.00013824
0.00013824
0.00013824
0.00013824
0.00013824
0.00013824
0.00013824
0.00013824
0.00013824
0.00013824
0.00013824
0.00013824
0.00013824
0.00013824
0.00013824
0.00013824
0.00013824
0.00013824
0.00013824
0.00013824
0.00013824
0.00013824
0.00013824
0.00013824
0.00013824
0.00013824
0.00013824
0.00013824
0.00013824
0.00013824
0.00013824
0.00013824
0.00013824
0.00013824
0.00013824
0.00013824
0.00013824
0.00013824
0.00013824
0.00013824
0.00013824
0.00013824
0.00013824
0.00013824
0.00013824
0.00013824
0.00013824
0.00013824
0.00013824
0.00013824
0.00013824
0.00013824
0.00013824
0.00013824
0.00013824
0.00013824
0.00013824
0.00013824
0.00013824
0.00013824
0.00013824
0.00013824
0.00013824
0.00013824
0.00013824
0.00013824
0.00013824
0.00013824
0.00013824
0.00013824
0.00013824
0.00013824
0.00013824
0.00013824
0.00013824
0.00013824
0.00013824
0.00013824
0.00013824
0.00013824
0.00013824
0.00013824
0.00013824
0.00013824
0.00013824
0.00013824
0.00013824
0.00013824
0.00013824
0.00013824
0.00013824
0.00013824
0.00013824
0.00013824
0.00013824
0.00013824
0.00013824
0.00013824
0.00013824
0.00013824
0.00013824
0.00013824
0.00013824
0.00013824
0.00013824
0.00013824
0.00013824
0.00013824
0.00013824
0.00013824
0.00013824
0.00013824
0.00013824
0.00013824
0.00013824
0.00013824
0.00013824
0.00013824
0.00013824
0.00013824
0.00013824
0.00013824
0.00013824
0.00013824
0.00013824
0.00013824
0.00013824
0.00013824
0.00013824
0.00013824
0.00013824
0.00013824
0.00013824
0.00013824
0.00013824
0.00013824
0.00013824
0.00013824
0.00013824
0.00013824
0.00013824
0.00013824
0.00013824
0.00013824
0.00013824
0.00013824
0.00013824
0.00013824
0.00013824
0.00013824
0.00013824
0.00013824
0.00013824
0.00013824
0.00013824
0.00013824
0.00013824
0.00013824
0.00013824
0.00013824
0.00013824
0.00013824
0.00013824
0.00013824
0.00013824
0.00013824
0.00013824
0.00013824
0.00013824
0.00013824