/*--------------------------------*- C++ -*----------------------------------*\
| =========                 |                                                 |
| \\      /  F ield         | OpenFOAM: The Open Source CFD Toolbox           |
|  \\    /   O peration     | Version:  2406                                  |
|   \\  /    A nd           | Website:  www.openfoam.com                      |
|    \\/     M anipulation  |                                                 |
\*---------------------------------------------------------------------------*/
FoamFile
{
    version     2.0;
    format      ascii;
    arch        "LSB;label=32;scalar=64";
    class       volScalarField;
    location    "9.05";
    object      C_0;
}
// * * * * * * * * * * * * * * * * * * * * * * * * * * * * * * * * * * * * * //

dimensions      [1 -3 0 0 0 0 0];

internalField   nonuniform List<scalar> 
14400
(
0.216073
0.215269
0.213847
0.212098
0.210326
0.208797
0.20771
0.207191
0.207286
0.207961
0.209103
0.210513
0.211903
0.212914
0.213149
0.212273
0.210162
0.207039
0.203313
0.199438
0.195823
0.192816
0.190707
0.189749
0.190175
0.192223
0.196145
0.202211
0.21071
0.221939
0.236208
0.253831
0.275135
0.300451
0.330098
0.364323
0.403129
0.445404
0.482662
0.508595
0.527724
0.544073
0.557883
0.569341
0.578588
0.58573
0.590848
0.593999
0.595219
0.594528
0.591928
0.587402
0.580919
0.572426
0.56185
0.549093
0.534025
0.516477
0.496224
0.468059
0.428659
0.38637
0.347778
0.313826
0.284482
0.259478
0.238485
0.22116
0.207161
0.196141
0.187755
0.181668
0.177579
0.175242
0.174475
0.175151
0.177194
0.180566
0.185259
0.191289
0.198677
0.207432
0.217515
0.22879
0.240937
0.253263
0.26406
0.270002
0.269047
0.263214
0.255271
0.246964
0.239021
0.231826
0.225585
0.220388
0.216243
0.213094
0.210838
0.209335
0.208425
0.207946
0.207758
0.207768
0.207956
0.208382
0.209179
0.210527
0.212629
0.215691
0.219901
0.225421
0.23237
0.240811
0.25073
0.262004
0.274342
0.287157
0.299186
0.306713
0.221394
0.220391
0.218655
0.216563
0.214483
0.212715
0.211476
0.210895
0.211024
0.211829
0.213195
0.214915
0.216683
0.218091
0.218647
0.217865
0.215499
0.211921
0.207691
0.203349
0.199346
0.196038
0.193717
0.192629
0.193003
0.19507
0.199075
0.205282
0.213973
0.22544
0.239989
0.257933
0.2796
0.30532
0.335402
0.370072
0.409285
0.451805
0.48745
0.511698
0.530504
0.54661
0.560236
0.571553
0.580692
0.587754
0.592815
0.595929
0.59713
0.596438
0.593853
0.58936
0.582929
0.574509
0.564032
0.551404
0.536504
0.519177
0.499221
0.472758
0.434822
0.392064
0.352965
0.318535
0.288739
0.263314
0.241934
0.224254
0.209931
0.198624
0.189991
0.183706
0.179471
0.177042
0.176234
0.176921
0.179024
0.182509
0.187373
0.193635
0.201322
0.21045
0.220988
0.232813
0.245623
0.258725
0.270025
0.275769
0.27547
0.269493
0.261054
0.252267
0.243903
0.236358
0.229843
0.224447
0.220177
0.216973
0.214724
0.213279
0.21246
0.212077
0.211963
0.212001
0.212162
0.212519
0.213229
0.214501
0.216563
0.219638
0.223926
0.229596
0.236769
0.245512
0.255816
0.267564
0.280474
0.293919
0.30628
0.313079
0.232551
0.231076
0.228633
0.225805
0.223081
0.220821
0.219266
0.21856
0.218754
0.219818
0.221635
0.223988
0.226544
0.228818
0.230133
0.229633
0.22663
0.222011
0.216696
0.211387
0.206591
0.202677
0.199926
0.198575
0.198838
0.200934
0.205095
0.211573
0.220635
0.232566
0.247666
0.266247
0.288634
0.315154
0.346103
0.381647
0.421519
0.463719
0.495978
0.517785
0.535985
0.551627
0.564898
0.575942
0.584873
0.59178
0.59673
0.599771
0.600936
0.60024
0.597685
0.593256
0.586926
0.57865
0.568364
0.555987
0.541412
0.524505
0.505096
0.48129
0.446306
0.403257
0.363362
0.328028
0.297344
0.271086
0.248937
0.230556
0.215598
0.203726
0.194608
0.187929
0.183401
0.180784
0.179893
0.180599
0.182826
0.186542
0.19175
0.198478
0.206765
0.216635
0.228069
0.240952
0.254987
0.26942
0.281301
0.286664
0.287214
0.281819
0.272681
0.263015
0.253843
0.245622
0.238577
0.2328
0.228296
0.224999
0.222786
0.221481
0.220868
0.220705
0.220761
0.220863
0.22096
0.221154
0.22166
0.222752
0.224708
0.227786
0.232211
0.23816
0.245761
0.255085
0.266124
0.27877
0.292738
0.30731
0.319639
0.324767
0.250553
0.248133
0.244423
0.240366
0.236609
0.233578
0.231537
0.230634
0.230924
0.232375
0.234871
0.238193
0.241994
0.245722
0.248489
0.248777
0.244357
0.237849
0.230744
0.22392
0.217915
0.213083
0.209683
0.207925
0.208007
0.210127
0.214498
0.221354
0.230947
0.243551
0.259458
0.278978
0.30243
0.330136
0.362374
0.399249
0.440129
0.479666
0.506856
0.526681
0.544023
0.559016
0.571786
0.582444
0.591078
0.597763
0.602553
0.60549
0.606602
0.605901
0.603389
0.599054
0.59287
0.5848
0.574788
0.562768
0.548651
0.532333
0.513687
0.492381
0.46207
0.420015
0.379138
0.342481
0.310477
0.282982
0.259698
0.240285
0.224399
0.211704
0.201879
0.194623
0.18966
0.18676
0.185741
0.186476
0.188892
0.19296
0.198693
0.206126
0.215309
0.226277
0.239017
0.253409
0.269098
0.285039
0.296839
0.301818
0.30309
0.299818
0.290304
0.279455
0.269143
0.25996
0.252163
0.245853
0.241036
0.237642
0.235531
0.234496
0.234265
0.234511
0.234887
0.235107
0.235075
0.234951
0.235069
0.235814
0.237545
0.240574
0.245155
0.25148
0.259682
0.269828
0.281903
0.29577
0.311054
0.326603
0.337209
0.340785
0.276842
0.272543
0.266742
0.260843
0.255619
0.251523
0.248818
0.247646
0.248056
0.250017
0.253415
0.258037
0.263541
0.269376
0.274549
0.27662
0.269403
0.259901
0.250243
0.24136
0.233743
0.227691
0.223421
0.221111
0.220927
0.223047
0.227661
0.234982
0.245248
0.258719
0.275677
0.296422
0.321265
0.350502
0.384358
0.422762
0.464231
0.497322
0.519478
0.538052
0.554408
0.568627
0.580788
0.590969
0.599234
0.605639
0.610229
0.613035
0.61408
0.613374
0.610917
0.6067
0.600702
0.59289
0.583222
0.571644
0.558091
0.54249
0.524762
0.504846
0.479986
0.442787
0.400532
0.362118
0.328387
0.299272
0.274503
0.253746
0.236659
0.222908
0.212179
0.204183
0.198662
0.195395
0.194212
0.194991
0.197664
0.202209
0.208643
0.217012
0.227372
0.239763
0.254178
0.270482
0.288195
0.305421
0.315667
0.320442
0.322316
0.321289
0.313692
0.30177
0.290133
0.279776
0.271051
0.264091
0.258916
0.255458
0.253569
0.253005
0.253425
0.254381
0.255337
0.255772
0.255485
0.254773
0.254199
0.254332
0.255645
0.258516
0.263233
0.269998
0.278942
0.290117
0.303474
0.318801
0.335453
0.350552
0.357568
0.360213
0.312605
0.304906
0.296044
0.287684
0.280575
0.275134
0.271596
0.270086
0.270642
0.273229
0.277728
0.283924
0.291466
0.299744
0.307184
0.30785
0.301001
0.288101
0.275392
0.264044
0.254482
0.246945
0.241598
0.238585
0.238046
0.24013
0.245008
0.252872
0.263942
0.278464
0.296707
0.318956
0.345493
0.376557
0.412222
0.451864
0.489766
0.515182
0.534393
0.551641
0.566932
0.580295
0.591771
0.601409
0.609249
0.615332
0.619688
0.622342
0.623309
0.622597
0.620206
0.616128
0.610347
0.602837
0.593566
0.582496
0.569581
0.554773
0.538025
0.519297
0.498314
0.4686
0.427087
0.387082
0.351356
0.320287
0.293708
0.271314
0.25277
0.237748
0.225941
0.217069
0.210888
0.207194
0.205826
0.206675
0.209679
0.214821
0.222126
0.231641
0.243427
0.257526
0.273919
0.292422
0.312274
0.328996
0.337131
0.341949
0.344368
0.344517
0.341005
0.329893
0.317104
0.305472
0.295695
0.287999
0.282444
0.278989
0.277493
0.277683
0.279147
0.281292
0.283298
0.284139
0.283344
0.28156
0.279813
0.278948
0.279568
0.282118
0.286915
0.29416
0.303961
0.316337
0.331153
0.347987
0.365371
0.376011
0.380195
0.382286
0.349306
0.343647
0.332065
0.321024
0.311768
0.304775
0.30027
0.298368
0.299095
0.302406
0.30817
0.316112
0.325744
0.335863
0.34054
0.338867
0.334657
0.321564
0.306153
0.292222
0.280503
0.271265
0.264659
0.260805
0.259819
0.261832
0.266994
0.275478
0.287484
0.303239
0.322998
0.347018
0.375529
0.408641
0.446037
0.485492
0.514007
0.53364
0.551265
0.567189
0.581384
0.593848
0.604594
0.613645
0.621023
0.626751
0.63085
0.633335
0.634216
0.633499
0.631182
0.62726
0.621719
0.614543
0.60571
0.595192
0.582963
0.568995
0.553267
0.535768
0.516504
0.493661
0.459201
0.41771
0.379732
0.346417
0.317733
0.293424
0.273179
0.25668
0.243632
0.233762
0.22684
0.222674
0.221118
0.222071
0.225482
0.23134
0.239671
0.250526
0.263961
0.280006
0.298592
0.31934
0.340592
0.354079
0.36104
0.365856
0.36869
0.369672
0.369005
0.363187
0.35021
0.337382
0.326498
0.318011
0.312067
0.308698
0.307804
0.309095
0.312113
0.316146
0.320054
0.321704
0.319869
0.316185
0.312564
0.31021
0.309794
0.31182
0.316624
0.324377
0.335119
0.348816
0.365108
0.382876
0.395977
0.401596
0.404805
0.40645
0.382675
0.381228
0.373407
0.360644
0.349307
0.34069
0.335146
0.332822
0.333741
0.337849
0.344982
0.354646
0.365655
0.372857
0.373069
0.371152
0.368134
0.359443
0.342527
0.326151
0.312169
0.301073
0.293054
0.288232
0.286718
0.288633
0.294108
0.303295
0.31637
0.333542
0.35504
0.381075
0.411776
0.447006
0.485347
0.515869
0.536212
0.553731
0.569839
0.584465
0.597566
0.609118
0.619113
0.627553
0.634446
0.6398
0.643626
0.645931
0.646722
0.646
0.643764
0.640009
0.634728
0.627908
0.619537
0.6096
0.598083
0.584978
0.570281
0.554005
0.536179
0.516862
0.491467
0.45334
0.413698
0.378067
0.347049
0.320567
0.298379
0.2802
0.265747
0.25476
0.247017
0.242341
0.240598
0.241698
0.245596
0.252285
0.261792
0.274166
0.289452
0.307646
0.328575
0.35143
0.370951
0.380521
0.38699
0.391745
0.394862
0.396468
0.396743
0.395668
0.388795
0.375559
0.363709
0.354456
0.348115
0.344896
0.344827
0.347567
0.352635
0.359294
0.366203
0.369296
0.365586
0.35904
0.352758
0.348461
0.346656
0.347943
0.352684
0.360976
0.372662
0.38763
0.404596
0.418283
0.424944
0.428492
0.430978
0.432258
0.415934
0.415667
0.413498
0.405433
0.392991
0.382946
0.376397
0.37367
0.374781
0.379671
0.38814
0.39878
0.406423
0.40786
0.406493
0.404507
0.401745
0.397415
0.3843
0.366045
0.349832
0.3368
0.32725
0.321353
0.319239
0.321036
0.326865
0.336853
0.351139
0.369899
0.393327
0.421534
0.454347
0.49056
0.521567
0.542421
0.559374
0.575235
0.589893
0.603267
0.615298
0.625946
0.635188
0.64301
0.649407
0.654377
0.657922
0.660042
0.66074
0.660014
0.657864
0.654286
0.649275
0.642825
0.63493
0.625587
0.614793
0.602552
0.588876
0.573791
0.557339
0.539587
0.520431
0.492882
0.453426
0.41569
0.382179
0.35328
0.328911
0.308845
0.292818
0.280585
0.271935
0.266706
0.264775
0.266063
0.270528
0.278165
0.288996
0.303059
0.320371
0.340838
0.363948
0.38738
0.401133
0.40863
0.414655
0.419271
0.422546
0.424595
0.425582
0.425725
0.424658
0.418498
0.406959
0.397375
0.39065
0.387586
0.388557
0.392929
0.39997
0.4087
0.413271
0.41468
0.413302
0.408509
0.399776
0.39367
0.390201
0.390567
0.395204
0.404095
0.416427
0.431886
0.44394
0.45042
0.453739
0.456448
0.458359
0.459346
0.449459
0.449383
0.449312
0.447492
0.441232
0.430961
0.423837
0.420852
0.422085
0.427357
0.436429
0.442104
0.443405
0.442061
0.440534
0.43864
0.436262
0.433358
0.427098
0.411362
0.393685
0.378858
0.367728
0.360669
0.357891
0.359565
0.365807
0.376709
0.392342
0.412817
0.438276
0.468569
0.502322
0.532033
0.552438
0.56841
0.583627
0.59794
0.611232
0.623413
0.634412
0.64418
0.652681
0.659891
0.665794
0.670379
0.673642
0.675576
0.676181
0.675454
0.673393
0.669995
0.66526
0.659186
0.651773
0.643025
0.632949
0.621559
0.608879
0.594943
0.579801
0.563517
0.546171
0.526985
0.498285
0.459606
0.423617
0.392112
0.365342
0.343189
0.325417
0.311799
0.302144
0.296305
0.29418
0.295695
0.300811
0.309512
0.321808
0.337705
0.357168
0.379947
0.404708
0.422707
0.4314
0.438163
0.443729
0.448139
0.451457
0.453784
0.455264
0.456087
0.456497
0.456257
0.452235
0.445602
0.438825
0.435869
0.437996
0.443496
0.448621
0.451736
0.452289
0.452264
0.453072
0.452786
0.449912
0.444706
0.439687
0.439189
0.443645
0.453053
0.464426
0.473048
0.477942
0.480651
0.483144
0.485202
0.486663
0.487421
0.48306
0.483095
0.48323
0.483597
0.483207
0.479949
0.475681
0.47298
0.474085
0.477253
0.479669
0.479496
0.477895
0.476445
0.474944
0.473256
0.471304
0.469075
0.466615
0.459367
0.443431
0.427547
0.414921
0.406659
0.403159
0.40472
0.41145
0.4234
0.440483
0.462635
0.489926
0.521104
0.547547
0.566269
0.580926
0.595155
0.608783
0.621666
0.633683
0.644739
0.654758
0.663682
0.671467
0.67808
0.683499
0.687705
0.690689
0.69244
0.692954
0.692227
0.690257
0.687042
0.682584
0.676885
0.669951
0.66179
0.652419
0.641858
0.630139
0.617302
0.603403
0.58851
0.572704
0.556078
0.536992
0.50851
0.471501
0.437504
0.408217
0.383834
0.364157
0.349011
0.338234
0.331716
0.329378
0.331159
0.337009
0.346888
0.36077
0.378568
0.400076
0.424383
0.445347
0.455923
0.462876
0.468892
0.473959
0.478098
0.481358
0.483821
0.485605
0.486862
0.487785
0.488602
0.489524
0.488405
0.486404
0.485306
0.485944
0.487391
0.488013
0.487097
0.486735
0.486926
0.487741
0.489167
0.491021
0.490961
0.490517
0.491363
0.494792
0.499823
0.504572
0.507113
0.509063
0.511094
0.512983
0.514553
0.515672
0.516254
0.516625
0.516708
0.516915
0.517323
0.518039
0.519104
0.518694
0.517868
0.517692
0.517401
0.515483
0.513721
0.512233
0.510879
0.50954
0.508135
0.506625
0.505018
0.503375
0.501765
0.495279
0.482343
0.468931
0.459607
0.455362
0.456868
0.464155
0.477289
0.495799
0.518916
0.546402
0.568024
0.583816
0.59688
0.609841
0.6225
0.634686
0.646258
0.657095
0.667102
0.676198
0.684322
0.691423
0.697464
0.702415
0.706255
0.708968
0.710542
0.710969
0.710244
0.708366
0.705333
0.701149
0.69582
0.689354
0.681767
0.673078
0.663315
0.652515
0.640724
0.628
0.614415
0.600056
0.585023
0.569438
0.551233
0.524448
0.48951
0.457929
0.431355
0.409661
0.392855
0.380825
0.373539
0.370962
0.373045
0.379716
0.390868
0.406415
0.425992
0.448794
0.470867
0.482696
0.489308
0.495289
0.500569
0.505117
0.508936
0.512055
0.514537
0.516471
0.517972
0.519178
0.520242
0.521314
0.522506
0.523614
0.523926
0.523385
0.522244
0.521294
0.520744
0.520627
0.520965
0.521795
0.523133
0.525011
0.527539
0.530321
0.532513
0.534615
0.536095
0.53716
0.538545
0.5401
0.541681
0.543141
0.544353
0.545218
0.545668
0.550107
0.550198
0.550398
0.55074
0.551247
0.551889
0.552495
0.552659
0.551852
0.550476
0.549031
0.547672
0.546438
0.545297
0.544202
0.543119
0.542041
0.540998
0.540063
0.539356
0.539036
0.535242
0.528057
0.518872
0.514225
0.515935
0.523681
0.537812
0.557042
0.576493
0.592735
0.604829
0.616105
0.627591
0.639058
0.650316
0.661204
0.671583
0.681339
0.690375
0.698612
0.705984
0.71244
0.717937
0.722442
0.725932
0.728385
0.72979
0.730135
0.729415
0.727629
0.724775
0.72086
0.71589
0.709879
0.702845
0.694812
0.685811
0.675882
0.665077
0.653456
0.641095
0.628082
0.614522
0.600541
0.586284
0.569963
0.546334
0.514227
0.486162
0.462465
0.443946
0.430517
0.422356
0.419501
0.421918
0.429497
0.441931
0.459106
0.479673
0.50025
0.51194
0.517805
0.523319
0.528401
0.532978
0.537006
0.540472
0.543391
0.545802
0.54777
0.549375
0.550712
0.551876
0.552943
0.553933
0.554733
0.555111
0.554975
0.554548
0.554147
0.553957
0.554063
0.554514
0.555341
0.556557
0.558165
0.560135
0.562287
0.564358
0.565992
0.567324
0.568539
0.569805
0.571112
0.572389
0.573548
0.574502
0.57518
0.575532
0.583498
0.583577
0.58374
0.583993
0.584322
0.584674
0.584923
0.584872
0.584353
0.58349
0.582496
0.581496
0.58055
0.57967
0.578853
0.578098
0.577423
0.576871
0.576522
0.576499
0.576979
0.578225
0.578405
0.577167
0.577004
0.579922
0.587213
0.597737
0.609304
0.619999
0.628819
0.638273
0.648184
0.658321
0.668485
0.678504
0.688229
0.697532
0.706302
0.714448
0.72189
0.728564
0.734415
0.739401
0.743486
0.746644
0.748852
0.750097
0.750366
0.749654
0.747958
0.745279
0.741624
0.737002
0.731428
0.724922
0.717513
0.709233
0.700127
0.690246
0.679654
0.668427
0.656655
0.644443
0.631917
0.619224
0.606538
0.592968
0.573507
0.547655
0.522593
0.502689
0.487711
0.478589
0.475413
0.478148
0.486716
0.500045
0.518051
0.534072
0.54385
0.548563
0.553235
0.557759
0.562021
0.565937
0.569457
0.572555
0.575233
0.577511
0.579432
0.581048
0.58242
0.583607
0.58465
0.585551
0.586259
0.586695
0.586847
0.586825
0.586791
0.586874
0.587155
0.587687
0.588496
0.589591
0.590959
0.592548
0.594247
0.595902
0.597373
0.59867
0.599866
0.601025
0.602153
0.603216
0.604159
0.604926
0.605467
0.605747
0.61681
0.616872
0.616993
0.617168
0.617373
0.617561
0.617653
0.617552
0.617198
0.616637
0.615965
0.615267
0.614595
0.613981
0.613442
0.612998
0.61268
0.612541
0.612657
0.613137
0.614126
0.61581
0.618405
0.622096
0.625738
0.630008
0.635671
0.641897
0.648077
0.655086
0.662883
0.671262
0.680036
0.689023
0.698057
0.706985
0.715676
0.724012
0.731891
0.739224
0.745937
0.751965
0.757256
0.761765
0.765458
0.768305
0.770284
0.771379
0.771579
0.770876
0.769269
0.76676
0.763355
0.759065
0.753907
0.747904
0.741084
0.733483
0.725146
0.716125
0.706486
0.696303
0.685667
0.674679
0.663462
0.652157
0.640928
0.629969
0.619297
0.604887
0.587395
0.56826
0.551936
0.54211
0.538594
0.541308
0.550649
0.562713
0.572342
0.578514
0.581654
0.585157
0.588814
0.592463
0.595985
0.599293
0.602328
0.605059
0.607473
0.609579
0.611397
0.612963
0.614313
0.615483
0.616498
0.617361
0.618056
0.618562
0.618894
0.619115
0.619319
0.619592
0.619998
0.620581
0.621365
0.622353
0.62353
0.624853
0.626249
0.627631
0.628926
0.630119
0.631229
0.632276
0.633261
0.634162
0.634946
0.635575
0.636016
0.636243
0.650061
0.650106
0.650194
0.650312
0.650441
0.650544
0.650575
0.650486
0.650251
0.649893
0.649461
0.64901
0.648584
0.648216
0.647935
0.64777
0.64776
0.647956
0.648428
0.649265
0.650576
0.652483
0.655099
0.658478
0.6625
0.667008
0.67179
0.67705
0.682882
0.689333
0.696363
0.703856
0.711675
0.71968
0.727733
0.735705
0.743479
0.75095
0.758025
0.764621
0.770668
0.776104
0.780878
0.784947
0.788275
0.790833
0.792599
0.793557
0.793693
0.793003
0.791483
0.789136
0.78597
0.781996
0.777233
0.771703
0.765436
0.758469
0.750847
0.742624
0.733861
0.724635
0.715029
0.705145
0.695095
0.685012
0.675048
0.665373
0.656184
0.647734
0.638754
0.628292
0.618207
0.610432
0.606724
0.607176
0.610155
0.613722
0.615509
0.61692
0.619037
0.621596
0.6244
0.627294
0.630163
0.63292
0.635505
0.63788
0.640023
0.641932
0.643617
0.645094
0.646386
0.647515
0.648497
0.649339
0.650041
0.650605
0.651051
0.651422
0.651778
0.652176
0.652664
0.653275
0.654028
0.654927
0.655956
0.657085
0.658266
0.659446
0.660582
0.661652
0.662654
0.663589
0.664451
0.665226
0.665888
0.666414
0.666779
0.666966
0.683265
0.6833
0.683363
0.683447
0.683534
0.6836
0.683619
0.683564
0.683428
0.683222
0.682977
0.682729
0.682514
0.682365
0.682312
0.682388
0.682633
0.683096
0.683834
0.68492
0.686431
0.688448
0.691031
0.694202
0.697908
0.702073
0.706626
0.711612
0.717067
0.723002
0.72938
0.736123
0.743129
0.750289
0.757489
0.764622
0.771584
0.778284
0.784637
0.790567
0.796009
0.800905
0.805206
0.808869
0.811862
0.814154
0.815724
0.816555
0.816636
0.815959
0.814524
0.812332
0.809393
0.805717
0.801324
0.796238
0.790488
0.78411
0.77715
0.769661
0.761702
0.753345
0.744671
0.735775
0.726761
0.71775
0.708877
0.700291
0.692157
0.684657
0.677959
0.672364
0.667413
0.662685
0.659202
0.657121
0.655302
0.654012
0.653885
0.654609
0.655976
0.657792
0.659895
0.66215
0.664452
0.66672
0.668893
0.670931
0.672807
0.674511
0.676043
0.677409
0.678621
0.679693
0.680636
0.681457
0.682164
0.682765
0.683282
0.683745
0.684195
0.68467
0.685206
0.685827
0.686547
0.687369
0.688282
0.689264
0.690284
0.691307
0.692302
0.693252
0.694145
0.694974
0.695731
0.696401
0.696967
0.697412
0.697719
0.697876
0.716436
0.716463
0.716513
0.716578
0.716647
0.716705
0.716735
0.716725
0.716674
0.71659
0.716495
0.716415
0.716379
0.716417
0.716559
0.716838
0.71729
0.717958
0.718893
0.720148
0.721781
0.723845
0.726377
0.729389
0.732859
0.73675
0.741031
0.745703
0.750772
0.756227
0.762032
0.768126
0.774431
0.780858
0.787314
0.793708
0.799953
0.805966
0.811671
0.817002
0.821896
0.826301
0.83017
0.833464
0.836148
0.838196
0.839587
0.840304
0.840335
0.839674
0.838321
0.836277
0.833551
0.830156
0.82611
0.821437
0.816166
0.810334
0.803984
0.797166
0.78994
0.782371
0.774536
0.766522
0.758424
0.750351
0.742419
0.734756
0.727496
0.720776
0.714723
0.70945
0.70491
0.701103
0.697862
0.695141
0.693135
0.691867
0.69141
0.691655
0.692466
0.693702
0.695237
0.696959
0.698776
0.700614
0.702417
0.704143
0.705764
0.707263
0.708634
0.709878
0.710998
0.712002
0.712897
0.71369
0.714391
0.715011
0.715567
0.716082
0.716585
0.717104
0.717662
0.718279
0.718965
0.719721
0.72054
0.721406
0.722299
0.723194
0.72407
0.724909
0.7257
0.726433
0.727097
0.727679
0.728168
0.728548
0.72881
0.728943
0.74958
0.749603
0.749647
0.749706
0.749772
0.749836
0.74989
0.749928
0.749952
0.74997
0.749998
0.750056
0.75017
0.750366
0.75067
0.751114
0.75173
0.752555
0.753631
0.754999
0.756701
0.758774
0.761244
0.764118
0.767389
0.771037
0.775043
0.779398
0.784091
0.789101
0.794394
0.799919
0.80561
0.811396
0.8172
0.822944
0.828553
0.833954
0.839081
0.843873
0.848273
0.852233
0.85571
0.858666
0.861071
0.862897
0.864124
0.864738
0.864726
0.864083
0.862807
0.860903
0.858378
0.855245
0.851522
0.847233
0.842406
0.837076
0.831286
0.825082
0.81852
0.811662
0.80458
0.797352
0.790064
0.782811
0.775693
0.768818
0.762295
0.756227
0.750708
0.745802
0.741518
0.737846
0.734736
0.732178
0.730229
0.728912
0.728234
0.728136
0.728529
0.729314
0.730392
0.731672
0.733078
0.734544
0.736017
0.737459
0.738841
0.740143
0.741354
0.74247
0.74349
0.744418
0.745258
0.746016
0.7467
0.747321
0.747892
0.748432
0.74896
0.749497
0.75006
0.750663
0.751312
0.752009
0.752749
0.753522
0.754311
0.7551
0.755873
0.756615
0.757315
0.757961
0.758543
0.759052
0.759476
0.759804
0.760029
0.760143
0.7827
0.782723
0.782766
0.782826
0.782898
0.782978
0.783061
0.783146
0.783236
0.783339
0.783469
0.783642
0.78388
0.784205
0.784642
0.785217
0.78596
0.786902
0.788076
0.789515
0.791249
0.793307
0.795705
0.798451
0.801541
0.804965
0.808707
0.812755
0.817092
0.821694
0.826526
0.831545
0.836696
0.841918
0.847146
0.852315
0.85736
0.862217
0.866827
0.871134
0.87509
0.878649
0.881771
0.884421
0.886571
0.888196
0.889276
0.889796
0.889747
0.889123
0.887923
0.88615
0.883813
0.880924
0.877501
0.873566
0.869148
0.86428
0.859
0.853355
0.847395
0.841179
0.834771
0.828242
0.821668
0.815134
0.808724
0.80253
0.796637
0.791131
0.786079
0.781534
0.777515
0.774027
0.771057
0.768607
0.766691
0.765318
0.764476
0.764125
0.764201
0.764633
0.765344
0.766261
0.76732
0.768465
0.76965
0.770837
0.771998
0.773113
0.774169
0.775158
0.776076
0.776923
0.777701
0.778416
0.779073
0.77968
0.780249
0.780793
0.781327
0.781865
0.782419
0.782999
0.783611
0.784255
0.784927
0.78562
0.786323
0.787023
0.787707
0.788364
0.788982
0.789552
0.790064
0.790509
0.790879
0.791164
0.791359
0.791457
0.815798
0.815822
0.815867
0.815934
0.816017
0.816117
0.81623
0.816359
0.816507
0.816683
0.816897
0.817164
0.817503
0.817933
0.818475
0.819153
0.819992
0.821017
0.822256
0.823734
0.825475
0.827499
0.829819
0.83244
0.835361
0.838573
0.842066
0.845824
0.849828
0.854055
0.858471
0.863038
0.867709
0.872432
0.877152
0.881812
0.886355
0.890726
0.894874
0.898748
0.902304
0.905501
0.908303
0.910677
0.912597
0.91404
0.914987
0.915425
0.915344
0.91474
0.913612
0.911962
0.9098
0.907138
0.903992
0.900384
0.896341
0.891894
0.88708
0.881942
0.876527
0.870887
0.865082
0.859176
0.853235
0.847332
0.841541
0.835938
0.830595
0.825578
0.820946
0.816739
0.812982
0.809689
0.80686
0.8045
0.802611
0.801192
0.800228
0.799686
0.799519
0.799673
0.800088
0.800707
0.801476
0.802347
0.80328
0.80424
0.805201
0.806143
0.807051
0.807916
0.808731
0.809496
0.810209
0.810874
0.811494
0.812077
0.812631
0.813165
0.813689
0.814215
0.814752
0.815304
0.815878
0.816472
0.817084
0.817709
0.818338
0.818961
0.819569
0.820151
0.820698
0.821201
0.821652
0.822043
0.822366
0.822615
0.822784
0.82287
0.848873
0.848898
0.848949
0.849023
0.849121
0.849241
0.849384
0.849553
0.849751
0.849987
0.85027
0.850615
0.851035
0.851548
0.852172
0.852928
0.853837
0.854919
0.856197
0.857691
0.859419
0.861395
0.863631
0.866129
0.868888
0.871902
0.875159
0.878646
0.882343
0.886226
0.890266
0.894428
0.898671
0.90295
0.907217
0.911424
0.915521
0.91946
0.923194
0.92668
0.929877
0.932749
0.935262
0.937387
0.9391
0.940379
0.941207
0.941572
0.941465
0.940881
0.939821
0.938287
0.936287
0.933834
0.930944
0.927636
0.923937
0.919875
0.915485
0.910807
0.905883
0.900761
0.895496
0.890143
0.884763
0.879417
0.87417
0.869086
0.864225
0.859642
0.855386
0.851492
0.847987
0.844885
0.842195
0.83992
0.838061
0.836612
0.835557
0.834871
0.834517
0.834452
0.83463
0.835004
0.83553
0.836168
0.836882
0.837642
0.838424
0.839207
0.839977
0.840723
0.841439
0.84212
0.842765
0.843375
0.843954
0.844504
0.845032
0.845545
0.846051
0.846556
0.847067
0.847589
0.848124
0.848671
0.84923
0.849794
0.850358
0.850915
0.851456
0.851972
0.852457
0.852902
0.8533
0.853644
0.853927
0.854145
0.854293
0.854368
0.881921
0.88195
0.882006
0.88209
0.882202
0.882342
0.882513
0.882716
0.882957
0.883243
0.883584
0.883989
0.884474
0.885051
0.885738
0.886551
0.887508
0.888626
0.889922
0.891413
0.893113
0.895033
0.89718
0.899556
0.902161
0.904986
0.908023
0.911257
0.914671
0.91824
0.92194
0.925737
0.929597
0.933479
0.937343
0.941146
0.944845
0.948398
0.951762
0.954901
0.957776
0.960356
0.962609
0.964511
0.966037
0.967168
0.96789
0.96819
0.968061
0.967499
0.966503
0.965077
0.963229
0.960969
0.958313
0.95528
0.951895
0.948184
0.944179
0.939916
0.935435
0.93078
0.925998
0.921139
0.916256
0.911404
0.906637
0.902011
0.897576
0.89338
0.889463
0.885858
0.882588
0.87967
0.877114
0.874925
0.873101
0.871637
0.870519
0.869724
0.869225
0.868987
0.868974
0.869148
0.869472
0.869913
0.870439
0.871024
0.871645
0.872284
0.872926
0.873561
0.87418
0.87478
0.875356
0.875909
0.876441
0.876952
0.877448
0.877933
0.878413
0.878891
0.879373
0.87986
0.880356
0.88086
0.881368
0.881879
0.882387
0.882885
0.883367
0.883826
0.884256
0.88465
0.885002
0.885305
0.885554
0.885746
0.885876
0.885941
0.914942
0.914973
0.915035
0.915129
0.915255
0.915414
0.915608
0.915842
0.916119
0.916446
0.916831
0.917286
0.91782
0.918446
0.919178
0.92003
0.921017
0.922153
0.923452
0.924927
0.926588
0.928444
0.9305
0.932756
0.935212
0.937859
0.94069
0.94369
0.946842
0.950125
0.953515
0.956984
0.960499
0.964027
0.967531
0.970973
0.974316
0.977523
0.980557
0.983384
0.985971
0.988288
0.990309
0.992009
0.993368
0.994367
0.994995
0.995239
0.995092
0.994551
0.993616
0.99229
0.990581
0.988499
0.986058
0.983278
0.980179
0.976787
0.973131
0.969244
0.965162
0.960926
0.956576
0.952158
0.947718
0.943304
0.938964
0.934745
0.93069
0.926839
0.923229
0.919887
0.916837
0.914094
0.911668
0.909564
0.907782
0.906317
0.905156
0.904282
0.903671
0.903298
0.903132
0.903142
0.903298
0.903572
0.903937
0.904369
0.904848
0.905357
0.905882
0.906413
0.906942
0.907462
0.907971
0.908466
0.908947
0.909416
0.909876
0.910328
0.910775
0.911223
0.911671
0.912124
0.912581
0.913043
0.913506
0.913968
0.914424
0.91487
0.915301
0.91571
0.916092
0.916441
0.916752
0.917019
0.917239
0.917408
0.917522
0.91758
0.947932
0.947966
0.948034
0.948136
0.948274
0.94845
0.948665
0.948923
0.949229
0.949589
0.950011
0.950502
0.951073
0.951735
0.952498
0.953375
0.954377
0.955518
0.956807
0.958254
0.959868
0.961655
0.963618
0.965758
0.96807
0.97055
0.973187
0.97597
0.978882
0.981903
0.985013
0.988184
0.991389
0.994598
0.997779
1.0009
1.00392
1.00682
1.00956
1.01211
1.01443
1.01652
1.01833
1.01985
1.02106
1.02194
1.02248
1.02268
1.02252
1.022
1.02112
1.01989
1.01831
1.01639
1.01414
1.01159
1.00876
1.00565
1.00231
0.998766
0.995045
0.991184
0.987222
0.983198
0.979154
0.975131
0.971171
0.967314
0.963598
0.960058
0.956726
0.953626
0.950778
0.948199
0.945899
0.943881
0.942147
0.940692
0.939506
0.938575
0.937881
0.937402
0.937113
0.93699
0.937007
0.93714
0.937367
0.937666
0.93802
0.938414
0.938833
0.939269
0.939712
0.940156
0.940598
0.941035
0.941466
0.941891
0.94231
0.942725
0.943139
0.943552
0.943967
0.944384
0.944803
0.945224
0.945644
0.946061
0.946472
0.946872
0.947256
0.947621
0.94796
0.94827
0.948545
0.948782
0.948976
0.949125
0.949225
0.949276
0.980888
0.980924
0.980997
0.981107
0.981256
0.981446
0.981678
0.981957
0.982286
0.982672
0.98312
0.983639
0.984236
0.984922
0.985704
0.986594
0.9876
0.988734
0.990003
0.991415
0.992976
0.994691
0.996561
0.998585
1.00076
1.00308
1.00554
1.00812
1.01081
1.01359
1.01645
1.01935
1.02228
1.0252
1.02809
1.03092
1.03366
1.03628
1.03875
1.04105
1.04314
1.04502
1.04664
1.048
1.04907
1.04985
1.05032
1.05047
1.0503
1.0498
1.04898
1.04783
1.04637
1.0446
1.04254
1.0402
1.0376
1.03476
1.0317
1.02846
1.02507
1.02154
1.01793
1.01426
1.01057
1.0069
1.00327
0.999742
0.99633
0.993071
0.98999
0.987111
0.984452
0.982027
0.979846
0.977915
0.976233
0.974797
0.973601
0.972632
0.971876
0.971315
0.970929
0.970698
0.9706
0.970615
0.970724
0.970909
0.971154
0.971444
0.971768
0.972116
0.97248
0.972853
0.973231
0.973611
0.973991
0.97437
0.974748
0.975125
0.975503
0.97588
0.97626
0.976641
0.977023
0.977405
0.977785
0.978161
0.97853
0.978888
0.979232
0.979557
0.979858
0.980133
0.980377
0.980586
0.980758
0.980889
0.980978
0.981023
1.01381
1.01385
1.01392
1.01404
1.0142
1.0144
1.01464
1.01494
1.01529
1.01569
1.01616
1.0167
1.01731
1.01801
1.0188
1.0197
1.0207
1.02181
1.02306
1.02443
1.02593
1.02757
1.02935
1.03126
1.03331
1.03548
1.03777
1.04016
1.04265
1.04521
1.04783
1.05049
1.05317
1.05583
1.05846
1.06103
1.06351
1.06588
1.06812
1.07019
1.07208
1.07376
1.07522
1.07643
1.07739
1.07807
1.07847
1.07859
1.07841
1.07793
1.07716
1.07609
1.07474
1.07311
1.07121
1.06906
1.06667
1.06407
1.06128
1.05832
1.05521
1.052
1.04869
1.04534
1.04197
1.03861
1.03529
1.03205
1.02891
1.0259
1.02305
1.02038
1.01789
1.01561
1.01354
1.0117
1.01007
1.00866
1.00747
1.00648
1.00568
1.00505
1.00459
1.00427
1.00408
1.004
1.00401
1.00409
1.00424
1.00444
1.00468
1.00495
1.00524
1.00554
1.00586
1.00619
1.00652
1.00685
1.00719
1.00753
1.00787
1.00821
1.00855
1.0089
1.00924
1.00959
1.00993
1.01027
1.0106
1.01092
1.01123
1.01152
1.01178
1.01203
1.01224
1.01243
1.01258
1.0127
1.01277
1.01281
1.04669
1.04673
1.04681
1.04693
1.0471
1.04731
1.04756
1.04787
1.04823
1.04865
1.04913
1.04968
1.0503
1.05101
1.0518
1.05269
1.05368
1.05477
1.05598
1.0573
1.05875
1.06031
1.062
1.06381
1.06573
1.06776
1.06989
1.07211
1.07441
1.07677
1.07918
1.08162
1.08406
1.0865
1.08889
1.09123
1.09348
1.09563
1.09765
1.09952
1.10122
1.10273
1.10404
1.10512
1.10597
1.10657
1.10692
1.107
1.10681
1.10636
1.10563
1.10464
1.10339
1.10188
1.10013
1.09816
1.09597
1.09358
1.09103
1.08831
1.08547
1.08253
1.07951