/*--------------------------------*- C++ -*----------------------------------*\
| =========                 |                                                 |
| \\      /  F ield         | OpenFOAM: The Open Source CFD Toolbox           |
|  \\    /   O peration     | Version:  2406                                  |
|   \\  /    A nd           | Website:  www.openfoam.com                      |
|    \\/     M anipulation  |                                                 |
\*---------------------------------------------------------------------------*/
FoamFile
{
    version     2.0;
    format      ascii;
    arch        "LSB;label=32;scalar=64";
    class       volScalarField;
    location    "9.05";
    object      Da;
}
// * * * * * * * * * * * * * * * * * * * * * * * * * * * * * * * * * * * * * //

dimensions      [0 2 -1 0 0 0 0];

internalField   nonuniform List<scalar> 
14400
(
5.06545e-05
5.06497e-05
5.06498e-05
5.06616e-05
5.06845e-05
5.07116e-05
5.07349e-05
5.07482e-05
5.07499e-05
5.07439e-05
5.07392e-05
5.07471e-05
5.07772e-05
5.08295e-05
5.08871e-05
5.09151e-05
5.08874e-05
5.08263e-05
5.07518e-05
5.06604e-05
5.05301e-05
5.03313e-05
5.0036e-05
4.96249e-05
4.90948e-05
4.84642e-05
4.7774e-05
4.70778e-05
4.64266e-05
4.58558e-05
4.53826e-05
4.50117e-05
4.47434e-05
4.45824e-05
4.45475e-05
4.46967e-05
4.52239e-05
4.71357e-05
6.03783e-05
7.79956e-05
7.8e-05
7.8e-05
7.8e-05
7.8e-05
7.8e-05
7.8e-05
7.8e-05
7.8e-05
7.8e-05
7.8e-05
7.8e-05
7.8e-05
7.8e-05
7.8e-05
7.8e-05
7.8e-05
7.8e-05
7.8e-05
7.79676e-05
5.6497e-05
4.69906e-05
4.5398e-05
4.49757e-05
4.49194e-05
4.50666e-05
4.5375e-05
4.58411e-05
4.64764e-05
4.72898e-05
4.82662e-05
4.93442e-05
5.04212e-05
5.13906e-05
5.21767e-05
5.27397e-05
5.30667e-05
5.3162e-05
5.30414e-05
5.27313e-05
5.22708e-05
5.17159e-05
5.11407e-05
5.06382e-05
5.03267e-05
5.04033e-05
5.14421e-05
5.6651e-05
7.7589e-05
6.05341e-05
5.12222e-05
4.93821e-05
4.88209e-05
4.86776e-05
4.87373e-05
4.89117e-05
4.91506e-05
4.94189e-05
4.96895e-05
4.99413e-05
5.01586e-05
5.0329e-05
5.04425e-05
5.04904e-05
5.04653e-05
5.03641e-05
5.01887e-05
4.9945e-05
4.96422e-05
4.92922e-05
4.89107e-05
4.85181e-05
4.81392e-05
4.78017e-05
4.75359e-05
4.73778e-05
4.73808e-05
4.76528e-05
4.85078e-05
5.15144e-05
7.43311e-05
5.02848e-05
5.02492e-05
5.02054e-05
5.01744e-05
5.01619e-05
5.01636e-05
5.0172e-05
5.01809e-05
5.01888e-05
5.01997e-05
5.02229e-05
5.0271e-05
5.03548e-05
5.04741e-05
5.06006e-05
5.06656e-05
5.06004e-05
5.04774e-05
5.03487e-05
5.02186e-05
5.00648e-05
4.98563e-05
4.95647e-05
4.91717e-05
4.86755e-05
4.80941e-05
4.74639e-05
4.68313e-05
4.62394e-05
4.5719e-05
4.52861e-05
4.49468e-05
4.47042e-05
4.45658e-05
4.45547e-05
4.47355e-05
4.5326e-05
4.75252e-05
6.54334e-05
7.79997e-05
7.8e-05
7.8e-05
7.8e-05
7.8e-05
7.8e-05
7.8e-05
7.8e-05
7.8e-05
7.8e-05
7.8e-05
7.8e-05
7.8e-05
7.8e-05
7.8e-05
7.8e-05
7.8e-05
7.8e-05
7.8e-05
7.79965e-05
6.10823e-05
4.73772e-05
4.548e-05
4.49974e-05
4.49109e-05
4.50323e-05
4.53122e-05
4.57421e-05
4.63289e-05
4.70794e-05
4.79812e-05
4.89844e-05
5.00003e-05
5.09286e-05
5.16904e-05
5.22407e-05
5.25624e-05
5.26572e-05
5.25407e-05
5.22406e-05
5.17987e-05
5.12736e-05
5.07405e-05
5.02913e-05
5.00447e-05
5.02173e-05
5.15659e-05
5.93798e-05
7.79183e-05
6.55218e-05
5.15335e-05
4.93049e-05
4.86397e-05
4.84305e-05
4.84338e-05
4.85558e-05
4.87466e-05
4.89732e-05
4.92113e-05
4.94418e-05
4.96495e-05
4.98205e-05
4.9941e-05
4.9997e-05
4.99763e-05
4.98741e-05
4.96955e-05
4.94526e-05
4.91595e-05
4.88312e-05
4.84833e-05
4.8134e-05
4.78047e-05
4.75194e-05
4.73062e-05
4.72017e-05
4.72661e-05
4.76353e-05
4.87517e-05
5.29622e-05
7.70841e-05
4.96986e-05
4.95912e-05
4.94556e-05
4.93428e-05
4.92671e-05
4.92246e-05
4.9207e-05
4.92076e-05
4.92248e-05
4.92628e-05
4.93322e-05
4.94492e-05
4.96317e-05
4.98875e-05
5.01781e-05
5.03501e-05
5.01639e-05
4.98873e-05
4.96424e-05
4.9436e-05
4.92379e-05
4.90129e-05
4.87318e-05
4.83771e-05
4.79467e-05
4.7455e-05
4.69296e-05
4.64046e-05
4.59125e-05
4.54774e-05
4.51141e-05
4.4831e-05
4.46356e-05
4.45414e-05
4.45805e-05
4.48377e-05
4.55962e-05
4.83683e-05
7.33873e-05
7.8e-05
7.8e-05
7.8e-05
7.8e-05
7.8e-05
7.8e-05
7.8e-05
7.8e-05
7.8e-05
7.8e-05
7.8e-05
7.8e-05
7.8e-05
7.8e-05
7.8e-05
7.8e-05
7.8e-05
7.8e-05
7.8e-05
7.8e-05
6.92107e-05
4.80591e-05
4.56625e-05
4.5055e-05
4.49038e-05
4.49737e-05
4.51996e-05
4.55636e-05
4.60646e-05
4.67044e-05
4.74728e-05
4.83347e-05
4.92244e-05
5.00582e-05
5.07591e-05
5.12749e-05
5.15809e-05
5.16747e-05
5.1571e-05
5.12997e-05
5.09065e-05
5.04522e-05
5.00113e-05
4.96712e-05
4.95501e-05
4.98935e-05
5.1767e-05
6.50245e-05
7.79967e-05
7.30539e-05
5.2169e-05
4.92619e-05
4.83681e-05
4.80283e-05
4.79303e-05
4.79629e-05
4.80728e-05
4.82286e-05
4.84099e-05
4.86009e-05
4.87881e-05
4.89566e-05
4.90875e-05
4.91579e-05
4.9146e-05
4.90436e-05
4.88624e-05
4.86253e-05
4.83542e-05
4.80669e-05
4.77778e-05
4.7501e-05
4.72525e-05
4.7052e-05
4.69251e-05
4.6911e-05
4.70851e-05
4.7648e-05
4.95077e-05
6.09222e-05
7.79872e-05
4.91586e-05
4.89063e-05
4.86235e-05
4.84007e-05
4.8249e-05
4.81566e-05
4.81099e-05
4.81005e-05
4.81262e-05
4.81918e-05
4.83101e-05
4.85049e-05
4.88125e-05
4.92789e-05
4.99122e-05
5.04337e-05
4.98326e-05
4.92363e-05
4.88071e-05
4.84959e-05
4.82429e-05
4.80015e-05
4.7739e-05
4.74366e-05
4.70892e-05
4.67042e-05
4.6299e-05
4.58957e-05
4.55166e-05
4.51801e-05
4.48999e-05
4.46872e-05
4.45546e-05
4.45244e-05
4.46471e-05
4.50683e-05
4.64375e-05
5.42874e-05
7.79358e-05
7.8e-05
7.8e-05
7.8e-05
7.8e-05
7.8e-05
7.8e-05
7.8e-05
7.8e-05
7.8e-05
7.8e-05
7.8e-05
7.8e-05
7.8e-05
7.8e-05
7.8e-05
7.8e-05
7.8e-05
7.8e-05
7.8e-05
7.8e-05
7.69401e-05
4.98016e-05
4.6105e-05
4.51925e-05
4.49189e-05
4.49081e-05
4.50587e-05
4.5337e-05
4.57317e-05
4.62372e-05
4.68426e-05
4.75232e-05
4.82348e-05
4.89175e-05
4.95079e-05
4.99548e-05
5.0228e-05
5.03204e-05
5.02448e-05
5.0032e-05
4.97281e-05
4.93918e-05
4.90918e-05
4.89101e-05
4.89712e-05
4.95703e-05
5.20903e-05
7.21026e-05
7.8e-05
7.78726e-05
5.67934e-05
4.9684e-05
4.8165e-05
4.7607e-05
4.73749e-05
4.73021e-05
4.73216e-05
4.73999e-05
4.75181e-05
4.76633e-05
4.78246e-05
4.79879e-05
4.81306e-05
4.82203e-05
4.82209e-05
4.81193e-05
4.79359e-05
4.7708e-05
4.74653e-05
4.72261e-05
4.70021e-05
4.68033e-05
4.66414e-05
4.6533e-05
4.6504e-05
4.66004e-05
4.69239e-05
4.77763e-05
5.06289e-05
7.23203e-05
7.8e-05
4.90697e-05
4.84543e-05
4.79282e-05
4.75672e-05
4.73347e-05
4.71938e-05
4.71198e-05
4.71005e-05
4.71328e-05
4.72222e-05
4.73851e-05
4.76566e-05
4.81076e-05
4.88958e-05
5.03988e-05
5.31641e-05
5.00317e-05
4.87274e-05
4.80301e-05
4.75966e-05
4.72878e-05
4.70325e-05
4.679e-05
4.65384e-05
4.62682e-05
4.59805e-05
4.56837e-05
4.53909e-05
4.51167e-05
4.48751e-05
4.46791e-05
4.45423e-05
4.44833e-05
4.45366e-05
4.4784e-05
4.54894e-05
4.80675e-05
7.0765e-05
7.8e-05
7.8e-05
7.8e-05
7.8e-05
7.8e-05
7.8e-05
7.8e-05
7.8e-05
7.8e-05
7.8e-05
7.8e-05
7.8e-05
7.8e-05
7.8e-05
7.8e-05
7.8e-05
7.8e-05
7.8e-05
7.8e-05
7.8e-05
7.8e-05
7.79993e-05
6.37501e-05
4.74473e-05
4.54916e-05
4.49861e-05
4.48582e-05
4.4915e-05
4.5097e-05
4.53798e-05
4.57501e-05
4.6194e-05
4.66916e-05
4.72128e-05
4.77181e-05
4.81638e-05
4.85109e-05
4.87333e-05
4.88224e-05
4.87886e-05
4.86589e-05
4.84737e-05
4.82833e-05
4.81487e-05
4.81529e-05
4.8455e-05
4.95573e-05
5.43603e-05
7.75109e-05
7.8e-05
7.8e-05
7.16566e-05
5.10236e-05
4.82046e-05
4.72969e-05
4.68963e-05
4.67132e-05
4.66479e-05
4.66579e-05
4.67224e-05
4.68297e-05
4.69711e-05
4.71351e-05
4.72979e-05
4.74182e-05
4.74365e-05
4.733e-05
4.71331e-05
4.6905e-05
4.6682e-05
4.64813e-05
4.63113e-05
4.61788e-05
4.60931e-05
4.60707e-05
4.61422e-05
4.63705e-05
4.69254e-05
4.85496e-05
5.76147e-05
7.79592e-05
7.8e-05
5.10398e-05
4.86089e-05
4.75486e-05
4.69791e-05
4.66467e-05
4.64527e-05
4.63504e-05
4.63209e-05
4.63592e-05
4.64721e-05
4.66818e-05
4.70423e-05
4.76879e-05
4.90883e-05
5.41572e-05
7.45808e-05
5.18655e-05
4.85927e-05
4.74558e-05
4.68713e-05
4.65021e-05
4.62294e-05
4.59995e-05
4.57852e-05
4.55734e-05
4.53602e-05
4.51481e-05
4.49439e-05
4.47571e-05
4.45989e-05
4.44822e-05
4.44236e-05
4.44499e-05
4.46158e-05
4.50755e-05
4.65471e-05
5.5761e-05
7.79712e-05
7.8e-05
7.8e-05
7.8e-05
7.8e-05
7.8e-05
7.8e-05
7.8e-05
7.8e-05
7.8e-05
7.8e-05
7.8e-05
7.8e-05
7.8e-05
7.8e-05
7.8e-05
7.8e-05
7.8e-05
7.8e-05
7.8e-05
7.8e-05
7.8e-05
7.8e-05
7.65554e-05
4.94552e-05
4.60337e-05
4.51517e-05
4.48537e-05
4.47953e-05
4.48743e-05
4.50489e-05
4.52966e-05
4.56002e-05
4.59412e-05
4.62979e-05
4.66442e-05
4.69529e-05
4.71994e-05
4.7367e-05
4.74508e-05
4.74591e-05
4.74127e-05
4.73432e-05
4.72923e-05
4.73168e-05
4.75114e-05
4.811e-05
5.02425e-05
6.61502e-05
7.79992e-05
7.8e-05
7.8e-05
7.7979e-05
5.93357e-05
4.90741e-05
4.72494e-05
4.65906e-05
4.62818e-05
4.61352e-05
4.60875e-05
4.61115e-05
4.61951e-05
4.63322e-05
4.65157e-05
4.67252e-05
4.69122e-05
4.69624e-05
4.68288e-05
4.65792e-05
4.63202e-05
4.60939e-05
4.59118e-05
4.57775e-05
4.56952e-05
4.56738e-05
4.57331e-05
4.59178e-05
4.63284e-05
4.72783e-05
5.04413e-05
7.49363e-05
7.8e-05
7.8e-05
7.26089e-05
5.08101e-05
4.77495e-05
4.6732e-05
4.62332e-05
4.59633e-05
4.58236e-05
4.5781e-05
4.5827e-05
4.59712e-05
4.62485e-05
4.67549e-05
4.77797e-05
5.0838e-05
7.34085e-05
7.79984e-05
6.42111e-05
4.94182e-05
4.71923e-05
4.63788e-05
4.59284e-05
4.56258e-05
4.5395e-05
4.52014e-05
4.50277e-05
4.48663e-05
4.47157e-05
4.45789e-05
4.44624e-05
4.43763e-05
4.43349e-05
4.43608e-05
4.44951e-05
4.48335e-05
4.56867e-05
4.87866e-05
7.55868e-05
7.8e-05
7.8e-05
7.8e-05
7.8e-05
7.8e-05
7.8e-05
7.8e-05
7.8e-05
7.8e-05
7.8e-05
7.8e-05
7.8e-05
7.8e-05
7.8e-05
7.8e-05
7.8e-05
7.8e-05
7.8e-05
7.8e-05
7.8e-05
7.8e-05
7.8e-05
7.8e-05
7.79999e-05
6.76827e-05
4.78869e-05
4.55809e-05
4.49458e-05
4.47294e-05
4.46956e-05
4.47671e-05
4.49086e-05
4.50979e-05
4.53171e-05
4.55487e-05
4.57753e-05
4.59801e-05
4.61492e-05
4.62741e-05
4.63534e-05
4.63949e-05
4.64148e-05
4.64386e-05
4.65039e-05
4.66721e-05
4.70688e-05
4.80561e-05
5.14445e-05
7.61335e-05
7.8e-05
7.8e-05
7.8e-05
7.8e-05
7.70244e-05
5.16976e-05
4.76975e-05
4.65614e-05
4.6072e-05
4.58277e-05
4.57224e-05
4.57147e-05
4.57906e-05
4.59469e-05
4.61901e-05
4.65149e-05
4.69005e-05
4.70439e-05
4.67978e-05
4.63666e-05
4.60048e-05
4.57345e-05
4.55436e-05
4.54251e-05
4.53809e-05
4.54202e-05
4.5573e-05
4.59273e-05
4.67305e-05
4.92561e-05
6.77021e-05
7.79999e-05
7.8e-05
7.8e-05
7.8e-05
6.93529e-05
4.97932e-05
4.70517e-05
4.61564e-05
4.57456e-05
4.55418e-05
4.54784e-05
4.55372e-05
4.57357e-05
4.61429e-05
4.70038e-05
4.95054e-05
6.60056e-05
7.79995e-05
7.8e-05
7.67099e-05
5.1137e-05
4.73388e-05
4.61587e-05
4.55748e-05
4.52161e-05
4.49663e-05
4.47767e-05
4.46237e-05
4.44961e-05
4.43895e-05
4.43046e-05
4.42466e-05
4.42263e-05
4.42634e-05
4.43946e-05
4.47005e-05
4.54298e-05
4.79252e-05
6.90505e-05
7.8e-05
7.8e-05
7.8e-05
7.8e-05
7.8e-05
7.8e-05
7.8e-05
7.8e-05
7.8e-05
7.8e-05
7.8e-05
7.8e-05
7.8e-05
7.8e-05
7.8e-05
7.8e-05
7.8e-05
7.8e-05
7.8e-05
7.8e-05
7.8e-05
7.8e-05
7.8e-05
7.8e-05
7.8e-05
7.79645e-05
5.54497e-05
4.66635e-05
4.52145e-05
4.47546e-05
4.45862e-05
4.45546e-05
4.46022e-05
4.46992e-05
4.48258e-05
4.49669e-05
4.51096e-05
4.52434e-05
4.53605e-05
4.54574e-05
4.55355e-05
4.56025e-05
4.5673e-05
4.57709e-05
4.59365e-05
4.62507e-05
4.69349e-05
4.90767e-05
6.47199e-05
7.7999e-05
7.8e-05
7.8e-05
7.8e-05
7.8e-05
7.8e-05
7.44205e-05
5.02294e-05
4.71276e-05
4.62146e-05
4.57908e-05
4.56024e-05
4.55617e-05
4.56504e-05
4.58701e-05
4.62751e-05
4.69385e-05
4.83642e-05
4.91192e-05
4.80752e-05
4.67373e-05
4.60504e-05
4.56505e-05
4.54051e-05
4.52779e-05
4.52669e-05
4.53837e-05
4.56793e-05
4.6404e-05
4.86063e-05
6.19423e-05
7.7997e-05
7.8e-05
7.8e-05
7.8e-05
7.8e-05
7.79996e-05
6.59934e-05
4.92082e-05
4.66697e-05
4.59009e-05
4.5552e-05
4.54477e-05
4.55324e-05
4.58494e-05
4.65913e-05
4.88346e-05
6.14501e-05
7.79952e-05
7.8e-05
7.8e-05
7.8e-05
6.90151e-05
4.90298e-05
4.63794e-05
4.54726e-05
4.49984e-05
4.47013e-05
4.44973e-05
4.43498e-05
4.42425e-05
4.41685e-05
4.41268e-05
4.41226e-05
4.41712e-05
4.43054e-05
4.46017e-05
4.52779e-05
4.74274e-05
6.2663e-05
7.79991e-05
7.8e-05
7.8e-05
7.8e-05
7.8e-05
7.8e-05
7.8e-05
7.8e-05
7.8e-05
7.8e-05
7.8e-05
7.8e-05
7.8e-05
7.8e-05
7.8e-05
7.8e-05
7.8e-05
7.8e-05
7.8e-05
7.8e-05
7.8e-05
7.8e-05
7.8e-05
7.8e-05
7.8e-05
7.8e-05
7.8e-05
7.66802e-05
4.92846e-05
4.58596e-05
4.49456e-05
4.45837e-05
4.44325e-05
4.43883e-05
4.44055e-05
4.4459e-05
4.4533e-05
4.46166e-05
4.47024e-05
4.47859e-05
4.48665e-05
4.49472e-05
4.50368e-05
4.51512e-05
4.53176e-05
4.55885e-05
4.6086e-05
4.72127e-05
5.13039e-05
7.71526e-05
7.8e-05
7.8e-05
7.8e-05
7.8e-05
7.8e-05
7.8e-05
7.8e-05
7.33014e-05
5.0059e-05
4.72537e-05
4.62477e-05
4.58641e-05
4.57605e-05
4.59144e-05
4.63247e-05
4.73398e-05
4.954e-05
6.18066e-05
7.11222e-05
5.88829e-05
4.90727e-05
4.6837e-05
4.60284e-05
4.56008e-05
4.54111e-05
4.54455e-05
4.57261e-05
4.63448e-05
4.85723e-05
6.12732e-05
7.79936e-05
7.8e-05
7.8e-05
7.8e-05
7.8e-05
7.8e-05
7.8e-05
7.79995e-05
6.72976e-05
4.93321e-05
4.69701e-05
4.60888e-05
4.58786e-05
4.60304e-05
4.67236e-05
4.89898e-05
6.28203e-05
7.79939e-05
7.8e-05
7.8e-05
7.8e-05
7.8e-05
7.79893e-05
5.89235e-05
4.76869e-05
4.57463e-05
4.50076e-05
4.4608e-05
4.43627e-05
4.42037e-05
4.41058e-05
4.40584e-05
4.40596e-05
4.41161e-05
4.42549e-05
4.45451e-05
4.52084e-05
4.72381e-05
5.96845e-05
7.79952e-05
7.8e-05
7.8e-05
7.8e-05
7.8e-05
7.8e-05
7.8e-05
7.8e-05
7.8e-05
7.8e-05
7.8e-05
7.8e-05
7.8e-05
7.8e-05
7.8e-05
7.8e-05
7.8e-05
7.8e-05
7.8e-05
7.8e-05
7.8e-05
7.8e-05
7.8e-05
7.8e-05
7.8e-05
7.8e-05
7.8e-05
7.8e-05
7.8e-05
7.27727e-05
4.83328e-05
4.55655e-05
4.4772e-05
4.44363e-05
4.42822e-05
4.42195e-05
4.42079e-05
4.42275e-05
4.42665e-05
4.43181e-05
4.43798e-05
4.44523e-05
4.45404e-05
4.46551e-05
4.48171e-05
4.50655e-05
4.54884e-05
4.6352e-05
4.90471e-05
7.0601e-05
7.8e-05
7.8e-05
7.8e-05
7.8e-05
7.8e-05
7.8e-05
7.8e-05
7.8e-05
7.8e-05
7.56652e-05
5.34028e-05
4.84741e-05
4.71852e-05
4.67816e-05
4.73372e-05
4.86529e-05
5.42349e-05
7.39132e-05
7.79969e-05
7.8e-05
7.79873e-05
7.1171e-05
5.08621e-05
4.80044e-05
4.66052e-05
4.61087e-05
4.6273e-05
4.73274e-05
4.92335e-05
6.6517e-05
7.79963e-05
7.8e-05
7.8e-05
7.8e-05
7.8e-05
7.8e-05
7.8e-05
7.8e-05
7.8e-05
7.79999e-05
7.34297e-05
5.3391e-05
4.85576e-05
4.79371e-05
4.83706e-05
5.11756e-05
7.06666e-05
7.79982e-05
7.8e-05
7.8e-05
7.8e-05
7.8e-05
7.8e-05
7.8e-05
7.78745e-05
5.35888e-05
4.69642e-05
4.54035e-05
4.4748e-05
4.44055e-05
4.4206e-05
4.41054e-05
4.40853e-05
4.41445e-05
4.42935e-05
4.4597e-05
4.52547e-05
4.74087e-05
6.0475e-05
7.79936e-05
7.8e-05
7.8e-05
7.8e-05
7.8e-05
7.8e-05
7.8e-05
7.8e-05
7.8e-05
7.8e-05
7.8e-05
7.8e-05
7.8e-05
7.8e-05
7.8e-05
7.8e-05
7.8e-05
7.8e-05
7.8e-05
7.8e-05
7.8e-05
7.8e-05
7.8e-05
7.8e-05
7.8e-05
7.8e-05
7.8e-05
7.8e-05
7.8e-05
7.8e-05
7.8e-05
6.86991e-05
4.79551e-05
4.54052e-05
4.46484e-05
4.43193e-05
4.41556e-05
4.40735e-05
4.40409e-05
4.40408e-05
4.40654e-05
4.41123e-05
4.41835e-05
4.42858e-05
4.44344e-05
4.46623e-05
4.50384e-05
4.5762e-05
4.77952e-05
6.08215e-05
7.79961e-05
7.8e-05
7.8e-05
7.8e-05
7.8e-05
7.8e-05
7.8e-05
7.8e-05
7.8e-05
7.8e-05
7.8e-05
7.7836e-05
6.80007e-05
5.52098e-05
5.14857e-05
5.67814e-05
6.96238e-05
7.78928e-05
7.8e-05
7.8e-05
7.8e-05
7.8e-05
7.8e-05
7.72964e-05
6.53752e-05
5.17011e-05
4.89336e-05
4.97802e-05
5.94799e-05
7.45789e-05
7.79998e-05
7.8e-05
7.8e-05
7.8e-05
7.8e-05
7.8e-05
7.8e-05
7.8e-05
7.8e-05
7.8e-05
7.8e-05
7.8e-05
7.78593e-05
7.13214e-05
6.53803e-05
6.99036e-05
7.7495e-05
7.8e-05
7.8e-05
7.8e-05
7.8e-05
7.8e-05
7.8e-05
7.8e-05
7.8e-05
7.8e-05
7.7782e-05
5.3427e-05
4.7074e-05
4.53712e-05
4.4756e-05
4.44335e-05
4.43082e-05
4.43295e-05
4.45134e-05
4.48796e-05
4.56899e-05
4.79665e-05
6.53526e-05
7.79973e-05
7.8e-05
7.8e-05
7.8e-05
7.8e-05
7.8e-05
7.8e-05
7.8e-05
7.8e-05
7.8e-05
7.8e-05
7.8e-05
7.8e-05
7.8e-05
7.8e-05
7.8e-05
7.8e-05
7.8e-05
7.8e-05
7.8e-05
7.8e-05
7.8e-05
7.8e-05
7.8e-05
7.8e-05
7.8e-05
7.8e-05
7.8e-05
7.8e-05
7.8e-05
7.8e-05
7.8e-05
7.79999e-05
6.72207e-05
4.78471e-05
4.53401e-05
4.45988e-05
4.42626e-05
4.40779e-05
4.39812e-05
4.39382e-05
4.39362e-05
4.39725e-05
4.40502e-05
4.41787e-05
4.43825e-05
4.47263e-05
4.53652e-05
4.69383e-05
5.43956e-05
7.79239e-05
7.8e-05
7.8e-05
7.8e-05
7.8e-05
7.8e-05
7.8e-05
7.8e-05
7.8e-05
7.8e-05
7.8e-05
7.8e-05
7.8e-05
7.79999e-05
7.79311e-05
7.752e-05
7.79676e-05
7.8e-05
7.8e-05
7.8e-05
7.8e-05
7.8e-05
7.8e-05
7.8e-05
7.8e-05
7.79996e-05
7.76505e-05
7.50572e-05
7.67743e-05
7.79927e-05
7.8e-05
7.8e-05
7.8e-05
7.8e-05
7.8e-05
7.8e-05
7.8e-05
7.8e-05
7.8e-05
7.8e-05
7.8e-05
7.8e-05
7.8e-05
7.8e-05
7.8e-05
7.79996e-05
7.8e-05
7.8e-05
7.8e-05
7.8e-05
7.8e-05
7.8e-05
7.8e-05
7.8e-05
7.8e-05
7.8e-05
7.8e-05
7.8e-05
7.78914e-05
5.93293e-05
4.7925e-05
4.60594e-05
4.51689e-05
4.4954e-05
4.50748e-05
4.57728e-05
4.71418e-05
5.11891e-05
7.31513e-05
7.79998e-05
7.8e-05
7.8e-05
7.8e-05
7.8e-05
7.8e-05
7.8e-05
7.8e-05
7.8e-05
7.8e-05
7.8e-05
7.8e-05
7.8e-05
7.8e-05
7.8e-05
7.8e-05
7.8e-05
7.8e-05
7.8e-05
7.8e-05
7.8e-05
7.8e-05
7.8e-05
7.8e-05
7.8e-05
7.8e-05
7.8e-05
7.8e-05
7.8e-05
7.8e-05
7.8e-05
7.8e-05
7.8e-05
7.8e-05
7.79999e-05
6.89853e-05
4.80565e-05
4.5499e-05
4.47089e-05
4.42981e-05
4.40941e-05
4.39856e-05
4.39476e-05
4.39752e-05
4.40728e-05
4.42561e-05
4.45683e-05
4.51948e-05
4.67081e-05
5.24584e-05
7.77646e-05
7.8e-05
7.8e-05
7.8e-05
7.8e-05
7.8e-05
7.8e-05
7.8e-05
7.8e-05
7.8e-05
7.8e-05
7.8e-05
7.8e-05
7.8e-05
7.8e-05
7.8e-05
7.8e-05
7.8e-05
7.8e-05
7.8e-05
7.8e-05
7.8e-05
7.8e-05
7.8e-05
7.8e-05
7.8e-05
7.8e-05
7.8e-05
7.8e-05
7.8e-05
7.8e-05
7.8e-05
7.8e-05
7.8e-05
7.8e-05
7.8e-05
7.8e-05
7.8e-05
7.8e-05
7.8e-05
7.8e-05
7.8e-05
7.8e-05
7.8e-05
7.8e-05
7.8e-05
7.8e-05
7.8e-05
7.8e-05
7.8e-05
7.8e-05
7.8e-05
7.8e-05
7.8e-05
7.8e-05
7.8e-05
7.8e-05
7.8e-05
7.8e-05
7.8e-05
7.79949e-05
7.10705e-05
5.4085e-05
4.7981e-05
4.74502e-05
4.78879e-05
5.30008e-05
6.78604e-05
7.77856e-05
7.8e-05
7.8e-05
7.8e-05
7.8e-05
7.8e-05
7.8e-05
7.8e-05
7.8e-05
7.8e-05
7.8e-05
7.8e-05
7.8e-05
7.8e-05
7.8e-05
7.8e-05
7.8e-05
7.8e-05
7.8e-05
7.8e-05
7.8e-05
7.8e-05
7.8e-05
7.8e-05
7.8e-05
7.8e-05
7.8e-05
7.8e-05
7.8e-05
7.8e-05
7.8e-05
7.8e-05
7.8e-05
7.8e-05
7.8e-05
7.8e-05
7.8e-05
7.8e-05
7.36178e-05
4.94167e-05
4.64127e-05
4.5014e-05
4.45482e-05
4.42827e-05
4.417e-05
4.41881e-05
4.43414e-05
4.46762e-05
4.52704e-05
4.71346e-05
5.48043e-05
7.77938e-05
7.8e-05
7.8e-05
7.8e-05
7.8e-05
7.8e-05
7.8e-05
7.8e-05
7.8e-05
7.8e-05
7.8e-05
7.8e-05
7.8e-05
7.8e-05
7.8e-05
7.8e-05
7.8e-05
7.8e-05
7.8e-05
7.8e-05
7.8e-05
7.8e-05
7.8e-05
7.8e-05
7.8e-05
7.8e-05
7.8e-05
7.8e-05
7.8e-05
7.8e-05
7.8e-05
7.8e-05
7.8e-05
7.8e-05
7.8e-05
7.8e-05
7.8e-05
7.8e-05
7.8e-05
7.8e-05
7.8e-05
7.8e-05
7.8e-05
7.8e-05
7.8e-05
7.8e-05
7.8e-05
7.8e-05
7.8e-05
7.8e-05
7.8e-05
7.8e-05
7.8e-05
7.8e-05
7.8e-05
7.8e-05
7.8e-05
7.8e-05
7.8e-05
7.8e-05
7.8e-05
7.8e-05
7.8e-05
7.79458e-05
7.49376e-05
7.22861e-05
7.50899e-05
7.79169e-05
7.8e-05
7.8e-05
7.8e-05
7.8e-05
7.8e-05
7.8e-05
7.8e-05
7.8e-05
7.8e-05
7.8e-05
7.8e-05
7.8e-05
7.8e-05
7.8e-05
7.8e-05
7.8e-05
7.8e-05
7.8e-05
7.8e-05
7.8e-05
7.8e-05
7.8e-05
7.8e-05
7.8e-05
7.8e-05
7.8e-05
7.8e-05
7.8e-05
7.8e-05
7.8e-05
7.8e-05
7.8e-05
7.8e-05
7.8e-05
7.8e-05
7.8e-05
7.8e-05
7.8e-05
7.8e-05
7.8e-05
7.73386e-05
6.00902e-05
4.77905e-05
4.62865e-05
4.5236e-05
4.4863e-05
4.48631e-05
4.52167e-05
4.63352e-05
4.80936e-05
6.32326e-05
7.79567e-05
7.8e-05
7.8e-05
7.8e-05
7.8e-05
7.8e-05
7.8e-05
7.8e-05
7.8e-05
7.8e-05
7.8e-05
7.8e-05
7.8e-05
7.8e-05
7.8e-05
7.8e-05
7.8e-05
7.8e-05
7.8e-05
7.8e-05
7.8e-05
7.8e-05
7.8e-05
7.8e-05
7.8e-05
7.8e-05
7.8e-05
7.8e-05
7.8e-05
7.8e-05
7.8e-05
7.8e-05
7.8e-05
7.8e-05
7.8e-05
7.8e-05
7.8e-05
7.8e-05
7.8e-05
7.8e-05
7.8e-05
7.8e-05
7.8e-05
7.8e-05
7.8e-05
7.8e-05
7.8e-05
7.8e-05
7.8e-05
7.8e-05
7.8e-05
7.8e-05
7.8e-05
7.8e-05
7.8e-05
7.8e-05
7.8e-05
7.8e-05
7.8e-05
7.8e-05
7.8e-05
7.8e-05
7.8e-05
7.8e-05
7.8e-05
7.8e-05
7.8e-05
7.8e-05
7.8e-05
7.8e-05
7.8e-05
7.8e-05
7.8e-05
7.8e-05
7.8e-05
7.8e-05
7.8e-05
7.8e-05
7.8e-05
7.8e-05
7.8e-05
7.8e-05
7.8e-05
7.8e-05
7.8e-05
7.8e-05
7.8e-05
7.8e-05
7.8e-05
7.8e-05
7.8e-05
7.8e-05
7.8e-05
7.8e-05
7.8e-05
7.8e-05
7.8e-05
7.8e-05
7.8e-05
7.8e-05
7.8e-05
7.8e-05
7.8e-05
7.8e-05
7.8e-05
7.8e-05
7.8e-05
7.8e-05
7.8e-05
7.8e-05
7.79976e-05
7.3631e-05
6.0128e-05
4.94102e-05
4.75172e-05
4.74668e-05
4.88307e-05
5.92631e-05
7.39807e-05
7.79994e-05
7.8e-05
7.8e-05
7.8e-05
7.8e-05
7.8e-05
7.8e-05
7.8e-05
7.8e-05
7.8e-05
7.8e-05
7.8e-05
7.8e-05
7.8e-05
7.8e-05
7.8e-05
7.8e-05
7.8e-05
7.8e-05
7.8e-05
7.8e-05
7.8e-05
7.8e-05
7.8e-05
7.8e-05
7.8e-05
7.8e-05
7.8e-05
7.8e-05
7.8e-05
7.8e-05
7.8e-05
7.8e-05
7.8e-05
7.8e-05
7.8e-05
7.8e-05
7.8e-05
7.8e-05
7.8e-05
7.8e-05
7.8e-05
7.8e-05
7.8e-05
7.8e-05
7.8e-05
7.8e-05
7.8e-05
7.8e-05
7.8e-05
7.8e-05
7.8e-05
7.8e-05
7.8e-05
7.8e-05
7.8e-05
7.8e-05
7.8e-05
7.8e-05
7.8e-05
7.8e-05
7.8e-05
7.8e-05
7.8e-05
7.8e-05
7.8e-05
7.8e-05
7.8e-05
7.8e-05
7.8e-05
7.8e-05
7.8e-05
7.8e-05
7.8e-05
7.8e-05
7.8e-05
7.8e-05
7.8e-05
7.8e-05
7.8e-05
7.8e-05
7.8e-05
7.8e-05
7.8e-05
7.8e-05
7.8e-05
7.8e-05
7.8e-05
7.8e-05
7.8e-05
7.8e-05
7.8e-05
7.8e-05
7.8e-05
7.8e-05
7.8e-05
7.8e-05
7.8e-05
7.8e-05
7.8e-05
7.8e-05
7.8e-05
7.8e-05
7.8e-05
7.8e-05
7.8e-05
7.8e-05
7.8e-05
7.8e-05
7.8e-05
7.8e-05
7.8e-05
7.8e-05
7.79973e-05
7.74218e-05
7.4243e-05
7.37594e-05
7.70336e-05
7.79957e-05
7.8e-05
7.8e-05
7.8e-05
7.8e-05
7.8e-05
7.8e-05
7.8e-05
7.8e-05
7.8e-05
7.8e-05
7.8e-05
7.8e-05
7.8e-05
7.8e-05
7.8e-05
7.8e-05
7.8e-05
7.8e-05
7.8e-05
7.8e-05
7.8e-05
7.8e-05
7.8e-05
7.8e-05
7.8e-05
7.8e-05
7.8e-05
7.8e-05
7.8e-05
7.8e-05
7.8e-05
7.8e-05
7.8e-05
7.8e-05
7.8e-05
7.8e-05
7.8e-05
7.8e-05
7.8e-05
7.8e-05
7.8e-05
7.8e-05
7.8e-05
7.8e-05
7.8e-05
7.8e-05
7.8e-05
7.8e-05
7.8e-05
7.8e-05
7.8e-05
7.8e-05
7.8e-05
7.8e-05
7.8e-05
7.8e-05
7.8e-05
7.8e-05
7.8e-05
7.8e-05
7.8e-05
7.8e-05
7.8e-05
7.8e-05
7.8e-05
7.8e-05
7.8e-05
7.8e-05
7.8e-05
7.8e-05
7.8e-05
7.8e-05
7.8e-05
7.8e-05
7.8e-05
7.8e-05
7.8e-05
7.8e-05
7.8e-05
7.8e-05
7.8e-05
7.8e-05
7.8e-05
7.8e-05
7.8e-05
7.8e-05
7.8e-05
7.8e-05
7.8e-05
7.8e-05
7.8e-05
7.8e-05
7.8e-05
7.8e-05
7.8e-05
7.8e-05
7.8e-05
7.8e-05
7.8e-05
7.8e-05
7.8e-05
7.8e-05
7.8e-05
7.8e-05
7.8e-05
7.8e-05
7.8e-05
7.8e-05
7.8e-05
7.8e-05
7.8e-05
7.8e-05
7.8e-05
7.8e-05
7.8e-05
7.8e-05
7.8e-05
7.8e-05
7.8e-05
7.8e-05
7.8e-05
7.8e-05
7.8e-05
7.8e-05
7.8e-05
7.8e-05
7.8e-05
7.8e-05
7.8e-05
7.8e-05
7.8e-05
7.8e-05
7.8e-05
7.8e-05
7.8e-05
7.8e-05
7.8e-05
7.8e-05
7.8e-05
7.8e-05
7.8e-05
7.8e-05
7.8e-05
7.8e-05
7.8e-05
7.8e-05
7.8e-05
7.8e-05
7.8e-05
7.8e-05
7.8e-05
7.8e-05
7.8e-05
7.8e-05
7.8e-05
7.8e-05
7.8e-05
7.8e-05
7.8e-05
7.8e-05
7.8e-05
7.8e-05
7.8e-05
7.8e-05
7.8e-05
7.8e-05
7.8e-05
7.8e-05
7.8e-05
7.8e-05
7.8e-05
7.8e-05
7.8e-05
7.8e-05
7.8e-05
7.8e-05
7.8e-05
7.8e-05
7.8e-05
7.8e-05
7.8e-05
7.8e-05
7.8e-05
7.8e-05
7.8e-05
7.8e-05
7.8e-05
7.8e-05
7.8e-05
7.8e-05
7.8e-05
7.8e-05
7.8e-05
7.8e-05
7.8e-05
7.8e-05
7.8e-05
7.8e-05
7.8e-05
7.8e-05
7.8e-05
7.8e-05
7.8e-05
7.8e-05
7.8e-05
7.8e-05
7.8e-05
7.8e-05
7.8e-05
7.8e-05
7.8e-05
7.8e-05
7.8e-05
7.8e-05
7.8e-05
7.8e-05
7.8e-05
7.8e-05
7.8e-05
7.8e-05
7.8e-05
7.8e-05
7.8e-05
7.8e-05
7.8e-05
7.8e-05
7.8e-05
7.8e-05
7.8e-05
7.8e-05
7.8e-05
7.8e-05
7.8e-05
7.8e-05
7.8e-05
7.8e-05
7.8e-05
7.8e-05
7.8e-05
7.8e-05
7.8e-05
7.8e-05
7.8e-05
7.8e-05
7.8e-05
7.8e-05
7.8e-05
7.8e-05
7.8e-05
7.8e-05
7.8e-05
7.8e-05
7.8e-05
7.8e-05
7.8e-05
7.8e-05
7.8e-05
7.8e-05
7.8e-05
7.8e-05
7.8e-05
7.8e-05
7.8e-05
7.8e-05
7.8e-05
7.8e-05
7.8e-05
7.8e-05
7.8e-05
7.8e-05
7.8e-05
7.8e-05
7.8e-05
7.8e-05
7.8e-05
7.8e-05
7.8e-05
7.8e-05
7.8e-05
7.8e-05
7.8e-05
7.8e-05
7.8e-05
7.8e-05
7.8e-05
7.8e-05
7.8e-05
7.8e-05
7.8e-05
7.8e-05
7.8e-05
7.8e-05
7.8e-05
7.8e-05
7.8e-05
7.8e-05
7.8e-05
7.8e-05
7.8e-05
7.8e-05
7.8e-05
7.8e-05
7.8e-05
7.8e-05
7.8e-05
7.8e-05
7.8e-05
7.8e-05
7.8e-05
7.8e-05
7.8e-05
7.8e-05
7.8e-05
7.8e-05
7.8e-05
7.8e-05
7.8e-05
7.8e-05
7.8e-05
7.8e-05
7.8e-05
7.8e-05
7.8e-05
7.8e-05
7.8e-05
7.8e-05
7.8e-05
7.8e-05
7.8e-05
7.8e-05
7.8e-05
7.8e-05
7.8e-05
7.8e-05
7.8e-05
7.8e-05
7.8e-05
7.8e-05
7.8e-05
7.8e-05
7.8e-05
7.8e-05
7.8e-05
7.8e-05
7.8e-05
7.8e-05
7.8e-05
7.8e-05
7.8e-05
7.8e-05
7.8e-05
7.8e-05
7.8e-05
7.8e-05
7.8e-05
7.8e-05
7.8e-05
7.8e-05
7.8e-05
7.8e-05
7.8e-05
7.8e-05
7.8e-05
7.8e-05
7.8e-05
7.8e-05
7.8e-05
7.8e-05
7.8e-05
7.8e-05
7.8e-05
7.8e-05
7.8e-05
7.8e-05
7.8e-05
7.8e-05
7.8e-05
7.8e-05
7.8e-05
7.8e-05
7.8e-05
7.8e-05
7.8e-05
7.8e-05
7.8e-05
7.8e-05
7.8e-05
7.8e-05
7.8e-05
7.8e-05
7.8e-05
7.8e-05
7.8e-05
7.8e-05
7.8e-05
7.8e-05
7.8e-05
7.8e-05
7.8e-05
7.8e-05
7.8e-05
7.8e-05
7.8e-05
7.8e-05
7.8e-05
7.8e-05
7.8e-05
7.8e-05
7.8e-05
7.8e-05
7.8e-05
7.8e-05
7.8e-05
7.8e-05
7.8e-05
7.8e-05
7.8e-05
7.8e-05
7.8e-05
7.8e-05
7.8e-05
7.8e-05
7.8e-05
7.8e-05
7.8e-05
7.8e-05
7.8e-05
7.8e-05
7.8e-05
7.8e-05
7.8e-05
7.8e-05
7.8e-05
7.8e-05
7.8e-05
7.8e-05
7.8e-05
7.8e-05
7.8e-05
7.8e-05
7.8e-05
7.8e-05
7.8e-05
7.8e-05
7.8e-05
7.8e-05
7.8e-05
7.8e-05
7.8e-05
7.8e-05
7.8e-05
7.8e-05
7.8e-05
7.8e-05
7.8e-05
7.8e-05
7.8e-05
7.8e-05
7.8e-05
7.8e-05
7.8e-05
7.8e-05
7.8e-05
7.8e-05
7.8e-05
7.8e-05
7.8e-05
7.8e-05
7.8e-05
7.8e-05
7.8e-05
7.8e-05
7.8e-05
7.8e-05
7.8e-05
7.8e-05
7.8e-05
7.8e-05
7.8e-05
7.8e-05
7.8e-05
7.8e-05
7.8e-05
7.8e-05
7.8e-05
7.8e-05
7.8e-05
7.8e-05
7.8e-05
7.8e-05
7.8e-05
7.8e-05
7.8e-05
7.8e-05
7.8e-05
7.8e-05
7.8e-05
7.8e-05
7.8e-05
7.8e-05
7.8e-05
7.8e-05
7.8e-05
7.8e-05
7.8e-05
7.8e-05
7.8e-05
7.8e-05
7.8e-05
7.8e-05
7.8e-05
7.8e-05
7.8e-05
7.8e-05
7.8e-05
7.8e-05
7.8e-05
7.8e-05
7.8e-05
7.8e-05
7.8e-05
7.8e-05
7.8e-05
7.8e-05
7.8e-05
7.8e-05
7.8e-05
7.8e-05
7.8e-05
7.8e-05
7.8e-05
7.8e-05
7.8e-05
7.8e-05
7.8e-05
7.8e-05
7.8e-05
7.8e-05
7.8e-05
7.8e-05
7.8e-05
7.8e-05
7.8e-05
7.8e-05
7.8e-05
7.8e-05
7.8e-05
7.8e-05
7.8e-05
7.8e-05
7.8e-05
7.8e-05
7.8e-05
7.8e-05
7.8e-05
7.8e-05
7.8e-05
7.8e-05
7.8e-05
7.8e-05
7.8e-05
7.8e-05
7.8e-05
7.8e-05
7.8e-05
7.8e-05
7.8e-05
7.8e-05
7.8e-05
7.8e-05
7.8e-05
7.8e-05
7.8e-05
7.8e-05
7.8e-05
7.8e-05
7.8e-05
7.8e-05
7.8e-05
7.8e-05
7.8e-05
7.8e-05
7.8e-05
7.8e-05
7.8e-05
7.8e-05
7.8e-05
7.8e-05
7.8e-05
7.8e-05
7.8e-05
7.8e-05
7.8e-05
7.8e-05
7.8e-05
7.8e-05
7.8e-05
7.8e-05
7.8e-05
7.8e-05
7.8e-05
7.8e-05
7.8e-05
7.8e-05
7.8e-05
7.8e-05
7.8e-05
7.8e-05
7.8e-05
7.8e-05
7.8e-05
7.8e-05
7.8e-05
7.8e-05
7.8e-05
7.8e-05
7.8e-05
7.8e-05
7.8e-05
7.8e-05
7.8e-05
7.8e-05
7.8e-05
7.8e-05
7.8e-05
7.8e-05
7.8e-05
7.8e-05
7.8e-05
7.8e-05
7.8e-05
7.8e-05
7.8e-05
7.8e-05
7.8e-05
7.8e-05
7.8e-05
7.8e-05
7.8e-05
7.8e-05
7.8e-05
7.8e-05
7.8e-05
7.8e-05
7.8e-05
7.8e-05
7.8e-05
7.8e-05
7.8e-05
7.8e-05
7.8e-05
7.8e-05
7.8e-05
7.8e-05
7.8e-05
7.8e-05
7.8e-05
7.8e-05
7.8e-05
7.8e-05
7.8e-05
7.8e-05
7.8e-05
7.8e-05
7.8e-05
7.8e-05
7.8e-05
7.8e-05
7.8e-05
7.8e-05
7.8e-05
7.8e-05
7.8e-05
7.8e-05
7.8e-05
7.8e-05
7.8e-05
7.8e-05
7.8e-05
7.8e-05
7.8e-05
7.8e-05
7.8e-05
7.8e-05
7.8e-05
7.8e-05
7.8e-05
7.8e-05
7.8e-05
7.8e-05
7.8e-05
7.8e-05
7.8e-05
7.8e-05
7.8e-05
7.8e-05
7.8e-05
7.8e-05
7.8e-05
7.8e-05
7.8e-05
7.8e-05
7.8e-05
7.8e-05
7.8e-05
7.8e-05
7.8e-05
7.8e-05
7.8e-05
7.8e-05
7.8e-05
7.8e-05
7.8e-05
7.8e-05
7.8e-05
7.8e-05
7.8e-05
7.8e-05
7.8e-05
7.8e-05
7.8e-05
7.8e-05
7.8e-05
7.8e-05
7.8e-05
7.8e-05
7.8e-05
7.8e-05
7.8e-05
7.8e-05
7.8e-05
7.8e-05
7.8e-05
7.8e-05
7.8e-05
7.8e-05
7.8e-05
7.8e-05
7.8e-05
7.8e-05
7.8e-05
7.8e-05
7.8e-05
7.8e-05
7.8e-05
7.8e-05
7.8e-05
7.8e-05
7.8e-05
7.8e-05
7.8e-05
7.8e-05
7.8e-05
7.8e-05
7.8e-05
7.8e-05
7.8e-05
7.8e-05
7.8e-05
7.8e-05
7.8e-05
7.8e-05
7.8e-05
7.8e-05
7.8e-05
7.8e-05
7.8e-05
7.8e-05
7.8e-05
7.8e-05
7.8e-05
7.8e-05
7.8e-05
7.8e-05
7.8e-05
7.8e-05
7.8e-05
7.8e-05
7.8e-05
7.8e-05
7.8e-05
7.8e-05
7.8e-05
7.8e-05
7.8e-05
7.8e-05
7.8e-05
7.8e-05
7.8e-05
7.8e-05
7.8e-05
7.8e-05
7.8e-05
7.8e-05
7.8e-05
7.8e-05
7.8e-05
7.8e-05
7.8e-05
7.8e-05
7.8e-05
7.8e-05
7.8e-05
7.8e-05
7.8e-05
7.8e-05
7.8e-05
7.8e-05
7.8e-05
7.8e-05
7.8e-05
7.8e-05
7.8e-05
7.8e-05
7.8e-05
7.8e-05
7.8e-05
7.8e-05
7.8e-05
7.8e-05
7.8e-05
7.8e-05
7.8e-05
7.8e-05
7.8e-05
7.8e-05
7.8e-05
7.8e-05
7.8e-05
7.8e-05
7.8e-05
7.8e-05
7.8e-05
7.8e-05
7.8e-05
7.8e-05
7.8e-05
7.8e-05
7.8e-05
7.8e-05
7.8e-05
7.8e-05
7.8e-05
7.8e-05
7.8e-05
7.8e-05
7.8e-05
7.8e-05
7.8e-05
7.8e-05
7.8e-05
7.8e-05
7.8e-05
7.8e-05
7.8e-05
7.8e-05
7.8e-05
7.8e-05
7.8e-05
7.8e-05
7.8e-05
7.8e-05
7.8e-05
7.8e-05
7.8e-05
7.8e-05
7.8e-05
7.8e-05
7.8e-05
7.8e-05
7.8e-05
7.8e-05
7.8e-05
7.8e-05
7.8e-05
7.8e-05
7.8e-05
7.8e-05
7.8e-05
7.8e-05
7.8e-05
7.8e-05
7.8e-05
7.8e-05
7.8e-05
7.8e-05
7.8e-05
7.8e-05
7.8e-05
7.8e-05
7.8e-05
7.8e-05
7.8e-05
7.8e-05
7.8e-05
7.8e-05
7.8e-05
7.8e-05
7.8e-05
7.8e-05
7.8e-05
7.8e-05
7.8e-05
7.8e-05
7.8e-05
7.8e-05
7.8e-05
7.8e-05
7.8e-05
7.8e-05
7.8e-05
7.8e-05
7.8e-05
7.8e-05
7.8e-05
7.8e-05
7.8e-05
7.8e-05
7.8e-05
7.8e-05
7.8e-05
7.8e-05
7.8e-05
7.8e-05
7.8e-05
7.8e-05
7.8e-05
7.8e-05
7.8e-05
7.8e-05
7.8e-05
7.8e-05
7.8e-05
7.8e-05
7.8e-05
7.8e-05
7.8e-05
7.8e-05
7.8e-05
7.8e-05
7.8e-05
7.8e-05
7.8e-05
7.8e-05
7.8e-05
7.8e-05
7.8e-05
7.8e-05
7.8e-05
7.8e-05
7.8e-05
7.8e-05
7.8e-05
7.8e-05
7.8e-05
7.8e-05
7.8e-05
7.8e-05
7.8e-05
7.8e-05
7.8e-05
7.8e-05
7.8e-05
7.8e-05
7.8e-05
7.8e-05
7.8e-05
7.8e-05
7.8e-05
7.8e-05
7.8e-05
7.8e-05
7.8e-05
7.8e-05
7.8e-05
7.8e-05
7.8e-05
7.8e-05
7.8e-05
7.8e-05
7.8e-05
7.8e-05
7.8e-05
7.8e-05
7.8e-05
7.8e-05
7.8e-05
7.8e-05
7.8e-05
7.8e-05
7.8e-05
7.8e-05
7.8e-05
7.8e-05
7.8e-05
7.8e-05
7.8e-05
7.8e-05
7.8e-05
7.8e-05
7.8e-05
7.8e-05
7.8e-05
7.8e-05
7.8e-05
7.8e-05
7.8e-05
7.8e-05
7.8e-05
7.8e-05
7.8e-05
7.8e-05
7.8e-05
7.8e-05
7.8e-05
7.8e-05
7.8e-05
7.8e-05
7.8e-05
7.8e-05
7.8e-05
7.8e-05
7.8e-05
7.8e-05
7.8e-05
7.8e-05
7.8e-05
7.8e-05
7.8e-05
7.8e-05
7.8e-05
7.8e-05
7.8e-05
7.8e-05
7.8e-05
7.8e-05
7.8e-05
7.8e-05
7.8e-05
7.8e-05
7.8e-05
7.8e-05
7.8e-05
7.8e-05
7.8e-05
7.8e-05
7.8e-05
7.8e-05
7.8e-05
7.8e-05
7.8e-05
7.8e-05
7.8e-05
7.8e-05
7.8e-05
7.8e-05
7.8e-05
7.8e-05
7.8e-05
7.8e-05
7.8e-05
7.8e-05
7.8e-05
7.8e-05
7.8e-05
7.8e-05
7.8e-05
7.8e-05
7.8e-05
7.8e-05
7.8e-05
7.8e-05
7.8e-05
7.8e-05
7.8e-05
7.8e-05
7.8e-05
7.8e-05
7.8e-05
7.8e-05
7.8e-05
7.8e-05
7.8e-05
7.8e-05
7.8e-05
7.8e-05
7.8e-05
7.8e-05
7.8e-05
7.8e-05
7.8e-05
7.8e-05
7.8e-05
7.8e-05
7.8e-05
7.8e-05
7.8e-05
7.8e-05
7.8e-05