/*--------------------------------*- C++ -*----------------------------------*\
| =========                 |                                                 |
| \\      /  F ield         | OpenFOAM: The Open Source CFD Toolbox           |
|  \\    /   O peration     | Version:  2406                                  |
|   \\  /    A nd           | Website:  www.openfoam.com                      |
|    \\/     M anipulation  |                                                 |
\*---------------------------------------------------------------------------*/
FoamFile
{
    version     2.0;
    format      ascii;
    arch        "LSB;label=32;scalar=64";
    class       volScalarField;
    location    "9.1";
    object      Da;
}
// * * * * * * * * * * * * * * * * * * * * * * * * * * * * * * * * * * * * * //

dimensions      [0 2 -1 0 0 0 0];

internalField   nonuniform List<scalar> 
14400
(
5.07748e-05
5.07711e-05
5.07731e-05
5.07873e-05
5.08126e-05
5.0842e-05
5.08669e-05
5.0881e-05
5.08827e-05
5.08759e-05
5.08698e-05
5.08761e-05
5.09045e-05
5.09558e-05
5.10134e-05
5.10433e-05
5.10192e-05
5.09632e-05
5.08948e-05
5.08096e-05
5.06852e-05
5.04913e-05
5.0199e-05
4.9788e-05
4.92541e-05
4.86146e-05
4.79102e-05
4.71957e-05
4.65248e-05
4.59355e-05
4.54464e-05
4.50626e-05
4.47841e-05
4.46147e-05
4.45727e-05
4.47143e-05
4.52283e-05
4.70795e-05
5.94857e-05
7.79931e-05
7.8e-05
7.8e-05
7.8e-05
7.8e-05
7.8e-05
7.8e-05
7.8e-05
7.8e-05
7.8e-05
7.8e-05
7.8e-05
7.8e-05
7.8e-05
7.8e-05
7.8e-05
7.8e-05
7.8e-05
7.8e-05
7.79529e-05
5.5734e-05
4.69329e-05
4.54043e-05
4.49971e-05
4.49502e-05
4.51069e-05
4.54269e-05
4.5908e-05
4.65624e-05
4.73992e-05
4.84008e-05
4.95013e-05
5.0594e-05
5.15716e-05
5.23604e-05
5.29227e-05
5.32471e-05
5.33386e-05
5.3213e-05
5.28965e-05
5.24277e-05
5.18624e-05
5.12747e-05
5.07582e-05
5.04324e-05
5.04948e-05
5.1516e-05
5.66658e-05
7.75764e-05
6.05024e-05
5.12831e-05
4.94557e-05
4.89017e-05
4.87655e-05
4.88328e-05
4.90149e-05
4.92611e-05
4.95357e-05
4.98116e-05
5.00675e-05
5.02876e-05
5.04598e-05
5.05745e-05
5.06227e-05
5.05977e-05
5.0496e-05
5.03194e-05
5.00738e-05
4.97677e-05
4.94129e-05
4.90249e-05
4.86242e-05
4.8236e-05
4.78886e-05
4.76131e-05
4.74459e-05
4.74405e-05
4.77043e-05
4.85487e-05
5.15329e-05
7.42124e-05
5.03962e-05
5.03617e-05
5.03196e-05
5.02908e-05
5.02807e-05
5.02845e-05
5.02945e-05
5.03043e-05
5.03123e-05
5.03226e-05
5.03445e-05
5.03911e-05
5.04735e-05
5.05919e-05
5.07186e-05
5.07854e-05
5.0724e-05
5.06063e-05
5.04836e-05
5.03598e-05
5.02117e-05
5.00076e-05
4.97184e-05
4.93249e-05
4.88242e-05
4.82336e-05
4.75897e-05
4.69401e-05
4.63303e-05
4.57933e-05
4.5346e-05
4.4995e-05
4.47428e-05
4.45965e-05
4.45781e-05
4.47512e-05
4.53285e-05
4.74748e-05
6.45474e-05
7.79995e-05
7.8e-05
7.8e-05
7.8e-05
7.8e-05
7.8e-05
7.8e-05
7.8e-05
7.8e-05
7.8e-05
7.8e-05
7.8e-05
7.8e-05
7.8e-05
7.8e-05
7.8e-05
7.8e-05
7.8e-05
7.8e-05
7.79947e-05
6.02763e-05
4.73259e-05
4.54854e-05
4.50171e-05
4.49398e-05
4.50706e-05
4.53616e-05
4.58055e-05
4.64102e-05
4.71824e-05
4.81081e-05
4.91338e-05
5.01667e-05
5.1105e-05
5.1871e-05
5.24216e-05
5.27411e-05
5.28321e-05
5.27102e-05
5.24029e-05
5.19519e-05
5.14154e-05
5.08691e-05
5.04056e-05
5.01448e-05
5.03037e-05
5.16342e-05
5.9363e-05
7.79149e-05
6.54616e-05
5.15894e-05
4.93731e-05
4.87143e-05
4.85114e-05
4.85213e-05
4.86501e-05
4.88474e-05
4.90799e-05
4.9323e-05
4.95576e-05
4.97682e-05
4.99413e-05
5.00631e-05
5.01196e-05
5.00989e-05
4.9996e-05
4.98159e-05
4.95706e-05
4.9274e-05
4.89406e-05
4.85864e-05
4.82296e-05
4.78919e-05
4.7598e-05
4.73763e-05
4.72639e-05
4.73209e-05
4.7682e-05
4.87825e-05
5.29086e-05
7.70195e-05
4.97929e-05
4.96863e-05
4.95521e-05
4.9441e-05
4.93671e-05
4.93264e-05
4.93102e-05
4.93117e-05
4.93292e-05
4.93669e-05
4.94356e-05
4.95517e-05
4.97336e-05
4.9989e-05
5.02798e-05
5.04532e-05
5.02715e-05
5.00004e-05
4.97613e-05
4.95604e-05
4.93673e-05
4.91459e-05
4.88663e-05
4.85102e-05
4.80749e-05
4.75744e-05
4.70368e-05
4.64978e-05
4.59912e-05
4.55425e-05
4.51674e-05
4.48743e-05
4.46704e-05
4.45688e-05
4.46004e-05
4.48477e-05
4.55858e-05
4.8292e-05
7.26935e-05
7.8e-05
7.8e-05
7.8e-05
7.8e-05
7.8e-05
7.8e-05
7.8e-05
7.8e-05
7.8e-05
7.8e-05
7.8e-05
7.8e-05
7.8e-05
7.8e-05
7.8e-05
7.8e-05
7.8e-05
7.8e-05
7.8e-05
7.8e-05
6.847e-05
4.80043e-05
4.56601e-05
4.50699e-05
4.49289e-05
4.50081e-05
4.52442e-05
4.56205e-05
4.61371e-05
4.67956e-05
4.75853e-05
4.84684e-05
4.93761e-05
5.02225e-05
5.09303e-05
5.14483e-05
5.17532e-05
5.18432e-05
5.17335e-05
5.14539e-05
5.105e-05
5.05832e-05
5.01283e-05
4.97741e-05
4.96396e-05
4.99703e-05
5.18264e-05
6.49695e-05
7.79964e-05
7.2977e-05
5.22118e-05
4.93193e-05
4.84318e-05
4.8097e-05
4.8004e-05
4.80418e-05
4.81567e-05
4.83173e-05
4.85027e-05
4.86972e-05
4.88873e-05
4.90579e-05
4.91903e-05
4.92614e-05
4.92495e-05
4.91462e-05
4.89632e-05
4.87233e-05
4.84486e-05
4.81567e-05
4.78621e-05
4.75791e-05
4.73241e-05
4.71169e-05
4.69836e-05
4.69634e-05
4.71315e-05
4.76872e-05
4.9526e-05
6.07132e-05
7.79855e-05
4.92294e-05
4.89786e-05
4.86971e-05
4.84755e-05
4.8325e-05
4.82338e-05
4.81881e-05
4.81795e-05
4.82057e-05
4.82716e-05
4.83901e-05
4.85849e-05
4.88924e-05
4.93585e-05
4.99901e-05
5.05075e-05
4.99171e-05
4.93277e-05
4.89036e-05
4.85969e-05
4.83477e-05
4.81088e-05
4.7847e-05
4.75429e-05
4.71911e-05
4.6799e-05
4.63844e-05
4.59707e-05
4.5581e-05
4.52345e-05
4.49453e-05
4.47245e-05
4.45847e-05
4.45474e-05
4.46616e-05
4.50661e-05
4.63576e-05
5.32942e-05
7.78926e-05
7.8e-05
7.8e-05
7.8e-05
7.8e-05
7.8e-05
7.8e-05
7.8e-05
7.8e-05
7.8e-05
7.8e-05
7.8e-05
7.8e-05
7.8e-05
7.8e-05
7.8e-05
7.8e-05
7.8e-05
7.8e-05
7.8e-05
7.8e-05
7.65889e-05
4.95154e-05
4.60697e-05
4.51979e-05
4.49384e-05
4.49372e-05
4.5097e-05
4.53858e-05
4.57931e-05
4.63136e-05
4.69363e-05
4.7635e-05
4.83634e-05
4.90596e-05
4.9659e-05
5.01101e-05
5.03836e-05
5.04726e-05
5.03907e-05
5.01687e-05
4.98535e-05
4.95046e-05
4.91914e-05
4.89971e-05
4.90462e-05
4.96332e-05
5.21353e-05
7.20225e-05
7.8e-05
7.78616e-05
5.66842e-05
4.97192e-05
4.82146e-05
4.7661e-05
4.74323e-05
4.73631e-05
4.7386e-05
4.74677e-05
4.75888e-05
4.77366e-05
4.79001e-05
4.80652e-05
4.82093e-05
4.82997e-05
4.83004e-05
4.81978e-05
4.80126e-05
4.77822e-05
4.75364e-05
4.72936e-05
4.70656e-05
4.68624e-05
4.66961e-05
4.65832e-05
4.65498e-05
4.66418e-05
4.69601e-05
4.78041e-05
5.06334e-05
7.21347e-05
7.8e-05
4.9111e-05
4.85022e-05
4.79795e-05
4.76201e-05
4.73884e-05
4.72482e-05
4.71748e-05
4.71562e-05
4.71892e-05
4.72793e-05
4.74429e-05
4.77148e-05
4.81657e-05
4.89507e-05
5.04375e-05
5.31332e-05
5.00844e-05
4.8795e-05
4.8103e-05
4.7673e-05
4.7367e-05
4.71133e-05
4.68711e-05
4.6618e-05
4.63445e-05
4.60518e-05
4.57488e-05
4.54489e-05
4.51675e-05
4.4919e-05
4.47164e-05
4.45734e-05
4.45082e-05
4.45545e-05
4.47918e-05
4.5475e-05
4.7974e-05
6.99585e-05
7.8e-05
7.8e-05
7.8e-05
7.8e-05
7.8e-05
7.8e-05
7.8e-05
7.8e-05
7.8e-05
7.8e-05
7.8e-05
7.8e-05
7.8e-05
7.8e-05
7.8e-05
7.8e-05
7.8e-05
7.8e-05
7.8e-05
7.8e-05
7.8e-05
7.79988e-05
6.27144e-05
4.7371e-05
4.54866e-05
4.4999e-05
4.4881e-05
4.49461e-05
4.51367e-05
4.54294e-05
4.5811e-05
4.62679e-05
4.67793e-05
4.73139e-05
4.78307e-05
4.82849e-05
4.86369e-05
4.88602e-05
4.89467e-05
4.89072e-05
4.87693e-05
4.85742e-05
4.83731e-05
4.82278e-05
4.82218e-05
4.85134e-05
4.95982e-05
5.43001e-05
7.74771e-05
7.8e-05
7.8e-05
7.15047e-05
5.10395e-05
4.8238e-05
4.7335e-05
4.69376e-05
4.67573e-05
4.66947e-05
4.6707e-05
4.67734e-05
4.68823e-05
4.70251e-05
4.71901e-05
4.7354e-05
4.7475e-05
4.74934e-05
4.73861e-05
4.71878e-05
4.69577e-05
4.67325e-05
4.65294e-05
4.63567e-05
4.62215e-05
4.61331e-05
4.6108e-05
4.61766e-05
4.64013e-05
4.69495e-05
4.8545e-05
5.72844e-05
7.79512e-05
7.8e-05
5.10165e-05
4.86323e-05
4.75819e-05
4.70149e-05
4.66834e-05
4.64897e-05
4.6388e-05
4.6359e-05
4.6398e-05
4.65116e-05
4.67222e-05
4.70833e-05
4.77275e-05
4.91151e-05
5.40576e-05
7.43974e-05
5.18775e-05
4.86372e-05
4.75074e-05
4.69266e-05
4.65597e-05
4.62881e-05
4.60582e-05
4.58428e-05
4.56288e-05
4.54124e-05
4.51963e-05
4.49877e-05
4.47963e-05
4.46334e-05
4.45121e-05
4.44487e-05
4.44695e-05
4.46276e-05
4.50702e-05
4.64573e-05
5.46114e-05
7.79489e-05
7.8e-05
7.8e-05
7.8e-05
7.8e-05
7.8e-05
7.8e-05
7.8e-05
7.8e-05
7.8e-05
7.8e-05
7.8e-05
7.8e-05
7.8e-05
7.8e-05
7.8e-05
7.8e-05
7.8e-05
7.8e-05
7.8e-05
7.8e-05
7.8e-05
7.8e-05
7.61414e-05
4.92599e-05
4.60051e-05
4.51545e-05
4.48688e-05
4.48187e-05
4.49051e-05
4.50873e-05
4.53433e-05
4.5656e-05
4.60067e-05
4.63729e-05
4.67276e-05
4.70426e-05
4.72929e-05
4.74615e-05
4.75435e-05
4.75476e-05
4.74952e-05
4.74185e-05
4.73598e-05
4.73763e-05
4.75629e-05
4.81521e-05
5.02635e-05
6.59544e-05
7.79991e-05
7.8e-05
7.8e-05
7.79754e-05
5.9049e-05
4.9067e-05
4.7269e-05
4.66169e-05
4.63116e-05
4.61676e-05
4.61218e-05
4.61471e-05
4.62318e-05
4.63694e-05
4.65533e-05
4.67632e-05
4.69506e-05
4.70011e-05
4.68667e-05
4.66163e-05
4.63559e-05
4.61282e-05
4.59445e-05
4.58085e-05
4.57248e-05
4.57019e-05
4.57597e-05
4.59424e-05
4.63496e-05
4.7291e-05
5.04181e-05
7.47053e-05
7.8e-05
7.8e-05
7.22987e-05
5.07985e-05
4.77675e-05
4.67551e-05
4.62574e-05
4.59878e-05
4.58487e-05
4.58067e-05
4.5853e-05
4.59977e-05
4.62758e-05
4.67823e-05
4.78041e-05
5.0842e-05
7.32067e-05
7.7998e-05
6.39088e-05
4.94243e-05
4.7224e-05
4.64171e-05
4.59692e-05
4.56676e-05
4.54368e-05
4.52424e-05
4.50672e-05
4.49037e-05
4.47507e-05
4.46113e-05
4.4492e-05
4.44028e-05
4.43582e-05
4.43802e-05
4.45091e-05
4.48385e-05
4.56693e-05
4.86705e-05
7.4988e-05
7.8e-05
7.8e-05
7.8e-05
7.8e-05
7.8e-05
7.8e-05
7.8e-05
7.8e-05
7.8e-05
7.8e-05
7.8e-05
7.8e-05
7.8e-05
7.8e-05
7.8e-05
7.8e-05
7.8e-05
7.8e-05
7.8e-05
7.8e-05
7.8e-05
7.8e-05
7.8e-05
7.79999e-05
6.66332e-05
4.77894e-05
4.5564e-05
4.49503e-05
4.47445e-05
4.4718e-05
4.47957e-05
4.49433e-05
4.5139e-05
4.53647e-05
4.56027e-05
4.58348e-05
4.60439e-05
4.62157e-05
4.63412e-05
4.64196e-05
4.64585e-05
4.64745e-05
4.64935e-05
4.65533e-05
4.67152e-05
4.71043e-05
4.80785e-05
5.14141e-05
7.59965e-05
7.8e-05
7.8e-05
7.8e-05
7.8e-05
7.68962e-05
5.15739e-05
4.76909e-05
4.65727e-05
4.6089e-05
4.58485e-05
4.57451e-05
4.57384e-05
4.58149e-05
4.59712e-05
4.62134e-05
4.65378e-05
4.69213e-05
4.70656e-05
4.68176e-05
4.63886e-05
4.60262e-05
4.57557e-05
4.5564e-05
4.54446e-05
4.53996e-05
4.54384e-05
4.55903e-05
4.59423e-05
4.67379e-05
4.92257e-05
6.72017e-05
7.79998e-05
7.8e-05
7.8e-05
7.79999e-05
6.89433e-05
4.97734e-05
4.70611e-05
4.61699e-05
4.57595e-05
4.55571e-05
4.54946e-05
4.55533e-05
4.57512e-05
4.61586e-05
4.70154e-05
4.94864e-05
6.56128e-05
7.79994e-05
7.8e-05
7.65465e-05
5.10472e-05
4.73471e-05
4.6182e-05
4.5602e-05
4.52448e-05
4.49953e-05
4.48053e-05
4.46512e-05
4.45223e-05
4.44142e-05
4.43277e-05
4.42679e-05
4.42455e-05
4.42801e-05
4.44075e-05
4.47063e-05
4.54182e-05
4.78342e-05
6.78361e-05
7.8e-05
7.8e-05
7.8e-05
7.8e-05
7.8e-05
7.8e-05
7.8e-05
7.8e-05
7.8e-05
7.8e-05
7.8e-05
7.8e-05
7.8e-05
7.8e-05
7.8e-05
7.8e-05
7.8e-05
7.8e-05
7.8e-05
7.8e-05
7.8e-05
7.8e-05
7.8e-05
7.8e-05
7.8e-05
7.79389e-05
5.43542e-05
4.65605e-05
4.52003e-05
4.47605e-05
4.4601e-05
4.4575e-05
4.46273e-05
4.47288e-05
4.48599e-05
4.50051e-05
4.51514e-05
4.5288e-05
4.54069e-05
4.55044e-05
4.5582e-05
4.56476e-05
4.57157e-05
4.58104e-05
4.59719e-05
4.62803e-05
4.69536e-05
4.90608e-05
6.43155e-05
7.79987e-05
7.8e-05
7.8e-05
7.8e-05
7.8e-05
7.8e-05
7.40609e-05
5.01841e-05
4.71191e-05
4.62155e-05
4.58002e-05
4.56143e-05
4.55745e-05
4.56637e-05
4.58824e-05
4.62816e-05
4.69421e-05
4.83367e-05
4.91018e-05
4.80431e-05
4.67397e-05
4.60553e-05
4.56588e-05
4.54134e-05
4.52862e-05
4.52749e-05
4.53917e-05
4.56866e-05
4.64037e-05
4.85566e-05
6.13245e-05
7.79958e-05
7.8e-05
7.8e-05
7.8e-05
7.8e-05
7.79995e-05
6.54442e-05
4.91717e-05
4.66679e-05
4.58999e-05
4.55576e-05
4.54552e-05
4.55386e-05
4.58503e-05
4.65905e-05
4.87932e-05
6.09225e-05
7.79937e-05
7.8e-05
7.8e-05
7.79999e-05
6.84956e-05
4.89921e-05
4.6383e-05
4.54859e-05
4.50157e-05
4.47199e-05
4.45159e-05
4.43678e-05
4.42596e-05
4.41846e-05
4.41417e-05
4.41362e-05
4.41831e-05
4.43149e-05
4.4605e-05
4.52625e-05
4.73168e-05
6.13166e-05
7.79981e-05
7.8e-05
7.8e-05
7.8e-05
7.8e-05
7.8e-05
7.8e-05
7.8e-05
7.8e-05
7.8e-05
7.8e-05
7.8e-05
7.8e-05
7.8e-05
7.8e-05
7.8e-05
7.8e-05
7.8e-05
7.8e-05
7.8e-05
7.8e-05
7.8e-05
7.8e-05
7.8e-05
7.8e-05
7.8e-05
7.8e-05
7.61961e-05
4.90425e-05
4.58202e-05
4.49424e-05
4.45917e-05
4.4446e-05
4.44055e-05
4.4426e-05
4.44826e-05
4.45595e-05
4.46455e-05
4.47331e-05
4.48178e-05
4.48989e-05
4.49796e-05
4.50684e-05
4.51811e-05
4.53451e-05
4.56122e-05
4.61027e-05
4.72046e-05
5.11203e-05
7.69969e-05
7.8e-05
7.8e-05
7.8e-05
7.8e-05
7.8e-05
7.8e-05
7.8e-05
7.28039e-05
4.9981e-05
4.72008e-05
4.62389e-05
4.58598e-05
4.5757e-05
4.59116e-05
4.63188e-05
4.72913e-05
4.94892e-05
6.11812e-05
7.06979e-05
5.82526e-05
4.90178e-05
4.67998e-05
4.60165e-05
4.55908e-05
4.54043e-05
4.54376e-05
4.57178e-05
4.63349e-05
4.85141e-05
6.05516e-05
7.79908e-05
7.8e-05
7.8e-05
7.8e-05
7.8e-05
7.8e-05
7.8e-05
7.79993e-05
6.66376e-05
4.92785e-05
4.69104e-05
4.60775e-05
4.5874e-05
4.60203e-05
4.66772e-05
4.89334e-05
6.21581e-05
7.79917e-05
7.8e-05
7.8e-05
7.8e-05
7.8e-05
7.79845e-05
5.8176e-05
4.76071e-05
4.57336e-05
4.50111e-05
4.46166e-05
4.43721e-05
4.42131e-05
4.41146e-05
4.40662e-05
4.4066e-05
4.41208e-05
4.42568e-05
4.45437e-05
4.51899e-05
4.71152e-05
5.82923e-05
7.79904e-05
7.8e-05
7.8e-05
7.8e-05
7.8e-05
7.8e-05
7.8e-05
7.8e-05
7.8e-05
7.8e-05
7.8e-05
7.8e-05
7.8e-05
7.8e-05
7.8e-05
7.8e-05
7.8e-05
7.8e-05
7.8e-05
7.8e-05
7.8e-05
7.8e-05
7.8e-05
7.8e-05
7.8e-05
7.8e-05
7.8e-05
7.8e-05
7.8e-05
7.1692e-05
4.82403e-05
4.555e-05
4.47729e-05
4.44429e-05
4.42919e-05
4.4232e-05
4.42231e-05
4.42449e-05
4.42855e-05
4.43384e-05
4.44009e-05
4.44739e-05
4.45621e-05
4.46762e-05
4.48367e-05
4.5082e-05
4.54996e-05
4.63523e-05
4.90025e-05
7.00542e-05
7.8e-05
7.8e-05
7.8e-05
7.8e-05
7.8e-05
7.8e-05
7.8e-05
7.8e-05
7.8e-05
7.53218e-05
5.2831e-05
4.84094e-05
4.712e-05
4.67232e-05
4.72741e-05
4.85932e-05
5.36217e-05
7.35108e-05
7.79957e-05
7.8e-05
7.79825e-05
7.05734e-05
5.05438e-05
4.79277e-05
4.65333e-05
4.60697e-05
4.62208e-05
4.72515e-05
4.91661e-05
6.57127e-05
7.79946e-05
7.8e-05
7.8e-05
7.8e-05
7.8e-05
7.8e-05
7.8e-05
7.8e-05
7.8e-05
7.79998e-05
7.29638e-05
5.27134e-05
4.84952e-05
4.78897e-05
4.83117e-05
5.07479e-05
7.00644e-05
7.79975e-05
7.8e-05
7.8e-05
7.8e-05
7.8e-05
7.8e-05
7.8e-05
7.78124e-05
5.28216e-05
4.68508e-05
4.53809e-05
4.47436e-05
4.4404e-05
4.42058e-05
4.41051e-05
4.40833e-05
4.41393e-05
4.42845e-05
4.45776e-05
4.52291e-05
4.72898e-05
5.89973e-05
7.79871e-05
7.8e-05
7.8e-05
7.8e-05
7.8e-05
7.8e-05
7.8e-05
7.8e-05
7.8e-05
7.8e-05
7.8e-05
7.8e-05
7.8e-05
7.8e-05
7.8e-05
7.8e-05
7.8e-05
7.8e-05
7.8e-05
7.8e-05
7.8e-05
7.8e-05
7.8e-05
7.8e-05
7.8e-05
7.8e-05
7.8e-05
7.8e-05
7.8e-05
7.8e-05
7.79999e-05
6.7379e-05
4.78627e-05
4.53892e-05
4.46451e-05
4.43195e-05
4.41596e-05
4.40808e-05
4.40504e-05
4.40516e-05
4.4077e-05
4.41245e-05
4.41962e-05
4.42987e-05
4.44466e-05
4.46717e-05
4.50407e-05
4.57473e-05
4.77118e-05
6e-05
7.79941e-05
7.8e-05
7.8e-05
7.8e-05
7.8e-05
7.8e-05
7.8e-05
7.8e-05
7.8e-05
7.8e-05
7.8e-05
7.77752e-05
6.7396e-05
5.45344e-05
5.10341e-05
5.6072e-05
6.90594e-05
7.78516e-05
7.8e-05
7.8e-05
7.8e-05
7.8e-05
7.8e-05
7.70922e-05
6.46057e-05
5.11241e-05
4.87995e-05
4.94915e-05
5.85633e-05
7.4128e-05
7.79997e-05
7.8e-05
7.8e-05
7.8e-05
7.8e-05
7.8e-05
7.8e-05
7.8e-05
7.8e-05
7.8e-05
7.8e-05
7.8e-05
7.77967e-05
7.07074e-05
6.46408e-05
6.9245e-05
7.73165e-05
7.8e-05
7.8e-05
7.8e-05
7.8e-05
7.8e-05
7.8e-05
7.8e-05
7.8e-05
7.8e-05
7.76608e-05
5.25074e-05
4.69486e-05
4.53417e-05
4.47326e-05
4.44188e-05
4.42953e-05
4.43117e-05
4.4483e-05
4.4839e-05
4.55738e-05
4.7843e-05
6.38053e-05
7.79944e-05
7.8e-05
7.8e-05
7.8e-05
7.8e-05
7.8e-05
7.8e-05
7.8e-05
7.8e-05
7.8e-05
7.8e-05
7.8e-05
7.8e-05
7.8e-05
7.8e-05
7.8e-05
7.8e-05
7.8e-05
7.8e-05
7.8e-05
7.8e-05
7.8e-05
7.8e-05
7.8e-05
7.8e-05
7.8e-05
7.8e-05
7.8e-05
7.8e-05
7.8e-05
7.8e-05
7.8e-05
7.79998e-05
6.5786e-05
4.77455e-05
4.53136e-05
4.45805e-05
4.42542e-05
4.40762e-05
4.39824e-05
4.39406e-05
4.39394e-05
4.39763e-05
4.40542e-05
4.4183e-05
4.43855e-05
4.47223e-05
4.53384e-05
4.68184e-05
5.35268e-05
7.7882e-05
7.8e-05
7.8e-05
7.8e-05
7.8e-05
7.8e-05
7.8e-05
7.8e-05
7.8e-05
7.8e-05
7.8e-05
7.8e-05
7.8e-05
7.79999e-05
7.79046e-05
7.73662e-05
7.79547e-05
7.8e-05
7.8e-05
7.8e-05
7.8e-05
7.8e-05
7.8e-05
7.8e-05
7.8e-05
7.79994e-05
7.75092e-05
7.45187e-05
7.64156e-05
7.79889e-05
7.8e-05
7.8e-05
7.8e-05
7.8e-05
7.8e-05
7.8e-05
7.8e-05
7.8e-05
7.8e-05
7.8e-05
7.8e-05
7.8e-05
7.8e-05
7.8e-05
7.8e-05
7.79994e-05
7.8e-05
7.8e-05
7.8e-05
7.8e-05
7.8e-05
7.8e-05
7.8e-05
7.8e-05
7.8e-05
7.8e-05
7.8e-05
7.8e-05
7.78225e-05
5.8031e-05
4.78064e-05
4.59313e-05
4.51202e-05
4.49171e-05
4.50193e-05
4.56265e-05
4.69884e-05
5.01111e-05
7.20882e-05
7.79996e-05
7.8e-05
7.8e-05
7.8e-05
7.8e-05
7.8e-05
7.8e-05
7.8e-05
7.8e-05
7.8e-05
7.8e-05
7.8e-05
7.8e-05
7.8e-05
7.8e-05
7.8e-05
7.8e-05
7.8e-05
7.8e-05
7.8e-05
7.8e-05
7.8e-05
7.8e-05
7.8e-05
7.8e-05
7.8e-05
7.8e-05
7.8e-05
7.8e-05
7.8e-05
7.8e-05
7.8e-05
7.8e-05
7.8e-05
7.79998e-05
6.74871e-05
4.79293e-05
4.54121e-05
4.46723e-05
4.42829e-05
4.4084e-05
4.39767e-05
4.39405e-05
4.39688e-05
4.40658e-05
4.42492e-05
4.45588e-05
4.51644e-05
4.65659e-05
5.15829e-05
7.7623e-05
7.8e-05
7.8e-05
7.8e-05
7.8e-05
7.8e-05
7.8e-05
7.8e-05
7.8e-05
7.8e-05
7.8e-05
7.8e-05
7.8e-05
7.8e-05
7.8e-05
7.8e-05
7.8e-05
7.8e-05
7.8e-05
7.8e-05
7.8e-05
7.8e-05
7.8e-05
7.8e-05
7.8e-05
7.8e-05
7.8e-05
7.8e-05
7.8e-05
7.8e-05
7.8e-05
7.8e-05
7.8e-05
7.8e-05
7.8e-05
7.8e-05
7.8e-05
7.8e-05
7.8e-05
7.8e-05
7.8e-05
7.8e-05
7.8e-05
7.8e-05
7.8e-05
7.8e-05
7.8e-05
7.8e-05
7.8e-05
7.8e-05
7.8e-05
7.8e-05
7.8e-05
7.8e-05
7.8e-05
7.8e-05
7.8e-05
7.8e-05
7.8e-05
7.8e-05
7.79904e-05
7.01499e-05
5.27259e-05
4.78134e-05
4.734e-05
4.7701e-05
5.15811e-05
6.65196e-05
7.75793e-05
7.8e-05
7.8e-05
7.8e-05
7.8e-05
7.8e-05
7.8e-05
7.8e-05
7.8e-05
7.8e-05
7.8e-05
7.8e-05
7.8e-05
7.8e-05
7.8e-05
7.8e-05
7.8e-05
7.8e-05
7.8e-05
7.8e-05
7.8e-05
7.8e-05
7.8e-05
7.8e-05
7.8e-05
7.8e-05
7.8e-05
7.8e-05
7.8e-05
7.8e-05
7.8e-05
7.8e-05
7.8e-05
7.8e-05
7.8e-05
7.8e-05
7.8e-05
7.8e-05
7.23651e-05
4.88293e-05
4.62505e-05
4.49703e-05
4.45136e-05
4.425e-05
4.4146e-05
4.41656e-05
4.43133e-05
4.46458e-05
4.5236e-05
4.69972e-05
5.3576e-05
7.76561e-05
7.8e-05
7.8e-05
7.8e-05
7.8e-05
7.8e-05
7.8e-05
7.8e-05
7.8e-05
7.8e-05
7.8e-05
7.8e-05
7.8e-05
7.8e-05
7.8e-05
7.8e-05
7.8e-05
7.8e-05
7.8e-05
7.8e-05
7.8e-05
7.8e-05
7.8e-05
7.8e-05
7.8e-05
7.8e-05
7.8e-05
7.8e-05
7.8e-05
7.8e-05
7.8e-05
7.8e-05
7.8e-05
7.8e-05
7.8e-05
7.8e-05
7.8e-05
7.8e-05
7.8e-05
7.8e-05
7.8e-05
7.8e-05
7.8e-05
7.8e-05
7.8e-05
7.8e-05
7.8e-05
7.8e-05
7.8e-05
7.8e-05
7.8e-05
7.8e-05
7.8e-05
7.8e-05
7.8e-05
7.8e-05
7.8e-05
7.8e-05
7.8e-05
7.8e-05
7.8e-05
7.8e-05
7.8e-05
7.7894e-05
7.4001e-05
7.10886e-05
7.40931e-05
7.78278e-05
7.79999e-05
7.8e-05
7.8e-05
7.8e-05
7.8e-05
7.8e-05
7.8e-05
7.8e-05
7.8e-05
7.8e-05
7.8e-05
7.8e-05
7.8e-05
7.8e-05
7.8e-05
7.8e-05
7.8e-05
7.8e-05
7.8e-05
7.8e-05
7.8e-05
7.8e-05
7.8e-05
7.8e-05
7.8e-05
7.8e-05
7.8e-05
7.8e-05
7.8e-05
7.8e-05
7.8e-05
7.8e-05
7.8e-05
7.8e-05
7.8e-05
7.8e-05
7.8e-05
7.8e-05
7.8e-05
7.8e-05
7.68601e-05
5.82133e-05
4.7647e-05
4.61334e-05
4.51097e-05
4.48008e-05
4.4806e-05
4.51163e-05
4.61903e-05
4.79715e-05
6.17018e-05
7.79203e-05
7.8e-05
7.8e-05
7.8e-05
7.8e-05
7.8e-05
7.8e-05
7.8e-05
7.8e-05
7.8e-05
7.8e-05
7.8e-05
7.8e-05
7.8e-05
7.8e-05
7.8e-05
7.8e-05
7.8e-05
7.8e-05
7.8e-05
7.8e-05
7.8e-05
7.8e-05
7.8e-05
7.8e-05
7.8e-05
7.8e-05
7.8e-05
7.8e-05
7.8e-05
7.8e-05
7.8e-05
7.8e-05
7.8e-05
7.8e-05
7.8e-05
7.8e-05
7.8e-05
7.8e-05
7.8e-05
7.8e-05
7.8e-05
7.8e-05
7.8e-05
7.8e-05
7.8e-05
7.8e-05
7.8e-05
7.8e-05
7.8e-05
7.8e-05
7.8e-05
7.8e-05
7.8e-05
7.8e-05
7.8e-05
7.8e-05
7.8e-05
7.8e-05
7.8e-05
7.8e-05
7.8e-05
7.8e-05
7.8e-05
7.8e-05
7.8e-05
7.8e-05
7.8e-05
7.8e-05
7.8e-05
7.8e-05
7.8e-05
7.8e-05
7.8e-05
7.8e-05
7.8e-05
7.8e-05
7.8e-05
7.8e-05
7.8e-05
7.8e-05
7.8e-05
7.8e-05
7.8e-05
7.8e-05
7.8e-05
7.8e-05
7.8e-05
7.8e-05
7.8e-05
7.8e-05
7.8e-05
7.8e-05
7.8e-05
7.8e-05
7.8e-05
7.8e-05
7.8e-05
7.8e-05
7.8e-05
7.8e-05
7.8e-05
7.8e-05
7.8e-05
7.8e-05
7.8e-05
7.8e-05
7.8e-05
7.8e-05
7.8e-05
7.79941e-05
7.26086e-05
5.83472e-05
4.85863e-05
4.73427e-05
4.73096e-05
4.82819e-05
5.75666e-05
7.31211e-05
7.79987e-05
7.8e-05
7.8e-05
7.8e-05
7.8e-05
7.8e-05
7.8e-05
7.8e-05
7.8e-05
7.8e-05
7.8e-05
7.8e-05
7.8e-05
7.8e-05
7.8e-05
7.8e-05
7.8e-05
7.8e-05
7.8e-05
7.8e-05
7.8e-05
7.8e-05
7.8e-05
7.8e-05
7.8e-05
7.8e-05
7.8e-05
7.8e-05
7.8e-05
7.8e-05
7.8e-05
7.8e-05
7.8e-05
7.8e-05
7.8e-05
7.8e-05
7.8e-05
7.8e-05
7.8e-05
7.8e-05
7.8e-05
7.8e-05
7.8e-05
7.8e-05
7.8e-05
7.8e-05
7.8e-05
7.8e-05
7.8e-05
7.8e-05
7.8e-05
7.8e-05
7.8e-05
7.8e-05
7.8e-05
7.8e-05
7.8e-05
7.8e-05
7.8e-05
7.8e-05
7.8e-05
7.8e-05
7.8e-05
7.8e-05
7.8e-05
7.8e-05
7.8e-05
7.8e-05
7.8e-05
7.8e-05
7.8e-05
7.8e-05
7.8e-05
7.8e-05
7.8e-05
7.8e-05
7.8e-05
7.8e-05
7.8e-05
7.8e-05
7.8e-05
7.8e-05
7.8e-05
7.8e-05
7.8e-05
7.8e-05
7.8e-05
7.8e-05
7.8e-05
7.8e-05
7.8e-05
7.8e-05
7.8e-05
7.8e-05
7.8e-05
7.8e-05
7.8e-05
7.8e-05
7.8e-05
7.8e-05
7.8e-05
7.8e-05
7.8e-05
7.8e-05
7.8e-05
7.8e-05
7.8e-05
7.8e-05
7.8e-05
7.8e-05
7.8e-05
7.8e-05
7.8e-05
7.79939e-05
7.69134e-05
7.30206e-05
7.25172e-05
7.6379e-05
7.79907e-05
7.8e-05
7.8e-05
7.8e-05
7.8e-05
7.8e-05
7.8e-05
7.8e-05
7.8e-05
7.8e-05
7.8e-05
7.8e-05
7.8e-05
7.8e-05
7.8e-05
7.8e-05
7.8e-05
7.8e-05
7.8e-05
7.8e-05
7.8e-05
7.8e-05
7.8e-05
7.8e-05
7.8e-05
7.8e-05
7.8e-05
7.8e-05
7.8e-05
7.8e-05
7.8e-05
7.8e-05
7.8e-05
7.8e-05
7.8e-05
7.8e-05
7.8e-05
7.8e-05
7.8e-05
7.8e-05
7.8e-05
7.8e-05
7.8e-05
7.8e-05
7.8e-05
7.8e-05
7.8e-05
7.8e-05
7.8e-05
7.8e-05
7.8e-05
7.8e-05
7.8e-05
7.8e-05
7.8e-05
7.8e-05
7.8e-05
7.8e-05
7.8e-05
7.8e-05
7.8e-05
7.8e-05
7.8e-05
7.8e-05
7.8e-05
7.8e-05
7.8e-05
7.8e-05
7.8e-05
7.8e-05
7.8e-05
7.8e-05
7.8e-05
7.8e-05
7.8e-05
7.8e-05
7.8e-05
7.8e-05
7.8e-05
7.8e-05
7.8e-05
7.8e-05
7.8e-05
7.8e-05
7.8e-05
7.8e-05
7.8e-05
7.8e-05
7.8e-05
7.8e-05
7.8e-05
7.8e-05
7.8e-05
7.8e-05
7.8e-05
7.8e-05
7.8e-05
7.8e-05
7.8e-05
7.8e-05
7.8e-05
7.8e-05
7.8e-05
7.8e-05
7.8e-05
7.8e-05
7.8e-05
7.8e-05
7.8e-05
7.8e-05
7.8e-05
7.8e-05
7.8e-05
7.8e-05
7.8e-05
7.8e-05
7.8e-05
7.8e-05
7.8e-05
7.8e-05
7.8e-05
7.8e-05
7.8e-05
7.8e-05
7.8e-05
7.8e-05
7.8e-05
7.8e-05
7.8e-05
7.8e-05
7.8e-05
7.8e-05
7.8e-05
7.8e-05
7.8e-05
7.8e-05
7.8e-05
7.8e-05
7.8e-05
7.8e-05
7.8e-05
7.8e-05
7.8e-05
7.8e-05
7.8e-05
7.8e-05
7.8e-05
7.8e-05
7.8e-05
7.8e-05
7.8e-05
7.8e-05
7.8e-05
7.8e-05
7.8e-05
7.8e-05
7.8e-05
7.8e-05
7.8e-05
7.8e-05
7.8e-05
7.8e-05
7.8e-05
7.8e-05
7.8e-05
7.8e-05
7.8e-05
7.8e-05
7.8e-05
7.8e-05
7.8e-05
7.8e-05
7.8e-05
7.8e-05
7.8e-05
7.8e-05
7.8e-05
7.8e-05
7.8e-05
7.8e-05
7.8e-05
7.8e-05
7.8e-05
7.8e-05
7.8e-05
7.8e-05
7.8e-05
7.8e-05
7.8e-05
7.8e-05
7.8e-05
7.8e-05
7.8e-05
7.8e-05
7.8e-05
7.8e-05
7.8e-05
7.8e-05
7.8e-05
7.8e-05
7.8e-05
7.8e-05
7.8e-05
7.8e-05
7.8e-05
7.8e-05
7.8e-05
7.8e-05
7.8e-05
7.8e-05
7.8e-05
7.8e-05
7.8e-05
7.8e-05
7.8e-05
7.8e-05
7.8e-05
7.8e-05
7.8e-05
7.8e-05
7.8e-05
7.8e-05
7.8e-05
7.8e-05
7.8e-05
7.8e-05
7.8e-05
7.8e-05
7.8e-05
7.8e-05
7.8e-05
7.8e-05
7.8e-05
7.8e-05
7.8e-05
7.8e-05
7.8e-05
7.8e-05
7.8e-05
7.8e-05
7.8e-05
7.8e-05
7.8e-05
7.8e-05
7.8e-05
7.8e-05
7.8e-05
7.8e-05
7.8e-05
7.8e-05
7.8e-05
7.8e-05
7.8e-05
7.8e-05
7.8e-05
7.8e-05
7.8e-05
7.8e-05
7.8e-05
7.8e-05
7.8e-05
7.8e-05
7.8e-05
7.8e-05
7.8e-05
7.8e-05
7.8e-05
7.8e-05
7.8e-05
7.8e-05
7.8e-05
7.8e-05
7.8e-05
7.8e-05
7.8e-05
7.8e-05
7.8e-05
7.8e-05
7.8e-05
7.8e-05
7.8e-05
7.8e-05
7.8e-05
7.8e-05
7.8e-05
7.8e-05
7.8e-05
7.8e-05
7.8e-05
7.8e-05
7.8e-05
7.8e-05
7.8e-05
7.8e-05
7.8e-05
7.8e-05
7.8e-05
7.8e-05
7.8e-05
7.8e-05
7.8e-05
7.8e-05
7.8e-05
7.8e-05
7.8e-05
7.8e-05
7.8e-05
7.8e-05
7.8e-05
7.8e-05
7.8e-05
7.8e-05
7.8e-05
7.8e-05
7.8e-05
7.8e-05
7.8e-05
7.8e-05
7.8e-05
7.8e-05
7.8e-05
7.8e-05
7.8e-05
7.8e-05
7.8e-05
7.8e-05
7.8e-05
7.8e-05
7.8e-05
7.8e-05
7.8e-05
7.8e-05
7.8e-05
7.8e-05
7.8e-05
7.8e-05
7.8e-05
7.8e-05
7.8e-05
7.8e-05
7.8e-05
7.8e-05
7.8e-05
7.8e-05
7.8e-05
7.8e-05
7.8e-05
7.8e-05
7.8e-05
7.8e-05
7.8e-05
7.8e-05
7.8e-05
7.8e-05
7.8e-05
7.8e-05
7.8e-05
7.8e-05
7.8e-05
7.8e-05
7.8e-05
7.8e-05
7.8e-05
7.8e-05
7.8e-05
7.8e-05
7.8e-05
7.8e-05
7.8e-05
7.8e-05
7.8e-05
7.8e-05
7.8e-05
7.8e-05
7.8e-05
7.8e-05
7.8e-05
7.8e-05
7.8e-05
7.8e-05
7.8e-05
7.8e-05
7.8e-05
7.8e-05
7.8e-05
7.8e-05
7.8e-05
7.8e-05
7.8e-05
7.8e-05
7.8e-05
7.8e-05
7.8e-05
7.8e-05
7.8e-05
7.8e-05
7.8e-05
7.8e-05
7.8e-05
7.8e-05
7.8e-05
7.8e-05
7.8e-05
7.8e-05
7.8e-05
7.8e-05
7.8e-05
7.8e-05
7.8e-05
7.8e-05
7.8e-05
7.8e-05
7.8e-05
7.8e-05
7.8e-05
7.8e-05
7.8e-05
7.8e-05
7.8e-05
7.8e-05
7.8e-05
7.8e-05
7.8e-05
7.8e-05
7.8e-05
7.8e-05
7.8e-05
7.8e-05
7.8e-05
7.8e-05
7.8e-05
7.8e-05
7.8e-05
7.8e-05
7.8e-05
7.8e-05
7.8e-05
7.8e-05
7.8e-05
7.8e-05
7.8e-05
7.8e-05
7.8e-05
7.8e-05
7.8e-05
7.8e-05
7.8e-05
7.8e-05
7.8e-05
7.8e-05
7.8e-05
7.8e-05
7.8e-05
7.8e-05
7.8e-05
7.8e-05
7.8e-05
7.8e-05
7.8e-05
7.8e-05
7.8e-05
7.8e-05
7.8e-05
7.8e-05
7.8e-05
7.8e-05
7.8e-05
7.8e-05
7.8e-05
7.8e-05
7.8e-05
7.8e-05
7.8e-05
7.8e-05
7.8e-05
7.8e-05
7.8e-05
7.8e-05
7.8e-05
7.8e-05
7.8e-05
7.8e-05
7.8e-05
7.8e-05
7.8e-05
7.8e-05
7.8e-05
7.8e-05
7.8e-05
7.8e-05
7.8e-05
7.8e-05
7.8e-05
7.8e-05
7.8e-05
7.8e-05
7.8e-05
7.8e-05
7.8e-05
7.8e-05
7.8e-05
7.8e-05
7.8e-05
7.8e-05
7.8e-05
7.8e-05
7.8e-05
7.8e-05
7.8e-05
7.8e-05
7.8e-05
7.8e-05
7.8e-05
7.8e-05
7.8e-05
7.8e-05
7.8e-05
7.8e-05
7.8e-05
7.8e-05
7.8e-05
7.8e-05
7.8e-05
7.8e-05
7.8e-05
7.8e-05
7.8e-05
7.8e-05
7.8e-05
7.8e-05
7.8e-05
7.8e-05
7.8e-05
7.8e-05
7.8e-05
7.8e-05
7.8e-05
7.8e-05
7.8e-05
7.8e-05
7.8e-05
7.8e-05
7.8e-05
7.8e-05
7.8e-05
7.8e-05
7.8e-05
7.8e-05
7.8e-05
7.8e-05
7.8e-05
7.8e-05
7.8e-05
7.8e-05
7.8e-05
7.8e-05
7.8e-05
7.8e-05
7.8e-05
7.8e-05
7.8e-05
7.8e-05
7.8e-05
7.8e-05
7.8e-05
7.8e-05
7.8e-05
7.8e-05
7.8e-05
7.8e-05
7.8e-05
7.8e-05
7.8e-05
7.8e-05
7.8e-05
7.8e-05
7.8e-05
7.8e-05
7.8e-05
7.8e-05
7.8e-05
7.8e-05
7.8e-05
7.8e-05
7.8e-05
7.8e-05
7.8e-05
7.8e-05
7.8e-05
7.8e-05
7.8e-05
7.8e-05
7.8e-05
7.8e-05
7.8e-05
7.8e-05
7.8e-05
7.8e-05
7.8e-05
7.8e-05
7.8e-05
7.8e-05
7.8e-05
7.8e-05
7.8e-05
7.8e-05
7.8e-05
7.8e-05
7.8e-05
7.8e-05
7.8e-05
7.8e-05
7.8e-05
7.8e-05
7.8e-05
7.8e-05
7.8e-05
7.8e-05
7.8e-05
7.8e-05
7.8e-05
7.8e-05
7.8e-05
7.8e-05
7.8e-05
7.8e-05
7.8e-05
7.8e-05
7.8e-05
7.8e-05
7.8e-05
7.8e-05
7.8e-05
7.8e-05
7.8e-05
7.8e-05
7.8e-05
7.8e-05
7.8e-05
7.8e-05
7.8e-05
7.8e-05
7.8e-05
7.8e-05
7.8e-05
7.8e-05
7.8e-05
7.8e-05
7.8e-05
7.8e-05
7.8e-05
7.8e-05
7.8e-05
7.8e-05
7.8e-05
7.8e-05
7.8e-05
7.8e-05
7.8e-05
7.8e-05
7.8e-05
7.8e-05
7.8e-05
7.8e-05
7.8e-05
7.8e-05
7.8e-05
7.8e-05
7.8e-05
7.8e-05
7.8e-05
7.8e-05
7.8e-05
7.8e-05
7.8e-05
7.8e-05
7.8e-05
7.8e-05
7.8e-05
7.8e-05
7.8e-05
7.8e-05
7.8e-05
7.8e-05
7.8e-05
7.8e-05
7.8e-05
7.8e-05
7.8e-05
7.8e-05
7.8e-05
7.8e-05
7.8e-05
7.8e-05
7.8e-05
7.8e-05
7.8e-05
7.8e-05
7.8e-05
7.8e-05
7.8e-05
7.8e-05
7.8e-05
7.8e-05
7.8e-05
7.8e-05
7.8e-05
7.8e-05
7.8e-05
7.8e-05
7.8e-05
7.8e-05
7.8e-05
7.8e-05
7.8e-05
7.8e-05
7.8e-05
7.8e-05
7.8e-05
7.8e-05
7.8e-05
7.8e-05
7.8e-05
7.8e-05
7.8e-05
7.8e-05
7.8e-05
7.8e-05
7.8e-05
7.8e-05
7.8e-05
7.8e-05
7.8e-05
7.8e-05
7.8e-05
7.8e-05
7.8e-05
7.8e-05
7.8e-05
7.8e-05
7.8e-05
7.8e-05
7.8e-05
7.8e-05
7.8e-05
7.8e-05
7.8e-05
7.8e-05
7.8e-05
7.8e-05
7.8e-05
7.8e-05
7.8e-05
7.8e-05
7.8e-05
7.8e-05
7.8e-05
7.8e-05
7.8e-05
7.8e-05
7.8e-05
7.8e-05
7.8e-05
7.8e-05
7.8e-05
7.8e-05
7.8e-05
7.8e-05
7.8e-05
7.8e-05
7.8e-05
7.8e-05
7.8e-05
7.8e-05
7.8e-05
7.8e-05
7.8e-05
7.8e-05
7.8e-05
7.8e-05
7.8e-05
7.8e-05
7.8e-05
7.8e-05
7.8e-05
7.8e-05
7.8e-05
7.8e-05
7.8e-05
7.8e-05
7.8e-05
7.8e-05
7.8e-05
7.8e-05
7.8e-05
7.8e-05
7.8e-05
7.8e-05
7.8e-05
7.8e-05
7.8e-05
7.8e-05
7.8e-05
7.8e-05
7.8e-05
7.8e-05
7.8e-05
7.8e-05
7.8e-05
7.8e-05
7.8e-05
7.8e-05
7.8e-05
7.8e-05
7.8e-05
7.8e-05
7.8e-05
7.8e-05
7.8e-05
7.8e-05
7.8e-05
7.8e-05
7.8e-05
7.8e-05
7.8e-05
7.8e-05
7.8e-05
7.8e-05
7.8e-05
7.8e-05
7.8e-05
7.8e-05
7.8e-05
7.8e-05
7.8e-05
7.8e-05
7.8e-05
7.8e-05
7.8e-05
7.8e-05
7.8e-05
7.8e-05
7.8e-05
7.8e-05
7.8e-05
7.8e-05
7.8e-05
7.8e-05
7.8e-05
7.8e-05
7.8e-05
7.8e-05
7.8e-05
7.8e-05
7.8e-05
7.8e-05
7.8e-05
7.8e-05
7.8e-05
7.8e-05
7.8e-05
7.8e-05
7.8e-05
7.8e-05
7.8e-05
7.8e-05
7.8e-05
7.8e-05
7.8e-05
7.8e-05
7.8e-05
7.8e-05
7.8e-05
7.8e-05
7.8e-05
7.8e-05
7.8e-05
7.8e-05
7.8e-05
7.8e-05
7.8e-05
7.8e-05
7.8e-05
7.8e-05
7.8e-05
7.8e-05
7.8e-05
7.8e-05
7.8e-05
7.8e-05
7.8e-05
7.8e-05
7.8e-05
7.8e-05
7.8e-05
7.8e-05
7.8e-05
7.8e-05
7.8e-05
7.8e-05
7.8e-05
7.8e-05
7.8e-05
7.8e-05
7.8e-05
7.8e-05
7.8e-05
7.8e-05
7.8e-05
7.8e-05
7.8e-05
7.8e-05
7.8e-05
7.8e-05
7.8e-05
7.8e-05
7.8e-05
7.8e-05
7.8e-05
7.8e-05
7.8e-05
7.8e-05
7.8e-05
7.8e-05
7.8e-05
7.8e-05
7.8e-05
7.8e-05
7.8e-05
7.8e-05
7.8e-05
7.8e-05
7.8e-05
7.8e-05
7.8e-05
7.8e-05
7.8e-05
7.8e-05
7.8e-05
7.8e-05
7.8e-05
7.8e-05
7.8e-05
7.8e-05
7.8e-05
7.8e-05
7.8e-05
7.8e-05
7.8e-05
7.8e-05
7.8e-05
7.8e-05
7.8e-05
7.8e-05
7.8e-05
7.8e-05
7.8e-05
7.8e-05
7.8e-05
7.8e-05
7.8e-05
7.8e-05
7.8e-05
7.8e-05
7.8e-05
7.8e-05
7.8e-05
7.8e-05
7.8e-05
7.8e-05
7.8e-05
7.8e-05
7.8e-05
7.8e-05
7.8e-05
7.8e-05
7.8e-05
7.8e-05
7.8e-05
7.8e-05
7.8e-05
7.8e-05
7.8e-05
7.8e-05
7.8e-05
7.8e-05
7.8e-05
7.8e-05
7.8e-05
7.8e-05
7.8e-05
7.8e-05
7.8e-05
7.8e-05
7.8e-05
7.8e-05
7.8e-05
7.8e-05
7.8e-05
7.8e-05
7.8e-05
7.8e-05
7.8e-05
7.8e-05
7.8e-05
7.8e-05
7.8e-05
7.8e-05
7.8e-05
7.8e-05
7.8e-05
7.8e-05
7.8e-05
7.8e-05
7.8e-05
7.8e-05
7.8e-05
7.8e-05
7.8e-05
7.8e-05
7.8e-05
7.8e-05
7.8e-05
7.8e-05
7.8e-05
7.8e-05
7.8e-05
7.8e-05
7.8e-05
7.8e-05
7.8e-05
7.8e-05
7.8e-05
7.8e-05
7.8e-05
7.8e-05
7.8e-05
7.8e-05
7.8e-05
7.8e-05
7.8e-05
7.8e-05
7.8e-05
7.8e-05
7.8e-05
7.8e-05
7.8e-05
7.8e-05
7.8e-05
7.8e-05
7.8e-05
7.8e-05
7.8e-05
7.8e-05
7.8e-05
7.8e-05
7.8e-05
7.8e-05
7.8e-05
7.8e-05
7.8e-05
7.8e-05
7.8e-05
7.8e-05
7.8e-05
7.8e-05
7.8e-05
7.8e-05
7.8e-05
7.8e-05
7.8e-05
7.8e-05
7.8e-05
7.8e-05
7.8e-05
7.8e-05
7.8e-05
7.8e-05
7.8e-05
7.8e-05
7.8e-05
7.8e-05
7.8e-05
7.8e-05
7.8e-05
7.8e-05
7.8e-05
7.8e-05
7.8e-05
7.8e-05
7.8e-05
7.8e-05
7.8e-05
7.8e-05
7.8e-05
7.8e-05
7.8e-05
7.8e-05
7.8e-05
7.8e-05
7.8e-05