/*--------------------------------*- C++ -*----------------------------------*\
| =========                 |                                                 |
| \\      /  F ield         | OpenFOAM: The Open Source CFD Toolbox           |
|  \\    /   O peration     | Version:  2406                                  |
|   \\  /    A nd           | Website:  www.openfoam.com                      |
|    \\/     M anipulation  |                                                 |
\*---------------------------------------------------------------------------*/
FoamFile
{
    version     2.0;
    format      ascii;
    arch        "LSB;label=32;scalar=64";
    class       volScalarField;
    location    "9.45";
    object      C_0;
}
// * * * * * * * * * * * * * * * * * * * * * * * * * * * * * * * * * * * * * //

dimensions      [1 -3 0 0 0 0 0];

internalField   nonuniform List<scalar> 
14400
(
0.213778
0.213022
0.211683
0.210028
0.208343
0.206877
0.205817
0.20528
0.205309
0.205873
0.206862
0.208089
0.209286
0.210117
0.210215
0.209272
0.207179
0.204135
0.20052
0.19675
0.193206
0.190211
0.188031
0.186897
0.187024
0.188634
0.191964
0.197283
0.204882
0.215072
0.228166
0.244483
0.264342
0.288067
0.315965
0.34828
0.385037
0.425423
0.464417
0.492443
0.511793
0.528313
0.54227
0.553851
0.563201
0.570429
0.575616
0.578822
0.580082
0.579419
0.576833
0.57231
0.565818
0.557305
0.546698
0.5339
0.51878
0.501172
0.480776
0.450847
0.410067
0.369695
0.333193
0.301178
0.273597
0.250199
0.23067
0.214676
0.201872
0.1919
0.184396
0.179016
0.175466
0.173515
0.172999
0.173808
0.175874
0.179166
0.183682
0.189436
0.196452
0.204742
0.214276
0.22493
0.236408
0.248057
0.258319
0.264056
0.263149
0.257692
0.250283
0.242518
0.235085
0.22835
0.22251
0.21765
0.213777
0.210837
0.208732
0.207329
0.206479
0.206029
0.205847
0.205848
0.206011
0.206396
0.207125
0.208368
0.210318
0.213168
0.217103
0.222279
0.228814
0.236774
0.24615
0.256825
0.268522
0.280686
0.292147
0.299438
0.218733
0.217789
0.216153
0.214176
0.2122
0.210507
0.2093
0.208704
0.208765
0.209451
0.210651
0.212169
0.213718
0.214915
0.215306
0.214443
0.212111
0.208639
0.204547
0.200334
0.196418
0.193134
0.190747
0.189485
0.189561
0.191188
0.194601
0.200063
0.207858
0.218288
0.231664
0.2483
0.268518
0.292641
0.320977
0.353776
0.391076
0.432006
0.46947
0.495606
0.514606
0.530877
0.544645
0.556083
0.565323
0.57247
0.577599
0.580766
0.582007
0.581341
0.57877
0.574279
0.567838
0.559399
0.54889
0.53622
0.521269
0.50388
0.483842
0.455674
0.416237
0.375283
0.338185
0.305649
0.277601
0.253778
0.233861
0.217511
0.204383
0.194126
0.186383
0.180817
0.177133
0.175101
0.174552
0.175374
0.177501
0.180904
0.185583
0.19156
0.198865
0.20752
0.217501
0.228699
0.240831
0.253247
0.264039
0.269631
0.269341
0.26369
0.255782
0.24754
0.239691
0.232609
0.226495
0.221434
0.217433
0.214433
0.212329
0.210978
0.21021
0.209849
0.209735
0.209761
0.2099
0.21022
0.21087
0.212045
0.213962
0.216833
0.220853
0.226185
0.23295
0.241217
0.25098
0.262128
0.274389
0.287171
0.299023
0.305757
0.229154
0.22777
0.22547
0.222796
0.220207
0.218042
0.216534
0.215816
0.215937
0.216867
0.218493
0.220608
0.222895
0.224893
0.225973
0.225353
0.222426
0.217979
0.212857
0.20772
0.203043
0.199172
0.196369
0.19485
0.194817
0.196475
0.200047
0.205784
0.213956
0.224854
0.23878
0.256046
0.276972
0.30188
0.33107
0.364759
0.402894
0.444258
0.478604
0.501767
0.520145
0.535944
0.549351
0.560511
0.56954
0.576528
0.581543
0.584636
0.585839
0.585168
0.582625
0.578199
0.571859
0.563561
0.553243
0.540823
0.526195
0.509225
0.48975
0.464563
0.427959
0.386232
0.348142
0.314641
0.28569
0.261034
0.240351
0.2233
0.209537
0.198718
0.1905
0.184557
0.180602
0.1784
0.177781
0.17863
0.18088
0.184508
0.18952
0.19595
0.20384
0.213223
0.224088
0.236335
0.249688
0.263445
0.274908
0.28019
0.280727
0.275482
0.266854
0.257744
0.249097
0.241343
0.234698
0.229252
0.225009
0.221906
0.219824
0.218596
0.218017
0.217859
0.217902
0.217987
0.218066
0.218236
0.2187
0.219714
0.221544
0.224436
0.228606
0.23423
0.241435
0.25029
0.260794
0.272841
0.286161
0.300086
0.312139
0.317349
0.246054
0.243795
0.240304
0.236462
0.232886
0.229981
0.228003
0.227093
0.227301
0.228598
0.230868
0.233901
0.237357
0.240708
0.24311
0.243178
0.238943
0.232718
0.225892
0.219298
0.213453
0.208692
0.205257
0.203346
0.20314
0.204828
0.208617
0.214738
0.223447
0.235017
0.249743
0.267932
0.289904
0.315972
0.346414
0.381363
0.420442
0.460998
0.490395
0.510736
0.528261
0.543405
0.556303
0.56707
0.575797
0.582558
0.58741
0.590396
0.591544
0.590866
0.588366
0.584031
0.577836
0.569743
0.559699
0.547634
0.533462
0.517076
0.498343
0.476227
0.443997
0.402332
0.363131
0.328295
0.298035
0.272157
0.250349
0.232271
0.217581
0.205941
0.197024
0.190518
0.186149
0.183686
0.182956
0.183842
0.186282
0.190255
0.195779
0.202899
0.211671
0.222139
0.234302
0.248054
0.263066
0.278381
0.289975
0.294931
0.29619
0.292861
0.283697
0.273409
0.263637
0.254929
0.24753
0.241543
0.236974
0.233755
0.231753
0.230769
0.23054
0.230759
0.231097
0.231291
0.23125
0.23113
0.23124
0.231942
0.233578
0.236449
0.2408
0.246818
0.254636
0.264321
0.275866
0.289144
0.303804
0.31881
0.329594
0.333226
0.270892
0.266894
0.261427
0.255829
0.250843
0.246909
0.244287
0.243112
0.243431
0.245211
0.248339
0.252608
0.257682
0.263019
0.267647
0.269411
0.262481
0.253396
0.244111
0.235522
0.228108
0.22216
0.21788
0.215434
0.214977
0.216675
0.220715
0.227307
0.236686
0.249112
0.264869
0.284259
0.307595
0.335179
0.367251
0.403852
0.444182
0.479911
0.503545
0.522257
0.538759
0.55311
0.565388
0.575669
0.58402
0.590496
0.595144
0.597995
0.599073
0.598388
0.595941
0.591723
0.585712
0.577877
0.568175
0.556552
0.542944
0.527274
0.509465
0.489447
0.462783
0.423948
0.383411
0.346847
0.314889
0.287421
0.26415
0.244742
0.228855
0.216161
0.206342
0.199106
0.19419
0.191377
0.190496
0.191435
0.194133
0.198578
0.204796
0.212842
0.222781
0.234668
0.248505
0.264172
0.281221
0.297981
0.308323
0.313108
0.314976
0.313891
0.306185
0.294777
0.28369
0.273813
0.265481
0.258831
0.253884
0.250578
0.248768
0.248216
0.248592
0.249469
0.250341
0.250734
0.250454
0.249794
0.249272
0.249416
0.250681
0.253431
0.257945
0.264422
0.272992
0.283709
0.296541
0.311302
0.327401
0.342463
0.349863
0.352521
0.305015
0.297782
0.289376
0.281404
0.274594
0.269354
0.265921
0.264413
0.264863
0.267235
0.271413
0.27719
0.284232
0.291962
0.298956
0.2996
0.292514
0.280069
0.267789
0.256779
0.247458
0.240056
0.234729
0.231604
0.230808
0.232483
0.236791
0.243921
0.254089
0.26754
0.284543
0.305392
0.330389
0.359802
0.393749
0.431799
0.471191
0.499054
0.518603
0.535989
0.551408
0.564888
0.576469
0.586198
0.594116
0.600265
0.604674
0.607368
0.608365
0.607672
0.605288
0.601207
0.595412
0.587877
0.578572
0.567456
0.554486
0.539612
0.52279
0.503982
0.48219
0.450128
0.40893
0.370506
0.336552
0.307166
0.282118
0.261094
0.243764
0.229803
0.218908
0.2108
0.205232
0.201998
0.200941
0.201956
0.204986
0.210026
0.21711
0.226299
0.237664
0.251261
0.267087
0.284981
0.304264
0.320946
0.329308
0.334172
0.336613
0.336761
0.332973
0.321897
0.309611
0.298446
0.289038
0.281631
0.276282
0.272952
0.271498
0.271653
0.273008
0.274997
0.276829
0.277605
0.276835
0.275199
0.273596
0.272817
0.273448
0.275921
0.280544
0.287517
0.296948
0.308857
0.323148
0.339492
0.356642
0.367976
0.372346
0.374469
0.341201
0.335178
0.323977
0.313371
0.304469
0.297708
0.293331
0.291436
0.292042
0.295101
0.300485
0.307933
0.317019
0.326689
0.331669
0.330027
0.325328
0.312034
0.296947
0.283348
0.271893
0.262823
0.256269
0.252331
0.251111
0.252724
0.257313
0.265045
0.276116
0.290753
0.309208
0.331754
0.358673
0.390183
0.426227
0.465437
0.497007
0.517873
0.53564
0.551688
0.565997
0.578565
0.589404
0.598536
0.605984
0.611771
0.615918
0.618439
0.619347
0.618645
0.616333
0.612406
0.60685
0.599648
0.590779
0.580215
0.56793
0.553899
0.5381
0.52053
0.501209
0.476567
0.439508
0.399507
0.363378
0.331796
0.304679
0.281767
0.262755
0.247332
0.235204
0.226104
0.2198
0.2161
0.214859
0.215981
0.219419
0.225171
0.233277
0.243802
0.256817
0.272368
0.290409
0.310608
0.331512
0.345577
0.352751
0.357659
0.360544
0.361532
0.360781
0.35445
0.341664
0.329221
0.318634
0.310402
0.304633
0.30136
0.300473
0.301682
0.30451
0.308291
0.31183
0.31341
0.31159
0.30825
0.304912
0.30273
0.302391
0.304392
0.309046
0.316533
0.326911
0.340106
0.355847
0.373274
0.387389
0.393612
0.396871
0.398541
0.37458
0.37263
0.363984
0.351558
0.340618
0.332233
0.326843
0.324537
0.325322
0.329137
0.335829
0.344913
0.355448
0.363298
0.363835
0.361777
0.358424
0.348628
0.331608
0.315488
0.301778
0.290883
0.282956
0.278087
0.276363
0.277883
0.282771
0.291174
0.303269
0.319255
0.339354
0.363798
0.392801
0.42642
0.463842
0.498003
0.520544
0.538175
0.554394
0.569127
0.582327
0.593969
0.604046
0.612558
0.619513
0.624919
0.628787
0.631125
0.631938
0.631228
0.628995
0.625233
0.619934
0.613088
0.604679
0.594695
0.583123
0.569952
0.555182
0.538827
0.520919
0.501324
0.473426
0.433819
0.395726
0.361758
0.332303
0.307243
0.286318
0.269238
0.255724
0.245521
0.238409
0.234208
0.232784
0.234053
0.237972
0.244548
0.25382
0.265855
0.280719
0.298432
0.318864
0.341316
0.361364
0.371637
0.378284
0.383169
0.386372
0.388015
0.388273
0.386831
0.379276
0.366269
0.354534
0.345496
0.339284
0.336142
0.336048
0.338689
0.343482
0.349889
0.356059
0.359264
0.355355
0.349486
0.343628
0.339546
0.33788
0.339206
0.343809
0.351824
0.363199
0.377622
0.394171
0.40929
0.416862
0.42046
0.422985
0.424284
0.407601
0.40728
0.404332
0.395077
0.382959
0.373017
0.366669
0.363965
0.364949
0.369521
0.377535
0.387635
0.396339
0.398383
0.396913
0.394746
0.391708
0.386432
0.371602
0.35343
0.337478
0.324668
0.315257
0.309356
0.307062
0.308469
0.313684
0.32284
0.336088
0.353591
0.375514
0.401985
0.433048
0.468203
0.503381
0.526919
0.543945
0.559887
0.574635
0.588098
0.600214
0.61094
0.620253
0.628138
0.634589
0.639605
0.643187
0.645335
0.646051
0.645335
0.643184
0.639596
0.634566
0.628088
0.620156
0.610765
0.599913
0.587604
0.57385
0.558676
0.54212
0.524234
0.503905
0.473309
0.433956
0.3975
0.365488
0.33804
0.314975
0.296042
0.280985
0.269563
0.261568
0.256831
0.255229
0.256684
0.261161
0.268667
0.279242
0.292946
0.309829
0.329843
0.352606
0.376305
0.391403
0.399323
0.405577
0.410363
0.413759
0.415884
0.416904
0.417043
0.41541
0.408487
0.396499
0.387057
0.38035
0.37738
0.378277
0.382671
0.389415
0.39853
0.403818
0.405387
0.403722
0.397933
0.389414
0.38331
0.38003
0.380544
0.385021
0.393543
0.405856
0.420867
0.434604
0.442235
0.445627
0.448382
0.450323
0.451326
0.440944
0.44083
0.440682
0.437891
0.4304
0.41963
0.412758
0.409722
0.410901
0.415948
0.424807
0.43166
0.433783
0.432359
0.430687
0.428585
0.425933
0.422695
0.414832
0.397064
0.379304
0.364612
0.353662
0.346648
0.343733
0.34502
0.350604
0.360602
0.375142
0.394324
0.418218
0.44669
0.479322
0.513618
0.537013
0.55313
0.568409
0.582794
0.596162
0.608417
0.619489
0.629325
0.637887
0.645151
0.651101
0.655726
0.659019
0.660977
0.661596
0.660875
0.658811
0.655402
0.650647
0.644543
0.637091
0.628294
0.61816
0.6067
0.593939
0.579908
0.564652
0.548229
0.53071
0.509352
0.477074
0.43917
0.404664
0.374685
0.349282
0.328302
0.311538
0.298771
0.28981
0.284497
0.282716
0.284395
0.289505
0.298049
0.310057
0.325572
0.344598
0.366953
0.391647
0.411676
0.421445
0.428521
0.434339
0.438947
0.442417
0.444857
0.446416
0.447291
0.447741
0.446941
0.442223
0.434411
0.427268
0.42456
0.426431
0.43253
0.438863
0.442705
0.443963
0.443965
0.444647
0.443473
0.439667
0.433127
0.428357
0.428197
0.432426
0.44112
0.453584
0.463569
0.469689
0.472478
0.475022
0.477116
0.478601
0.479371
0.474403
0.474413
0.474503
0.474815
0.473512
0.469346
0.463874
0.460634
0.461972
0.466055
0.469221
0.469868
0.468161
0.466572
0.464893
0.462976
0.460737
0.458154
0.455166
0.445726
0.427429
0.411084
0.398655
0.390465
0.386902
0.38808
0.394079
0.405003
0.420966
0.441934
0.467811
0.497597
0.528951
0.550865
0.565772
0.580074
0.593769
0.606717
0.6188
0.62992
0.640001
0.648982
0.656819
0.663479
0.668938
0.673178
0.676187
0.677958
0.678483
0.677759
0.675783
0.672555
0.668075
0.662345
0.655371
0.647162
0.637731
0.6271
0.615297
0.602364
0.58835
0.573321
0.557357
0.540555
0.518733
0.486025
0.450068
0.417674
0.389811
0.366605
0.347972
0.333729
0.32371
0.317771
0.315804
0.317744
0.323561
0.33325
0.346807
0.364229
0.385383
0.40956
0.432981
0.445347
0.45265
0.458978
0.46431
0.468668
0.472106
0.474713
0.476612
0.477965
0.478978
0.479895
0.480621
0.478879
0.476502
0.475247
0.476202
0.47815
0.479528
0.478876
0.478464
0.478639
0.479431
0.480878
0.482072
0.48126
0.480176
0.480464
0.484053
0.48987
0.495463
0.498921
0.500885
0.502947
0.504865
0.506459
0.507595
0.508185
0.50785
0.507918
0.508099
0.508482
0.509192
0.509838
0.508618
0.5074
0.507284
0.507463
0.506007
0.504058
0.502405
0.500876
0.499335
0.497688
0.495887
0.493932
0.491869
0.489307
0.480404
0.463889
0.450554
0.441168
0.437013
0.438132
0.444585
0.456449
0.47389
0.496446
0.523501
0.549464
0.56854
0.581841
0.594893
0.607625
0.619875
0.631506
0.642402
0.652463
0.661612
0.669784
0.676929
0.683008
0.687993
0.691861
0.694595
0.696183
0.696618
0.695894
0.694008
0.69096
0.686753
0.681392
0.674887
0.66725
0.658503
0.64867
0.637787
0.625899
0.613064
0.599349
0.58484
0.569637
0.553852
0.532516
0.501067
0.467311
0.437082
0.411528
0.3909
0.37505
0.363878
0.35726
0.355094
0.35732
0.363916
0.374853
0.390043
0.409396
0.432479
0.45701
0.471309
0.478467
0.484825
0.49043
0.495256
0.499309
0.502627
0.505276
0.507352
0.50898
0.510309
0.511505
0.512737
0.514185
0.515276
0.515451
0.515241
0.514182
0.513099
0.512512
0.512368
0.512696
0.513526
0.514886
0.516808
0.519425
0.521658
0.523433
0.525768
0.527996
0.5291
0.530426
0.531969
0.533558
0.535033
0.536259
0.537135
0.53759
0.541229
0.54131
0.541494
0.54182
0.542318
0.54296
0.543653
0.543776
0.54281
0.541152
0.539496
0.537944
0.536526
0.535193
0.533884
0.532555
0.531191
0.529817
0.528498
0.527356
0.525987
0.519651
0.508716
0.498497
0.494158
0.495354
0.502263
0.514791
0.533268
0.555691
0.574854
0.589781
0.601206
0.612789
0.624334
0.635657
0.6466
0.657031
0.666836
0.675919
0.684199
0.691612
0.698104
0.703633
0.708166
0.711677
0.714148
0.715563
0.715912
0.71519
0.713394
0.710524
0.706585
0.701584
0.695533
0.688451
0.680359
0.67129
0.661282
0.650384
0.638656
0.626171
0.613016
0.599293
0.58512
0.570625
0.550952
0.522766
0.491304
0.463491
0.4409
0.423337
0.410934
0.403591
0.401204
0.403723
0.411142
0.423418
0.440181
0.461184
0.484865
0.499398
0.506312
0.512284
0.517753
0.522661
0.526974
0.530685
0.533816
0.536411
0.538541
0.540293
0.541772
0.54308
0.544304
0.545471
0.546419
0.546928
0.546793
0.546358
0.545917
0.545705
0.5458
0.546251
0.54709
0.548334
0.549987
0.552023
0.554255
0.556435
0.558053
0.559301
0.560479
0.561714
0.563007
0.564284
0.565448
0.56641
0.567094
0.56745
0.574527
0.574598
0.574748
0.574984
0.575298
0.575637
0.575879
0.575764
0.575113
0.574062
0.572881
0.571696
0.570563
0.569486
0.568452
0.567455
0.566507
0.565646
0.56495
0.564542
0.564603
0.565225
0.562923
0.559454
0.556775
0.558311
0.565587
0.577438
0.591028
0.603803
0.614079
0.623594
0.633575
0.643777
0.653998
0.664067
0.673838
0.683183
0.691994
0.700177
0.707654
0.71436
0.720241
0.725253
0.72936
0.732535
0.734756
0.736007
0.736278
0.735561
0.733854
0.731158
0.727478
0.722825
0.717212
0.710659
0.703194
0.694849
0.685666
0.675698
0.665006
0.653664
0.64176
0.629398
0.616698
0.603798
0.590859
0.574127
0.550997
0.522228
0.498357
0.479026
0.465407
0.457337
0.454695
0.457452
0.465633
0.479288
0.49692
0.517625
0.530382
0.536474
0.541645
0.546604
0.551242
0.555487
0.559293
0.562642
0.56554
0.568013
0.570107
0.571882
0.573405
0.574739
0.575928
0.576974
0.577809
0.578343
0.578541
0.578538
0.578506
0.578589
0.578876
0.579419
0.580248
0.581374
0.582782
0.584422
0.586176
0.587882
0.589358
0.590629
0.591802
0.592943
0.594062
0.595122
0.596067
0.596838
0.597383
0.597666
0.607754
0.607808
0.607916
0.608072
0.608253
0.608412
0.608461
0.608285
0.607815
0.607104
0.606268
0.605397
0.604544
0.603735
0.602985
0.602308
0.601733
0.60131
0.601115
0.601259
0.601895
0.603223
0.605529
0.607833
0.609618
0.613075
0.618999
0.626505
0.633905
0.640786
0.64854
0.656923
0.665723
0.674744
0.683813
0.692776
0.701501
0.709869
0.717778
0.72514
0.731881
0.737934
0.743248
0.747778
0.751487
0.754346
0.756334
0.757433
0.757631
0.756922
0.755303
0.752775
0.749345
0.745025
0.73983
0.733781
0.726908
0.719245
0.710837
0.701736
0.692004
0.681718
0.670963
0.659843
0.648475
0.637
0.625581
0.61442
0.601645
0.584238
0.562551
0.54178
0.527418
0.518755
0.515813
0.518606
0.526994
0.541594
0.555466
0.564798
0.56908
0.573081
0.57719
0.581244
0.585126
0.588752
0.59207
0.595051
0.597688
0.599993
0.601991
0.603722
0.605226
0.606542
0.607696
0.608689
0.609498
0.610095
0.610488
0.610749
0.610978
0.611271
0.611696
0.612301
0.613111
0.614131
0.615345
0.616708
0.618145
0.619559
0.620866
0.622055
0.623156
0.624195
0.625175
0.626075
0.62686
0.627492
0.627935
0.628163
0.640926
0.640964
0.641037
0.641133
0.641231
0.641294
0.64127
0.641101
0.640759
0.64027
0.639691
0.639079
0.63848
0.637926
0.637443
0.637059
0.636809
0.636746
0.63694
0.637484
0.638494
0.640104
0.642445
0.645549
0.649483
0.653832
0.65841
0.663384
0.669068
0.675405
0.68237
0.689835
0.697651
0.705665
0.713733
0.721725
0.72952
0.737013
0.744109
0.750727
0.756793
0.762248
0.767039
0.771123
0.774463
0.777029
0.7788
0.779758
0.779892
0.779193
0.77766
0.775294
0.772104
0.7681
0.7633
0.757728
0.751411
0.744387
0.7367
0.728403
0.719559
0.71024
0.700532
0.690534
0.68036
0.670144
0.660041
0.650234
0.640941
0.63202
0.620422
0.607523
0.595121
0.586347
0.583062
0.585415
0.591264
0.597407
0.602019
0.603993
0.606579
0.60958
0.612791
0.616057
0.619264
0.622325
0.625184
0.627804
0.630169
0.632278
0.634145
0.635788
0.637235
0.638509
0.639625
0.640589
0.641399
0.642052
0.642568
0.642992
0.643388
0.643819
0.644337
0.644978
0.645762
0.646694
0.647758
0.648922
0.650136
0.651343
0.652493
0.653569
0.654572
0.655506
0.656368
0.657143
0.657807
0.658334
0.658701
0.65889
0.67406
0.674086
0.674134
0.674192
0.674245
0.674265
0.674222
0.674088
0.673852
0.673526
0.673146
0.672748
0.672371
0.672046
0.671803
0.671674
0.671699
0.671925
0.672415
0.673243
0.674493
0.676254
0.678598
0.68155
0.685096
0.689095
0.693467
0.69826
0.70357
0.709395
0.715699
0.722397
0.72938
0.736531
0.743731
0.750869
0.757841
0.764553
0.770919
0.776863
0.782318
0.787226
0.791539
0.795212
0.798211
0.800508
0.80208
0.802909
0.802984
0.802298
0.800849
0.798639
0.795675
0.791971
0.787544
0.782418
0.776622
0.770193
0.763174
0.755619
0.747587
0.73915
0.73039
0.7214
0.712288
0.703177
0.694205
0.685533
0.677339
0.669816
0.663233
0.65707
0.650184
0.644404
0.641074
0.640349
0.640898
0.640584
0.640784
0.641901
0.643665
0.645868
0.648335
0.65093
0.653546
0.656101
0.658536
0.660812
0.662906
0.664808
0.66652
0.668052
0.669418
0.670632
0.671705
0.672644
0.673455
0.674147
0.674738
0.675263
0.675762
0.67628
0.676854
0.677512
0.678267
0.679124
0.680071
0.681086
0.682135
0.683182
0.684196
0.685156
0.686056
0.686889
0.687648
0.688321
0.68889
0.689337
0.689646
0.689804
0.707169
0.707187
0.707219
0.707258
0.70729
0.707299
0.707266
0.707179
0.707033
0.706838
0.706617
0.706397
0.70621
0.706083
0.706048
0.706137
0.706386
0.706841
0.707552
0.708579
0.709982
0.711821
0.714141
0.716957
0.720256
0.723984
0.728103
0.73262
0.737557
0.742908
0.748634
0.754674
0.760942
0.767346
0.77379
0.780179
0.786424
0.79244
0.798151
0.803488
0.808389
0.812801
0.816676
0.819975
0.822662
0.824712
0.826101
0.826814
0.826838
0.826167
0.824798
0.822736
0.819987
0.816565
0.812488
0.807778
0.802466
0.796587
0.790185
0.78331
0.776021
0.768384
0.760478
0.752389
0.744216
0.736069
0.72807
0.720354
0.713065
0.706348
0.700345
0.6951
0.690758
0.687155
0.684088
0.681514
0.679652
0.678717
0.678578
0.67916
0.680314
0.68189
0.683751
0.685783
0.68789
0.689997
0.692048
0.694003
0.695834
0.697526
0.699075
0.700482
0.701753
0.702896
0.703918
0.704827
0.705632
0.706342
0.706976
0.707558
0.708118
0.708686
0.709289
0.709947
0.710671
0.711463
0.712316
0.713215
0.714136
0.715056
0.715951
0.716804
0.717606
0.718346
0.719015
0.719603
0.720095
0.720479
0.720742
0.720877
0.740259
0.740273
0.740299
0.74033
0.740358
0.740373
0.740365
0.740328
0.740262
0.740176
0.740086
0.740015
0.739988
0.74003
0.74017
0.740438
0.740869
0.7415
0.742374
0.743537
0.745035
0.746908
0.749187
0.751882
0.754988
0.758481
0.76234
0.766559
0.771132
0.776043
0.781257
0.786721
0.792368
0.798122
0.803904
0.809634
0.815234
0.820631
0.825756
0.830548
0.83495
0.838912
0.842391
0.845348
0.847752
0.849576
0.8508
0.851407
0.851387
0.850732
0.849442
0.84752
0.844973
0.841815
0.838063
0.83374
0.828876
0.823505
0.817669
0.811416
0.804801
0.797888
0.790749
0.783462
0.776118
0.768812
0.761652
0.754748
0.748217
0.742168
0.736698
0.731867
0.727721
0.72421
0.721264
0.718873
0.717113
0.716051
0.715651
0.715847
0.716542
0.717627
0.718998
0.72056
0.722233
0.723949
0.725657
0.727317
0.7289
0.730388
0.731772
0.733048
0.734216
0.73528
0.736244
0.737116
0.737902
0.738614
0.739266
0.739876
0.740465
0.741057
0.741669
0.742315
0.743006
0.743741
0.744517
0.745321
0.746139
0.746953
0.747747
0.748505
0.749218
0.749874
0.750464
0.750979
0.751408
0.751741
0.751968
0.752083
0.773334
0.773348
0.773372
0.773405
0.773439
0.773471
0.773494
0.773506
0.773511
0.773517
0.773537
0.77359
0.773696
0.773879
0.774163
0.774577
0.77515
0.775916
0.776907
0.778162
0.779713
0.781591
0.783815
0.786397
0.789333
0.792611
0.796219
0.800142
0.804369
0.808876
0.81363
0.818586
0.823687
0.828871
0.834071
0.839219
0.844248
0.849094
0.853696
0.857999
0.861951
0.865507
0.868627
0.871274
0.873421
0.875041
0.876115
0.876628
0.876569
0.875933
0.874718
0.872928
0.87057
0.867658
0.864208
0.860244
0.855793
0.850888
0.84557
0.839883
0.83388
0.827619
0.821166
0.814593
0.80798
0.801411
0.794977
0.788771
0.782886
0.777409
0.772413
0.76795
0.764048
0.760699
0.757884
0.755601
0.753876
0.752725
0.752128
0.752036
0.752379
0.753079
0.754053
0.755227
0.756531
0.75791
0.759314
0.760707
0.762061
0.763356
0.764578
0.765722
0.766783
0.767763
0.768664
0.76949
0.770247
0.770946
0.771596
0.772213
0.772812
0.773407
0.774013
0.774641
0.775296
0.775979
0.776688
0.777414
0.778146
0.778871
0.779577
0.780252
0.780885
0.781467
0.781989
0.782442
0.782818
0.783107
0.783305
0.783405
0.806397
0.806411
0.806439
0.806477
0.806524
0.806576
0.806632
0.806692
0.80676
0.806844
0.806956
0.807111
0.807327
0.807625
0.808027
0.808557
0.80924
0.810105
0.811178
0.81249
0.814065
0.815925
0.818087
0.820557
0.823335
0.826413
0.82978
0.833423
0.837325
0.841462
0.845801
0.850304
0.854923
0.859603
0.864289
0.868922
0.873444
0.8778
0.881935
0.8858
0.889348
0.892538
0.895334
0.897703
0.899616
0.901052
0.901992
0.902421
0.902329
0.901713
0.90057
0.898904
0.896723
0.894038
0.890869
0.887234
0.883163
0.878685
0.873839
0.868667
0.863217
0.857543
0.851704
0.845765
0.839797
0.833874
0.828073
0.822473
0.817148
0.812169
0.807596
0.803471
0.799822
0.796655
0.793971
0.791772
0.790063
0.788846
0.7881
0.787789
0.787861
0.788255
0.788909
0.789762
0.790756
0.791844
0.792982
0.794137
0.795281
0.796395
0.797463
0.798477
0.799432
0.800325
0.801157
0.801931
0.802652
0.803326
0.803961
0.804569
0.80516
0.805746
0.806337
0.806939
0.807557
0.808192
0.808842
0.809501
0.810159
0.810809
0.811439
0.812041
0.812604
0.813121
0.813583
0.813983
0.814313
0.814567
0.81474
0.814827
0.839445
0.839461
0.839494
0.839542
0.839604
0.839678
0.839766
0.839869
0.839992
0.840142
0.840331
0.840571
0.840877
0.841268
0.841763
0.842383
0.843149
0.844084
0.845212
0.846554
0.848131
0.849959
0.85205
0.854409
0.857036
0.859925
0.863066
0.866446
0.870047
0.873844
0.87781
0.881908
0.886096
0.89033
0.89456
0.898736
0.902808
0.906727
0.910444
0.913917
0.917102
0.919964
0.922468
0.924585
0.92629
0.92756
0.928378
0.928733
0.928615
0.928019
0.926944
0.925395
0.923378
0.920905
0.917993
0.914663
0.910939
0.906851
0.902435
0.897728
0.892777
0.88763
0.882341
0.876967
0.87157
0.866216
0.86097
0.855898
0.851064
0.846524
0.842329
0.838517
0.835112
0.832129
0.829574
0.827451
0.82576
0.824494
0.823637
0.823159
0.823019
0.823172
0.823566
0.824154
0.824889
0.825728
0.826634
0.827578
0.828532
0.829479
0.830402
0.831292
0.832142
0.832948
0.83371
0.834427
0.835103
0.835744
0.836354
0.836942
0.837515
0.838081
0.838648
0.83922
0.839801
0.840391
0.840988
0.841587
0.842182
0.842766
0.84333
0.843868
0.84437
0.844829
0.845239
0.845593
0.845884
0.846108
0.846259
0.846336
0.872476
0.872495
0.872535
0.872593
0.87267
0.872767
0.872885
0.873027
0.873197
0.873403
0.873655
0.873964
0.874343
0.874808
0.875375
0.876062
0.876888
0.877871
0.879031
0.880384
0.881946
0.88373
0.885745
0.887993
0.890475
0.893185
0.896114
0.899249
0.902571
0.906059
0.909686
0.91342
0.917225
0.92106
0.924885
0.928654
0.932325
0.935854
0.939199
0.94232
0.945181
0.947748
0.94999
0.951881
0.953397
0.954518
0.955229
0.955519
0.955378
0.954804
0.953794
0.952353
0.950488
0.948211
0.945536
0.942484
0.939078
0.935346
0.931319
0.927035
0.922534
0.91786
0.913062
0.908191
0.903301
0.898449
0.893692
0.889086
0.884684
0.880535
0.876681
0.873155
0.869981
0.867175
0.864746
0.862698
0.86103
0.859735
0.858796
0.85819
0.857886
0.857846
0.858031
0.858401
0.858917
0.859544
0.86025
0.861007
0.861791
0.862585
0.863374
0.864147
0.864896
0.865616
0.866306
0.866963
0.867591
0.868191
0.868769
0.869328
0.869876
0.870416
0.870954
0.871494
0.872037
0.872583
0.873131
0.873677
0.874216
0.874742
0.875249
0.87573
0.876178
0.876587
0.876952
0.877265
0.877523
0.877721
0.877854
0.877922
0.905487
0.90551
0.905556
0.905625
0.905718
0.905836
0.905981
0.906155
0.906366
0.906619
0.906922
0.907286
0.907722
0.908244
0.908866
0.909603
0.91047
0.911482
0.912656
0.914005
0.91554
0.917271
0.919205
0.921344
0.923686
0.926227
0.928957
0.931863
0.934929
0.938135
0.941455
0.944861
0.948322
0.951802
0.955265
0.958672
0.961984
0.965165
0.968177
0.970984
0.973554
0.975856
0.977864
0.979551
0.980898
0.981887
0.982503
0.982735
0.982576
0.982023
0.981074
0.979735
0.978011
0.975913
0.973457
0.97066
0.967543
0.964134
0.960462
0.956559
0.952463
0.948214
0.943855
0.939433
0.934994
0.930587
0.926263
0.92207
0.918052
0.914251
0.910704
0.90744
0.904482
0.901844
0.899537
0.897566
0.895928
0.894618
0.893622
0.89292
0.892487
0.892295
0.89231
0.892501
0.892835
0.893282
0.893814
0.894408
0.895041
0.895697
0.896363
0.897026
0.897678
0.898315
0.898933
0.89953
0.900106
0.900662
0.901202
0.901728
0.902243
0.902753
0.903259
0.903764
0.904269
0.904773
0.905276
0.905773
0.906262
0.906737
0.907193
0.907624
0.908025
0.90839
0.908715
0.908993
0.909222
0.909397
0.909515
0.909575
0.938476
0.938502
0.938554
0.938633
0.93874
0.938877
0.939045
0.939249
0.939493
0.939783
0.940128
0.940536
0.941016
0.941582
0.942243
0.943013
0.943906
0.944933
0.946107
0.947438
0.948937
0.95061
0.952461
0.954491
0.956699
0.959079
0.961623
0.964318
0.967148
0.970096
0.973137
0.976248
0.9794
0.982561
0.9857
0.988783
0.991776
0.994645
0.997359
0.999885
1.00219
1.00426
1.00606
1.00756
1.00876
1.00963
1.01016
1.01034
1.01017
1.00964
1.00875
1.0075
1.00591
1.00398
1.00172
0.999154
0.996302
0.993186
0.989834
0.986277
0.982546
0.978678
0.974713
0.970691
0.966653
0.962644
0.958705
0.954878
0.951202
0.947714
0.944445
0.94142
0.938661
0.936182
0.933993
0.932099
0.930499
0.929187
0.928153
0.92738
0.926849
0.926536
0.926414
0.926458
0.92664
0.926934
0.927317
0.927768
0.928268
0.928801
0.929353
0.929915
0.930477
0.931034
0.931581
0.932117
0.93264
0.93315
0.933648
0.934137
0.934618
0.935093
0.935565
0.936034
0.936501
0.936966
0.937426
0.937879
0.938322
0.938751
0.939162
0.939549
0.939908
0.940234
0.940524
0.940772
0.940975
0.94113
0.941235
0.941288
0.971438
0.971467
0.971525
0.971614
0.971733
0.971886
0.972074
0.972302
0.972573
0.972894
0.973271
0.973712
0.974226
0.974822
0.97551
0.976302
0.977207
0.978237
0.9794
0.980705
0.98216
0.98377
0.985536
0.987461
0.98954
0.991768
0.994138
0.996637
0.99925
1.00196
1.00475
1.00759
1.01047
1.01334
1.01619
1.01898
1.02169
1.02428
1.02673
1.029
1.03108
1.03293
1.03454
1.03588
1.03694
1.03771
1.03816
1.0383
1.03812
1.03761
1.03677
1.03562
1.03414
1.03236
1.03029
1.02794
1.02532
1.02247
1.01941
1.01617
1.01276
1.00924
1.00563
1.00196
0.998285
0.994629
0.991034
0.987534
0.984165
0.980958
0.97794
0.975134
0.97256
0.97023
0.968155
0.966338
0.964781
0.963479
0.962422
0.9616
0.960994
0.960585
0.960354
0.960277
0.960332
0.960497
0.960753
0.96108
0.961462
0.961884
0.962335
0.962803
0.963281
0.963762
0.964242
0.964717
0.965187
0.965649
0.966105
0.966554
0.966997
0.967437
0.967873
0.968306
0.968736
0.969162
0.969582
0.969995
0.970397
0.970784
0.971154
0.971502
0.971823
0.972115
0.972374
0.972595
0.972776
0.972914
0.973007
0.973054
1.00437
1.0044
1.00447
1.00456
1.00469
1.00486
1.00506
1.00531
1.0056
1.00595
1.00635
1.00682
1.00735
1.00797
1.00867
1.00948
1.01038
1.01141
1.01255
1.01382
1.01523
1.01677
1.01845
1.02028
1.02223
1.02432
1.02652
1.02884
1.03126
1.03375
1.03631
1.03891
1.04153
1.04415
1.04674
1.04927
1.05172
1.05406
1.05627
1.05832
1.06019
1.06185
1.06329
1.06449
1.06543
1.0661
1.06649
1.06659
1.0664
1.06591
1.06512
1.06405
1.06268
1.06104
1.05913
1.05698
1.05458
1.05198
1.04918
1.04621
1.04311
1.03989
1.03659
1.03325
1.02989
1.02655
1.02327
1.02006
1.01697
1.01401
1.01122
1.00862
1.00621
1.00402
1.00206
1.00032
0.998809
0.997524
0.996459
0.995602
0.99494
0.994458
0.994138
0.993963
0.993913
0.99397
0.994117
0.994337
0.994616
0.99494
0.995298
0.995681
0.996081
0.996491
0.996906
0.997324
0.997741
0.998155
0.998567
0.998976
0.999382
0.999784
1.00018
1.00058
1.00098
1.00136
1.00175
1.00212
1.00249
1.00283
1.00317
1.00348
1.00377
1.00403
1.00426
1.00446
1.00462
1.00474
1.00483
1.00487
1.03727
1.03731
1.03737
1.03748
1.03762
1.03779
1.03801
1.03827
1.03858
1.03895
1.03937
1.03985
1.0404
1.04103
1.04174
1.04255
1.04345
1.04446
1.04557
1.04681
1.04816
1.04964
1.05123
1.05295
1.05479
1.05674
1.0588
1.06095
1.06318
1.06548
1.06783
1.07021
1.0726
1.07499
1.07734
1.07964
1.08186
1.08398
1.08597
1.08782
1.0895
1.09099
1.09228
1.09335
1.09418
1.09477
1.0951
1.09517
1.09497
1.0945
1.09376
1.09276
1.0915
1.08999
1.08823
1.08625
1.08406
1.08167
1.07911