/*--------------------------------*- C++ -*----------------------------------*\
| =========                 |                                                 |
| \\      /  F ield         | OpenFOAM: The Open Source CFD Toolbox           |
|  \\    /   O peration     | Version:  2406                                  |
|   \\  /    A nd           | Website:  www.openfoam.com                      |
|    \\/     M anipulation  |                                                 |
\*---------------------------------------------------------------------------*/
FoamFile
{
    version     2.0;
    format      ascii;
    arch        "LSB;label=32;scalar=64";
    class       volScalarField;
    location    "7.95";
    object      C_0_0;
}
// * * * * * * * * * * * * * * * * * * * * * * * * * * * * * * * * * * * * * //

dimensions      [1 -3 0 0 0 0 0];

internalField   nonuniform List<scalar> 
14400
(
0.225812
0.224839
0.223132
0.221056
0.218986
0.217245
0.216074
0.215626
0.215959
0.217038
0.218731
0.220802
0.222907
0.2246
0.225377
0.22479
0.22266
0.219289
0.215217
0.211023
0.207227
0.204265
0.202501
0.202246
0.20378
0.20737
0.213279
0.221778
0.233145
0.247676
0.265685
0.287506
0.313484
0.343959
0.379208
0.419282
0.46342
0.507166
0.538647
0.559971
0.578313
0.594007
0.60727
0.61827
0.627135
0.633965
0.638833
0.641791
0.642873
0.642095
0.639458
0.634946
0.628527
0.62015
0.609744
0.597216
0.582443
0.565268
0.54549
0.522365
0.48765
0.441152
0.39702
0.357425
0.322702
0.292705
0.267134
0.245638
0.227865
0.21348
0.202163
0.193614
0.187556
0.183742
0.181962
0.182057
0.183919
0.187485
0.19273
0.199651
0.208253
0.218519
0.230382
0.243665
0.257995
0.272535
0.284965
0.291427
0.290417
0.283406
0.273685
0.263592
0.253983
0.245288
0.237734
0.231427
0.226379
0.222532
0.219768
0.217928
0.216822
0.216255
0.216056
0.216109
0.216387
0.216962
0.21799
0.219686
0.222288
0.226028
0.231119
0.237734
0.246
0.255982
0.267663
0.280907
0.295381
0.310356
0.324035
0.331955
0.232333
0.231109
0.229015
0.226529
0.224098
0.222082
0.220737
0.220221
0.220596
0.221827
0.223784
0.226229
0.228801
0.231007
0.232226
0.231801
0.229354
0.225419
0.22074
0.216
0.211756
0.208453
0.206447
0.206041
0.207506
0.211098
0.217075
0.2257
0.237249
0.252017
0.270315
0.292476
0.318849
0.349774
0.38554
0.426224
0.470996
0.512841
0.542009
0.562906
0.580962
0.596437
0.609533
0.620404
0.629171
0.635928
0.640743
0.643667
0.644732
0.643954
0.641333
0.636853
0.630485
0.622178
0.611866
0.599461
0.584845
0.567872
0.548351
0.52593
0.493219
0.44791
0.403322
0.363132
0.327867
0.297393
0.271399
0.249531
0.23143
0.216758
0.205193
0.196439
0.19022
0.186294
0.184457
0.184551
0.18647
0.190154
0.195579
0.202745
0.211661
0.222314
0.234643
0.248482
0.263477
0.278794
0.291592
0.297682
0.297408
0.29049
0.280319
0.269744
0.259705
0.250653
0.242823
0.236321
0.231158
0.227274
0.224544
0.222794
0.221812
0.221373
0.221271
0.22136
0.221603
0.222084
0.222993
0.224577
0.227101
0.230821
0.23596
0.2427
0.251171
0.261441
0.273499
0.287218
0.30228
0.317931
0.331635
0.338316
0.245882
0.244054
0.24109
0.237726
0.234545
0.231965
0.230266
0.229612
0.230065
0.231597
0.234081
0.237281
0.240822
0.244141
0.246406
0.246463
0.243187
0.237959
0.23198
0.226113
0.220964
0.216975
0.214484
0.213773
0.215092
0.218682
0.224786
0.233659
0.24557
0.260805
0.279677
0.302517
0.329666
0.361459
0.398155
0.439748
0.485031
0.522968
0.548497
0.568677
0.58619
0.601248
0.614021
0.624642
0.633217
0.639831
0.644544
0.647403
0.648435
0.647656
0.645066
0.64065
0.63438
0.626211
0.616083
0.603915
0.589605
0.573024
0.554014
0.532383
0.503435
0.461442
0.415859
0.374541
0.338245
0.306843
0.280021
0.257417
0.238668
0.22343
0.21138
0.202224
0.195693
0.191551
0.189603
0.189698
0.191734
0.195654
0.201438
0.209092
0.218629
0.230043
0.243281
0.258185
0.274385
0.290932
0.30391
0.309411
0.310009
0.304396
0.293616
0.282149
0.27128
0.261534
0.253165
0.246285
0.240907
0.236966
0.234324
0.23278
0.232079
0.231931
0.232052
0.232225
0.232382
0.232644
0.233276
0.234599
0.236941
0.240597
0.245813
0.252786
0.26165
0.272478
0.28526
0.299863
0.315928
0.332483
0.345308
0.350145
0.267455
0.264396
0.259873
0.255054
0.250687
0.24724
0.245
0.244133
0.244699
0.246673
0.249938
0.254273
0.259315
0.264472
0.268714
0.270038
0.264859
0.257306
0.249221
0.241617
0.235103
0.230088
0.226869
0.225693
0.226784
0.230358
0.236643
0.245877
0.258319
0.27425
0.293977
0.317824
0.346121
0.379173
0.417147
0.459664
0.503882
0.535773
0.557916
0.577116
0.593873
0.608345
0.62066
0.630925
0.639226
0.645634
0.6502
0.652964
0.65395
0.65317
0.650625
0.646301
0.640174
0.632204
0.622339
0.610511
0.596635
0.580605
0.562295
0.541549
0.516655
0.479985
0.434179
0.391634
0.35395
0.321218
0.293182
0.269493
0.249787
0.233717
0.22096
0.211222
0.204243
0.199795
0.197695
0.1978
0.200015
0.20429
0.21061
0.218985
0.229435
0.241964
0.256522
0.272943
0.290767
0.308589
0.320589
0.325566
0.326849
0.323919
0.313539
0.300952
0.28893
0.278193
0.269048
0.261627
0.255954
0.251964
0.249505
0.248338
0.248144
0.248528
0.249064
0.249396
0.249379
0.249222
0.249337
0.250182
0.252181
0.255688
0.260981
0.268268
0.277689
0.289311
0.30312
0.318946
0.336254
0.353253
0.362953
0.366364
0.29834
0.292884
0.28585
0.278914
0.272908
0.268289
0.265327
0.264172
0.264881
0.267426
0.271699
0.277505
0.284524
0.292209
0.299433
0.302048
0.294512
0.283615
0.272659
0.262759
0.254462
0.248104
0.243927
0.242132
0.242908
0.246449
0.252959
0.262661
0.275802
0.292654
0.313512
0.338688
0.368488
0.403163
0.442775
0.48645
0.524528
0.549711
0.569976
0.587997
0.603842
0.617598
0.629349
0.639171
0.647129
0.653278
0.657659
0.660303
0.66123
0.660449
0.657962
0.653756
0.64781
0.640092
0.630559
0.619157
0.605818
0.590466
0.573011
0.553359
0.531401
0.501549
0.458382
0.414625
0.375214
0.34077
0.311152
0.286044
0.265086
0.247931
0.234258
0.223775
0.216228
0.211401
0.20912
0.209255
0.211718
0.216467
0.223491
0.232809
0.244445
0.25841
0.274656
0.292992
0.312783
0.330956
0.340544
0.345274
0.347136
0.346251
0.339382
0.326182
0.312892
0.300948
0.290826
0.282724
0.276701
0.272703
0.270569
0.270026
0.27067
0.271958
0.273233
0.273862
0.273504
0.27259
0.271816
0.271859
0.273281
0.276506
0.28184
0.289498
0.299609
0.31222
0.327288
0.344571
0.363107
0.377403
0.383302
0.385954
0.337546
0.329404
0.3191
0.309515
0.301508
0.295462
0.291617
0.290109
0.290988
0.294216
0.299677
0.307179
0.316394
0.32657
0.334941
0.335487
0.329973
0.316374
0.302266
0.289719
0.279325
0.271365
0.266027
0.263469
0.26385
0.267339
0.27412
0.284398
0.298404
0.316397
0.338659
0.365474
0.397083
0.433571
0.474423
0.516066
0.544835
0.565552
0.584278
0.601055
0.615901
0.628856
0.639966
0.64928
0.656842
0.66269
0.666854
0.669358
0.670216
0.669436
0.667017
0.66295
0.657217
0.649794
0.640648
0.629738
0.617016
0.60243
0.585925
0.567451
0.546971
0.523253
0.48824
0.443664
0.402295
0.365815
0.334282
0.307436
0.284942
0.266459
0.25167
0.240288
0.232065
0.226797
0.224319
0.224511
0.227296
0.232637
0.24053
0.250999
0.264073
0.279758
0.297976
0.318411
0.339862
0.355757
0.363207
0.367849
0.370149
0.370235
0.367599
0.357558
0.343333
0.330105
0.318861
0.309963
0.303555
0.299619
0.298
0.298407
0.300356
0.303122
0.305684
0.306901
0.305864
0.303609
0.301384
0.300174
0.300712
0.303479
0.308792
0.316855
0.327764
0.341483
0.357874
0.376322
0.393644
0.402186
0.406147
0.408196
0.374889
0.370597
0.358796
0.346741
0.336656
0.329038
0.324194
0.322281
0.323364
0.327371
0.334137
0.343408
0.354679
0.366001
0.369504
0.368
0.3652
0.354423
0.337842
0.322632
0.309981
0.300239
0.293576
0.290131
0.290043
0.293468
0.300571
0.311537
0.326577
0.34593
0.369859
0.398602
0.432287
0.470694
0.511997
0.543253
0.564467
0.583319
0.600527
0.616044
0.629852
0.641957
0.65238
0.661142
0.668269
0.673785
0.67771
0.680059
0.680842
0.680063
0.677721
0.673809
0.668315
0.66122
0.652501
0.64213
0.630077
0.616313
0.600809
0.583549
0.564535
0.5438
0.517561
0.478162
0.435335
0.396697
0.362986
0.334111
0.309805
0.289755
0.273653
0.26122
0.252217
0.246448
0.243761
0.244044
0.247227
0.253279
0.262201
0.274018
0.28876
0.306413
0.326818
0.349305
0.3705
0.381832
0.388264
0.392766
0.395374
0.396215
0.395501
0.391253
0.379703
0.365786
0.353443
0.343672
0.336866
0.333079
0.332189
0.333928
0.337766
0.342803
0.347499
0.349866
0.347525
0.34301
0.33859
0.335563
0.334869
0.336988
0.342207
0.350693
0.362487
0.377319
0.394828
0.413188
0.423413
0.427826
0.4309
0.432488
0.408494
0.408134
0.40272
0.390048
0.37837
0.369199
0.363299
0.360935
0.362274
0.367143
0.375224
0.386065
0.398407
0.4037
0.403074
0.401591
0.399332
0.394009
0.378874
0.361607
0.346744
0.335131
0.327024
0.322583
0.321964
0.325321
0.332808
0.344583
0.360825
0.381741
0.407561
0.438436
0.47418
0.513371
0.545401
0.567145
0.58559
0.60273
0.618469
0.63274
0.645504
0.656743
0.666453
0.674638
0.681307
0.686472
0.690142
0.692326
0.693028
0.692252
0.689995
0.686252
0.681014
0.67427
0.666005
0.656204
0.644851
0.631935
0.617449
0.601401
0.583818
0.564757
0.54424
0.515696
0.474188
0.433768
0.397737
0.366573
0.34019
0.318336
0.300721
0.287081
0.277187
0.270855
0.267944
0.268351
0.272013
0.278896
0.289001
0.302348
0.318957
0.338767
0.361429
0.385355
0.401488
0.40933
0.415249
0.419575
0.422368
0.423748
0.4239
0.423071
0.418315
0.40743
0.39461
0.383992
0.376837
0.373299
0.373305
0.376691
0.382912
0.390768
0.398088
0.400392
0.398003
0.390552
0.383508
0.378138
0.37596
0.377287
0.382337
0.39122
0.403959
0.419476
0.436722
0.446973
0.451382
0.454761
0.457139
0.458368
0.442358
0.44224
0.441902
0.436734
0.426031
0.415815
0.408945
0.406066
0.407756
0.413514
0.422469
0.433376
0.438509
0.438331
0.437343
0.435958
0.434087
0.431695
0.424003
0.406642
0.389919
0.376474
0.366857
0.361327
0.36012
0.363417
0.371359
0.384076
0.401677
0.424303
0.452125
0.485052
0.521565
0.552474
0.573884
0.591413
0.608016
0.623542
0.637878
0.650943
0.662682
0.673058
0.682051
0.689649
0.695851
0.700654
0.704061
0.706074
0.706694
0.705921
0.703754
0.700188
0.695219
0.688841
0.681046
0.67183
0.661189
0.649126
0.635651
0.620789
0.60458
0.58709
0.568407
0.548089
0.518321
0.477355
0.439015
0.405351
0.376653
0.35277
0.333443
0.318432
0.307527
0.30056
0.297406
0.297972
0.302192
0.310027
0.321461
0.336491
0.355096
0.377092
0.401499
0.421829
0.431776
0.438451
0.443826
0.447916
0.450776
0.45251
0.453275
0.453285
0.452798
0.449037
0.441173
0.430387
0.423277
0.420133
0.420993
0.425833
0.433865
0.439519
0.442512
0.443256
0.442917
0.440222
0.434626
0.427151
0.423757
0.4243
0.429102
0.438092
0.451456
0.464559
0.473135
0.476934
0.480103
0.482695
0.484528
0.485476
0.476341
0.476356
0.476447
0.476644
0.473293
0.467205
0.460194
0.456764
0.458907
0.46516
0.471191
0.474533
0.473944
0.473006
0.472008
0.470813
0.469352
0.467605
0.465454
0.456807
0.439544
0.424617
0.413543
0.40684
0.404999
0.408258
0.416741
0.430541
0.449621
0.473932
0.503507
0.537174
0.564944
0.584754
0.600955
0.616607
0.63152
0.645544
0.658559
0.670474
0.681222
0.690756
0.699042
0.706059
0.711791
0.716231
0.719373
0.721215
0.721753
0.720986
0.718911
0.715528
0.710834
0.704828
0.697509
0.68888
0.678949
0.667728
0.655241
0.641523
0.626624
0.610615
0.593585
0.57564
0.555592
0.526122
0.486943
0.450865
0.419733
0.393658
0.372433
0.355886
0.343837
0.33615
0.332727
0.333485
0.338349
0.347253
0.360147
0.376947
0.397511
0.421177
0.444152
0.456246
0.463041
0.468872
0.473688
0.477487
0.48031
0.48224
0.483407
0.483985
0.484198
0.484328
0.482797
0.478896
0.474437
0.472017
0.473142
0.475926
0.478379
0.479111
0.478542
0.47861
0.479423
0.480845
0.480534
0.478687
0.476547
0.476594
0.48103
0.488646
0.496144
0.501692
0.504356
0.506988
0.509401
0.51139
0.512801
0.513533
0.510308
0.510396
0.51062
0.511082
0.511945
0.51135
0.509452
0.508247
0.508858
0.510444
0.511093
0.509713
0.508645
0.507742
0.506868
0.505935
0.504903
0.503776
0.502608
0.501047
0.493574
0.479215
0.467313
0.45941
0.456951
0.460237
0.469319
0.484329
0.504873
0.530154
0.55964
0.582715
0.599649
0.614207
0.628575
0.642538
0.655914
0.668555
0.680338
0.69117
0.700977
0.709702
0.717304
0.723752
0.729025
0.733107
0.735987
0.737659
0.738116
0.737357
0.735378
0.732179
0.727761
0.722127
0.715281
0.707233
0.697998
0.687597
0.676062
0.663437
0.649778
0.635161
0.619678
0.603441
0.586585
0.567544
0.539926
0.503072
0.469811
0.441577
0.418311
0.400081
0.386746
0.378235
0.374505
0.37549
0.381092
0.391176
0.40563
0.424149
0.446292
0.469798
0.48301
0.489494
0.495266
0.500307
0.504567
0.508035
0.510736
0.512734
0.514127
0.515051
0.515673
0.516188
0.516809
0.517514
0.516786
0.515966
0.515843
0.515534
0.514175
0.513298
0.512963
0.513178
0.513976
0.51536
0.517401
0.519829
0.521063
0.522691
0.52567
0.529176
0.531447
0.533216
0.53523
0.537262
0.539124
0.540661
0.541754
0.54232
0.544186
0.5443
0.544556
0.545006
0.545712
0.546694
0.547837
0.548282
0.547775
0.546458
0.545138
0.544056
0.543183
0.542448
0.541787
0.541157
0.540548
0.539987
0.539548
0.539361
0.539254
0.534809
0.527038
0.518455
0.515826
0.519339
0.528878
0.544853
0.566098
0.58727
0.604974
0.618301
0.631001
0.643848
0.656601
0.669057
0.681045
0.692422
0.70307
0.712892
0.721813
0.729771
0.736719
0.74262
0.747449
0.751183
0.753809
0.755317
0.755697
0.754947
0.753064
0.750049
0.745905
0.740637
0.734255
0.726773
0.718212
0.7086
0.697974
0.686384
0.673891
0.660573
0.646525
0.631862
0.61672
0.601261
0.58421
0.559827
0.526549
0.496912
0.471577
0.451624
0.43686
0.427399
0.423313
0.424559
0.431
0.442308
0.458322
0.47794
0.499603
0.512257
0.51811
0.523391
0.528223
0.532523
0.536239
0.539349
0.541866
0.543832
0.545317
0.546419
0.547254
0.547943
0.548589
0.549219
0.549748
0.549819
0.549142
0.548221
0.547427
0.546938
0.546835
0.547161
0.547943
0.549193
0.550916
0.553066
0.555582
0.558029
0.559885
0.561334
0.562843
0.56443
0.566085
0.567706
0.569173
0.570378
0.571232
0.571675
0.577951
0.578063
0.578298
0.578675
0.579198
0.579828
0.580424
0.580677
0.580391
0.579706
0.578916
0.578191
0.577581
0.57708
0.576676
0.576359
0.576145
0.576076
0.576236
0.576754
0.577822
0.579693
0.579617
0.578747
0.579374
0.583673
0.592684
0.604966
0.618066
0.630055
0.64021
0.651001
0.662206
0.673583
0.684923
0.696043
0.706786
0.717018
0.726626
0.735517
0.743612
0.75085
0.75718
0.762562
0.766966
0.770369
0.772751
0.774101
0.774409
0.77367
0.771883
0.769049
0.765172
0.760261
0.754328
0.747393
0.739478
0.730617
0.720851
0.710233
0.698828
0.686714
0.673988
0.660762
0.647172
0.633375
0.619557
0.605227
0.585092
0.558863
0.532112
0.510887
0.49459
0.484045
0.479547
0.481054
0.488438
0.50067
0.517587
0.534146
0.544468
0.5491
0.553491
0.557736
0.561711
0.565324
0.568516
0.571258
0.573547
0.575409
0.57689
0.578055
0.57898
0.57974
0.580387
0.58093
0.581312
0.581406
0.581155
0.580744
0.580376
0.580192
0.580279
0.580687
0.581443
0.582554
0.584005
0.585745
0.587672
0.589575
0.591252
0.592732
0.594159
0.595577
0.596976
0.598303
0.599483
0.600444
0.601122
0.601473
0.611603
0.611702
0.6119
0.612197
0.612578
0.612994
0.613351
0.61351
0.613395
0.613057
0.612628
0.612213
0.611868
0.611618
0.611476
0.611458
0.611595
0.611937
0.612566
0.613597
0.615187
0.61754
0.620909
0.625242
0.629336
0.634608
0.641529
0.649046
0.656429
0.664676
0.6737
0.683288
0.693237
0.703356
0.713465
0.723406
0.733038
0.742238
0.7509
0.758936
0.766269
0.772836
0.778588
0.783482
0.787486
0.790573
0.792725
0.793926
0.794167
0.793442
0.791749
0.789091
0.785473
0.780906
0.775405
0.76899
0.76169
0.753539
0.744581
0.73487
0.724473
0.713468
0.701949
0.690027
0.67783
0.665509
0.653237
0.641213
0.629599
0.614745
0.596776
0.576912
0.559385
0.547932
0.543033
0.544509
0.55264
0.56389
0.573312
0.579701
0.582521
0.585681
0.589017
0.592353
0.59556
0.598545
0.601243
0.603618
0.605656
0.607367
0.608779
0.609931
0.610873
0.611648
0.612289
0.612802
0.613164
0.613338
0.613328
0.613223
0.613139
0.613175
0.613402
0.613864
0.614587
0.615574
0.616805
0.618236
0.619788
0.621346
0.622816
0.624183
0.625486
0.626741
0.627939
0.629046
0.630014
0.630793
0.631339
0.631621
0.645158
0.64524
0.645402
0.645636
0.645921
0.64622
0.646474
0.646618
0.646619
0.646501
0.646328
0.646164
0.646059
0.646046
0.646152
0.646404
0.646839
0.647512
0.648494
0.649881
0.651789
0.654349
0.657679
0.661809
0.666682
0.672052
0.677761
0.684033
0.690935
0.698489
0.706625
0.715212
0.724101
0.733138
0.742176
0.751078
0.759722
0.767995
0.775802
0.783058
0.78969
0.795639
0.800854
0.805293
0.808922
0.811714
0.813649
0.814712
0.814891
0.814181
0.812581
0.810093
0.806724
0.802486
0.797395
0.791474
0.784753
0.777267
0.769063
0.760194
0.750726
0.740736
0.730314
0.719567
0.708614
0.697595
0.686667
0.676011
0.665827
0.656359
0.646843
0.635722
0.624844
0.616135
0.611268
0.61055
0.61262
0.615635
0.617229
0.618186
0.6199
0.622088
0.624542
0.627098
0.629632
0.632053
0.634294
0.636314
0.638092
0.639625
0.640926
0.642019
0.642931
0.643691
0.64432
0.644825
0.645205
0.645455
0.645596
0.645682
0.645783
0.645967
0.646288
0.646782
0.647468
0.648348
0.649407
0.650608
0.651896
0.653206
0.654481
0.6557
0.65686
0.657962
0.658993
0.659928
0.660733
0.661375
0.661822
0.662051
0.67863
0.678699
0.678833
0.679023
0.679251
0.679491
0.679708
0.67987
0.679963
0.679999
0.680017
0.680057
0.680159
0.680357
0.680681
0.681165
0.681847
0.682777
0.684018
0.685644
0.687739
0.690386
0.69365
0.697547
0.702039
0.707027
0.712454
0.718366
0.72479
0.73172
0.739099
0.746835
0.754815
0.762918
0.771021
0.77901
0.786775
0.794219
0.801254
0.807802
0.813795
0.819176
0.823896
0.827913
0.831194
0.833712
0.835446
0.83638
0.836504
0.835811
0.834301
0.831976
0.828844
0.824918
0.820215
0.814759
0.80858
0.801715
0.794209
0.786116
0.7775
0.768434
0.759006
0.749312
0.739464
0.729589
0.719827
0.710334
0.701281
0.692851
0.685222
0.678698
0.673011
0.667667
0.663398
0.660505
0.658054
0.656217
0.655591
0.655857
0.656804
0.65823
0.659964
0.661864
0.663819
0.665741
0.667567
0.669253
0.670772
0.672115
0.673282
0.674286
0.675142
0.675866
0.676474
0.676974
0.677374
0.677682
0.677919
0.678124
0.678343
0.678623
0.679001
0.679507
0.680155
0.680945
0.681866
0.682891
0.683983
0.6851
0.686204
0.687273
0.688293
0.689255
0.690143
0.690938
0.691616
0.692151
0.692521
0.692711
0.712034
0.712093
0.712209
0.712372
0.71257
0.712785
0.712998
0.713192
0.713361
0.713517
0.713683
0.713888
0.714164
0.714542
0.715052
0.715727
0.716605
0.717731
0.719156
0.720938
0.723136
0.725806
0.728988
0.732692
0.736898
0.741564
0.746661
0.752187
0.758141
0.7645
0.771216
0.778215
0.785408
0.792697
0.799982
0.807164
0.81415
0.820853
0.827194
0.833101
0.838513
0.843375
0.84764
0.851269
0.854229
0.856494
0.858042
0.858859
0.858933
0.858259
0.856835
0.854666
0.851759
0.848126
0.843788
0.838766
0.833093
0.826803
0.819942
0.812562
0.804723
0.796497
0.787962
0.77921
0.770342
0.76147
0.752718
0.744219
0.736112
0.72854
0.721641
0.715536
0.710206
0.705637
0.701725
0.698397
0.695817
0.694014
0.693061
0.692846
0.693229
0.694065
0.695219
0.696576
0.698037
0.699525
0.70098
0.702357
0.703629
0.70478
0.705803
0.706701
0.707483
0.708158
0.708735
0.709224
0.709634
0.709978
0.710275
0.710552
0.710843
0.711179
0.711588
0.712091
0.712698
0.713411
0.714221
0.715107
0.716046
0.717007
0.717963
0.718895
0.719785
0.720621
0.721387
0.722067
0.722641
0.723091
0.723402
0.72356
0.745377
0.745431
0.745536
0.745685
0.745871
0.746081
0.746306
0.746537
0.746774
0.747026
0.747309
0.747648
0.748067
0.748594
0.749256
0.750086
0.751117
0.752387
0.753938
0.755815
0.758062
0.760716
0.763804
0.767333
0.771296
0.775671
0.780438
0.785582
0.791087
0.796924
0.803049
0.8094
0.815904
0.822481
0.829046
0.835515
0.841808
0.847849
0.853566
0.858896
0.863781
0.86817
0.87202
0.875294
0.87796
0.879992
0.881371
0.88208
0.88211
0.881456
0.880116
0.878094
0.875398
0.872042
0.868043
0.863426
0.858221
0.852463
0.846195
0.839466
0.832335
0.824867
0.817136
0.809224
0.801223
0.793232
0.785357
0.777711
0.770407
0.763558
0.757264
0.751599
0.746584
0.742216
0.738462
0.735308
0.7328
0.73096
0.729793
0.729237
0.729201
0.729581
0.730273
0.731183
0.732229
0.733343
0.734469
0.735568
0.736608
0.737571
0.738448
0.739234
0.739932
0.740546
0.741084
0.741553
0.741961
0.742322
0.742651
0.742968
0.743297
0.743662
0.744081
0.74457
0.745137
0.745782
0.746498
0.747272
0.748085
0.748917
0.749747
0.750557
0.751332
0.752057
0.752718
0.753301
0.75379
0.754172
0.754434
0.754567
0.778667
0.778718
0.778818
0.778963
0.779147
0.779364
0.779608
0.779877
0.780172
0.780502
0.780881
0.781327
0.781862
0.782509
0.783294
0.784244
0.785389
0.786761
0.788394
0.790323
0.792579
0.795191
0.798177
0.801542
0.805283
0.809387
0.813837
0.818615
0.8237
0.829061
0.834655
0.840432
0.846328
0.852276
0.858204
0.864042
0.869719
0.875168
0.880326
0.885135
0.889543
0.893504
0.896977
0.899927
0.902324
0.904144
0.905368
0.90598
0.905972
0.905339
0.904078
0.902195
0.899697
0.896599
0.892917
0.888675
0.883902
0.878633
0.872908
0.866773
0.860284
0.8535
0.84649
0.839327
0.832094
0.824877
0.817767
0.81086
0.804248
0.798022
0.792257
0.787012
0.782316
0.77818
0.774599
0.771573
0.769117
0.767234
0.765912
0.765109
0.764758
0.764785
0.765108
0.765653
0.766353
0.767147
0.767987
0.768836
0.769663
0.77045
0.771183
0.771854
0.772464
0.773012
0.773503
0.773942
0.774336
0.774697
0.775037
0.775371
0.775716
0.776089
0.776504
0.776971
0.777497
0.77808
0.778717
0.779397
0.780107
0.78083
0.781551
0.782255
0.782928
0.783556
0.784127
0.784628
0.785047
0.785372
0.785595
0.785708
0.811906
0.811956
0.812056
0.812201
0.81239
0.812619
0.812885
0.81319
0.813535
0.81393
0.814386
0.814918
0.815545
0.816287
0.817166
0.818207
0.819433
0.820873
0.822554
0.824502
0.826742
0.829294
0.83217
0.835375
0.838907
0.842756
0.846907
0.851342
0.856038
0.860963
0.86608
0.871343
0.876699
0.88209
0.887454
0.892731
0.897858
0.902778
0.907434
0.911775
0.915753
0.919326
0.922457
0.925113
0.927265
0.928893
0.929976
0.930501
0.93046
0.929848
0.928663
0.926911
0.924598
0.921739
0.91835
0.914455
0.91008
0.905259
0.900029
0.894435
0.888527
0.88236
0.875996
0.869502
0.862949
0.856414
0.849975
0.843713
0.837705
0.832023
0.82673
0.821875
0.817489
0.813588
0.81018
0.80727
0.804859
0.802946
0.801513
0.800527
0.799939
0.799691
0.799721
0.79997
0.800381
0.800904
0.801497
0.802125
0.80276
0.803383
0.803978
0.804538
0.805057
0.805535
0.805973
0.806374
0.806745
0.807094
0.807429
0.807763
0.808108
0.808475
0.808875
0.809315
0.809798
0.810326
0.810893
0.811493
0.812114
0.812745
0.813372
0.813984
0.814568
0.815113
0.815606
0.816037
0.816397
0.816676
0.816866
0.816962
0.845095
0.845146
0.845247
0.845396
0.845593
0.845836
0.846125
0.846462
0.84685
0.847297
0.847814
0.848415
0.849113
0.849928
0.850878
0.851983
0.853264
0.854745
0.856447
0.85839
0.860593
0.863071
0.865833
0.868882
0.872215
0.875823
0.879694
0.883809
0.888145
0.892674
0.89736
0.902163
0.907036
0.91193
0.916792
0.921568
0.926205
0.930652
0.934858
0.938778
0.942368
0.945591
0.948412
0.950801
0.952732
0.954185
0.955141
0.955589
0.95552
0.954929
0.953816
0.952186
0.950046
0.947408
0.944291
0.940714
0.936704
0.932293
0.927515
0.922412
0.917029
0.911417
0.905632
0.899734
0.893786
0.887854
0.882007
0.876312
0.870835
0.865635
0.860766
0.85627
0.852175
0.848503
0.845265
0.842465
0.840105
0.838178
0.836668
0.835548
0.83478
0.834319
0.834117
0.834125
0.834298
0.834592
0.834973
0.835407
0.83587
0.836342
0.836809
0.837261
0.837692
0.838098
0.838479
0.838837
0.839177
0.839503
0.839823
0.840144
0.840477
0.840828
0.841206
0.841614
0.842056
0.842532
0.843037
0.843566
0.844111
0.844663
0.84521
0.845742
0.846249
0.84672
0.847147
0.847519
0.847828
0.848067
0.84823
0.848313
0.878233
0.878285
0.878389
0.878544
0.87875
0.879008
0.879317
0.879681
0.880105
0.880594
0.88116
0.881812
0.882565
0.883434
0.884433
0.885582
0.886897
0.888396
0.890098
0.892018
0.89417
0.896565
0.899209
0.902104
0.905246
0.908628
0.912237
0.916055
0.92006
0.924227
0.928522
0.932911
0.937352
0.941802
0.946215
0.950544
0.954743
0.958766
0.962568
0.966109
0.969351
0.972258
0.974799
0.976947
0.978678
0.979973
0.980815
0.981194
0.981101
0.980532
0.979487
0.977971
0.975991
0.973558
0.97069
0.967406
0.963731
0.959693
0.955326
0.950668
0.94576
0.940648
0.935382
0.930017
0.924607
0.91921
0.913887
0.908694
0.903687
0.898917
0.89443
0.890261
0.88644
0.882986
0.879911
0.877221
0.874917
0.872993
0.871433
0.870217
0.869313
0.868687
0.868301
0.868115
0.868092
0.868195
0.868394
0.86866
0.86897
0.869307
0.869656
0.870006
0.870351
0.870685
0.871008
0.87132
0.871622
0.871918
0.872214
0.872515
0.872826
0.873155
0.873505
0.87388
0.874281
0.874708
0.875157
0.875624
0.876103
0.876585
0.877061
0.877524
0.877964
0.878373
0.878742
0.879063
0.879329
0.879535
0.879675
0.879746
0.911319
0.911372
0.91148
0.911641
0.911856
0.912127
0.912454
0.912841
0.913293
0.913816
0.914418
0.91511
0.915902
0.916808
0.91784
0.919014
0.920344
0.921845
0.923531
0.925414
0.927504
0.929809
0.932334
0.935079
0.938039
0.941207
0.94457
0.948113
0.951815
0.955651
0.959592
0.963607
0.96766
0.971711
0.975722
0.979651
0.983457
0.987099
0.99054
0.993741
0.996668
0.99929
1.00158
1.00351
1.00506
1.00621
1.00695
1.00727
1.00716
1.00661
1.00563
1.00422
1.00239
1.00014
0.997505
0.994489
0.991119
0.987422
0.983429
0.979173
0.974694
0.970032
0.965233
0.960343
0.955413
0.950494
0.945636
0.940889
0.936301
0.931917
0.927774
0.923906
0.920338
0.917089
0.914171
0.911591
0.90935
0.907442
0.905855
0.904572
0.903568
0.902817
0.902285
0.901943
0.901759
0.901703
0.901747
0.901867
0.902044
0.90226
0.902501
0.902757
0.90302
0.903284
0.903549
0.903811
0.904072
0.904334
0.9046
0.904874
0.90516
0.90546
0.90578
0.90612
0.906481
0.906861
0.90726
0.907671
0.908091
0.908512
0.908927
0.90933
0.909711
0.910065
0.910384
0.910662
0.910891
0.911068
0.911189
0.91125
0.944351
0.944406
0.944517
0.944684
0.944907
0.945189
0.945531
0.945937
0.946411
0.946958
0.947588
0.948307
0.949126
0.950055
0.951106
0.952291
0.953621
0.95511
0.956767
0.958602
0.960622
0.962834
0.965239
0.967838
0.970624
0.97359
0.976725
0.980012
0.983435
0.986969
0.990588
0.994265
0.997968
1.00166
1.00531
1.00888
1.01233
1.01564
1.01875
1.02165
1.02429
1.02666
1.02872
1.03045
1.03184
1.03287
1.03351
1.03378
1.03365
1.03312
1.0322
1.03089
1.0292
1.02713
1.0247
1.02193
1.01884
1.01545
1.01179
1.0079
1.00381
0.999554
0.995173
0.99071
0.98621
0.981716
0.977274
0.972925
0.968713
0.964675
0.960844
0.95725
0.953917
0.95086
0.948094
0.945623
0.94345
0.94157
0.939974
0.938648
0.937572
0.936725
0.936081
0.935614
0.935298
0.935109
0.935023
0.935019
0.935079
0.935188
0.935331
0.9355
0.935686
0.935885
0.936091
0.936303
0.936522
0.936746
0.936979
0.937222
0.937477
0.937747
0.938034
0.938338
0.93866
0.938997
0.939349
0.93971
0.940077
0.940444
0.940806
0.941155
0.941486
0.941793
0.942068
0.942308
0.942506
0.942658
0.942762
0.942814
0.977327
0.977384
0.977498
0.97767
0.9779
0.978191
0.978545
0.978964
0.979454
0.98002
0.980667
0.981404
0.982239
0.98318
0.984238
0.985421
0.986741
0.988206
0.989824
0.991604
0.99355
0.995666
0.997952
1.00041
1.00303
1.0058
1.00873
1.01178
1.01494
1.0182
1.02153
1.0249
1.02828
1.03166
1.03498
1.03823
1.04136
1.04436
1.04718
1.0498
1.05219
1.05433
1.05618
1.05774
1.05898
1.05989
1.06046
1.06068
1.06053
1.06003
1.05917
1.05795
1.05638
1.05447
1.05223
1.04968
1.04685
1.04374
1.04039
1.03683
1.03309
1.0292
1.02519
1.02112
1.017
1.01289
1.00882
1.00483
1.00095
0.997225
0.993677
0.990335
0.987218
0.984342
0.98172
0.979357
0.977256
0.975414
0.973824
0.972473
0.971348
0.97043
0.969698
0.969133
0.968711
0.968413
0.968217
0.968107
0.968066
0.96808
0.968136
0.968226
0.968341
0.968476
0.968627
0.96879
0.968965
0.96915
0.969348
0.969557
0.96978
0.970018
0.970271
0.970539
0.970823
0.971119
0.971428
0.971744
0.972064
0.972383
0.972697
0.973
0.973286
0.973551
0.973789
0.973995
0.974166
0.974297
0.974387
0.974432
1.01025
1.01031
1.01042
1.0106
1.01083
1.01113
1.01149
1.01192
1.01242
1.013
1.01366
1.0144
1.01524
1.01619
1.01724
1.01842
1.01971
1.02115
1.02272
1.02444
1.02631
1.02833
1.0305
1.03281
1.03528
1.03787
1.0406
1.04343
1.04636
1.04936
1.05242
1.05552
1.05862
1.0617
1.06473
1.06768
1.07054
1.07325
1.07581
1.07819
1.08035
1.08227
1.08395
1.08535
1.08646
1.08727
1.08776
1.08793
1.08778
1.0873
1.08649
1.08535
1.0839
1.08213
1.08007
1.07773
1.07513
1.07228
1.06921
1.06595
1.06252
1.05896
1.05529
1.05156
1.04779
1.04402
1.04028
1.03661
1.03304
1.0296
1.02631
1.02319
1.02028
1.01757
1.01509
1.01283
1.0108
1.00901
1.00743
1.00607
1.00492
1.00395
1.00315
1.00251
1.002
1.00161
1.00133
1.00113
1.001
1.00093
1.00091
1.00093
1.00098
1.00105
1.00115
1.00127
1.0014
1.00154
1.0017
1.00188
1.00207
1.00227
1.00249
1.00273
1.00297
1.00323
1.0035
1.00377
1.00405
1.00433
1.0046
1.00486
1.00511
1.00534
1.00554
1.00572
1.00587
1.00598
1.00606
1.00609
1.04311
1.04317
1.04329
1.04346
1.0437
1.04401
1.04437
1.04481
1.04531
1.0459
1.04656
1.04731
1.04815
1.04909
1.05013
1.05128
1.05256
1.05395
1.05547
1.05713
1.05891
1.06084
1.06289
1.06508
1.06739
1.06982
1.07235
1.07499
1.0777
1.08047
1.08329
1.08613
1.08897
1.09178
1.09455
1.09724
1.09984
1.10231
1.10463
1.10678
1.10874
1.11048
1.11198
1.11324
1.11423
1.11495
1.11538
1.11552
1.11535
1.11489
1.11413
1.11308
1.11173
1.1101
1.1082
1.10604
1.10365
1.10103
1.09822
1.09523
1.09208
1.08882
1.08546
1.08203
1.07857
1.07511
1.07168
1.0683
1.065
1.06181
1.05876
1.05586
1.05313
1.05058
1.04823
1.04607
1.04412
1.04238
1.04083
1.03947
1.0383
1.03729
1.03645
1.03575
1.03517
1.03471
1.03435
1.03407
1.03387
1.03373
1.03364
1.0336
1.03359
1.03361
1.03365
1.03372
1.03381
1.03392
1.03405
1.03419
1.03434
1.03451
1.0347
1.0349
1.03511
1.03533
1.03556
1.0358
1.03604
1.03628
1.03651
1.03674
1.03695
1.03714
1.03732
1.03747
1.0376
1.0377
1.03776
1.0378
1.07591
1.07597
1.07609
1.07627
1.07651
1.07681
1.07718
1.07762
1.07813
1.07871
1.07938
1.08012
1.08095
1.08188
1.08291
1.08404
1.08527
1.08662
1.08809
1.08968
1.09138
1.09321
1.09516
1.09722
1.09939
1.10166
1.10402
1.10646
1.10897
1.11153
1.11413
1.11674
1.11934
1.12192
1.12445
1.1269
1.12927
1.13151
1.13362
1.13557
1.13734
1.13891
1.14027
1.1414
1.14229
1.14292
1.14329
1.1434
1.14323
1.14279
1.14207
1.14109
1.13984
1.13833
1.13658
1.1346
1.13239
1.12999
1.1274
1.12465
1.12177
1.11877
1.11569
1.11254
1.10937
1.10618
1.10302
1.0999
1.09685
1.0939
1.09106
1.08835
1.08579
1.08339
1.08116
1.07911
1.07724
1.07555
1.07403
1.07269
1.07151
1.07048
1.0696