/*--------------------------------*- C++ -*----------------------------------*\
| =========                 |                                                 |
| \\      /  F ield         | OpenFOAM: The Open Source CFD Toolbox           |
|  \\    /   O peration     | Version:  2406                                  |
|   \\  /    A nd           | Website:  www.openfoam.com                      |
|    \\/     M anipulation  |                                                 |
\*---------------------------------------------------------------------------*/
FoamFile
{
    version     2.0;
    format      ascii;
    arch        "LSB;label=32;scalar=64";
    class       volScalarField;
    location    "7.95";
    object      D;
}
// * * * * * * * * * * * * * * * * * * * * * * * * * * * * * * * * * * * * * //

dimensions      [0 2 -1 0 0 0 0];

internalField   nonuniform List<scalar> 
14400
(
7.06174e-05
7.05564e-05
7.04672e-05
7.03821e-05
7.03174e-05
7.02757e-05
7.02529e-05
7.02448e-05
7.0252e-05
7.02808e-05
7.03422e-05
7.04475e-05
7.05983e-05
7.07712e-05
7.08991e-05
7.08767e-05
7.06357e-05
7.02531e-05
6.98098e-05
6.93338e-05
6.88146e-05
6.82282e-05
6.75571e-05
6.68018e-05
6.59832e-05
6.51384e-05
6.43105e-05
6.35388e-05
6.28533e-05
6.22743e-05
6.18163e-05
6.1494e-05
6.13304e-05
6.1373e-05
6.17306e-05
6.27067e-05
6.54973e-05
7.78013e-05
0.000137573
0.00013824
0.00013824
0.00013824
0.00013824
0.00013824
0.00013824
0.00013824
0.00013824
0.00013824
0.00013824
0.00013824
0.00013824
0.00013824
0.00013824
0.00013824
0.00013824
0.00013824
0.00013824
0.00013824
0.00013824
0.000132116
7.12817e-05
6.46459e-05
6.28463e-05
6.22188e-05
6.20978e-05
6.22887e-05
6.27223e-05
6.33763e-05
6.42465e-05
6.53299e-05
6.66064e-05
6.80199e-05
6.94659e-05
7.08051e-05
7.19013e-05
7.26592e-05
7.30395e-05
7.30539e-05
7.27565e-05
7.22366e-05
7.16112e-05
7.10179e-05
7.0616e-05
7.06235e-05
7.14852e-05
7.4802e-05
9.0986e-05
0.000137916
0.000102531
7.49837e-05
7.01251e-05
6.85324e-05
6.78927e-05
6.76901e-05
6.7734e-05
6.79283e-05
6.82124e-05
6.85415e-05
6.88788e-05
6.91928e-05
6.94542e-05
6.96354e-05
6.97108e-05
6.96612e-05
6.94803e-05
6.91784e-05
6.87778e-05
6.83075e-05
6.77989e-05
6.72844e-05
6.67973e-05
6.63719e-05
6.60461e-05
6.58667e-05
6.59038e-05
6.62875e-05
6.73258e-05
7.00281e-05
7.95843e-05
0.000136044
7.02422e-05
7.01187e-05
6.99445e-05
6.978e-05
6.96521e-05
6.95658e-05
6.95171e-05
6.95013e-05
6.95185e-05
6.95753e-05
6.96841e-05
6.98595e-05
7.01092e-05
7.04139e-05
7.06891e-05
7.0752e-05
7.04205e-05
6.99043e-05
6.9355e-05
6.88142e-05
6.82665e-05
6.76821e-05
6.70384e-05
6.63306e-05
6.55731e-05
6.47954e-05
6.40338e-05
6.33227e-05
6.26899e-05
6.21557e-05
6.17361e-05
6.14482e-05
6.13188e-05
6.14016e-05
6.18228e-05
6.2961e-05
6.66231e-05
8.89714e-05
0.000138184
0.00013824
0.00013824
0.00013824
0.00013824
0.00013824
0.00013824
0.00013824
0.00013824
0.00013824
0.00013824
0.00013824
0.00013824
0.00013824
0.00013824
0.00013824
0.00013824
0.00013824
0.00013824
0.00013824
0.00013824
0.00013692
7.53473e-05
6.54151e-05
6.30684e-05
6.22908e-05
6.21007e-05
6.22428e-05
6.26299e-05
6.32306e-05
6.40346e-05
6.5034e-05
6.62073e-05
6.75028e-05
6.88292e-05
7.00642e-05
7.10846e-05
7.17993e-05
7.21675e-05
7.21981e-05
7.19428e-05
7.1488e-05
7.09462e-05
7.04486e-05
7.015e-05
7.02736e-05
7.13149e-05
7.53403e-05
9.89573e-05
0.000138191
0.00011519
7.59204e-05
7.02077e-05
6.84003e-05
6.76469e-05
6.73616e-05
6.73358e-05
6.74684e-05
6.76986e-05
6.79838e-05
6.82904e-05
6.85884e-05
6.88485e-05
6.90396e-05
6.91288e-05
6.9089e-05
6.89109e-05
6.86098e-05
6.82167e-05
6.77662e-05
6.72914e-05
6.68229e-05
6.63904e-05
6.60246e-05
6.57607e-05
6.56456e-05
6.57547e-05
6.6238e-05
6.7492e-05
7.11637e-05
8.95658e-05
0.000138058
6.97601e-05
6.94786e-05
6.91187e-05
6.87992e-05
6.85576e-05
6.8395e-05
6.83028e-05
6.82734e-05
6.83055e-05
6.84063e-05
6.85922e-05
6.88878e-05
6.93214e-05
6.99033e-05
7.05539e-05
7.0912e-05
7.02519e-05
6.93843e-05
6.86047e-05
6.79381e-05
6.73383e-05
6.6756e-05
6.61568e-05
6.55262e-05
6.4868e-05
6.42003e-05
6.35488e-05
6.29403e-05
6.23987e-05
6.19441e-05
6.15946e-05
6.13719e-05
6.13098e-05
6.14748e-05
6.20251e-05
6.34603e-05
6.85307e-05
0.000111556
0.00013824
0.00013824
0.00013824
0.00013824
0.00013824
0.00013824
0.00013824
0.00013824
0.00013824
0.00013824
0.00013824
0.00013824
0.00013824
0.00013824
0.00013824
0.00013824
0.00013824
0.00013824
0.00013824
0.00013824
0.00013824
0.000138219
9.39912e-05
6.73766e-05
6.3532e-05
6.24428e-05
6.21173e-05
6.21655e-05
6.24648e-05
6.29679e-05
6.36538e-05
6.45066e-05
6.5502e-05
6.65947e-05
6.77119e-05
6.87581e-05
6.96343e-05
7.02628e-05
7.06046e-05
7.06652e-05
7.04907e-05
7.01592e-05
6.97725e-05
6.94509e-05
6.93437e-05
6.96857e-05
7.10521e-05
7.62026e-05
0.000113676
0.000138239
0.000132212
7.82152e-05
7.06487e-05
6.82769e-05
6.72705e-05
6.68254e-05
6.66755e-05
6.67029e-05
6.68439e-05
6.70582e-05
6.7316e-05
6.75907e-05
6.7853e-05
6.80662e-05
6.81846e-05
6.81644e-05
6.79872e-05
6.76818e-05
6.72955e-05
6.68732e-05
6.64503e-05
6.60545e-05
6.57099e-05
6.54422e-05
6.52836e-05
6.52829e-05
6.55267e-05
6.62011e-05
6.78492e-05
7.32418e-05
0.000112899
0.000138239
6.97001e-05
6.9021e-05
6.83097e-05
6.77522e-05
6.73582e-05
6.71016e-05
6.69579e-05
6.69115e-05
6.6958e-05
6.7106e-05
6.73796e-05
6.78242e-05
6.85181e-05
6.95841e-05
7.11647e-05
7.29453e-05
7.07147e-05
6.89813e-05
6.77952e-05
6.69426e-05
6.627e-05
6.56838e-05
6.51299e-05
6.45813e-05
6.40305e-05
6.3484e-05
6.29568e-05
6.24677e-05
6.2036e-05
6.16813e-05
6.14244e-05
6.12931e-05
6.1333e-05
6.16365e-05
6.24322e-05
6.44851e-05
7.1933e-05
0.000134193
0.00013824
0.00013824
0.00013824
0.00013824
0.00013824
0.00013824
0.00013824
0.00013824
0.00013824
0.00013824
0.00013824
0.00013824
0.00013824
0.00013824
0.00013824
0.00013824
0.00013824
0.00013824
0.00013824
0.00013824
0.00013824
0.00013824
0.000121143
6.99901e-05
6.42688e-05
6.27129e-05
6.21771e-05
6.20851e-05
6.22614e-05
6.26354e-05
6.31723e-05
6.38471e-05
6.46323e-05
6.54881e-05
6.63593e-05
6.71774e-05
6.7872e-05
6.83859e-05
6.86894e-05
6.87868e-05
6.87156e-05
6.85409e-05
6.83498e-05
6.82521e-05
6.84008e-05
6.90735e-05
7.10188e-05
7.77892e-05
0.000130369
0.00013824
0.000138221
0.000100031
7.28445e-05
6.84548e-05
6.69525e-05
6.62644e-05
6.5949e-05
6.5848e-05
6.58867e-05
6.60237e-05
6.62324e-05
6.64893e-05
6.67665e-05
6.7022e-05
6.71917e-05
6.72033e-05
6.70155e-05
6.66862e-05
6.62903e-05
6.58864e-05
6.55118e-05
6.51902e-05
6.49405e-05
6.47842e-05
6.47534e-05
6.49042e-05
6.53498e-05
6.63593e-05
6.87838e-05
7.71364e-05
0.000134967
0.00013824
7.14708e-05
6.93085e-05
6.78415e-05
6.69101e-05
6.63177e-05
6.59512e-05
6.57505e-05
6.56846e-05
6.57437e-05
6.59386e-05
6.63055e-05
6.69257e-05
6.7985e-05
6.99634e-05
7.46226e-05
8.98851e-05
7.3315e-05
6.90524e-05
6.71546e-05
6.604e-05
6.52674e-05
6.46617e-05
6.41392e-05
6.36583e-05
6.3201e-05
6.27641e-05
6.23535e-05
6.1981e-05
6.16622e-05
6.14159e-05
6.12667e-05
6.12514e-05
6.1436e-05
6.19694e-05
6.33091e-05
6.79126e-05
0.000106538
0.000138239
0.00013824
0.00013824
0.00013824
0.00013824
0.00013824
0.00013824
0.00013824
0.00013824
0.00013824
0.00013824
0.00013824
0.00013824
0.00013824
0.00013824
0.00013824
0.00013824
0.00013824
0.00013824
0.00013824
0.00013824
0.00013824
0.00013824
0.000137915
8.03557e-05
6.60415e-05
6.3259e-05
6.23432e-05
6.20447e-05
6.20629e-05
6.22868e-05
6.26624e-05
6.3155e-05
6.37335e-05
6.43631e-05
6.50023e-05
6.56043e-05
6.61233e-05
6.65233e-05
6.67866e-05
6.69187e-05
6.69498e-05
6.69319e-05
6.69394e-05
6.7079e-05
6.75295e-05
6.87084e-05
7.23016e-05
9.22649e-05
0.000138133
0.00013824
0.00013824
0.00013239
7.67954e-05
6.92668e-05
6.69327e-05
6.5874e-05
6.53408e-05
6.50923e-05
6.50258e-05
6.50921e-05
6.52645e-05
6.55233e-05
6.58432e-05
6.61804e-05
6.6446e-05
6.65172e-05
6.62829e-05
6.58816e-05
6.54349e-05
6.50188e-05
6.46699e-05
6.44062e-05
6.42416e-05
6.41961e-05
6.43068e-05
6.46491e-05
6.54058e-05
6.71338e-05
7.26094e-05
0.000113772
0.00013824
0.00013824
8.46726e-05
7.17624e-05
6.8107e-05
6.64909e-05
6.56084e-05
6.50981e-05
6.48276e-05
6.47378e-05
6.48103e-05
6.50587e-05
6.55382e-05
6.63897e-05
6.80365e-05
7.23148e-05
9.55415e-05
0.000137474
8.31092e-05
7.0166e-05
6.68955e-05
6.53846e-05
6.44628e-05
6.3809e-05
6.3294e-05
6.28573e-05
6.247e-05
6.2121e-05
6.18095e-05
6.1542e-05
6.1331e-05
6.11966e-05
6.11693e-05
6.13012e-05
6.16955e-05
6.26132e-05
6.50286e-05
7.53358e-05
0.000137251
0.00013824
0.00013824
0.00013824
0.00013824
0.00013824
0.00013824
0.00013824
0.00013824
0.00013824
0.00013824
0.00013824
0.00013824
0.00013824
0.00013824
0.00013824
0.00013824
0.00013824
0.00013824
0.00013824
0.00013824
0.00013824
0.00013824
0.00013824
0.00013824
0.000123552
7.0332e-05
6.43674e-05
6.27161e-05
6.21012e-05
6.19175e-05
6.19738e-05
6.21865e-05
6.25079e-05
6.2903e-05
6.334e-05
6.37874e-05
6.42138e-05
6.45911e-05
6.48989e-05
6.51297e-05
6.52918e-05
6.54108e-05
6.55313e-05
6.57225e-05
6.60991e-05
6.68926e-05
6.87551e-05
7.48641e-05
0.000123004
0.00013824
0.00013824
0.00013824
0.00013824
0.000114193
7.34743e-05
6.77819e-05
6.59004e-05
6.50162e-05
6.45766e-05
6.4395e-05
6.43986e-05
6.45559e-05
6.48523e-05
6.52714e-05
6.5782e-05
6.62591e-05
6.64963e-05
6.60898e-05
6.5493e-05
6.49038e-05
6.44154e-05
6.40531e-05
6.3822e-05
6.37286e-05
6.3795e-05
6.40732e-05
6.46794e-05
6.59638e-05
6.94579e-05
8.75373e-05
0.000138092
0.00013824
0.00013824
0.000137406
8.36469e-05
7.00974e-05
6.67989e-05
6.53899e-05
6.46472e-05
6.42731e-05
6.41488e-05
6.42415e-05
6.45692e-05
6.52232e-05
6.6452e-05
6.92387e-05
7.93341e-05
0.000136772
0.00013824
0.000124545
7.3965e-05
6.73704e-05
6.51175e-05
6.394e-05
6.31896e-05
6.26496e-05
6.22291e-05
6.18864e-05
6.16028e-05
6.13721e-05
6.11973e-05
6.109e-05
6.10739e-05
6.11931e-05
6.15333e-05
6.229e-05
6.40864e-05
7.0378e-05
0.000127217
0.00013824
0.00013824
0.00013824
0.00013824
0.00013824
0.00013824
0.00013824
0.00013824
0.00013824
0.00013824
0.00013824
0.00013824
0.00013824
0.00013824
0.00013824
0.00013824
0.00013824
0.00013824
0.00013824
0.00013824
0.00013824
0.00013824
0.00013824
0.00013824
0.00013824
0.000138227
9.50889e-05
6.74294e-05
6.35332e-05
6.23441e-05
6.18828e-05
6.17467e-05
6.17949e-05
6.19591e-05
6.21972e-05
6.24784e-05
6.27772e-05
6.30718e-05
6.33452e-05
6.35875e-05
6.37979e-05
6.39878e-05
6.41824e-05
6.4426e-05
6.47944e-05
6.54339e-05
6.67108e-05
7.01252e-05
8.7801e-05
0.000138065
0.00013824
0.00013824
0.00013824
0.00013824
0.000138217
9.68688e-05
7.13774e-05
6.6827e-05
6.5193e-05
6.44407e-05
6.41039e-05
6.40453e-05
6.4218e-05
6.46222e-05
6.5271e-05
6.62301e-05
6.73236e-05
6.84103e-05
6.70917e-05
6.5881e-05
6.48992e-05
6.42085e-05
6.37663e-05
6.35352e-05
6.35037e-05
6.37037e-05
6.42323e-05
6.53015e-05
6.77346e-05
7.6555e-05
0.000136129
0.00013824
0.00013824
0.00013824
0.00013824
0.000136479
7.84296e-05
6.88164e-05
6.60306e-05
6.47732e-05
6.42036e-05
6.4016e-05
6.41507e-05
6.46346e-05
6.56709e-05
6.78424e-05
7.51212e-05
0.000131922
0.00013824
0.00013824
0.000138225
9.78969e-05
7.00326e-05
6.54945e-05
6.37898e-05
6.28541e-05
6.22416e-05
6.18039e-05
6.14794e-05
6.12408e-05
6.10772e-05
6.0989e-05
6.09892e-05
6.11124e-05
6.14339e-05
6.21344e-05
6.37502e-05
6.91023e-05
0.000111957
0.00013824
0.00013824
0.00013824
0.00013824
0.00013824
0.00013824
0.00013824
0.00013824
0.00013824
0.00013824
0.00013824
0.00013824
0.00013824
0.00013824
0.00013824
0.00013824
0.00013824
0.00013824
0.00013824
0.00013824
0.00013824
0.00013824
0.00013824
0.00013824
0.00013824
0.00013824
0.00013824
0.000137052
7.4978e-05
6.52705e-05
6.29376e-05
6.20454e-05
6.16637e-05
6.15332e-05
6.15461e-05
6.16463e-05
6.18002e-05
6.19842e-05
6.21818e-05
6.23823e-05
6.25818e-05
6.27844e-05
6.3005e-05
6.32729e-05
6.36407e-05
6.42095e-05
6.52061e-05
6.73024e-05
7.40062e-05
0.000128022
0.00013824
0.00013824
0.00013824
0.00013824
0.00013824
0.00013824
0.000138154
9.12135e-05
7.08104e-05
6.64539e-05
6.49642e-05
6.43344e-05
6.41932e-05
6.44366e-05
6.51358e-05
6.64293e-05
6.92601e-05
7.32749e-05
8.2636e-05
7.27158e-05
6.84431e-05
6.59478e-05
6.46526e-05
6.39823e-05
6.37003e-05
6.37344e-05
6.41505e-05
6.52476e-05
6.76534e-05
7.50319e-05
0.000133487
0.00013824
0.00013824
0.00013824
0.00013824
0.00013824
0.00013824
0.000136016
7.90118e-05
6.93293e-05
6.60551e-05
6.49751e-05
6.46157e-05
6.48745e-05
6.57858e-05
6.82064e-05
7.47323e-05
0.000129482
0.00013824
0.00013824
0.00013824
0.00013824
0.000137333
7.83042e-05
6.70966e-05
6.42009e-05
6.28967e-05
6.21254e-05
6.16203e-05
6.12821e-05
6.107e-05
6.09667e-05
6.09722e-05
6.11046e-05
6.14259e-05
6.20943e-05
6.36463e-05
6.86188e-05
0.000103184
0.000138238
0.00013824
0.00013824
0.00013824
0.00013824
0.00013824
0.00013824
0.00013824
0.00013824
0.00013824
0.00013824
0.00013824
0.00013824
0.00013824
0.00013824
0.00013824
0.00013824
0.00013824
0.00013824
0.00013824
0.00013824
0.00013824
0.00013824
0.00013824
0.00013824
0.00013824
0.00013824
0.00013824
0.00013824
0.00013056
7.10561e-05
6.44631e-05
6.26016e-05
6.18198e-05
6.14587e-05
6.13059e-05
6.12723e-05
6.13139e-05
6.14045e-05
6.15281e-05
6.16773e-05
6.18519e-05
6.206e-05
6.23212e-05
6.26745e-05
6.31942e-05
6.40487e-05
6.57339e-05
7.06445e-05
0.000104777
0.000138237
0.00013824
0.00013824
0.00013824
0.00013824
0.00013824
0.00013824
0.00013824
0.000138165
9.87652e-05
7.1951e-05
6.71909e-05
6.56497e-05
6.53374e-05
6.58015e-05
6.76543e-05
7.19367e-05
9.13294e-05
0.000130591
0.000137888
0.000127822
8.4642e-05
7.08927e-05
6.66475e-05
6.52331e-05
6.47755e-05
6.49165e-05
6.58449e-05
6.94588e-05
7.9559e-05
0.000134785
0.00013824
0.00013824
0.00013824
0.00013824
0.00013824
0.00013824
0.00013824
0.00013824
0.000137299
9.27014e-05
7.17307e-05
6.83742e-05
6.70691e-05
6.80204e-05
7.09796e-05
8.35244e-05
0.000133947
0.00013824
0.00013824
0.00013824
0.00013824
0.00013824
0.00013824
0.000133745
7.34406e-05
6.59001e-05
6.36117e-05
6.24487e-05
6.17678e-05
6.13614e-05
6.1155e-05
6.11183e-05
6.12568e-05
6.16021e-05
6.2305e-05
6.3814e-05
6.89367e-05
0.000103552
0.000138237
0.00013824
0.00013824
0.00013824
0.00013824
0.00013824
0.00013824
0.00013824
0.00013824
0.00013824
0.00013824
0.00013824
0.00013824
0.00013824
0.00013824
0.00013824
0.00013824
0.00013824
0.00013824
0.00013824
0.00013824
0.00013824
0.00013824
0.00013824
0.00013824
0.00013824
0.00013824
0.00013824
0.00013824
0.00013824
0.00013824
0.000121996
7.01733e-05
6.41662e-05
6.24245e-05
6.1676e-05
6.12981e-05
6.11078e-05
6.10344e-05
6.10386e-05
6.11e-05
6.12121e-05
6.13773e-05
6.16073e-05
6.19304e-05
6.24054e-05
6.31524e-05
6.45032e-05
6.78547e-05
8.40479e-05
0.000138024
0.00013824
0.00013824
0.00013824
0.00013824
0.00013824
0.00013824
0.00013824
0.00013824
0.00013824
0.000138229
0.000120483
7.81669e-05
7.11995e-05
7.02791e-05
7.15871e-05
8.20336e-05
0.000122049
0.000138189
0.00013824
0.00013824
0.00013824
0.000138035
0.00011554
7.56867e-05
7.05046e-05
6.92197e-05
6.97947e-05
7.26116e-05
0.000103624
0.000137632
0.00013824
0.00013824
0.00013824
0.00013824
0.00013824
0.00013824
0.00013824
0.00013824
0.00013824
0.00013824
0.000138205
0.000121937
9.10538e-05
7.82567e-05
8.73095e-05
0.000116662
0.000137988
0.00013824
0.00013824
0.00013824
0.00013824
0.00013824
0.00013824
0.00013824
0.00013824
0.000131834
7.32808e-05
6.63456e-05
6.37164e-05
6.25059e-05
6.18905e-05
6.16558e-05
6.17221e-05
6.21475e-05
6.30079e-05
6.49576e-05
7.01673e-05
0.000113426
0.000138238
0.00013824
0.00013824
0.00013824
0.00013824
0.00013824
0.00013824
0.00013824
0.00013824
0.00013824
0.00013824
0.00013824
0.00013824
0.00013824
0.00013824
0.00013824
0.00013824
0.00013824
0.00013824
0.00013824
0.00013824
0.00013824
0.00013824
0.00013824
0.00013824
0.00013824
0.00013824
0.00013824
0.00013824
0.00013824
0.00013824
0.00013824
0.00013824
0.000118757
7.00232e-05
6.41414e-05
6.2454e-05
6.166e-05
6.12265e-05
6.10052e-05
6.09112e-05
6.09094e-05
6.09925e-05
6.11652e-05
6.14449e-05
6.18754e-05
6.2569e-05
6.37607e-05
6.62907e-05
7.52893e-05
0.000136389
0.00013824
0.00013824
0.00013824
0.00013824
0.00013824
0.00013824
0.00013824
0.00013824
0.00013824
0.00013824
0.00013824
0.00013824
0.000137366
0.000122377
0.000113284
0.000125252
0.000137901
0.00013824
0.00013824
0.00013824
0.00013824
0.00013824
0.00013824
0.00013824
0.000136543
0.0001179
0.000103558
0.000111572
0.000131976
0.000138237
0.00013824
0.00013824
0.00013824
0.00013824
0.00013824
0.00013824
0.00013824
0.00013824
0.00013824
0.00013824
0.00013824
0.00013824
0.00013824
0.000138187
0.000137335
0.000138124
0.00013824
0.00013824
0.00013824
0.00013824
0.00013824
0.00013824
0.00013824
0.00013824
0.00013824
0.00013824
0.00013824
0.000135145
8.23094e-05
6.87419e-05
6.48788e-05
6.34515e-05
6.31033e-05
6.34085e-05
6.49844e-05
6.82261e-05
7.88883e-05
0.000129145
0.00013824
0.00013824
0.00013824
0.00013824
0.00013824
0.00013824
0.00013824
0.00013824
0.00013824
0.00013824
0.00013824
0.00013824
0.00013824
0.00013824
0.00013824
0.00013824
0.00013824
0.00013824
0.00013824
0.00013824
0.00013824
0.00013824
0.00013824
0.00013824
0.00013824
0.00013824
0.00013824
0.00013824
0.00013824
0.00013824
0.00013824
0.00013824
0.00013824
0.00013824
0.00013824
0.000122872
7.07162e-05
6.48725e-05
6.28278e-05
6.18255e-05
6.13506e-05
6.11062e-05
6.10158e-05
6.10715e-05
6.12808e-05
6.16722e-05
6.23242e-05
6.35614e-05
6.61308e-05
7.39154e-05
0.000134511
0.00013824
0.00013824
0.00013824
0.00013824
0.00013824
0.00013824
0.00013824
0.00013824
0.00013824
0.00013824
0.00013824
0.00013824
0.00013824
0.00013824
0.00013824
0.00013824
0.00013824
0.00013824
0.00013824
0.00013824
0.00013824
0.00013824
0.00013824
0.00013824
0.00013824
0.00013824
0.00013824
0.000138237
0.00013824
0.00013824
0.00013824
0.00013824
0.00013824
0.00013824
0.00013824
0.00013824
0.00013824
0.00013824
0.00013824
0.00013824
0.00013824
0.00013824
0.00013824
0.00013824
0.00013824
0.00013824
0.00013824
0.00013824
0.00013824
0.00013824
0.00013824
0.00013824
0.00013824
0.00013824
0.00013824
0.00013824
0.00013824
0.00013824
0.00013824
0.000138047
0.000113782
7.60669e-05
6.9312e-05
6.85755e-05
6.96187e-05
8.08257e-05
0.00011609
0.000137926
0.00013824
0.00013824
0.00013824
0.00013824
0.00013824
0.00013824
0.00013824
0.00013824
0.00013824
0.00013824
0.00013824
0.00013824
0.00013824
0.00013824
0.00013824
0.00013824
0.00013824
0.00013824
0.00013824
0.00013824
0.00013824
0.00013824
0.00013824
0.00013824
0.00013824
0.00013824
0.00013824
0.00013824
0.00013824
0.00013824
0.00013824
0.00013824
0.00013824
0.00013824
0.00013824
0.00013824
0.00013824
0.000131959
7.68981e-05
6.71696e-05
6.35822e-05
6.24914e-05
6.18903e-05
6.16026e-05
6.16193e-05
6.19422e-05
6.26536e-05
6.38987e-05
6.75311e-05
7.84456e-05
0.000135643
0.00013824
0.00013824
0.00013824
0.00013824
0.00013824
0.00013824
0.00013824
0.00013824
0.00013824
0.00013824
0.00013824
0.00013824
0.00013824
0.00013824
0.00013824
0.00013824
0.00013824
0.00013824
0.00013824
0.00013824
0.00013824
0.00013824
0.00013824
0.00013824
0.00013824
0.00013824
0.00013824
0.00013824
0.00013824
0.00013824
0.00013824
0.00013824
0.00013824
0.00013824
0.00013824
0.00013824
0.00013824
0.00013824
0.00013824
0.00013824
0.00013824
0.00013824
0.00013824
0.00013824
0.00013824
0.00013824
0.00013824
0.00013824
0.00013824
0.00013824
0.00013824
0.00013824
0.00013824
0.00013824
0.00013824
0.00013824
0.00013824
0.00013824
0.00013824
0.00013824
0.00013824
0.00013824
0.000137488
0.000126691
0.00012192
0.000130308
0.000138034
0.00013824
0.00013824
0.00013824
0.00013824
0.00013824
0.00013824
0.00013824
0.00013824
0.00013824
0.00013824
0.00013824
0.00013824
0.00013824
0.00013824
0.00013824
0.00013824
0.00013824
0.00013824
0.00013824
0.00013824
0.00013824
0.00013824
0.00013824
0.00013824
0.00013824
0.00013824
0.00013824
0.00013824
0.00013824
0.00013824
0.00013824
0.00013824
0.00013824
0.00013824
0.00013824
0.00013824
0.00013824
0.00013824
0.00013824
0.00013824
0.00013773
0.000104392
7.02546e-05
6.68094e-05
6.44123e-05
6.33155e-05
6.3235e-05
6.3996e-05
6.63715e-05
7.01032e-05
9.89027e-05
0.000137765
0.00013824
0.00013824
0.00013824
0.00013824
0.00013824
0.00013824
0.00013824
0.00013824
0.00013824
0.00013824
0.00013824
0.00013824
0.00013824
0.00013824
0.00013824
0.00013824
0.00013824
0.00013824
0.00013824
0.00013824
0.00013824
0.00013824
0.00013824
0.00013824
0.00013824
0.00013824
0.00013824
0.00013824
0.00013824
0.00013824
0.00013824
0.00013824
0.00013824
0.00013824
0.00013824
0.00013824
0.00013824
0.00013824
0.00013824
0.00013824
0.00013824
0.00013824
0.00013824
0.00013824
0.00013824
0.00013824
0.00013824
0.00013824
0.00013824
0.00013824
0.00013824
0.00013824
0.00013824
0.00013824
0.00013824
0.00013824
0.00013824
0.00013824
0.00013824
0.00013824
0.00013824
0.00013824
0.00013824
0.00013824
0.00013824
0.00013824
0.00013824
0.00013824
0.00013824
0.00013824
0.00013824
0.00013824
0.00013824
0.00013824
0.00013824
0.00013824
0.00013824
0.00013824
0.00013824
0.00013824
0.00013824
0.00013824
0.00013824
0.00013824
0.00013824
0.00013824
0.00013824
0.00013824
0.00013824
0.00013824
0.00013824
0.00013824
0.00013824
0.00013824
0.00013824
0.00013824
0.00013824
0.00013824
0.00013824
0.00013824
0.00013824
0.00013824
0.00013824
0.00013824
0.00013824
0.00013824
0.00013824
0.00013824
0.00013824
0.000138239
0.000131662
0.00010343
7.69955e-05
6.97432e-05
6.93316e-05
7.24845e-05
9.44279e-05
0.000127099
0.000138235
0.00013824
0.00013824
0.00013824
0.00013824
0.00013824
0.00013824
0.00013824
0.00013824
0.00013824
0.00013824
0.00013824
0.00013824
0.00013824
0.00013824
0.00013824
0.00013824
0.00013824
0.00013824
0.00013824
0.00013824
0.00013824
0.00013824
0.00013824
0.00013824
0.00013824
0.00013824
0.00013824
0.00013824
0.00013824
0.00013824
0.00013824
0.00013824
0.00013824
0.00013824
0.00013824
0.00013824
0.00013824
0.00013824
0.00013824
0.00013824
0.00013824
0.00013824
0.00013824
0.00013824
0.00013824
0.00013824
0.00013824
0.00013824
0.00013824
0.00013824
0.00013824
0.00013824
0.00013824
0.00013824
0.00013824
0.00013824
0.00013824
0.00013824
0.00013824
0.00013824
0.00013824
0.00013824
0.00013824
0.00013824
0.00013824
0.00013824
0.00013824
0.00013824
0.00013824
0.00013824
0.00013824
0.00013824
0.00013824
0.00013824
0.00013824
0.00013824
0.00013824
0.00013824
0.00013824
0.00013824
0.00013824
0.00013824
0.00013824
0.00013824
0.00013824
0.00013824
0.00013824
0.00013824
0.00013824
0.00013824
0.00013824
0.00013824
0.00013824
0.00013824
0.00013824
0.00013824
0.00013824
0.00013824
0.00013824
0.00013824
0.00013824
0.00013824
0.00013824
0.00013824
0.00013824
0.00013824
0.00013824
0.00013824
0.00013824
0.00013824
0.00013824
0.00013824
0.000138238
0.000137742
0.000132434
0.000130467
0.000136319
0.000138227
0.00013824
0.00013824
0.00013824
0.00013824
0.00013824
0.00013824
0.00013824
0.00013824
0.00013824
0.00013824
0.00013824
0.00013824
0.00013824
0.00013824
0.00013824
0.00013824
0.00013824
0.00013824
0.00013824
0.00013824
0.00013824
0.00013824
0.00013824
0.00013824
0.00013824
0.00013824
0.00013824
0.00013824
0.00013824
0.00013824
0.00013824
0.00013824
0.00013824
0.00013824
0.00013824
0.00013824
0.00013824
0.00013824
0.00013824
0.00013824
0.00013824
0.00013824
0.00013824
0.00013824
0.00013824
0.00013824
0.00013824
0.00013824
0.00013824
0.00013824
0.00013824
0.00013824
0.00013824
0.00013824
0.00013824
0.00013824
0.00013824
0.00013824
0.00013824
0.00013824
0.00013824
0.00013824
0.00013824
0.00013824
0.00013824
0.00013824
0.00013824
0.00013824
0.00013824
0.00013824
0.00013824
0.00013824
0.00013824
0.00013824
0.00013824
0.00013824
0.00013824
0.00013824
0.00013824
0.00013824
0.00013824
0.00013824
0.00013824
0.00013824
0.00013824
0.00013824
0.00013824
0.00013824
0.00013824
0.00013824
0.00013824
0.00013824
0.00013824
0.00013824
0.00013824
0.00013824
0.00013824
0.00013824
0.00013824
0.00013824
0.00013824
0.00013824
0.00013824
0.00013824
0.00013824
0.00013824
0.00013824
0.00013824
0.00013824
0.00013824
0.00013824
0.00013824
0.00013824
0.00013824
0.00013824
0.00013824
0.00013824
0.00013824
0.00013824
0.00013824
0.00013824
0.00013824
0.00013824
0.00013824
0.00013824
0.00013824
0.00013824
0.00013824
0.00013824
0.00013824
0.00013824
0.00013824
0.00013824
0.00013824
0.00013824
0.00013824
0.00013824
0.00013824
0.00013824
0.00013824
0.00013824
0.00013824
0.00013824
0.00013824
0.00013824
0.00013824
0.00013824
0.00013824
0.00013824
0.00013824
0.00013824
0.00013824
0.00013824
0.00013824
0.00013824
0.00013824
0.00013824
0.00013824
0.00013824
0.00013824
0.00013824
0.00013824
0.00013824
0.00013824
0.00013824
0.00013824
0.00013824
0.00013824
0.00013824
0.00013824
0.00013824
0.00013824
0.00013824
0.00013824
0.00013824
0.00013824
0.00013824
0.00013824
0.00013824
0.00013824
0.00013824
0.00013824
0.00013824
0.00013824
0.00013824
0.00013824
0.00013824
0.00013824
0.00013824
0.00013824
0.00013824
0.00013824
0.00013824
0.00013824
0.00013824
0.00013824
0.00013824
0.00013824
0.00013824
0.00013824
0.00013824
0.00013824
0.00013824
0.00013824
0.00013824
0.00013824
0.00013824
0.00013824
0.00013824
0.00013824
0.00013824
0.00013824
0.00013824
0.00013824
0.00013824
0.00013824
0.00013824
0.00013824
0.00013824
0.00013824
0.00013824
0.00013824
0.00013824
0.00013824
0.00013824
0.00013824
0.00013824
0.00013824
0.00013824
0.00013824
0.00013824
0.00013824
0.00013824
0.00013824
0.00013824
0.00013824
0.00013824
0.00013824
0.00013824
0.00013824
0.00013824
0.00013824
0.00013824
0.00013824
0.00013824
0.00013824
0.00013824
0.00013824
0.00013824
0.00013824
0.00013824
0.00013824
0.00013824
0.00013824
0.00013824
0.00013824
0.00013824
0.00013824
0.00013824
0.00013824
0.00013824
0.00013824
0.00013824
0.00013824
0.00013824
0.00013824
0.00013824
0.00013824
0.00013824
0.00013824
0.00013824
0.00013824
0.00013824
0.00013824
0.00013824
0.00013824
0.00013824
0.00013824
0.00013824
0.00013824
0.00013824
0.00013824
0.00013824
0.00013824
0.00013824
0.00013824
0.00013824
0.00013824
0.00013824
0.00013824
0.00013824
0.00013824
0.00013824
0.00013824
0.00013824
0.00013824
0.00013824
0.00013824
0.00013824
0.00013824
0.00013824
0.00013824
0.00013824
0.00013824
0.00013824
0.00013824
0.00013824
0.00013824
0.00013824
0.00013824
0.00013824
0.00013824
0.00013824
0.00013824
0.00013824
0.00013824
0.00013824
0.00013824
0.00013824
0.00013824
0.00013824
0.00013824
0.00013824
0.00013824
0.00013824
0.00013824
0.00013824
0.00013824
0.00013824
0.00013824
0.00013824
0.00013824
0.00013824
0.00013824
0.00013824
0.00013824
0.00013824
0.00013824
0.00013824
0.00013824
0.00013824
0.00013824
0.00013824
0.00013824
0.00013824
0.00013824
0.00013824
0.00013824
0.00013824
0.00013824
0.00013824
0.00013824
0.00013824
0.00013824
0.00013824
0.00013824
0.00013824
0.00013824
0.00013824
0.00013824
0.00013824
0.00013824
0.00013824
0.00013824
0.00013824
0.00013824
0.00013824
0.00013824
0.00013824
0.00013824
0.00013824
0.00013824
0.00013824
0.00013824
0.00013824
0.00013824
0.00013824
0.00013824
0.00013824
0.00013824
0.00013824
0.00013824
0.00013824
0.00013824
0.00013824
0.00013824
0.00013824
0.00013824
0.00013824
0.00013824
0.00013824
0.00013824
0.00013824
0.00013824
0.00013824
0.00013824
0.00013824
0.00013824
0.00013824
0.00013824
0.00013824
0.00013824
0.00013824
0.00013824
0.00013824
0.00013824
0.00013824
0.00013824
0.00013824
0.00013824
0.00013824
0.00013824
0.00013824
0.00013824
0.00013824
0.00013824
0.00013824
0.00013824
0.00013824
0.00013824
0.00013824
0.00013824
0.00013824
0.00013824
0.00013824
0.00013824
0.00013824
0.00013824
0.00013824
0.00013824
0.00013824
0.00013824
0.00013824
0.00013824
0.00013824
0.00013824
0.00013824
0.00013824
0.00013824
0.00013824
0.00013824
0.00013824
0.00013824
0.00013824
0.00013824
0.00013824
0.00013824
0.00013824
0.00013824
0.00013824
0.00013824
0.00013824
0.00013824
0.00013824
0.00013824
0.00013824
0.00013824
0.00013824
0.00013824
0.00013824
0.00013824
0.00013824
0.00013824
0.00013824
0.00013824
0.00013824
0.00013824
0.00013824
0.00013824
0.00013824
0.00013824
0.00013824
0.00013824
0.00013824
0.00013824
0.00013824
0.00013824
0.00013824
0.00013824
0.00013824
0.00013824
0.00013824
0.00013824
0.00013824
0.00013824
0.00013824
0.00013824
0.00013824
0.00013824
0.00013824
0.00013824
0.00013824
0.00013824
0.00013824
0.00013824
0.00013824
0.00013824
0.00013824
0.00013824
0.00013824
0.00013824
0.00013824
0.00013824
0.00013824
0.00013824
0.00013824
0.00013824
0.00013824
0.00013824
0.00013824
0.00013824
0.00013824
0.00013824
0.00013824
0.00013824
0.00013824
0.00013824
0.00013824
0.00013824
0.00013824
0.00013824
0.00013824
0.00013824
0.00013824
0.00013824
0.00013824
0.00013824
0.00013824
0.00013824
0.00013824
0.00013824
0.00013824
0.00013824
0.00013824
0.00013824
0.00013824
0.00013824
0.00013824
0.00013824
0.00013824
0.00013824
0.00013824
0.00013824
0.00013824
0.00013824
0.00013824
0.00013824
0.00013824
0.00013824
0.00013824
0.00013824
0.00013824
0.00013824
0.00013824
0.00013824
0.00013824
0.00013824
0.00013824
0.00013824
0.00013824
0.00013824
0.00013824
0.00013824
0.00013824
0.00013824
0.00013824
0.00013824
0.00013824
0.00013824
0.00013824
0.00013824
0.00013824
0.00013824
0.00013824
0.00013824
0.00013824
0.00013824
0.00013824
0.00013824
0.00013824
0.00013824
0.00013824
0.00013824
0.00013824
0.00013824
0.00013824
0.00013824
0.00013824
0.00013824
0.00013824
0.00013824
0.00013824
0.00013824
0.00013824
0.00013824
0.00013824
0.00013824
0.00013824
0.00013824
0.00013824
0.00013824
0.00013824
0.00013824
0.00013824
0.00013824
0.00013824
0.00013824
0.00013824
0.00013824
0.00013824
0.00013824
0.00013824
0.00013824
0.00013824
0.00013824
0.00013824
0.00013824
0.00013824
0.00013824
0.00013824
0.00013824
0.00013824
0.00013824
0.00013824
0.00013824
0.00013824
0.00013824
0.00013824
0.00013824
0.00013824
0.00013824
0.00013824
0.00013824
0.00013824
0.00013824
0.00013824
0.00013824
0.00013824
0.00013824
0.00013824
0.00013824
0.00013824
0.00013824
0.00013824
0.00013824
0.00013824
0.00013824
0.00013824
0.00013824
0.00013824
0.00013824
0.00013824
0.00013824
0.00013824
0.00013824
0.00013824
0.00013824
0.00013824
0.00013824
0.00013824
0.00013824
0.00013824
0.00013824
0.00013824
0.00013824
0.00013824
0.00013824
0.00013824
0.00013824
0.00013824
0.00013824
0.00013824
0.00013824
0.00013824
0.00013824
0.00013824
0.00013824
0.00013824
0.00013824
0.00013824
0.00013824
0.00013824
0.00013824
0.00013824
0.00013824
0.00013824
0.00013824