/*--------------------------------*- C++ -*----------------------------------*\
| =========                 |                                                 |
| \\      /  F ield         | OpenFOAM: The Open Source CFD Toolbox           |
|  \\    /   O peration     | Version:  2406                                  |
|   \\  /    A nd           | Website:  www.openfoam.com                      |
|    \\/     M anipulation  |                                                 |
\*---------------------------------------------------------------------------*/
FoamFile
{
    version     2.0;
    format      ascii;
    arch        "LSB;label=32;scalar=64";
    class       volScalarField;
    location    "0.5";
    object      C;
}
// * * * * * * * * * * * * * * * * * * * * * * * * * * * * * * * * * * * * * //

dimensions      [1 -3 0 0 0 0 0];

internalField   nonuniform List<scalar> 
14400
(
3.79534
3.79488
3.79391
3.79232
3.78991
3.7862
3.78
3.76881
3.78064
3.78738
3.79163
3.79462
3.79681
3.79842
3.79958
3.80034
3.80073
3.80077
3.80041
3.7996
3.79822
3.79605
3.79263
3.78674
3.77598
3.78832
3.79552
3.80027
3.80384
3.80666
3.80898
3.81094
3.8126
3.81403
3.81527
3.81633
3.81725
3.81803
3.81869
3.81924
3.81968
3.82002
3.82026
3.82041
3.82048
3.82045
3.82034
3.82014
3.81986
3.81949
3.81904
3.81849
3.81786
3.81713
3.81631
3.81538
3.81435
3.81321
3.81195
3.81056
3.80903
3.80734
3.80548
3.80343
3.80116
3.79863
3.79579
3.79257
3.78886
3.7845
3.77922
3.77251
3.76299
3.74693
3.75257
3.75188
3.74453
3.75884
3.7669
3.77212
3.77585
3.77861
3.78068
3.78222
3.78331
3.78403
3.7844
3.78446
3.7842
3.78362
3.78271
3.7814
3.77964
3.7773
3.77415
3.76973
3.76282
3.75073
3.76156
3.76741
3.77072
3.77268
3.77371
3.774
3.77361
3.77247
3.77042
3.76702
3.76107
3.75014
3.76212
3.76895
3.7733
3.77638
3.77866
3.78038
3.78165
3.78255
3.78313
3.78341
3.79581
3.79539
3.79452
3.79315
3.79119
3.78853
3.78523
3.78231
3.78581
3.78967
3.79288
3.79542
3.79739
3.79888
3.79997
3.8007
3.8011
3.80115
3.80086
3.80017
3.79901
3.7973
3.79493
3.79197
3.78945
3.79342
3.79774
3.80147
3.80457
3.80716
3.80935
3.81122
3.81284
3.81423
3.81544
3.81648
3.81738
3.81815
3.8188
3.81934
3.81978
3.82011
3.82035
3.8205
3.82056
3.82054
3.82043
3.82023
3.81995
3.81958
3.81912
3.81858
3.81795
3.81723
3.81641
3.81549
3.81446
3.81333
3.81208
3.8107
3.80918
3.80751
3.80568
3.80366
3.80142
3.79894
3.79617
3.79305
3.78951
3.78543
3.78066
3.77503
3.76847
3.76162
3.76051
3.75975
3.75925
3.76448
3.76951
3.77361
3.77682
3.77931
3.78122
3.78265
3.78369
3.78437
3.78472
3.78477
3.78452
3.78397
3.78309
3.78186
3.78023
3.77811
3.77542
3.77203
3.76798
3.76423
3.76683
3.76979
3.77207
3.7736
3.77445
3.77469
3.77435
3.77339
3.77177
3.76939
3.76633
3.76362
3.76728
3.77124
3.77456
3.77718
3.77923
3.78082
3.78201
3.78287
3.78342
3.7837
3.79669
3.79634
3.79564
3.79458
3.79317
3.79149
3.78983
3.78903
3.79039
3.79259
3.79482
3.79679
3.79843
3.79974
3.80072
3.80141
3.8018
3.8019
3.8017
3.80119
3.80036
3.79921
3.79783
3.79652
3.7961
3.7979
3.80056
3.8033
3.80582
3.80807
3.81004
3.81177
3.81329
3.81461
3.81577
3.81678
3.81765
3.8184
3.81903
3.81955
3.81998
3.8203
3.82054
3.82068
3.82074
3.82071
3.8206
3.8204
3.82012
3.81975
3.8193
3.81876
3.81814
3.81742
3.81661
3.8157
3.81469
3.81357
3.81233
3.81097
3.80948
3.80785
3.80606
3.80409
3.80193
3.79954
3.7969
3.79397
3.79069
3.78704
3.78296
3.7785
3.77389
3.76987
3.7679
3.76713
3.76754
3.76999
3.77306
3.77598
3.7785
3.78058
3.78223
3.7835
3.78442
3.78503
3.78535
3.78539
3.78515
3.78463
3.78382
3.78272
3.78129
3.77951
3.77738
3.77498
3.77258
3.77098
3.77151
3.77285
3.77418
3.7752
3.7758
3.77596
3.77569
3.77499
3.77387
3.77244
3.771
3.77037
3.77187
3.77418
3.77651
3.77856
3.78027
3.78165
3.78272
3.78349
3.784
3.78425
3.79791
3.79765
3.79712
3.79636
3.79542
3.79441
3.7936
3.79338
3.79413
3.79548
3.79701
3.7985
3.79982
3.80092
3.80178
3.8024
3.80279
3.80294
3.80285
3.80254
3.80203
3.80136
3.80066
3.80018
3.80034
3.80151
3.80331
3.80533
3.80735
3.80924
3.81097
3.81253
3.81392
3.81516
3.81625
3.8172
3.81804
3.81875
3.81936
3.81986
3.82027
3.82059
3.82081
3.82095
3.821
3.82097
3.82085
3.82065
3.82037
3.82001
3.81956
3.81903
3.81841
3.8177
3.8169
3.81601
3.81502
3.81392
3.81271
3.81138
3.80993
3.80835
3.80661
3.80472
3.80265
3.80039
3.79792
3.79522
3.79226
3.78906
3.78565
3.78211
3.7787
3.77585
3.77408
3.77332
3.77356
3.77488
3.77676
3.77876
3.78064
3.78227
3.78362
3.78468
3.78547
3.78599
3.78625
3.78627
3.78605
3.78558
3.78486
3.7839
3.78269
3.78125
3.77962
3.77792
3.77639
3.77542
3.77539
3.77592
3.77661
3.77721
3.77758
3.77767
3.77747
3.77699
3.7763
3.7755
3.77486
3.77479
3.77566
3.77711
3.77872
3.78027
3.78165
3.78279
3.78371
3.78439
3.78483
3.78506
3.7994
3.79921
3.79884
3.79833
3.79773
3.79715
3.79676
3.79676
3.79727
3.79817
3.79926
3.80038
3.80142
3.80233
3.80307
3.80363
3.80401
3.80421
3.80424
3.8041
3.80385
3.80353
3.80326
3.80321
3.80358
3.80449
3.80582
3.80737
3.809
3.81058
3.81208
3.81346
3.81472
3.81585
3.81686
3.81776
3.81854
3.81922
3.81979
3.82027
3.82066
3.82096
3.82117
3.8213
3.82134
3.8213
3.82119
3.82099
3.82071
3.82035
3.81991
3.81938
3.81878
3.81808
3.8173
3.81642
3.81545
3.81438
3.8132
3.81192
3.81052
3.80899
3.80733
3.80552
3.80357
3.80146
3.79917
3.79671
3.79408
3.79131
3.78845
3.7856
3.78295
3.78076
3.77926
3.77851
3.77851
3.7792
3.78034
3.78167
3.78301
3.78424
3.78529
3.78614
3.78678
3.7872
3.78741
3.7874
3.78719
3.78677
3.78615
3.78533
3.78433
3.78318
3.78193
3.78069
3.77962
3.77892
3.7787
3.77884
3.77914
3.77944
3.77963
3.77967
3.77952
3.77922
3.77881
3.7784
3.77816
3.77827
3.77888
3.77986
3.781
3.78217
3.78324
3.78417
3.78493
3.78551
3.78589
3.78608
3.80108
3.80095
3.8007
3.80038
3.80001
3.7997
3.79954
3.79963
3.80003
3.80068
3.80148
3.80233
3.80316
3.80391
3.80454
3.80505
3.80542
3.80566
3.80577
3.80578
3.80572
3.80565
3.80565
3.80582
3.80627
3.80705
3.80811
3.80935
3.81068
3.81201
3.8133
3.81451
3.81564
3.81667
3.81759
3.81842
3.81915
3.81978
3.82032
3.82077
3.82114
3.82142
3.82161
3.82173
3.82177
3.82172
3.8216
3.8214
3.82113
3.82077
3.82034
3.81982
3.81923
3.81855
3.81778
3.81693
3.81598
3.81495
3.81381
3.81257
3.81122
3.80976
3.80818
3.80648
3.80465
3.80269
3.80059
3.79838
3.79605
3.79365
3.79123
3.78888
3.78675
3.78497
3.78368
3.78295
3.78276
3.78307
3.78372
3.78458
3.7855
3.78638
3.78717
3.78782
3.78831
3.78863
3.78877
3.78874
3.78854
3.78817
3.78763
3.78694
3.78612
3.7852
3.78423
3.7833
3.7825
3.78193
3.78164
3.78159
3.78167
3.78178
3.78185
3.78184
3.78174
3.78155
3.78133
3.78114
3.78109
3.78127
3.78173
3.78243
3.78327
3.78415
3.78498
3.78573
3.78634
3.78682
3.78714
3.7873
3.80289
3.80281
3.80265
3.80245
3.80225
3.8021
3.80207
3.8022
3.80253
3.80303
3.80364
3.80431
3.80497
3.80559
3.80614
3.8066
3.80696
3.80723
3.80741
3.80753
3.80761
3.8077
3.80786
3.80815
3.80863
3.80933
3.81022
3.81125
3.81235
3.81348
3.81459
3.81566
3.81666
3.81758
3.81842
3.81918
3.81985
3.82044
3.82094
3.82136
3.8217
3.82196
3.82214
3.82224
3.82227
3.82222
3.82209
3.8219
3.82162
3.82127
3.82084
3.82034
3.81976
3.8191
3.81835
3.81753
3.81661
3.81561
3.81452
3.81333
3.81204
3.81065
3.80916
3.80757
3.80586
3.80405
3.80214
3.80015
3.79809
3.796
3.79393
3.79196
3.79018
3.78869
3.78756
3.78684
3.78653
3.78658
3.78691
3.78742
3.78802
3.78862
3.78918
3.78965
3.79
3.79023
3.79031
3.79026
3.79006
3.78973
3.78927
3.78868
3.78801
3.78727
3.7865
3.78577
3.78514
3.78466
3.78435
3.7842
3.78416
3.78416
3.78415
3.78412
3.78404
3.78392
3.78381
3.78374
3.78378
3.78397
3.78434
3.78487
3.7855
3.78616
3.78681
3.7874
3.7879
3.78829
3.78855
3.78868
3.80478
3.80473
3.80464
3.80454
3.80444
3.80439
3.80442
3.80458
3.80486
3.80526
3.80575
3.80629
3.80683
3.80735
3.80783
3.80825
3.8086
3.80889
3.80912
3.80931
3.80949
3.80968
3.80994
3.8103
3.81078
3.81142
3.81219
3.81306
3.814
3.81497
3.81593
3.81686
3.81775
3.81858
3.81934
3.82003
3.82064
3.82118
3.82164
3.82203
3.82234
3.82258
3.82274
3.82283
3.82285
3.82279
3.82266
3.82246
3.82219
3.82185
3.82143
3.82094
3.82037
3.81973
3.81901
3.81821
3.81733
3.81637
3.81532
3.81418
3.81296
3.81165
3.81025
3.80876
3.80718
3.80551
3.80378
3.80199
3.80016
3.79833
3.79654
3.79486
3.79333
3.79204
3.79103
3.79032
3.78993
3.78981
3.78991
3.79018
3.79053
3.79091
3.79128
3.79159
3.79183
3.79196
3.79199
3.79191
3.79172
3.79142
3.79102
3.79052
3.78996
3.78935
3.78874
3.78815
3.78763
3.78721
3.78691
3.78672
3.7866
3.78654
3.78648
3.78643
3.78636
3.7863
3.78624
3.78624
3.78632
3.7865
3.7868
3.78721
3.78769
3.7882
3.7887
3.78917
3.78956
3.78988
3.79009
3.7902
3.80672
3.8067
3.80665
3.80661
3.80657
3.80659
3.80666
3.80682
3.80708
3.80741
3.80781
3.80826
3.80871
3.80916
3.80958
3.80996
3.8103
3.8106
3.81087
3.81111
3.81135
3.81161
3.81192
3.8123
3.81279
3.81337
3.81405
3.81481
3.81562
3.81646
3.8173
3.81812
3.8189
3.81964
3.82033
3.82095
3.82151
3.822
3.82242
3.82277
3.82306
3.82327
3.82341
3.82349
3.8235
3.82343
3.8233
3.8231
3.82283
3.8225
3.82209
3.82161
3.82106
3.82044
3.81974
3.81897
3.81813
3.81721
3.81621
3.81513
3.81397
3.81274
3.81142
3.81003
3.80857
3.80705
3.80547
3.80386
3.80223
3.80062
3.79905
3.79758
3.79625
3.79511
3.79418
3.7935
3.79305
3.79281
3.79276
3.79284
3.79301
3.79322
3.79343
3.79362
3.79375
3.79381
3.79379
3.79368
3.79349
3.79321
3.79285
3.79243
3.79196
3.79145
3.79094
3.79045
3.79002
3.78965
3.78936
3.78915
3.789
3.7889
3.78882
3.78875
3.78869
3.78865
3.78863
3.78866
3.78874
3.78891
3.78916
3.78948
3.78985
3.79024
3.79063
3.791
3.79131
3.79156
3.79173
3.79182
3.80869
3.80868
3.80867
3.80866
3.80867
3.80872
3.80882
3.80898
3.80921
3.8095
3.80984
3.81021
3.8106
3.81099
3.81137
3.81172
3.81205
3.81235
3.81263
3.81291
3.81318
3.81348
3.81382
3.81422
3.81468
3.81522
3.81584
3.8165
3.81721
3.81795
3.81868
3.81941
3.8201
3.82076
3.82137
3.82193
3.82244
3.82288
3.82326
3.82358
3.82384
3.82403
3.82416
3.82422
3.82422
3.82415
3.82401
3.82381
3.82355
3.82322
3.82282
3.82235
3.82182
3.82122
3.82055
3.81981
3.819
3.81812
3.81717
3.81615
3.81506
3.8139
3.81267
3.81138
3.81003
3.80864
3.8072
3.80575
3.80429
3.80285
3.80147
3.80017
3.79899
3.79796
3.7971
3.79643
3.79595
3.79564
3.79547
3.79543
3.79546
3.79553
3.79562
3.79569
3.79573
3.79573
3.79566
3.79554
3.79534
3.79508
3.79476
3.79439
3.79398
3.79355
3.79312
3.79271
3.79233
3.792
3.79173
3.79152
3.79136
3.79124
3.79114
3.79107
3.79101
3.79098
3.79097
3.79101
3.79109
3.79124
3.79144
3.79169
3.79198
3.79229
3.79259
3.79288
3.79313
3.79333
3.79346
3.79353
3.81067
3.81067
3.81067
3.81069
3.81073
3.8108
3.81091
3.81106
3.81127
3.81153
3.81182
3.81215
3.81249
3.81283
3.81317
3.8135
3.81382
3.81412
3.81441
3.8147
3.815
3.81531
3.81567
3.81606
3.81651
3.81701
3.81756
3.81816
3.81879
3.81943
3.82008
3.82072
3.82134
3.82192
3.82247
3.82297
3.82343
3.82383
3.82417
3.82446
3.82469
3.82486
3.82497
3.82501
3.825
3.82492
3.82479
3.82459
3.82432
3.824
3.82361
3.82316
3.82265
3.82207
3.82143
3.82072
3.81995
3.81911
3.81821
3.81724
3.81622
3.81513
3.81398
3.81279
3.81154
3.81026
3.80896
3.80764
3.80632
3.80503
3.8038
3.80263
3.80157
3.80063
3.79983
3.79918
3.79868
3.79832
3.79807
3.79793
3.79785
3.79782
3.79781
3.7978
3.79777
3.79771
3.79761
3.79746
3.79726
3.79701
3.79672
3.79639
3.79603
3.79566
3.79529
3.79493
3.7946
3.7943
3.79405
3.79384
3.79368
3.79354
3.79344
3.79336
3.79331
3.79328
3.79328
3.79331
3.79339
3.79351
3.79367
3.79387
3.79409
3.79433
3.79457
3.7948
3.79499
3.79515
3.79526
3.79531
3.81265
3.81265
3.81267
3.8127
3.81275
3.81283
3.81295
3.8131
3.81329
3.81352
3.81378
3.81407
3.81437
3.81468
3.81499
3.8153
3.8156
3.8159
3.81619
3.81648
3.81679
3.81711
3.81747
3.81785
3.81828
3.81874
3.81925
3.81978
3.82034
3.82091
3.82149
3.82206
3.8226
3.82313
3.82362
3.82407
3.82447
3.82483
3.82514
3.82539
3.8256
3.82574
3.82583
3.82587
3.82584
3.82576
3.82562
3.82542
3.82516
3.82485
3.82447
3.82404
3.82354
3.82298
3.82237
3.82169
3.82096
3.82016
3.81931
3.8184
3.81743
3.81642
3.81535
3.81424
3.81309
3.81191
3.81072
3.80952
3.80833
3.80717
3.80605
3.805
3.80403
3.80317
3.80242
3.80178
3.80127
3.80087
3.80057
3.80036
3.8002
3.80009
3.80001
3.79993
3.79984
3.79973
3.7996
3.79943
3.79922
3.79898
3.79871
3.79841
3.79809
3.79776
3.79744
3.79712
3.79682
3.79656
3.79632
3.79612
3.79596
3.79582
3.79572
3.79563
3.79558
3.79555
3.79554
3.79557
3.79563
3.79573
3.79586
3.79602
3.79619
3.79638
3.79657
3.79674
3.7969
3.79702
3.7971
3.79715
3.81461
3.81463
3.81465
3.81469
3.81475
3.81484
3.81495
3.8151
3.81527
3.81548
3.81572
3.81597
3.81624
3.81653
3.81681
3.8171
3.81739
3.81768
3.81796
3.81826
3.81856
3.81889
3.81923
3.8196
3.82
3.82044
3.8209
3.82138
3.82188
3.82239
3.8229
3.82341
3.8239
3.82436
3.8248
3.8252
3.82556
3.82588
3.82616
3.82638
3.82656
3.82669
3.82676
3.82678
3.82675
3.82666
3.82652
3.82632
3.82606
3.82575
3.82539
3.82497
3.82449
3.82396
3.82337
3.82272
3.82203
3.82127
3.82047
3.81961
3.8187
3.81775
3.81676
3.81573
3.81467
3.81358
3.81249
3.81139
3.81031
3.80925
3.80824
3.80728
3.80639
3.80559
3.80488
3.80427
3.80375
3.80333
3.80299
3.80272
3.80251
3.80234
3.80219
3.80206
3.80192
3.80178
3.80162
3.80143
3.80122
3.80099
3.80073
3.80045
3.80016
3.79987
3.79957
3.79929
3.79902
3.79878
3.79856
3.79837
3.79821
3.79807
3.79797
3.79788
3.79782
3.79779
3.79778
3.7978
3.79785
3.79792
3.79802
3.79814
3.79828
3.79843
3.79857
3.79871
3.79883
3.79893
3.79899
3.79903
3.81657
3.81659
3.81661
3.81666
3.81672
3.81681
3.81692
3.81706
3.81723
3.81742
3.81763
3.81786
3.81811
3.81837
3.81863
3.8189
3.81918
3.81945
3.81973
3.82002
3.82032
3.82064
3.82097
3.82132
3.8217
3.8221
3.82252
3.82296
3.82341
3.82387
3.82433
3.82478
3.82521
3.82563
3.82601
3.82637
3.82669
3.82698
3.82722
3.82742
3.82757
3.82768
3.82774
3.82774
3.8277
3.82761
3.82746
3.82727
3.82702
3.82672
3.82636
3.82596
3.8255
3.82499
3.82443
3.82381
3.82315
3.82243
3.82167
3.82087
3.82002
3.81913
3.8182
3.81724
3.81626
3.81527
3.81426
3.81325
3.81226
3.8113
3.81036
3.80948
3.80866
3.80791
3.80724
3.80665
3.80614
3.8057
3.80534
3.80503
3.80478
3.80456
3.80437
3.80419
3.80402
3.80385
3.80366
3.80346
3.80325
3.80302
3.80277
3.80251
3.80224
3.80197
3.8017
3.80144
3.8012
3.80097
3.80077
3.80059
3.80043
3.8003
3.80019
3.8001
3.80004
3.8
3.79999
3.8
3.80003
3.80009
3.80016
3.80026
3.80036
3.80048
3.80059
3.80069
3.80079
3.80086
3.80091
3.80094
3.81852
3.81853
3.81856
3.81861
3.81867
3.81876
3.81887
3.819
3.81915
3.81933
3.81952
3.81974
3.81996
3.8202
3.82045
3.8207
3.82096
3.82122
3.8215
3.82178
3.82207
3.82237
3.82269
3.82302
3.82338
3.82375
3.82413
3.82453
3.82494
3.82535
3.82576
3.82616
3.82655
3.82692
3.82726
3.82758
3.82787
3.82812
3.82833
3.8285
3.82863
3.82872
3.82876
3.82876
3.82871
3.82861
3.82846
3.82827
3.82803
3.82773
3.82739
3.827
3.82656
3.82607
3.82553
3.82495
3.82432
3.82364
3.82293
3.82217
3.82137
3.82054
3.81967
3.81879
3.81788
3.81695
3.81603
3.8151
3.81419
3.8133
3.81244
3.81163
3.81087
3.81016
3.80952
3.80895
3.80845
3.80801
3.80762
3.80729
3.80701
3.80676
3.80653
3.80632
3.80612
3.80592
3.80572
3.80551
3.80529
3.80506
3.80482
3.80457
3.80432
3.80407
3.80382
3.80358
3.80335
3.80314
3.80295
3.80278
3.80263
3.8025
3.80239
3.8023
3.80224
3.8022
3.80217
3.80217
3.80219
3.80223
3.80229
3.80236
3.80244
3.80252
3.80261
3.80269
3.80276
3.80282
3.80286
3.80288
3.82044
3.82046
3.82049
3.82054
3.8206
3.82069
3.82079
3.82091
3.82106
3.82122
3.8214
3.82159
3.8218
3.82202
3.82225
3.82249
3.82274
3.82299
3.82325
3.82352
3.82379
3.82408
3.82439
3.8247
3.82503
3.82537
3.82573
3.82609
3.82646
3.82683
3.8272
3.82755
3.8279
3.82823
3.82854
3.82882
3.82907
3.82929
3.82948
3.82963
3.82974
3.82981
3.82984
3.82982
3.82976
3.82966
3.82951
3.82932
3.82908
3.8288
3.82846
3.82809
3.82767
3.8272
3.82669
3.82613
3.82553
3.8249
3.82422
3.82351
3.82276
3.82198
3.82117
3.82035
3.8195
3.81865
3.81779
3.81694
3.8161
3.81527
3.81448
3.81373
3.81301
3.81235
3.81174
3.81119
3.81069
3.81025
3.80986
3.80951
3.8092
3.80893
3.80868
3.80844
3.80822
3.808
3.80778
3.80756
3.80734
3.80711
3.80688
3.80664
3.8064
3.80616
3.80593
3.80571
3.80549
3.80529
3.80511
3.80495
3.8048
3.80468
3.80457
3.80448
3.80441
3.80437
3.80434
3.80433
3.80433
3.80436
3.8044
3.80445
3.80451
3.80457
3.80463
3.8047
3.80475
3.80479
3.80482
3.80484
3.82236
3.82237
3.8224
3.82245
3.82251
3.82259
3.82269
3.82281
3.82294
3.82309
3.82326
3.82344
3.82363
3.82384
3.82405
3.82428
3.82451
3.82475
3.82499
3.82525
3.82551
3.82579
3.82607
3.82637
3.82667
3.82699
3.82731
3.82764
3.82798
3.82831
3.82864
3.82896
3.82927
3.82956
3.82984
3.83009
3.83031
3.8305
3.83066
3.83079
3.83088
3.83094
3.83095
3.83093
3.83086
3.83076
3.83061
3.83042
3.83018
3.8299
3.82958
3.82922
3.82882
3.82837
3.82788
3.82736
3.82679
3.82619
3.82555
3.82488
3.82418
3.82345
3.8227
3.82193
3.82114
3.82035
3.81955
3.81876
3.81798
3.81722
3.81648
3.81578
3.81511
3.81448
3.8139
3.81337
3.81288
3.81244
3.81204
3.81169
3.81137
3.81107
3.8108
3.81055
3.81031
3.81008
3.80985
3.80962
3.8094
3.80917
3.80894
3.80871
3.80848
3.80825
3.80803
3.80782
3.80762
3.80743
3.80726
3.8071
3.80696
3.80683
3.80673
3.80664
3.80657
3.80652
3.80648
3.80646
3.80646
3.80647
3.80649
3.80653
3.80657
3.80662
3.80666
3.80671
3.80675
3.80678
3.8068
3.80682
3.82426
3.82427
3.8243
3.82434
3.82441
3.82448
3.82457
3.82468
3.82481
3.82495
3.8251
3.82527
3.82545
3.82564
3.82584
3.82605
3.82627
3.8265
3.82673
3.82697
3.82722
3.82748
3.82775
3.82802
3.82831
3.8286
3.82889
3.8292
3.8295
3.8298
3.83009
3.83038
3.83066
3.83092
3.83116
3.83138
3.83158
3.83174
3.83188
3.83199
3.83206
3.8321
3.83211
3.83207
3.832
3.83189
3.83174
3.83155
3.83132
3.83106
3.83075
3.8304
3.83001
3.82958
3.82912
3.82862
3.82808
3.82751
3.82691
3.82628
3.82562
3.82494
3.82424
3.82352
3.82279
3.82205
3.82131
3.82057
3.81985
3.81914
3.81845
3.81779
3.81716
3.81657
3.81601
3.8155
3.81502
3.81459
3.81419
3.81383
3.8135
3.81319
3.81291
3.81265
3.81239
3.81215
3.81191
3.81168
3.81145
3.81123
3.811
3.81077
3.81055
3.81034
3.81013
3.80992
3.80973
3.80955
3.80938
3.80923
3.80909
3.80897
3.80887
3.80878
3.80871
3.80865
3.80861
3.80858
3.80857
3.80857
3.80858
3.8086
3.80863
3.80866
3.80869
3.80872
3.80875
3.80878
3.8088
3.8088
3.82614
3.82615
3.82618
3.82622
3.82628
3.82635
3.82644
3.82654
3.82666
3.82679
3.82693
3.82709
3.82726
3.82744
3.82762
3.82782
3.82803
3.82824
3.82846
3.82868
3.82892
3.82916
3.82941
3.82967
3.82993
3.8302
3.83047
3.83074
3.83102
3.83129
3.83156
3.83181
3.83206
3.83229
3.8325
3.8327
3.83287
3.83301
3.83313
3.83322
3.83328
3.83331
3.8333
3.83326
3.83318
3.83307
3.83292
3.83273
3.83251
3.83225
3.83195
3.83161
3.83124
3.83084
3.83039
3.82992
3.82941
3.82887
3.8283
3.82771
3.82709
3.82645
3.82579
3.82512
3.82444
3.82375
3.82306
3.82237
3.8217
3.82103
3.82039
3.81977
3.81918
3.81861
3.81808
3.81759
3.81713
3.8167
3.81631
3.81594
3.81561
3.81529
3.815
3.81473
3.81447
3.81422
3.81398
3.81374
3.81351
3.81328
3.81306
3.81284
3.81262
3.81241
3.81221
3.81202
3.81183
3.81166
3.8115
3.81135
3.81122
3.8111
3.81099
3.8109
3.81083
3.81077
3.81072
3.81069
3.81067
3.81066
3.81066
3.81067
3.81068
3.8107
3.81072
3.81074
3.81076
3.81078
3.81079
3.8108
3.82801
3.82802
3.82805
3.82809
3.82814
3.82821
3.82829
3.82839
3.8285
3.82862
3.82875
3.8289
3.82906
3.82922
3.8294
3.82958
3.82977
3.82997
3.83018
3.83039
3.83061
3.83084
3.83107
3.83131
3.83155
3.8318
3.83204
3.83229
3.83254
3.83279
3.83303
3.83326
3.83347
3.83368
3.83387
3.83404
3.83419
3.83431
3.83441
3.83448
3.83453
3.83454
3.83453
3.83448
3.8344
3.83428
3.83413
3.83395
3.83373
3.83347
3.83319
3.83287
3.83251
3.83212
3.8317
3.83125
3.83077
3.83026
3.82972
3.82916
3.82858
3.82798
3.82736
3.82673
3.8261
3.82545
3.82481
3.82417
3.82353
3.82291
3.82231
3.82172
3.82116
3.82063
3.82012
3.81964
3.81919
3.81878
3.81839
3.81802
3.81769
3.81737
3.81708
3.8168
3.81653
3.81627
3.81603
3.81579
3.81556
3.81533
3.81511
3.8149
3.81469
3.81448
3.81429
3.8141
3.81392
3.81375
3.8136
3.81345
3.81332
3.8132
3.8131
3.81301
3.81293
3.81287
3.81282
3.81278
3.81275
3.81273
3.81272
3.81272
3.81273
3.81274
3.81275
3.81277
3.81278
3.81279
3.8128
3.8128
3.82986
3.82987
3.8299
3.82994
3.82999
3.83005
3.83013
3.83022
3.83032
3.83044
3.83056
3.8307
3.83084
3.831
3.83116
3.83133
3.83151
3.8317
3.83189
3.83209
3.83229
3.8325
3.83272
3.83294
3.83316
3.83339
3.83362
3.83384
3.83407
3.83429
3.8345
3.83471
3.8349
3.83509
3.83525
3.8354
3.83553
3.83563
3.83572
3.83578
3.83581
3.83581
3.83578
3.83573
3.83564
3.83553
3.83538
3.8352
3.83498
3.83474
3.83446
3.83415
3.83381
3.83344
3.83304
3.83261
3.83215
3.83167
3.83117
3.83064
3.83009
3.82953
3.82895
3.82836
3.82776
3.82715
3.82655
3.82595
3.82536
3.82477
3.8242
3.82365
3.82312
3.82261
3.82213
3.82167
3.82123
3.82082
3.82044
3.82008
3.81975
3.81943
3.81913
3.81885
3.81858
3.81832
3.81808
3.81784
3.8176
3.81738
3.81716
3.81695
3.81674
3.81655
3.81635
3.81617
3.816
3.81584
3.81568
3.81554
3.81541
3.8153
3.81519
3.8151
3.81502
3.81496
3.8149
3.81486
3.81482
3.8148
3.81479
3.81478
3.81477
3.81478
3.81478
3.81479
3.81479
3.8148
3.8148
3.81481
3.8317
3.83171
3.83174
3.83177
3.83182
3.83188
3.83196
3.83204
3.83213
3.83224
3.83236
3.83248
3.83262
3.83276
3.83291
3.83307
3.83324
3.83342
3.8336
3.83378
3.83397
3.83417
3.83437
3.83457
3.83478
3.83498
3.83519
3.8354
3.8356
3.8358
3.83599
3.83617
3.83635
3.83651
3.83665
3.83678
3.83689
3.83698
3.83705
3.83709
3.83711
3.83711
3.83707
3.83701
3.83692
3.8368
3.83665
3.83648
3.83627
3.83603
3.83576
3.83547
3.83514
3.83479
3.8344
3.834
3.83356
3.83311
3.83263
3.83213
3.83162
3.83108
3.83054
3.82999
3.82942
3.82886
3.82829
3.82773
3.82717
3.82662
3.82608
3.82556
3.82506
3.82457
3.82411
3.82366
3.82324
3.82285
3.82247
3.82212
3.82179
3.82147
3.82117
3.82089
3.82062
3.82036
3.82011
3.81987
3.81964
3.81942
3.8192
3.81899
3.81879
3.8186
3.81841
3.81823
3.81807
3.81791
3.81776
3.81762
3.8175
3.81738
3.81728
3.81718
3.8171
3.81703
3.81698
3.81693
3.81689
3.81686
3.81684
3.81682
3.81681
3.81681
3.81681
3.81681
3.81681
3.81681
3.81681
3.81682
3.83353
3.83354
3.83357
3.8336
3.83364
3.8337
3.83377
3.83385
3.83393
3.83403
3.83414
3.83426
3.83439
3.83452
3.83466
3.83481
3.83497
3.83513
3.8353
3.83547
3.83565
3.83583
3.83601
3.8362
3.83639
3.83658
3.83676
3.83695
3.83713
3.83731
3.83748
3.83765
3.8378
3.83794
3.83807
3.83818
3.83827
3.83835
3.8384
3.83843
3.83844
3.83843
3.83839
3.83832
3.83823
3.83811
3.83796
3.83779
3.83758
3.83735
3.83709
3.83681
3.8365
3.83616
3.8358
3.83541
3.835
3.83457
3.83411
3.83364
3.83316
3.83266
3.83214
3.83162
3.83109
3.83056
3.83003
3.8295
3.82897
3.82845
3.82795
3.82745
3.82697
3.82651
3.82607
3.82564
3.82523
3.82485
3.82448
3.82414
3.82381
3.82349
3.8232
3.82292
3.82265
3.82239
3.82214
3.8219
3.82167
3.82145
3.82124
3.82103
3.82083
3.82064
3.82046
3.82029
3.82012
3.81997
3.81982
3.81969
3.81956
3.81945
3.81935
3.81925
3.81917
3.8191
3.81904
3.81899
3.81895
3.81891
3.81888
3.81886
3.81885
3.81884
3.81883
3.81883
3.81882
3.81882
3.81882
3.81882
3.83535
3.83536
3.83538
3.83541
3.83545
3.83551
3.83557
3.83564
3.83573
3.83582
3.83592
3.83603
3.83614
3.83627
3.8364
3.83654
3.83668
3.83684
3.83699
3.83715
3.83731
3.83748
3.83765
3.83782
3.838
3.83817
3.83834
3.83851
3.83867
3.83883
3.83899
3.83913
3.83927
3.83939
3.8395
3.8396
3.83967
3.83974
3.83978
3.8398
3.8398
3.83977
3.83973
3.83966
3.83956
3.83944
3.8393
3.83912
3.83893
3.8387
3.83845
3.83818
3.83788
3.83756
3.83721
3.83684
3.83645
3.83604
3.83562
3.83517
3.83471
3.83424
3.83376
3.83326
3.83277
3.83227
3.83176
3.83126
3.83077
3.83028
3.8298
3.82933
3.82887
3.82843
3.828
3.82759
3.8272
3.82683
3.82647
3.82613
3.82581
3.8255
3.82521
3.82493
3.82466
3.8244
3.82416
3.82392
3.8237
3.82348
3.82327
3.82306
3.82287
3.82268
3.8225
3.82233
3.82217
3.82202
3.82188
3.82174
3.82162
3.82151
3.82141
3.82131
3.82123
3.82116
3.82109
3.82104
3.82099
3.82095
3.82092
3.8209
3.82088
3.82086
3.82085
3.82084
3.82084
3.82084
3.82083
3.82083
3.83716
3.83717
3.83719
3.83721
3.83725
3.8373
3.83736
3.83743
3.83751
3.83759
3.83769
3.83779
3.8379
3.83801
3.83813
3.83826
3.8384
3.83854
3.83868
3.83883
3.83898
3.83913
3.83929
3.83945
3.8396
3.83976
3.83992
3.84007
3.84022
3.84036
3.8405
3.84063
3.84075
3.84085
3.84095
3.84103
3.84109
3.84114
3.84117
3.84118
3.84117
3.84114
3.84109
3.84102
3.84092
3.8408
3.84066
3.84049
3.8403
3.84008
3.83984
3.83957
3.83929
3.83898
3.83865
3.8383
3.83793
3.83754
3.83713
3.83671
3.83628
3.83583
3.83538
3.83491
3.83444
3.83397
3.8335
3.83302
3.83256
3.83209
3.83164
3.83119
3.83076
3.83033
3.82993
3.82953
3.82915
3.82879
3.82845
3.82811
3.8278
3.82749
3.82721
3.82693
3.82666
3.82641
3.82617
3.82593
3.82571
3.82549
3.82528
3.82509
3.82489
3.82471
3.82453
3.82437
3.82421
3.82406
3.82392
3.82379
3.82367
3.82356
3.82345
3.82336
3.82328
3.8232
3.82314
3.82308
3.82303
3.82299
3.82295
3.82293
3.8229
3.82288
3.82287
3.82286
3.82285
3.82284
3.82284
3.82284
3.83895
3.83896
3.83898
3.83901
3.83904
3.83909
3.83914
3.83921
3.83928
3.83936
3.83944
3.83954
3.83964
3.83975
3.83986
3.83998
3.8401
3.84023
3.84037
3.8405
3.84064
3.84078
3.84093
3.84107
3.84121
3.84136
3.8415
3.84163
3.84177
3.8419
3.84202
3.84213
3.84223
3.84233
3.84241
3.84248
3.84253
3.84257
3.84259
3.84259
3.84257
3.84254
3.84248
3.8424
3.8423
3.84218
3.84204
3.84188
3.84169
3.84148
3.84125
3.84099
3.84072
3.84042
3.84011
3.83977
3.83942
3.83905
3.83867
3.83827
3.83786
3.83744
3.837
3.83657
3.83612
3.83568
3.83523
3.83478
3.83434
3.8339
3.83347
3.83304
3.83263
3.83222
3.83183
3.83145
3.83109
3.83074
3.8304
3.83008
3.82977
3.82947
3.82919
3.82892
3.82866
3.82841
3.82817
3.82793
3.82771
3.8275
3.8273
3.8271
3.82691
3.82673
3.82656
3.82639
3.82624
3.82609
3.82595
3.82583
3.82571
3.82559
3.82549
3.8254
3.82532
3.82524
3.82517
3.82511
3.82506
3.82502
3.82498
3.82495
3.82492
3.8249
3.82488
3.82487
3.82486
3.82485
3.82485
3.82484
3.84074
3.84075
3.84076
3.84079
3.84082
3.84087
3.84092
3.84098
3.84104
3.84112
3.8412
3.84128
3.84138
3.84148
3.84158
3.84169
3.84181
3.84193
3.84205
3.84217
3.8423
3.84243
3.84256
3.84269
3.84282
3.84295
3.84308
3.8432
3.84332
3.84344
3.84354
3.84364
3.84373
3.84381
3.84388
3.84394
3.84398
3.84401
3.84402
3.84401
3.84399
3.84395
3.84389
3.84381
3.84371
3.84359
3.84345
3.84328
3.8431
3.8429
3.84268
3.84243
3.84217
3.84188
3.84158
3.84127
3.84093
3.84058
3.84021
3.83984
3.83945
3.83905
3.83864
3.83822
3.8378
3.83738
3.83696
3.83654
3.83611
3.8357
3.83529
3.83488
3.83449
3.8341
3.83373
3.83336
3.83301
3.83267
3.83235
3.83203
3.83173
3.83144
3.83116
3.83089
3.83064
3.83039
3.83015
3.82993
3.82971
3.8295
3.8293
3.8291
3.82892
3.82874
3.82857
3.82841
3.82826
3.82812
3.82798
3.82785
3.82773
3.82762
3.82752
3.82743
3.82735
3.82727
3.8272
3.82714
3.82709
3.82704
3.827
3.82696
3.82694
3.82691
3.82689
3.82688
3.82686
3.82686
3.82685
3.82685
3.84252
3.84252
3.84254
3.84256
3.8426
3.84264
3.84268
3.84274
3.8428
3.84287
3.84294
3.84302
3.84311
3.8432
3.8433
3.8434
3.8435
3.84361
3.84373
3.84384
3.84396
3.84408
3.8442
3.84432
3.84443
3.84455
3.84467
3.84478
3.84488
3.84498
3.84508
3.84516
3.84524
3.84531
3.84537
3.84541
3.84544
3.84546
3.84547
3.84545
3.84543
3.84538
3.84532
3.84523
3.84513
3.84501
3.84487
3.84471
3.84454
3.84434
3.84412
3.84389
3.84364
3.84337
3.84308
3.84277
3.84245
3.84212
3.84177
3.84142
3.84105
3.84067
3.84028
3.83989
3.83949
3.83909
3.83869
3.83829
3.83789
3.83749
3.8371
3.83671
3.83634
3.83597
3.83561
3.83526
3.83492
3.83459
3.83428
3.83397
3.83368
3.83339
3.83312
3.83286
3.83261
3.83237
3.83213
3.83191
3.83169
3.83149
3.83129
3.8311
3.83092
3.83074
3.83058
3.83042
3.83027
3.83013
3.83
3.82987
3.82975
3.82964
3.82954
3.82945
3.82937
3.82929
3.82922
3.82916
3.8291
3.82905
3.82901
3.82898
3.82894
3.82892
3.8289
3.82888
3.82887
3.82886
3.82885
3.82885
3.84429
3.84429
3.84431
3.84433
3.84436
3.8444
3.84444
3.84449
3.84455
3.84461
3.84468
3.84475
3.84483
3.84492
3.84501
3.8451
3.8452
3.8453
3.8454
3.84551
3.84562
3.84572
3.84583
3.84594
3.84605
3.84615
3.84625
3.84635
3.84645
3.84654
3.84662
3.84669
3.84676
3.84682
3.84687
3.8469
3.84692
3.84693
3.84693
3.84691
3.84688
3.84683
3.84676
3.84668
3.84657
3.84646
3.84632
3.84616
3.84599
3.8458
3.84559
3.84536
3.84512
3.84486
3.84459
3.8443
3.84399
3.84368
3.84335
3.843
3.84265
3.84229
3.84193
3.84155
3.84118
3.8408
3.84042
3.84004
3.83966
3.83928
3.83891
3.83854
3.83818
3.83782
3.83748
3.83714
3.83682
3.8365
3.83619
3.8359
3.83561
3.83534
3.83507
3.83481
3.83457
3.83433
3.8341
3.83388
3.83367
3.83347
3.83328
3.83309
3.83291
3.83274
3.83258
3.83242
3.83227
3.83213
3.832
3.83188
3.83176
3.83166
3.83156
3.83146
3.83138
3.8313
3.83123
3.83117
3.83111
3.83106
3.83102
3.83098
3.83095
3.83092
3.8309
3.83088
3.83086
3.83085
3.83085
3.83084
3.84605
3.84605
3.84607
3.84609
3.84612
3.84615
3.84619
3.84624
3.84629
3.84635
3.84641
3.84648
3.84655
3.84663
3.84671
3.8468
3.84689
3.84698
3.84708
3.84717
3.84727
3.84737
3.84747
3.84756
3.84766
3.84776
3.84785
3.84793
3.84802
3.8481
3.84817
3.84823
3.84829
3.84834
3.84837
3.8484
3.84842
3.84842
3.84841
3.84838
3.84835
3.84829
3.84822
3.84814
3.84804
3.84792
3.84778
3.84763
3.84746
3.84728
3.84708
3.84686
3.84662
3.84638
3.84611
3.84584
3.84554
3.84524
3.84493
3.8446
3.84427
3.84393
3.84358
3.84323
3.84287
3.84251
3.84215
3.84178
3.84142
3.84106
3.84071
3.84036
3.84001
3.83967
3.83934
3.83902
3.8387
3.8384
3.8381
3.83781
3.83754
3.83727
3.83701
3.83676
3.83652
3.83629
3.83606
3.83585
3.83564
3.83544
3.83525
3.83507
3.83489
3.83473
3.83457
3.83441
3.83427
3.83413
3.834
3.83388
3.83377
3.83366
3.83356
3.83347
3.83338
3.83331
3.83324
3.83317
3.83312
3.83306
3.83302
3.83298
3.83295
3.83292
3.83289
3.83287
3.83286
3.83285
3.83284
3.83284
3.8478
3.84781
3.84782
3.84784
3.84787
3.8479
3.84793
3.84798
3.84802
3.84808
3.84814
3.8482
3.84827
3.84834
3.84842
3.84849
3.84858
3.84866
3.84875
3.84883
3.84892
3.84901
3.8491
3.84919
3.84928
3.84936
3.84944
3.84952
3.84959
3.84966
3.84972
3.84978
3.84983
3.84986
3.84989
3.84991
3.84992
3.84992
3.8499
3.84987
3.84983
3.84977
3.8497
3.84961
3.84951
3.84939
3.84926
3.84911
3.84895
3.84877
3.84858
3.84837
3.84814
3.8479
3.84765
3.84739
3.84711
3.84682
3.84652
3.84621
3.84589
3.84557
3.84524
3.8449
3.84456
3.84422
3.84387
3.84353
3.84318
3.84284
3.8425
3.84217
3.84184
3.84151
3.8412
3.84089
3.84058
3.84029
3.84
3.83972
3.83945
3.83919
3.83894
3.8387
3.83846
3.83823
3.83802
3.83781
3.8376
3.83741
3.83722
3.83704
3.83687
3.8367