/*--------------------------------*- C++ -*----------------------------------*\
| =========                 |                                                 |
| \\      /  F ield         | OpenFOAM: The Open Source CFD Toolbox           |
|  \\    /   O peration     | Version:  2406                                  |
|   \\  /    A nd           | Website:  www.openfoam.com                      |
|    \\/     M anipulation  |                                                 |
\*---------------------------------------------------------------------------*/
FoamFile
{
    version     2.0;
    format      ascii;
    arch        "LSB;label=32;scalar=64";
    class       volScalarField;
    location    "0.5";
    object      C_0;
}
// * * * * * * * * * * * * * * * * * * * * * * * * * * * * * * * * * * * * * //

dimensions      [1 -3 0 0 0 0 0];

internalField   nonuniform List<scalar> 
14400
(
3.79782
3.79737
3.79641
3.79484
3.79245
3.7888
3.78267
3.77149
3.78331
3.78995
3.79415
3.79711
3.79927
3.80086
3.80201
3.80276
3.80315
3.80318
3.80283
3.80203
3.80067
3.79853
3.79515
3.78933
3.77858
3.79089
3.79799
3.80269
3.80621
3.809
3.8113
3.81323
3.81487
3.81629
3.81751
3.81856
3.81946
3.82024
3.82089
3.82143
3.82186
3.8222
3.82244
3.82259
3.82265
3.82262
3.82251
3.82232
3.82204
3.82168
3.82123
3.82069
3.82006
3.81934
3.81853
3.81762
3.8166
3.81547
3.81422
3.81285
3.81134
3.80967
3.80784
3.80581
3.80357
3.80107
3.79826
3.79508
3.79141
3.78711
3.78189
3.77525
3.76586
3.74988
3.75558
3.7549
3.74751
3.76176
3.76972
3.77487
3.77856
3.78129
3.78333
3.78485
3.78593
3.78664
3.78701
3.78707
3.78681
3.78624
3.78533
3.78405
3.78231
3.78
3.77688
3.77252
3.7657
3.75363
3.76445
3.77023
3.77349
3.77543
3.77645
3.77674
3.77635
3.77523
3.7732
3.76983
3.76396
3.75304
3.765
3.77175
3.77604
3.77909
3.78134
3.78303
3.78429
3.78518
3.78575
3.78603
3.79828
3.79787
3.79701
3.79566
3.79372
3.79109
3.78783
3.78495
3.78841
3.79221
3.79539
3.7979
3.79984
3.80132
3.8024
3.80312
3.80351
3.80356
3.80327
3.80259
3.80145
3.79976
3.79742
3.79449
3.79201
3.79592
3.80019
3.80388
3.80694
3.8095
3.81166
3.81351
3.8151
3.81648
3.81767
3.8187
3.81959
3.82036
3.821
3.82153
3.82196
3.82229
3.82253
3.82268
3.82274
3.82271
3.8226
3.8224
3.82212
3.82176
3.82131
3.82078
3.82015
3.81944
3.81863
3.81772
3.81671
3.81559
3.81435
3.81299
3.81149
3.80984
3.80803
3.80603
3.80382
3.80137
3.79864
3.79556
3.79205
3.78802
3.78331
3.77775
3.77127
3.76451
3.76341
3.76266
3.76217
3.76732
3.7723
3.77635
3.77951
3.78197
3.78386
3.78528
3.7863
3.78697
3.78733
3.78737
3.78713
3.78658
3.78571
3.7845
3.78288
3.7808
3.77813
3.77478
3.77078
3.76708
3.76965
3.77258
3.77483
3.77634
3.77718
3.77741
3.77707
3.77613
3.77453
3.77218
3.76915
3.76649
3.77009
3.77401
3.77728
3.77988
3.7819
3.78347
3.78465
3.78549
3.78604
3.78631
3.79915
3.79881
3.79812
3.79707
3.79568
3.79401
3.79238
3.79158
3.79293
3.7951
3.79731
3.79926
3.80088
3.80217
3.80314
3.80381
3.8042
3.8043
3.8041
3.8036
3.80278
3.80165
3.80028
3.79899
3.79857
3.80035
3.80298
3.80568
3.80817
3.81039
3.81234
3.81405
3.81555
3.81686
3.818
3.81899
3.81986
3.82059
3.82122
3.82174
3.82216
3.82248
3.82271
3.82285
3.82291
3.82288
3.82277
3.82257
3.82229
3.82193
3.82149
3.82095
3.82034
3.81963
3.81883
3.81793
3.81693
3.81582
3.8146
3.81326
3.81179
3.81017
3.8084
3.80646
3.80432
3.80196
3.79935
3.79646
3.79322
3.78961
3.78558
3.78117
3.77662
3.77266
3.77071
3.76995
3.77035
3.77277
3.77581
3.77869
3.78118
3.78323
3.78486
3.78611
3.78703
3.78763
3.78794
3.78798
3.78774
3.78723
3.78644
3.78534
3.78393
3.78217
3.78007
3.7777
3.77533
3.77375
3.77428
3.7756
3.77692
3.77792
3.77851
3.77867
3.7784
3.77771
3.77661
3.77519
3.77377
3.77315
3.77463
3.77691
3.77921
3.78124
3.78293
3.78429
3.78534
3.78611
3.78661
3.78686
3.80036
3.8001
3.79958
3.79883
3.7979
3.79691
3.7961
3.79588
3.79662
3.79795
3.79947
3.80094
3.80224
3.80333
3.80418
3.8048
3.80518
3.80533
3.80524
3.80494
3.80443
3.80377
3.80308
3.80261
3.80276
3.80391
3.80569
3.80769
3.80968
3.81155
3.81326
3.8148
3.81618
3.8174
3.81847
3.81942
3.82024
3.82095
3.82155
3.82205
3.82245
3.82276
3.82298
3.82311
3.82316
3.82313
3.82302
3.82282
3.82254
3.82219
3.82174
3.82122
3.82061
3.81991
3.81912
3.81824
3.81725
3.81617
3.81498
3.81367
3.81223
3.81066
3.80895
3.80708
3.80504
3.80281
3.80036
3.79769
3.79478
3.79161
3.78824
3.78474
3.78138
3.77856
3.77682
3.77606
3.7763
3.7776
3.77946
3.78144
3.78329
3.7849
3.78623
3.78728
3.78806
3.78858
3.78884
3.78886
3.78863
3.78817
3.78746
3.78651
3.78532
3.78389
3.78228
3.7806
3.77909
3.77813
3.7781
3.77863
3.77931
3.7799
3.78027
3.78036
3.78016
3.77969
3.779
3.77821
3.77758
3.77752
3.77838
3.7798
3.7814
3.78293
3.78429
3.78542
3.78632
3.78699
3.78743
3.78765
3.80183
3.80164
3.80128
3.80077
3.80018
3.79961
3.79923
3.79923
3.79973
3.80062
3.80169
3.8028
3.80383
3.80472
3.80546
3.80601
3.80639
3.80658
3.80661
3.80648
3.80622
3.80591
3.80565
3.8056
3.80596
3.80686
3.80817
3.80971
3.81131
3.81288
3.81436
3.81572
3.81696
3.81808
3.81908
3.81996
3.82074
3.82141
3.82197
3.82245
3.82283
3.82313
3.82333
3.82346
3.8235
3.82347
3.82335
3.82315
3.82288
3.82252
3.82209
3.82157
3.82097
3.82028
3.81951
3.81864
3.81768
3.81663
3.81546
3.81419
3.81281
3.8113
3.80966
3.80788
3.80595
3.80386
3.8016
3.79917
3.79657
3.79383
3.791
3.78819
3.78558
3.78341
3.78193
3.78119
3.78119
3.78187
3.78299
3.78431
3.78563
3.78685
3.78789
3.78873
3.78936
3.78977
3.78998
3.78997
3.78976
3.78935
3.78873
3.78793
3.78694
3.7858
3.78457
3.78334
3.78229
3.78159
3.78137
3.78151
3.78181
3.78211
3.7823
3.78233
3.78219
3.78189
3.78149
3.78108
3.78084
3.78095
3.78155
3.78252
3.78365
3.7848
3.78586
3.78678
3.78753
3.7881
3.78848
3.78867
3.80349
3.80336
3.80312
3.80279
3.80244
3.80213
3.80197
3.80206
3.80245
3.80309
3.80388
3.80473
3.80554
3.80628
3.80691
3.80741
3.80778
3.80802
3.80813
3.80814
3.80808
3.80801
3.808
3.80817
3.80862
3.80939
3.81044
3.81166
3.81297
3.81429
3.81556
3.81676
3.81787
3.81889
3.8198
3.82062
3.82134
3.82196
3.8225
3.82294
3.8233
3.82358
3.82377
3.82389
3.82392
3.82388
3.82376
3.82356
3.82329
3.82294
3.82251
3.822
3.82141
3.82074
3.81999
3.81914
3.81821
3.81718
3.81606
3.81484
3.81351
3.81206
3.8105
3.80882
3.80701
3.80507
3.80301
3.80081
3.79852
3.79614
3.79375
3.79144
3.78933
3.78757
3.7863
3.78557
3.78539
3.78569
3.78634
3.78718
3.78809
3.78896
3.78974
3.79038
3.79086
3.79118
3.79133
3.7913
3.7911
3.79073
3.7902
3.78952
3.78871
3.7878
3.78684
3.78592
3.78513
3.78456
3.78428
3.78423
3.78431
3.78442
3.78449
3.78448
3.78438
3.78419
3.78397
3.78379
3.78373
3.78391
3.78437
3.78506
3.78589
3.78676
3.78758
3.78832
3.78893
3.7894
3.78972
3.78987
3.80528
3.8052
3.80504
3.80485
3.80465
3.8045
3.80447
3.8046
3.80492
3.80542
3.80602
3.80668
3.80734
3.80795
3.80849
3.80895
3.8093
3.80957
3.80975
3.80986
3.80994
3.81003
3.81019
3.81048
3.81095
3.81164
3.81252
3.81353
3.81462
3.81574
3.81684
3.81789
3.81888
3.81979
3.82062
3.82137
3.82203
3.82261
3.82311
3.82352
3.82386
3.82411
3.82429
3.82439
3.82442
3.82437
3.82425
3.82405
3.82378
3.82343
3.82301
3.82251
3.82194
3.82129
3.82055
3.81973
3.81883
3.81784
3.81676
3.81559
3.81432
3.81294
3.81147
3.80989
3.80821
3.80642
3.80454
3.80257
3.80053
3.79847
3.79643
3.79448
3.79272
3.79124
3.79013
3.78942
3.78911
3.78916
3.78949
3.78999
3.79058
3.79118
3.79173
3.79219
3.79254
3.79276
3.79285
3.79279
3.7926
3.79227
3.79181
3.79124
3.79057
3.78984
3.78908
3.78836
3.78774
3.78726
3.78696
3.78681
3.78677
3.78677
3.78676
3.78673
3.78665
3.78654
3.78642
3.78636
3.78639
3.78658
3.78695
3.78747
3.78809
3.78875
3.78939
3.78997
3.79046
3.79085
3.79111
3.79124
3.80715
3.8071
3.80701
3.8069
3.80681
3.80676
3.80679
3.80695
3.80723
3.80762
3.80811
3.80863
3.80917
3.80969
3.81016
3.81057
3.81092
3.81121
3.81143
3.81162
3.8118
3.81199
3.81224
3.81259
3.81308
3.8137
3.81446
3.81532
3.81625
3.81721
3.81816
3.81908
3.81996
3.82078
3.82153
3.82221
3.82281
3.82335
3.8238
3.82418
3.82449
3.82472
3.82489
3.82497
3.82499
3.82494
3.82481
3.82461
3.82434
3.824
3.82359
3.8231
3.82254
3.82191
3.8212
3.82041
3.81954
3.81859
3.81755
3.81643
3.81522
3.81393
3.81254
3.81107
3.80951
3.80787
3.80615
3.80438
3.80258
3.80077
3.799
3.79734
3.79583
3.79455
3.79355
3.79286
3.79247
3.79235
3.79245
3.79271
3.79306
3.79344
3.7938
3.79411
3.79434
3.79448
3.79451
3.79443
3.79424
3.79394
3.79354
3.79306
3.7925
3.7919
3.79129
3.79071
3.7902
3.78978
3.78949
3.7893
3.78918
3.78912
3.78907
3.78901
3.78895
3.78888
3.78883
3.78882
3.7889
3.78908
3.78938
3.78978
3.79026
3.79076
3.79126
3.79172
3.79211
3.79242
3.79263
3.79274
3.80907
3.80904
3.809
3.80895
3.80892
3.80893
3.80901
3.80916
3.80941
3.80975
3.81014
3.81058
3.81103
3.81147
3.81189
3.81227
3.8126
3.8129
3.81316
3.8134
3.81363
3.81389
3.8142
3.81458
3.81505
3.81563
3.8163
3.81705
3.81785
3.81868
3.81951
3.82032
3.8211
3.82183
3.8225
3.82312
3.82367
3.82415
3.82457
3.82492
3.8252
3.82541
3.82555
3.82563
3.82563
3.82557
3.82544
3.82524
3.82498
3.82464
3.82424
3.82377
3.82322
3.82261
3.82192
3.82116
3.82033
3.81942
3.81843
3.81736
3.81622
3.815
3.8137
3.81233
3.81089
3.80938
3.80783
3.80623
3.80462
3.80303
3.80148
3.80003
3.79872
3.79759
3.79667
3.79599
3.79555
3.79532
3.79527
3.79535
3.79552
3.79572
3.79593
3.79611
3.79624
3.7963
3.79628
3.79618
3.79599
3.79571
3.79536
3.79494
3.79447
3.79397
3.79347
3.79299
3.79255
3.79219
3.79191
3.7917
3.79155
3.79145
3.79137
3.79131
3.79125
3.79121
3.79119
3.79121
3.7913
3.79146
3.79171
3.79202
3.79239
3.79278
3.79317
3.79353
3.79384
3.79408
3.79425
3.79434
3.81101
3.811
3.81099
3.81098
3.81099
3.81103
3.81113
3.81129
3.81152
3.8118
3.81214
3.81251
3.81289
3.81328
3.81365
3.814
3.81433
3.81462
3.8149
3.81517
3.81545
3.81574
3.81608
3.81647
3.81693
3.81746
3.81807
3.81873
3.81943
3.82015
3.82088
3.82159
3.82228
3.82293
3.82354
3.82409
3.82459
3.82503
3.8254
3.82572
3.82597
3.82616
3.82629
3.82635
3.82634
3.82627
3.82614
3.82594
3.82568
3.82535
3.82496
3.8245
3.82398
3.82338
3.82272
3.82199
3.82119
3.82032
3.81938
3.81838
3.8173
3.81615
3.81494
3.81366
3.81233
3.81095
3.80953
3.8081
3.80665
3.80523
3.80387
3.80258
3.80142
3.8004
3.79955
3.79889
3.79842
3.79811
3.79795
3.7979
3.79793
3.798
3.79809
3.79816
3.7982
3.7982
3.79814
3.79801
3.79782
3.79756
3.79724
3.79688
3.79647
3.79605
3.79562
3.79521
3.79484
3.79452
3.79425
3.79404
3.79388
3.79376
3.79367
3.79359
3.79354
3.79351
3.7935
3.79354
3.79362
3.79376
3.79396
3.79421
3.79449
3.7948
3.7951
3.79538
3.79563
3.79582
3.79596
3.79603
3.81296
3.81296
3.81297
3.81298
3.81302
3.81309
3.8132
3.81335
3.81356
3.81381
3.8141
3.81442
3.81476
3.8151
3.81544
3.81576
3.81607
3.81637
3.81666
3.81694
3.81724
3.81755
3.8179
3.81829
3.81873
3.81923
3.81977
3.82036
3.82098
3.82162
3.82226
3.82289
3.8235
3.82408
3.82462
3.82512
3.82557
3.82596
3.8263
3.82659
3.82681
3.82698
3.82708
3.82713
3.82712
3.82704
3.82691
3.82671
3.82645
3.82613
3.82575
3.8253
3.82479
3.82422
3.82359
3.82289
3.82213
3.8213
3.82041
3.81945
3.81844
3.81736
3.81623
3.81505
3.81382
3.81256
3.81127
3.80996
3.80866
3.80739
3.80617
3.80502
3.80397
3.80304
3.80225
3.80161
3.80111
3.80076
3.80051
3.80037
3.8003
3.80027
3.80026
3.80024
3.80022
3.80016
3.80005
3.79991
3.79971
3.79946
3.79918
3.79885
3.7985
3.79813
3.79776
3.79741
3.79708
3.79679
3.79654
3.79634
3.79617
3.79604
3.79594
3.79586
3.79581
3.79578
3.79578
3.79581
3.79588
3.796
3.79616
3.79636
3.79658
3.79682
3.79706
3.79728
3.79747
3.79763
3.79773
3.79779
3.81492
3.81492
3.81494
3.81497
3.81502
3.8151
3.81521
3.81537
3.81556
3.81578
3.81604
3.81632
3.81662
3.81693
3.81723
3.81754
3.81783
3.81813
3.81842
3.81871
3.81901
3.81933
3.81968
3.82006
3.82048
3.82094
3.82144
3.82196
3.82252
3.82308
3.82365
3.82421
3.82475
3.82527
3.82575
3.8262
3.8266
3.82695
3.82726
3.82751
3.82771
3.82785
3.82794
3.82798
3.82795
3.82787
3.82773
3.82754
3.82728
3.82697
3.8266
3.82617
3.82568
3.82513
3.82452
3.82385
3.82312
3.82234
3.82149
3.8206
3.81964
3.81864
3.81758
3.81649
3.81535
3.81419
3.81301
3.81182
3.81065
3.8095
3.80839
3.80736
3.8064
3.80555
3.8048
3.80418
3.80368
3.80328
3.80299
3.80277
3.80262
3.80251
3.80242
3.80235
3.80226
3.80215
3.80202
3.80185
3.80165
3.80141
3.80114
3.80085
3.80053
3.80021
3.79988
3.79957
3.79928
3.79902
3.79878
3.79859
3.79842
3.79829
3.79819
3.79811
3.79805
3.79802
3.79802
3.79804
3.7981
3.7982
3.79833
3.79848
3.79866
3.79884
3.79903
3.7992
3.79935
3.79947
3.79956
3.7996
3.81686
3.81687
3.8169
3.81694
3.817
3.81708
3.81719
3.81734
3.81751
3.81772
3.81795
3.8182
3.81847
3.81875
3.81903
3.81932
3.8196
3.81988
3.82017
3.82046
3.82076
3.82108
3.82142
3.82179
3.82218
3.82261
3.82307
3.82354
3.82404
3.82454
3.82505
3.82555
3.82603
3.82649
3.82692
3.82732
3.82767
3.82799
3.82826
3.82848
3.82866
3.82878
3.82886
3.82888
3.82884
3.82876
3.82862
3.82842
3.82817
3.82786
3.8275
3.82709
3.82662
3.82609
3.82551
3.82487
3.82418
3.82343
3.82264
3.82179
3.8209
3.81995
3.81897
3.81796
3.81691
3.81584
3.81476
3.81367
3.8126
3.81156
3.81055
3.80961
3.80873
3.80794
3.80724
3.80663
3.80612
3.80571
3.80537
3.80511
3.8049
3.80473
3.80459
3.80445
3.80432
3.80418
3.80402
3.80383
3.80363
3.80339
3.80314
3.80287
3.80258
3.80229
3.802
3.80172
3.80145
3.80121
3.80099
3.80081
3.80065
3.80051
3.80041
3.80033
3.80027
3.80023
3.80023
3.80024
3.80029
3.80036
3.80046
3.80059
3.80072
3.80087
3.80101
3.80114
3.80126
3.80136
3.80142
3.80146
3.8188
3.81881
3.81884
3.81888
3.81894
3.81903
3.81914
3.81928
3.81944
3.81963
3.81984
3.82007
3.82031
3.82057
3.82083
3.8211
3.82137
3.82164
3.82192
3.8222
3.8225
3.82281
3.82314
3.82349
3.82386
3.82426
3.82467
3.82511
3.82555
3.826
3.82646
3.8269
3.82733
3.82774
3.82812
3.82847
3.82879
3.82907
3.82931
3.82951
3.82966
3.82977
3.82982
3.82983
3.82979
3.8297
3.82955
3.82936
3.82911
3.82881
3.82846
3.82806
3.82761
3.82711
3.82655
3.82594
3.82529
3.82458
3.82383
3.82303
3.82219
3.82131
3.8204
3.81945
3.81849
3.8175
3.81651
3.81551
3.81453
3.81358
3.81266
3.81179
3.81098
3.81024
3.80957
3.80899
3.80848
3.80805
3.80769
3.80739
3.80714
3.80692
3.80674
3.80656
3.80639
3.80622
3.80604
3.80584
3.80563
3.8054
3.80515
3.8049
3.80463
3.80436
3.8041
3.80384
3.8036
3.80338
3.80317
3.803
3.80284
3.80271
3.80261
3.80252
3.80246
3.80242
3.80241
3.80242
3.80245
3.8025
3.80258
3.80267
3.80278
3.80289
3.803
3.8031
3.8032
3.80327
3.80332
3.80335
3.82072
3.82073
3.82076
3.82081
3.82087
3.82096
3.82106
3.82119
3.82134
3.82152
3.82171
3.82192
3.82214
3.82238
3.82262
3.82287
3.82313
3.82339
3.82366
3.82393
3.82422
3.82452
3.82483
3.82517
3.82551
3.82588
3.82626
3.82666
3.82706
3.82746
3.82787
3.82826
3.82865
3.82901
3.82935
3.82967
3.82995
3.8302
3.83041
3.83058
3.83071
3.8308
3.83084
3.83083
3.83078
3.83069
3.83054
3.83035
3.83011
3.82982
3.82948
3.82909
3.82866
3.82817
3.82764
3.82707
3.82644
3.82578
3.82507
3.82432
3.82353
3.82271
3.82186
3.82098
3.82008
3.81917
3.81825
3.81734
3.81644
3.81556
3.81471
3.81391
3.81316
3.81246
3.81183
3.81126
3.81076
3.81033
3.80995
3.80962
3.80934
3.80909
3.80887
3.80866
3.80847
3.80827
3.80807
3.80786
3.80764
3.80742
3.80718
3.80694
3.80669
3.80644
3.80619
3.80596
3.80573
3.80552
3.80533
3.80516
3.80501
3.80489
3.80478
3.80469
3.80463
3.80459
3.80457
3.80456
3.80458
3.80462
3.80468
3.80475
3.80483
3.80491
3.805
3.80508
3.80515
3.8052
3.80524
3.80526
3.82262
3.82264
3.82267
3.82271
3.82278
3.82286
3.82296
3.82308
3.82322
3.82339
3.82356
3.82376
3.82396
3.82418
3.82441
3.82464
3.82488
3.82513
3.82539
3.82566
3.82593
3.82622
3.82651
3.82683
3.82715
3.82749
3.82784
3.8282
3.82856
3.82893
3.82929
3.82964
3.82998
3.83031
3.83061
3.83089
3.83114
3.83136
3.83154
3.83169
3.8318
3.83187
3.8319
3.83188
3.83182
3.83172
3.83158
3.83139
3.83115
3.83087
3.83054
3.83017
3.82975
3.82929
3.82878
3.82824
3.82765
3.82702
3.82635
3.82564
3.8249
3.82413
3.82334
3.82252
3.82169
3.82084
3.82
3.81915
3.81832
3.81751
3.81673
3.81598
3.81527
3.81462
3.81402
3.81347
3.81298
3.81254
3.81216
3.81181
3.81151
3.81124
3.81099
3.81076
3.81054
3.81032
3.81011
3.80989
3.80967
3.80944
3.80921
3.80898
3.80874
3.80851
3.80828
3.80806
3.80785
3.80765
3.80747
3.80731
3.80716
3.80704
3.80693
3.80685
3.80678
3.80673
3.8067
3.80669
3.8067
3.80672
3.80676
3.80681
3.80687
3.80693
3.807
3.80706
3.80711
3.80715
3.80718
3.8072
3.82451
3.82453
3.82456
3.8246
3.82466
3.82474
3.82484
3.82495
3.82509
3.82524
3.8254
3.82558
3.82577
3.82597
3.82618
3.82641
3.82663
3.82687
3.82711
3.82737
3.82763
3.8279
3.82818
3.82847
3.82877
3.82909
3.82941
3.82973
3.83006
3.83039
3.83072
3.83103
3.83134
3.83163
3.8319
3.83214
3.83236
3.83255
3.83271
3.83284
3.83293
3.83298
3.833
3.83297
3.83291
3.8328
3.83266
3.83247
3.83224
3.83196
3.83165
3.83129
3.83089
3.83045
3.82997
3.82945
3.82889
3.82829
3.82766
3.827
3.8263
3.82558
3.82484
3.82408
3.8233
3.82252
3.82173
3.82095
3.82018
3.81943
3.8187
3.818
3.81734
3.81672
3.81615
3.81562
3.81514
3.81471
3.81432
3.81396
3.81365
3.81336
3.81309
3.81284
3.8126
3.81237
3.81215
3.81193
3.8117
3.81148
3.81125
3.81102
3.81079
3.81057
3.81035
3.81014
3.80995
3.80976
3.80959
3.80943
3.80929
3.80917
3.80906
3.80898
3.80891
3.80886
3.80882
3.8088
3.8088
3.80881
3.80883
3.80887
3.80891
3.80895
3.809
3.80904
3.80909
3.80912
3.80914
3.80915
3.82639
3.8264
3.82643
3.82647
3.82653
3.82661
3.8267
3.82681
3.82693
3.82707
3.82722
3.82739
3.82757
3.82776
3.82795
3.82816
3.82838
3.8286
3.82883
3.82907
3.82931
3.82957
3.82983
3.8301
3.83039
3.83067
3.83097
3.83126
3.83156
3.83186
3.83215
3.83244
3.83271
3.83297
3.8332
3.83342
3.83361
3.83378
3.83392
3.83402
3.8341
3.83414
3.83414
3.83411
3.83404
3.83393
3.83378
3.83359
3.83337
3.8331
3.8328
3.83245
3.83207
3.83165
3.83119
3.83069
3.83016
3.8296
3.82901
3.82838
3.82773
3.82706
3.82636
3.82565
3.82493
3.8242
3.82347
3.82274
3.82203
3.82132
3.82065
3.81999
3.81937
3.81878
3.81824
3.81773
3.81726
3.81683
3.81644
3.81608
3.81575
3.81545
3.81517
3.81491
3.81466
3.81442
3.81419
3.81396
3.81373
3.81351
3.81328
3.81306
3.81284
3.81263
3.81242
3.81222
3.81203
3.81185
3.81169
3.81154
3.8114
3.81128
3.81118
3.81109
3.81102
3.81096
3.81092
3.8109
3.81088
3.81088
3.81089
3.81091
3.81094
3.81097
3.81101
3.81104
3.81107
3.81109
3.81111
3.81112
3.82825
3.82826
3.82829
3.82833
3.82839
3.82846
3.82854
3.82865
3.82876
3.82889
3.82903
3.82919
3.82935
3.82953
3.82971
3.82991
3.83011
3.83032
3.83054
3.83076
3.83099
3.83123
3.83148
3.83173
3.83199
3.83226
3.83252
3.83279
3.83307
3.83333
3.8336
3.83385
3.83409
3.83432
3.83453
3.83472
3.83489
3.83504
3.83515
3.83524
3.8353
3.83533
3.83532
3.83528
3.8352
3.83509
3.83494
3.83476
3.83453
3.83428
3.83398
3.83365
3.83328
3.83288
3.83245
3.83198
3.83147
3.83094
3.83038
3.82979
3.82918
3.82855
3.8279
3.82724
3.82656
3.82588
3.8252
3.82452
3.82385
3.8232
3.82256
3.82195
3.82136
3.82081
3.82028
3.81979
3.81934
3.81892
3.81853
3.81817
3.81784
3.81753
3.81724
3.81697
3.81671
3.81646
3.81622
3.81599
3.81576
3.81554
3.81532
3.8151
3.81489
3.81468
3.81448
3.81429
3.81411
3.81394
3.81378
3.81363
3.8135
3.81338
3.81328
3.81319
3.81311
3.81305
3.81301
3.81297
3.81295
3.81295
3.81295
3.81295
3.81297
3.81299
3.81301
3.81303
3.81305
3.81307
3.81308
3.81309
3.83009
3.8301
3.83013
3.83017
3.83022
3.83029
3.83037
3.83047
3.83058
3.8307
3.83083
3.83097
3.83113
3.83129
3.83146
3.83164
3.83183
3.83203
3.83223
3.83244
3.83266
3.83289
3.83311
3.83335
3.83359
3.83383
3.83408
3.83433
3.83457
3.83481
3.83505
3.83528
3.83549
3.83569
3.83588
3.83605
3.83619
3.83632
3.83642
3.83649
3.83653
3.83655
3.83653
3.83648
3.8364
3.83629
3.83614
3.83596
3.83574
3.83549
3.83521
3.83489
3.83454
3.83415
3.83374
3.83329
3.83282
3.83231
3.83178
3.83123
3.83065
3.83006
3.82945
3.82883
3.8282
3.82756
3.82693
3.82629
3.82567
3.82505
3.82446
3.82388
3.82332
3.8228
3.82229
3.82182
3.82138
3.82097
3.82058
3.82023
3.81989
3.81958
3.81929
3.81901
3.81875
3.8185
3.81825
3.81802
3.81779
3.81757
3.81735
3.81714
3.81693
3.81673
3.81653
3.81635
3.81617
3.81601
3.81585
3.81571
3.81558
3.81546
3.81536
3.81527
3.81519
3.81513
3.81508
3.81504
3.81501
3.815
3.81499
3.81499
3.81499
3.815
3.81502
3.81503
3.81504
3.81505
3.81506
3.81507
3.83192
3.83194
3.83196
3.832
3.83205
3.83211
3.83219
3.83228
3.83238
3.83249
3.83261
3.83275
3.83289
3.83304
3.83321
3.83337
3.83355
3.83374
3.83393
3.83412
3.83433
3.83453
3.83475
3.83496
3.83518
3.83541
3.83563
3.83586
3.83608
3.8363
3.83651
3.83671
3.8369
3.83708
3.83725
3.83739
3.83752
3.83762
3.83771
3.83776
3.83779
3.8378
3.83777
3.83772
3.83763
3.83752
3.83737
3.83719
3.83698
3.83674
3.83646
3.83616
3.83582
3.83545
3.83506
3.83464
3.83418
3.83371
3.83321
3.83269
3.83215
3.83159
3.83102
3.83043
3.82984
3.82925
3.82865
3.82806
3.82747
3.82689
3.82633
3.82578
3.82526
3.82476
3.82428
3.82382
3.82339
3.82299
3.82261
3.82226
3.82193
3.82161
3.82132
3.82104
3.82077
3.82052
3.82028
3.82004
3.81981
3.81959
3.81937
3.81916
3.81896
3.81876
3.81857
3.81839
3.81822
3.81806
3.81791
3.81777
3.81765
3.81753
3.81743
3.81734
3.81726
3.8172
3.81714
3.8171
3.81706
3.81704
3.81702
3.81702
3.81701
3.81702
3.81702
3.81703
3.81703
3.81704
3.81704
3.81705
3.83374
3.83375
3.83378
3.83381
3.83386
3.83392
3.83399
3.83407
3.83417
3.83427
3.83439
3.83451
3.83465
3.83479
3.83494
3.8351
3.83526
3.83543
3.83561
3.83579
3.83598
3.83618
3.83637
3.83657
3.83678
3.83698
3.83719
3.83739
3.83759
3.83779
3.83798
3.83816
3.83833
3.83849
3.83863
3.83876
3.83887
3.83895
3.83902
3.83906
3.83908
3.83908
3.83904
3.83898
3.8389
3.83878
3.83863
3.83846
3.83825
3.83801
3.83775
3.83746
3.83713
3.83678
3.83641
3.83601
3.83558
3.83513
3.83465
3.83416
3.83365
3.83313
3.83259
3.83204
3.83149
3.83093
3.83037
3.82981
3.82926
3.82872
3.82819
3.82767
3.82717
3.82669
3.82623
3.8258
3.82538
3.82499
3.82462
3.82427
3.82394
3.82363
3.82334
3.82306
3.82279
3.82253
3.82229
3.82205
3.82182
3.8216
3.82139
3.82118
3.82098
3.82079
3.82061
3.82043
3.82027
3.82011
3.81996
3.81983
3.8197
3.81959
3.81949
3.8194
3.81932
3.81925
3.81919
3.81914
3.8191
3.81907
3.81905
3.81904
3.81903
3.81902
3.81902
3.81902
3.81902
3.81903
3.81903
3.81903
3.83555
3.83556
3.83558
3.83562
3.83566
3.83572
3.83578
3.83586
3.83595
3.83604
3.83615
3.83627
3.83639
3.83652
3.83666
3.83681
3.83697
3.83713
3.83729
3.83746
3.83764
3.83781
3.838
3.83818
3.83837
3.83855
3.83874
3.83893
3.83911
3.83928
3.83945
3.83961
3.83976
3.8399
3.84003
3.84014
3.84023
3.8403
3.84036
3.84039
3.8404
3.84038
3.84034
3.84028
3.84019
3.84007
3.83992
3.83975
3.83955
3.83932
3.83907
3.83878
3.83848
3.83814
3.83778
3.8374
3.83699
3.83657
3.83612
3.83566
3.83518
3.83468
3.83417
3.83366
3.83314
3.83261
3.83208
3.83156
3.83104
3.83053
3.83003
3.82954
3.82907
3.82861
3.82817
3.82775
3.82735
3.82697
3.82661
3.82626
3.82594
3.82563
3.82534
3.82506
3.82479
3.82454
3.82429
3.82406
3.82383
3.82361
3.8234
3.8232
3.823
3.82281
3.82263
3.82246
3.8223
3.82215
3.822
3.82187
3.82175
3.82163
3.82153
3.82144
3.82136
3.82129
3.82123
3.82118
3.82113
3.8211
3.82107
3.82105
3.82104
3.82103
3.82102
3.82102
3.82102
3.82101
3.82101
3.82101
3.83734
3.83735
3.83738
3.83741
3.83745
3.8375
3.83756
3.83763
3.83772
3.83781
3.83791
3.83801
3.83813
3.83825
3.83838
3.83852
3.83866
3.83881
3.83897
3.83912
3.83928
3.83945
3.83962
3.83979
3.83996
3.84013
3.8403
3.84046
3.84063
3.84079
3.84094
3.84108
3.84121
3.84134
3.84144
3.84154
3.84162
3.84168
3.84172
3.84174
3.84174
3.84171
3.84167
3.8416
3.8415
3.84139
3.84124
3.84107
3.84088
3.84066
3.84041
3.84014
3.83984
3.83952
3.83918
3.83882
3.83843
3.83803
3.8376
3.83717
3.83671
3.83624
3.83577
3.83528
3.83479
3.83429
3.8338
3.8333
3.83281
3.83233
3.83186
3.83139
3.83094
3.83051
3.83008
3.82968
3.82929
3.82892
3.82857
3.82824
3.82792
3.82761
3.82732
3.82705
3.82678
3.82653
3.82629
3.82605
3.82583
3.82561
3.8254
3.8252
3.82501
3.82483
3.82465
3.82448
3.82432
3.82417
3.82403
3.8239
3.82378
3.82367
3.82357
3.82347
3.82339
3.82332
3.82326
3.8232
3.82316
3.82312
3.82309
3.82306
3.82304
3.82303
3.82302
3.82301
3.823
3.823
3.823
3.823
3.83913
3.83914
3.83916
3.83919
3.83923
3.83927
3.83933
3.8394
3.83947
3.83956
3.83965
3.83975
3.83986
3.83997
3.8401
3.84022
3.84035
3.84049
3.84063
3.84078
3.84093
3.84108
3.84124
3.84139
3.84155
3.8417
3.84186
3.84201
3.84215
3.84229
3.84243
3.84256
3.84267
3.84278
3.84287
3.84295
3.84302
3.84306
3.8431
3.84311
3.8431
3.84307
3.84302
3.84294
3.84285
3.84273
3.84259
3.84242
3.84223
3.84201
3.84178
3.84152
3.84123
3.84093
3.8406
3.84025
3.83989
3.8395
3.8391
3.83869
3.83826
3.83782
3.83737
3.83691
3.83645
3.83598
3.83551
3.83504
3.83458
3.83412
3.83367
3.83323
3.8328
3.83239
3.83198
3.83159
3.83122
3.83086
3.83052
3.83019
3.82988
3.82958
3.82929
3.82902
3.82876
3.82851
3.82827
3.82804
3.82782
3.8276
3.8274
3.8272
3.82701
3.82683
3.82666
3.82649
3.82634
3.82619
3.82605
3.82592
3.8258
3.82569
3.82559
3.8255
3.82541
3.82534
3.82528
3.82522
3.82517
3.82513
3.82509
3.82507
3.82504
3.82502
3.82501
3.825
3.82499
3.82499
3.82498
3.82498
3.8409
3.84091
3.84093
3.84096
3.84099
3.84104
3.84109
3.84115
3.84123
3.8413
3.84139
3.84148
3.84158
3.84169
3.8418
3.84192
3.84204
3.84217
3.8423
3.84243
3.84257
3.84271
3.84285
3.84299
3.84314
3.84328
3.84342
3.84355
3.84368
3.84381
3.84393
3.84404
3.84414
3.84424
3.84432
3.84438
3.84444
3.84447
3.84449
3.84449
3.84448
3.84444
3.84439
3.84431
3.84421
3.84409
3.84395
3.84379
3.8436
3.8434
3.84317
3.84292
3.84265
3.84235
3.84204
3.84171
3.84136
3.841
3.84062
3.84023
3.83982
3.8394
3.83898
3.83854
3.8381
3.83766
3.83722
3.83678
3.83634
3.83591
3.83548
3.83506
3.83465
3.83425
3.83387
3.83349
3.83313
3.83279
3.83245
3.83213
3.83183
3.83154
3.83125
3.83099
3.83073
3.83048
3.83024
3.83002
3.8298
3.82959
3.82938
3.82919
3.829
3.82883
3.82866
3.82849
3.82834
3.8282
3.82806
3.82793
3.82781
3.8277
3.8276
3.82751
3.82743
3.82735
3.82729
3.82723
3.82718
3.82713
3.8271
3.82706
3.82704
3.82702
3.827
3.82699
3.82698
3.82697
3.82696
3.82696
3.84267
3.84268
3.84269
3.84272
3.84275
3.84279
3.84284
3.8429
3.84297
3.84304
3.84312
3.84321
3.8433
3.8434
3.8435
3.84361
3.84372
3.84384
3.84396
3.84409
3.84421
3.84434
3.84447
3.8446
3.84473
3.84485
3.84498
3.8451
3.84522
3.84533
3.84544
3.84554
3.84563
3.8457
3.84577
3.84583
3.84587
3.8459
3.84591
3.8459
3.84588
3.84584
3.84578
3.8457
3.8456
3.84548
3.84534
3.84518
3.845
3.8448
3.84458
3.84434
3.84408
3.8438
3.8435
3.84319
3.84285
3.84251
3.84215
3.84177
3.84139
3.84099
3.84059
3.84018
3.83977
3.83935
3.83893
3.83851
3.8381
3.83768
3.83728
3.83688
3.83649
3.83611
3.83574
3.83538
3.83503
3.8347
3.83437
3.83406
3.83376
3.83348
3.8332
3.83294
3.83269
3.83244
3.83221
3.83198
3.83177
3.83156
3.83136
3.83117
3.83099
3.83081
3.83065
3.83049
3.83034
3.83019
3.83006
3.82993
3.82982
3.82971
3.82961
3.82952
3.82943
3.82936
3.82929
3.82923
3.82918
3.82913
3.82909
3.82906
3.82903
3.829
3.82898
3.82897
3.82896
3.82895
3.82894
3.82894
3.84442
3.84443
3.84445
3.84447
3.8445
3.84454
3.84459
3.84464
3.8447
3.84477
3.84484
3.84492
3.84501
3.8451
3.8452
3.8453
3.8454
3.84551
3.84562
3.84573
3.84585
3.84597
3.84608
3.8462
3.84632
3.84643
3.84655
3.84666
3.84676
3.84686
3.84695
3.84704
3.84712
3.84718
3.84724
3.84728
3.84732
3.84733
3.84734
3.84732
3.8473
3.84725
3.84719
3.84711
3.84701
3.84689
3.84675
3.84659
3.84642
3.84622
3.84601
3.84578
3.84553
3.84526
3.84498
3.84468
3.84436
3.84403
3.84369
3.84333
3.84297
3.84259
3.84221
3.84182
3.84143
3.84104
3.84064
3.84024
3.83985
3.83946
3.83907
3.83869
3.83832
3.83795
3.8376
3.83725
3.83692
3.83659
3.83628
3.83598
3.83569
3.83541
3.83514
3.83488
3.83463
3.83439
3.83416
3.83394
3.83373
3.83353
3.83333
3.83314
3.83296
3.83279
3.83263
3.83247
3.83232
3.83218
3.83205
3.83193
3.83181
3.8317
3.8316
3.83151
3.83143
3.83135
3.83129
3.83122
3.83117
3.83112
3.83108
3.83104
3.83101
3.83099
3.83097
3.83095
3.83094
3.83093
3.83092
3.83092
3.84617
3.84618
3.84619
3.84622
3.84624
3.84628
3.84632
3.84637
3.84643
3.84649
3.84656
3.84663
3.84671
3.8468
3.84688
3.84698
3.84707
3.84717
3.84728
3.84738
3.84748
3.84759
3.8477
3.84781
3.84791
3.84802
3.84812
3.84821
3.84831
3.8484
3.84848
3.84855
3.84862
3.84867
3.84872
3.84875
3.84878
3.84879
3.84878
3.84876
3.84873
3.84868
3.84862
3.84853
3.84843
3.84831
3.84818
3.84803
3.84785
3.84767
3.84746
3.84724
3.847
3.84674
3.84647
3.84618
3.84588
3.84557
3.84524
3.8449
3.84456
3.8442
3.84384
3.84347
3.8431
3.84272
3.84235
3.84197
3.8416
3.84122
3.84085
3.84049
3.84014
3.83979
3.83945
3.83911
3.83879
3.83848
3.83818
3.83788
3.8376
3.83733
3.83707
3.83681
3.83657
3.83633
3.83611
3.83589
3.83568
3.83548
3.83529
3.83511
3.83493
3.83476
3.8346
3.83445
3.8343
3.83416
3.83403
3.83391
3.8338
3.83369
3.83359
3.8335
3.83342
3.83334
3.83327
3.83321
3.83315
3.83311
3.83306
3.83302
3.83299
3.83296
3.83294
3.83292
3.83291
3.8329
3.83289
3.83289
3.84791
3.84792
3.84793
3.84795
3.84798
3.84801
3.84805
3.8481
3.84815
3.84821
3.84827
3.84834
3.84841
3.84849
3.84857
3.84866
3.84874
3.84883
3.84893
3.84902
3.84912
3.84922
3.84931
3.84941
3.84951
3.8496
3.84969
3.84978
3.84986
3.84994
3.85001
3.85007
3.85013
3.85017
3.85021
3.85024
3.85025
3.85025
3.85024
3.85022
3.85018
3.85013
3.85006
3.84998
3.84987
3.84976
3.84962
3.84947
3.84931
3.84913
3.84893
3.84871
3.84848
3.84823
3.84797
3.8477
3.84741
3.84711
3.8468
3.84648
3.84615
3.84582
3.84547
3.84512
3.84477
3.84441
3.84405
3.8437
3.84334
3.84299
3.84263
3.84229
3.84195
3.84161
3.84129
3.84097
3.84066
3.84035
3.84006
3.83978
3.8395
3.83924
3.83898
3.83873
3.8385
3.83827
3.83805
3.83783
3.83763
3.83743
3.83724
3.83706
3.83689
3.83672
3.83657
3.83642
3.83627
3.83614
3.83601
3.83589
3.83578
3.83567
3.83557
3.83548
3.8354
3.83532
3.83525
3.83519
3.83513
3.83508
3.83504
3.835
3.83497
3.83494
3.83491
3.83489
3.83488
3.83487
3.83486
3.83486
3.84965
3.84965
3.84966
3.84968
3.84971
3.84974
3.84978
3.84982
3.84987
3.84992
3.84998
3.85004
3.85011
3.85018
3.85025
3.85033
3.85041
3.85049
3.85058
3.85067
3.85075
3.85084
3.85093
3.85102
3.8511
3.85119
3.85127
3.85134
3.85141
3.85148
3.85154
3.8516
3.85164
3.85168
3.85171
3.85173
3.85174
3.85173
3.85172
3.85169
3.85165
3.85159
3.85152
3.85143
3.85133
3.85122
3.85109
3.85094
3.85078
3.8506
3.85041
3.8502
3.84998
3.84974
3.84949
3.84923
3.84896
3.84867
3.84838
3.84807
3.84776
3.84744
3.84711
3.84678
3.84644
3.8461
3.84576
3.84542
3.84508
3.84474
3.84441
3.84408
3.84375
3.84343
3.84312
3.84281
3.84251
3.84222
3.84194
3.84166
3.84139
3.84114
3.84089
3.84065
3.84041
3.84019
3.83997
3.83977