/*--------------------------------*- C++ -*----------------------------------*\
| =========                 |                                                 |
| \\      /  F ield         | OpenFOAM: The Open Source CFD Toolbox           |
|  \\    /   O peration     | Version:  2406                                  |
|   \\  /    A nd           | Website:  www.openfoam.com                      |
|    \\/     M anipulation  |                                                 |
\*---------------------------------------------------------------------------*/
FoamFile
{
    version     2.0;
    format      ascii;
    arch        "LSB;label=32;scalar=64";
    class       volScalarField;
    location    "0.5";
    object      C_0_0;
}
// * * * * * * * * * * * * * * * * * * * * * * * * * * * * * * * * * * * * * //

dimensions      [1 -3 0 0 0 0 0];

internalField   nonuniform List<scalar> 
14400
(
3.80028
3.79982
3.79888
3.79733
3.79497
3.79136
3.78532
3.77415
3.78595
3.7925
3.79665
3.79957
3.80171
3.80328
3.80441
3.80515
3.80554
3.80557
3.80522
3.80443
3.80309
3.80097
3.79763
3.7919
3.78115
3.79344
3.80044
3.80509
3.80856
3.81132
3.81359
3.81549
3.81712
3.81851
3.81972
3.82076
3.82165
3.82241
3.82306
3.82359
3.82402
3.82435
3.82459
3.82474
3.8248
3.82477
3.82466
3.82447
3.8242
3.82384
3.82339
3.82286
3.82224
3.82153
3.82073
3.81982
3.81882
3.8177
3.81647
3.81511
3.81362
3.81198
3.81016
3.80816
3.80594
3.80347
3.8007
3.79756
3.79394
3.78968
3.78453
3.77797
3.7687
3.75279
3.75855
3.75788
3.75045
3.76465
3.7725
3.7776
3.78124
3.78394
3.78595
3.78745
3.78852
3.78922
3.78959
3.78964
3.78939
3.78883
3.78793
3.78666
3.78494
3.78266
3.77958
3.77527
3.76854
3.75649
3.76731
3.77301
3.77624
3.77814
3.77915
3.77944
3.77905
3.77795
3.77594
3.77262
3.76683
3.75591
3.76786
3.77451
3.77875
3.78176
3.78399
3.78566
3.78689
3.78778
3.78834
3.78862
3.80073
3.80032
3.79948
3.79814
3.79622
3.79362
3.79041
3.78757
3.79098
3.79474
3.79788
3.80035
3.80227
3.80373
3.80479
3.80551
3.80589
3.80595
3.80566
3.80498
3.80386
3.80219
3.79988
3.79699
3.79454
3.7984
3.80262
3.80625
3.80928
3.81181
3.81395
3.81577
3.81734
3.8187
3.81988
3.8209
3.82178
3.82253
3.82317
3.82369
3.82412
3.82444
3.82468
3.82482
3.82488
3.82486
3.82475
3.82456
3.82428
3.82392
3.82348
3.82295
3.82233
3.82162
3.82082
3.81993
3.81893
3.81782
3.8166
3.81525
3.81377
3.81214
3.81035
3.80838
3.8062
3.80378
3.80107
3.79803
3.79457
3.79059
3.78593
3.78044
3.77403
3.76737
3.76628
3.76554
3.76506
3.77014
3.77505
3.77905
3.78218
3.78461
3.78648
3.78788
3.78889
3.78955
3.7899
3.78995
3.7897
3.78916
3.7883
3.7871
3.78551
3.78345
3.78082
3.77751
3.77356
3.76991
3.77244
3.77533
3.77756
3.77904
3.77987
3.78011
3.77977
3.77884
3.77726
3.77493
3.77195
3.76932
3.77288
3.77674
3.77998
3.78254
3.78454
3.78609
3.78725
3.78809
3.78863
3.7889
3.80159
3.80125
3.80057
3.79953
3.79815
3.79651
3.7949
3.79411
3.79544
3.79759
3.79977
3.80169
3.80329
3.80456
3.80553
3.80619
3.80657
3.80667
3.80648
3.80599
3.80517
3.80405
3.80271
3.80143
3.80102
3.80277
3.80537
3.80804
3.8105
3.81269
3.81462
3.81631
3.81778
3.81908
3.82021
3.82119
3.82204
3.82277
3.82339
3.8239
3.82431
3.82463
3.82486
3.825
3.82505
3.82503
3.82491
3.82472
3.82445
3.82409
3.82365
3.82312
3.82251
3.82181
3.82102
3.82013
3.81915
3.81805
3.81685
3.81552
3.81407
3.81247
3.81072
3.8088
3.80669
3.80436
3.80178
3.79892
3.79573
3.79216
3.78818
3.78382
3.77932
3.77541
3.77348
3.77273
3.77313
3.77552
3.77852
3.78137
3.78383
3.78585
3.78746
3.7887
3.7896
3.7902
3.79051
3.79055
3.79031
3.78981
3.78902
3.78794
3.78654
3.78481
3.78273
3.78039
3.77805
3.77649
3.77701
3.77832
3.77961
3.7806
3.78119
3.78135
3.78109
3.7804
3.77931
3.77791
3.77651
3.77589
3.77736
3.77961
3.78188
3.78388
3.78556
3.7869
3.78794
3.7887
3.78919
3.78944
3.80278
3.80252
3.80201
3.80127
3.80035
3.79937
3.79857
3.79836
3.79909
3.80041
3.80191
3.80336
3.80464
3.80571
3.80656
3.80716
3.80754
3.80769
3.80761
3.8073
3.8068
3.80615
3.80546
3.805
3.80516
3.80629
3.80804
3.81002
3.81199
3.81384
3.81553
3.81705
3.81841
3.81961
3.82067
3.82161
3.82242
3.82312
3.82371
3.8242
3.8246
3.82491
3.82512
3.82526
3.82531
3.82527
3.82516
3.82497
3.82469
3.82434
3.8239
3.82338
3.82278
3.82209
3.82131
3.82044
3.81947
3.8184
3.81722
3.81592
3.8145
3.81296
3.81126
3.80942
3.8074
3.80519
3.80278
3.80014
3.79726
3.79414
3.7908
3.78735
3.78402
3.78124
3.77952
3.77877
3.77901
3.78029
3.78213
3.78408
3.78591
3.7875
3.78882
3.78986
3.79063
3.79113
3.79139
3.79141
3.79119
3.79073
3.79004
3.7891
3.78792
3.78651
3.78492
3.78326
3.78176
3.78082
3.78079
3.78131
3.78198
3.78256
3.78293
3.78302
3.78282
3.78236
3.78167
3.7809
3.78028
3.78021
3.78106
3.78247
3.78404
3.78556
3.7869
3.78802
3.78891
3.78957
3.79001
3.79022
3.80424
3.80405
3.80369
3.80319
3.8026
3.80204
3.80166
3.80166
3.80216
3.80304
3.8041
3.80519
3.80621
3.80709
3.80782
3.80837
3.80874
3.80893
3.80895
3.80882
3.80857
3.80826
3.808
3.80795
3.80831
3.8092
3.8105
3.81202
3.8136
3.81514
3.81661
3.81795
3.81918
3.82029
3.82127
3.82215
3.82291
3.82357
3.82413
3.8246
3.82498
3.82527
3.82548
3.8256
3.82564
3.8256
3.82549
3.8253
3.82502
3.82467
3.82424
3.82373
3.82314
3.82246
3.82169
3.82084
3.81989
3.81885
3.8177
3.81644
3.81507
3.81358
3.81196
3.8102
3.80829
3.80623
3.804
3.8016
3.79903
3.79633
3.79353
3.79075
3.78817
3.78603
3.78457
3.78384
3.78383
3.78451
3.78562
3.78692
3.78823
3.78943
3.79045
3.79128
3.79191
3.79232
3.79252
3.79252
3.79231
3.7919
3.79129
3.79049
3.78951
3.78839
3.78717
3.78597
3.78492
3.78423
3.78402
3.78415
3.78445
3.78474
3.78493
3.78497
3.78483
3.78453
3.78413
3.78373
3.78349
3.78361
3.7842
3.78515
3.78627
3.7874
3.78845
3.78936
3.7901
3.79066
3.79104
3.79123
3.80587
3.80575
3.80551
3.80519
3.80484
3.80453
3.80437
3.80446
3.80485
3.80548
3.80626
3.80709
3.8079
3.80863
3.80925
3.80975
3.81011
3.81034
3.81045
3.81046
3.8104
3.81033
3.81033
3.8105
3.81094
3.8117
3.81273
3.81394
3.81524
3.81654
3.8178
3.81898
3.82008
3.82108
3.82199
3.82279
3.8235
3.82412
3.82465
3.82509
3.82544
3.82572
3.82591
3.82602
3.82606
3.82601
3.8259
3.8257
3.82543
3.82508
3.82466
3.82416
3.82358
3.82291
3.82217
3.82133
3.82041
3.8194
3.81829
3.81708
3.81576
3.81434
3.8128
3.81114
3.80935
3.80743
3.80539
3.80322
3.80095
3.79861
3.79625
3.79396
3.79187
3.79014
3.78889
3.78817
3.78799
3.78828
3.78892
3.78976
3.79066
3.79152
3.79228
3.79292
3.7934
3.79371
3.79385
3.79382
3.79363
3.79326
3.79274
3.79206
3.79126
3.79036
3.78942
3.78851
3.78773
3.78717
3.78689
3.78684
3.78692
3.78703
3.7871
3.78709
3.78699
3.78681
3.78659
3.7864
3.78635
3.78652
3.78698
3.78766
3.78848
3.78934
3.79015
3.79088
3.79148
3.79195
3.79226
3.79242
3.80764
3.80756
3.80741
3.80722
3.80702
3.80687
3.80684
3.80697
3.80729
3.80778
3.80837
3.80902
3.80967
3.81028
3.81081
3.81126
3.81162
3.81188
3.81205
3.81217
3.81225
3.81234
3.81249
3.81278
3.81325
3.81392
3.81479
3.81579
3.81687
3.81797
3.81906
3.8201
3.82107
3.82197
3.8228
3.82354
3.82419
3.82476
3.82525
3.82566
3.82599
3.82624
3.82642
3.82652
3.82655
3.8265
3.82638
3.82618
3.82591
3.82557
3.82516
3.82466
3.8241
3.82345
3.82272
3.82192
3.82102
3.82005
3.81898
3.81782
3.81656
3.81521
3.81375
3.81219
3.81053
3.80876
3.8069
3.80496
3.80294
3.80091
3.79889
3.79697
3.79523
3.79377
3.79267
3.79196
3.79166
3.79171
3.79203
3.79253
3.79312
3.79371
3.79425
3.79471
3.79505
3.79527
3.79536
3.7953
3.79511
3.79478
3.79433
3.79377
3.7931
3.79238
3.79163
3.79092
3.7903
3.78984
3.78954
3.78939
3.78935
3.78935
3.78934
3.78931
3.78923
3.78912
3.78901
3.78894
3.78898
3.78917
3.78953
3.79004
3.79066
3.79131
3.79194
3.79251
3.793
3.79338
3.79363
3.79377
3.80949
3.80944
3.80935
3.80925
3.80915
3.8091
3.80914
3.80929
3.80957
3.80996
3.81043
3.81095
3.81149
3.812
3.81246
3.81287
3.81321
3.81349
3.81372
3.81391
3.81408
3.81427
3.81452
3.81487
3.81534
3.81596
3.81671
3.81756
3.81848
3.81942
3.82036
3.82127
3.82214
3.82295
3.82369
3.82436
3.82496
3.82549
3.82594
3.82631
3.82662
3.82685
3.82701
3.82709
3.82711
3.82706
3.82693
3.82674
3.82647
3.82613
3.82573
3.82525
3.82469
3.82407
3.82336
3.82258
3.82172
3.82078
3.81976
3.81865
3.81746
3.81618
3.81481
3.81336
3.81181
3.81019
3.8085
3.80675
3.80496
3.80318
3.80143
3.79979
3.7983
3.79704
3.79605
3.79536
3.79498
3.79486
3.79497
3.79522
3.79557
3.79594
3.7963
3.7966
3.79683
3.79697
3.797
3.79692
3.79673
3.79643
3.79604
3.79556
3.79501
3.79442
3.79382
3.79324
3.79273
3.79233
3.79203
3.79185
3.79173
3.79167
3.79162
3.79156
3.7915
3.79143
3.79138
3.79138
3.79145
3.79163
3.79193
3.79233
3.79279
3.79329
3.79378
3.79424
3.79462
3.79493
3.79514
3.79524
3.81138
3.81136
3.81131
3.81127
3.81124
3.81125
3.81132
3.81148
3.81173
3.81205
3.81245
3.81288
3.81332
3.81376
3.81417
3.81454
3.81488
3.81517
3.81542
3.81566
3.81589
3.81615
3.81645
3.81683
3.8173
3.81787
3.81853
3.81927
3.82006
3.82088
3.8217
3.8225
3.82326
3.82399
3.82465
3.82526
3.8258
3.82628
3.8267
3.82704
3.82732
3.82752
3.82767
3.82774
3.82775
3.82768
3.82756
3.82736
3.8271
3.82677
3.82637
3.8259
3.82537
3.82476
3.82408
3.82333
3.8225
3.8216
3.82063
3.81958
3.81845
3.81724
3.81596
3.8146
3.81318
3.81169
3.81015
3.80858
3.80699
3.80541
3.80388
3.80245
3.80115
3.80003
3.79913
3.79846
3.79802
3.7978
3.79775
3.79783
3.79799
3.7982
3.7984
3.79858
3.79871
3.79876
3.79875
3.79864
3.79845
3.79818
3.79784
3.79742
3.79696
3.79647
3.79597
3.79549
3.79506
3.79471
3.79443
3.79422
3.79408
3.79397
3.7939
3.79383
3.79378
3.79373
3.79371
3.79374
3.79382
3.79398
3.79423
3.79454
3.7949
3.79529
3.79567
3.79602
3.79633
3.79657
3.79674
3.79683
3.8133
3.81329
3.81328
3.81327
3.81328
3.81333
3.81342
3.81358
3.8138
3.81409
3.81442
3.81478
3.81516
3.81554
3.81591
3.81626
3.81658
3.81687
3.81715
3.81741
3.81768
3.81798
3.81831
3.81869
3.81915
3.81968
3.82027
3.82093
3.82162
3.82233
3.82305
3.82376
3.82443
3.82508
3.82567
3.82622
3.82671
3.82715
3.82752
3.82783
3.82808
3.82827
3.82839
3.82845
3.82845
3.82838
3.82825
3.82805
3.82779
3.82747
3.82708
3.82663
3.82611
3.82552
3.82487
3.82415
3.82336
3.8225
3.82157
3.82057
3.81951
3.81838
3.81718
3.81592
3.8146
3.81324
3.81184
3.81042
3.80899
3.80759
3.80624
3.80497
3.80382
3.80282
3.80198
3.80133
3.80086
3.80055
3.80039
3.80034
3.80037
3.80045
3.80053
3.8006
3.80065
3.80064
3.80058
3.80045
3.80026
3.80001
3.7997
3.79933
3.79894
3.79852
3.7981
3.79769
3.79732
3.797
3.79674
3.79653
3.79638
3.79626
3.79616
3.79609
3.79604
3.796
3.796
3.79603
3.79612
3.79626
3.79645
3.7967
3.79698
3.79728
3.79758
3.79786
3.7981
3.79829
3.79843
3.7985
3.81523
3.81523
3.81524
3.81525
3.81529
3.81536
3.81546
3.81562
3.81582
3.81607
3.81636
3.81667
3.81701
3.81734
3.81768
3.818
3.8183
3.8186
3.81888
3.81916
3.81945
3.81976
3.82011
3.82049
3.82093
3.82142
3.82196
3.82254
3.82315
3.82378
3.82441
3.82504
3.82564
3.82621
3.82675
3.82724
3.82768
3.82807
3.82841
3.82869
3.82891
3.82907
3.82918
3.82923
3.82921
3.82914
3.829
3.82881
3.82855
3.82824
3.82786
3.82742
3.82692
3.82635
3.82572
3.82503
3.82428
3.82346
3.82258
3.82164
3.82064
3.81958
3.81846
3.81729
3.81608
3.81483
3.81355
3.81226
3.81098
3.80972
3.80851
3.80738
3.80634
3.80543
3.80465
3.80401
3.80352
3.80317
3.80293
3.80279
3.80271
3.80268
3.80267
3.80266
3.80263
3.80257
3.80247
3.80233
3.80213
3.80189
3.80161
3.80128
3.80093
3.80057
3.80021
3.79986
3.79953
3.79925
3.799
3.7988
3.79864
3.79851
3.79841
3.79833
3.79828
3.79825
3.79825
3.79828
3.79835
3.79847
3.79863
3.79882
3.79904
3.79928
3.79951
3.79973
3.79992
3.80007
3.80018
3.80023
3.81716
3.81717
3.81718
3.81721
3.81727
3.81734
3.81746
3.8176
3.81779
3.81802
3.81827
3.81855
3.81884
3.81915
3.81945
3.81975
3.82004
3.82033
3.82062
3.82091
3.8212
3.82152
3.82186
3.82224
3.82265
3.82311
3.8236
3.82412
3.82467
3.82523
3.82579
3.82634
3.82688
3.82739
3.82786
3.8283
3.8287
3.82905
3.82935
3.8296
3.8298
3.82994
3.83003
3.83006
3.83004
3.82996
3.82982
3.82962
3.82937
3.82906
3.8287
3.82827
3.82779
3.82724
3.82664
3.82598
3.82526
3.82449
3.82366
3.82277
3.82183
3.82083
3.81979
3.81871
3.81759
3.81644
3.81527
3.8141
3.81294
3.8118
3.81071
3.80969
3.80874
3.8079
3.80717
3.80655
3.80605
3.80566
3.80537
3.80516
3.80501
3.8049
3.80482
3.80474
3.80465
3.80455
3.80441
3.80425
3.80405
3.80382
3.80355
3.80326
3.80295
3.80263
3.80231
3.802
3.80171
3.80145
3.80122
3.80102
3.80086
3.80073
3.80063
3.80055
3.80049
3.80046
3.80046
3.80049
3.80055
3.80064
3.80077
3.80092
3.80109
3.80128
3.80146
3.80163
3.80178
3.8019
3.80198
3.80203
3.81908
3.81909
3.81912
3.81916
3.81922
3.8193
3.81941
3.81955
3.81973
3.81993
3.82016
3.82041
3.82067
3.82095
3.82123
3.82151
3.82179
3.82207
3.82235
3.82264
3.82294
3.82325
3.82359
3.82395
3.82434
3.82476
3.82521
3.82568
3.82617
3.82667
3.82717
3.82766
3.82814
3.82859
3.82902
3.82941
3.82976
3.83007
3.83034
3.83056
3.83074
3.83086
3.83093
3.83095
3.83092
3.83083
3.83069
3.8305
3.83025
3.82995
3.82959
3.82918
3.82872
3.82819
3.82762
3.82699
3.82631
3.82557
3.82478
3.82395
3.82306
3.82213
3.82116
3.82016
3.81912
3.81807
3.817
3.81593
3.81487
3.81384
3.81285
3.81191
3.81105
3.81026
3.80957
3.80897
3.80847
3.80806
3.80773
3.80747
3.80726
3.80709
3.80695
3.80682
3.80669
3.80655
3.80639
3.80621
3.806
3.80577
3.80552
3.80525
3.80497
3.80468
3.80439
3.80412
3.80385
3.80362
3.8034
3.80322
3.80306
3.80293
3.80282
3.80274
3.80268
3.80265
3.80264
3.80266
3.80271
3.80278
3.80288
3.803
3.80313
3.80327
3.80342
3.80355
3.80367
3.80376
3.80383
3.80386
3.82099
3.82101
3.82103
3.82108
3.82114
3.82123
3.82133
3.82147
3.82163
3.82182
3.82202
3.82225
3.82249
3.82274
3.823
3.82327
3.82353
3.8238
3.82408
3.82436
3.82465
3.82496
3.82528
3.82563
3.826
3.82639
3.8268
3.82723
3.82767
3.82811
3.82856
3.829
3.82942
3.82983
3.8302
3.83055
3.83087
3.83115
3.83138
3.83158
3.83173
3.83183
3.83188
3.83189
3.83185
3.83176
3.83162
3.83143
3.83118
3.83089
3.83054
3.83015
3.8297
3.8292
3.82865
3.82805
3.8274
3.82671
3.82596
3.82518
3.82435
3.82348
3.82257
3.82164
3.82068
3.81971
3.81873
3.81775
3.81678
3.81583
3.81493
3.81407
3.81327
3.81253
3.81188
3.8113
3.8108
3.81038
3.81002
3.80972
3.80947
3.80926
3.80907
3.8089
3.80873
3.80856
3.80838
3.80819
3.80798
3.80775
3.80751
3.80726
3.807
3.80673
3.80647
3.80622
3.80598
3.80576
3.80556
3.80538
3.80523
3.8051
3.80499
3.80491
3.80485
3.80481
3.8048
3.80481
3.80484
3.80489
3.80497
3.80506
3.80516
3.80527
3.80538
3.80549
3.80558
3.80565
3.8057
3.80573
3.82289
3.8229
3.82293
3.82298
3.82304
3.82313
3.82323
3.82336
3.82351
3.82368
3.82387
3.82408
3.8243
3.82453
3.82477
3.82502
3.82527
3.82553
3.8258
3.82607
3.82635
3.82665
3.82696
3.82729
3.82763
3.82799
3.82837
3.82876
3.82916
3.82956
3.82995
3.83035
3.83072
3.83108
3.83142
3.83173
3.83201
3.83226
3.83246
3.83263
3.83276
3.83285
3.83289
3.83288
3.83283
3.83274
3.83259
3.8324
3.83216
3.83188
3.83154
3.83116
3.83073
3.83025
3.82973
3.82916
3.82855
3.82789
3.82719
3.82645
3.82567
3.82486
3.82401
3.82315
3.82226
3.82136
3.82045
3.81955
3.81866
3.81779
3.81696
3.81616
3.81542
3.81473
3.81411
3.81355
3.81305
3.81262
3.81225
3.81193
3.81165
3.8114
3.81118
3.81098
3.81078
3.81059
3.81039
3.81019
3.80997
3.80975
3.80951
3.80927
3.80903
3.80878
3.80854
3.8083
3.80808
3.80788
3.80769
3.80752
3.80737
3.80725
3.80714
3.80706
3.80699
3.80695
3.80693
3.80693
3.80695
3.80699
3.80704
3.80711
3.80719
3.80727
3.80736
3.80743
3.8075
3.80756
3.8076
3.80762
3.82477
3.82479
3.82482
3.82486
3.82493
3.82501
3.82511
3.82523
3.82537
3.82553
3.8257
3.82589
3.8261
3.82631
3.82654
3.82677
3.82701
3.82725
3.82751
3.82777
3.82804
3.82832
3.82862
3.82892
3.82925
3.82958
3.82993
3.83028
3.83064
3.831
3.83136
3.83171
3.83205
3.83237
3.83267
3.83294
3.83319
3.8334
3.83358
3.83373
3.83384
3.83391
3.83393
3.83392
3.83386
3.83376
3.83362
3.83343
3.83319
3.83292
3.83259
3.83222
3.83181
3.83136
3.83086
3.83032
3.82973
3.82911
3.82845
3.82775
3.82702
3.82626
3.82548
3.82467
3.82385
3.82301
3.82217
3.82134
3.82052
3.81972
3.81894
3.81821
3.81751
3.81686
3.81627
3.81573
3.81524
3.81481
3.81443
3.81409
3.81379
3.81352
3.81328
3.81305
3.81283
3.81262
3.81241
3.81219
3.81197
3.81175
3.81152
3.81129
3.81106
3.81082
3.8106
3.81038
3.81017
3.80998
3.8098
3.80964
3.8095
3.80937
3.80927
3.80918
3.80912
3.80907
3.80904
3.80903
3.80904
3.80906
3.8091
3.80915
3.80921
3.80927
3.80933
3.80939
3.80944
3.80949
3.80952
3.80953
3.82664
3.82665
3.82668
3.82673
3.82679
3.82687
3.82696
3.82708
3.82721
3.82735
3.82752
3.82769
3.82788
3.82808
3.82829
3.82851
3.82874
3.82897
3.82921
3.82946
3.82972
3.82998
3.83026
3.83055
3.83085
3.83116
3.83147
3.8318
3.83212
3.83245
3.83277
3.83308
3.83338
3.83367
3.83393
3.83418
3.8344
3.83458
3.83474
3.83487
3.83495
3.83501
3.83502
3.835
3.83493
3.83483
3.83468
3.8345
3.83427
3.834
3.83369
3.83333
3.83294
3.8325
3.83203
3.83151
3.83096
3.83037
3.82975
3.82909
3.82841
3.8277
3.82696
3.82621
3.82544
3.82467
3.82389
3.82312
3.82236
3.82161
3.8209
3.82021
3.81955
3.81894
3.81838
3.81785
3.81738
3.81695
3.81656
3.81622
3.8159
3.81562
3.81535
3.81511
3.81487
3.81465
3.81442
3.8142
3.81398
3.81376
3.81353
3.81331
3.81308
3.81286
3.81265
3.81244
3.81225
3.81206
3.81189
3.81174
3.8116
3.81148
3.81137
3.81129
3.81122
3.81117
3.81113
3.81112
3.81111
3.81112
3.81115
3.81118
3.81122
3.81127
3.81131
3.81136
3.8114
3.81143
3.81145
3.81146
3.82849
3.8285
3.82853
3.82858
3.82864
3.82871
3.8288
3.82891
3.82903
3.82917
3.82932
3.82948
3.82966
3.82984
3.83004
3.83024
3.83046
3.83068
3.8309
3.83114
3.83138
3.83163
3.8319
3.83216
3.83244
3.83273
3.83302
3.83331
3.83361
3.8339
3.83419
3.83447
3.83474
3.83499
3.83523
3.83544
3.83563
3.8358
3.83593
3.83604
3.83611
3.83615
3.83615
3.83612
3.83605
3.83594
3.83579
3.83561
3.83538
3.83512
3.83482
3.83448
3.8341
3.83369
3.83323
3.83274
3.83222
3.83166
3.83108
3.83046
3.82982
3.82915
3.82847
3.82776
3.82705
3.82633
3.82561
3.82489
3.82418
3.82349
3.82282
3.82217
3.82156
3.82098
3.82044
3.81993
3.81947
3.81905
3.81866
3.81831
3.81798
3.81769
3.81741
3.81715
3.81691
3.81667
3.81644
3.81621
3.81599
3.81577
3.81554
3.81533
3.81511
3.8149
3.81469
3.81449
3.81431
3.81413
3.81397
3.81382
3.81368
3.81357
3.81346
3.81338
3.81331
3.81325
3.81321
3.81318
3.81317
3.81317
3.81318
3.8132
3.81323
3.81326
3.81329
3.81332
3.81335
3.81338
3.81339
3.8134
3.83033
3.83034
3.83037
3.83041
3.83047
3.83054
3.83062
3.83072
3.83084
3.83096
3.8311
3.83126
3.83142
3.83159
3.83178
3.83197
3.83217
3.83238
3.83259
3.83281
3.83304
3.83328
3.83352
3.83377
3.83403
3.83429
3.83455
3.83482
3.83509
3.83535
3.83561
3.83586
3.8361
3.83633
3.83654
3.83673
3.83689
3.83704
3.83715
3.83724
3.83729
3.83732
3.83731
3.83727
3.8372
3.83709
3.83694
3.83676
3.83654
3.83628
3.83599
3.83567
3.8353
3.83491
3.83448
3.83401
3.83352
3.83299
3.83244
3.83186
3.83125
3.83063
3.82998
3.82933
3.82866
3.82799
3.82732
3.82665
3.82599
3.82534
3.82471
3.8241
3.82352
3.82298
3.82246
3.82197
3.82152
3.82111
3.82072
3.82037
3.82004
3.81974
3.81945
3.81918
3.81893
3.81868
3.81845
3.81822
3.81799
3.81777
3.81755
3.81734
3.81713
3.81692
3.81673
3.81654
3.81636
3.81619
3.81603
3.81589
3.81576
3.81564
3.81554
3.81545
3.81538
3.81532
3.81527
3.81524
3.81522
3.81521
3.81521
3.81522
3.81523
3.81525
3.81527
3.8153
3.81532
3.81533
3.81534
3.81535
3.83215
3.83216
3.83219
3.83223
3.83228
3.83235
3.83243
3.83252
3.83263
3.83275
3.83288
3.83302
3.83317
3.83334
3.83351
3.83369
3.83387
3.83407
3.83427
3.83448
3.83469
3.83491
3.83514
3.83537
3.83561
3.83585
3.83609
3.83633
3.83658
3.83681
3.83705
3.83727
3.83749
3.83769
3.83787
3.83803
3.83818
3.8383
3.8384
3.83847
3.83851
3.83853
3.83851
3.83846
3.83838
3.83827
3.83812
3.83794
3.83773
3.83748
3.8372
3.83689
3.83654
3.83616
3.83575
3.83531
3.83484
3.83434
3.83382
3.83327
3.83271
3.83212
3.83152
3.8309
3.83028
3.82965
3.82902
3.8284
3.82778
3.82717
3.82658
3.82601
3.82546
3.82494
3.82445
3.82398
3.82354
3.82314
3.82276
3.8224
3.82207
3.82176
3.82147
3.8212
3.82094
3.82069
3.82045
3.82022
3.82
3.81977
3.81956
3.81935
3.81914
3.81894
3.81875
3.81857
3.8184
3.81823
3.81808
3.81794
3.81781
3.8177
3.81759
3.81751
3.81743
3.81737
3.81732
3.81728
3.81725
3.81724
3.81723
3.81723
3.81723
3.81724
3.81725
3.81727
3.81728
3.81729
3.8173
3.8173
3.83396
3.83397
3.834
3.83404
3.83409
3.83415
3.83422
3.83431
3.83441
3.83452
3.83464
3.83478
3.83492
3.83507
3.83523
3.8354
3.83557
3.83575
3.83594
3.83613
3.83633
3.83654
3.83675
3.83696
3.83718
3.8374
3.83762
3.83785
3.83807
3.83828
3.83849
3.83869
3.83888
3.83906
3.83922
3.83936
3.83949
3.83959
3.83967
3.83973
3.83976
3.83976
3.83974
3.83968
3.8396
3.83948
3.83934
3.83916
3.83895
3.83871
3.83844
3.83814
3.83781
3.83745
3.83706
3.83664
3.83619
3.83572
3.83523
3.83471
3.83418
3.83363
3.83306
3.83248
3.8319
3.83131
3.83072
3.83014
3.82956
3.82899
3.82843
3.82789
3.82737
3.82688
3.8264
3.82596
3.82553
3.82513
3.82476
3.82441
3.82408
3.82377
3.82348
3.82321
3.82294
3.82269
3.82245
3.82222
3.82199
3.82177
3.82156
3.82135
3.82115
3.82096
3.82077
3.82059
3.82042
3.82026
3.82012
3.81998
3.81985
3.81974
3.81964
3.81955
3.81947
3.81941
3.81935
3.81931
3.81928
3.81925
3.81924
3.81923
3.81923
3.81923
3.81923
3.81924
3.81925
3.81925
3.81926
3.81926
3.83576
3.83577
3.83579
3.83583
3.83588
3.83593
3.836
3.83609
3.83618
3.83628
3.8364
3.83652
3.83665
3.83679
3.83694
3.8371
3.83726
3.83743
3.8376
3.83779
3.83797
3.83816
3.83836
3.83856
3.83876
3.83896
3.83916
3.83936
3.83956
3.83975
3.83994
3.84012
3.84029
3.84044
3.84059
3.84071
3.84082
3.84091
3.84097
3.84101
3.84103
3.84103
3.84099
3.84093
3.84085
3.84073
3.84059
3.84041
3.84021
3.83998
3.83972
3.83943
3.83911
3.83876
3.83839
3.83799
3.83757
3.83712
3.83666
3.83617
3.83567
3.83515
3.83462
3.83408
3.83353
3.83297
3.83242
3.83187
3.83133
3.83079
3.83027
3.82976
3.82926
3.82879
3.82834
3.82791
3.8275
3.82711
3.82674
3.8264
3.82607
3.82576
3.82547
3.8252
3.82493
3.82468
3.82444
3.82421
3.82398
3.82376
3.82355
3.82335
3.82315
3.82296
3.82278
3.82261
3.82244
3.82229
3.82214
3.82201
3.82188
3.82177
3.82167
3.82158
3.8215
3.82143
3.82138
3.82133
3.82129
3.82126
3.82124
3.82123
3.82122
3.82121
3.82121
3.82121
3.82121
3.82122
3.82122
3.82122
3.83754
3.83755
3.83758
3.83761
3.83765
3.83771
3.83777
3.83785
3.83794
3.83803
3.83814
3.83825
3.83838
3.83851
3.83865
3.83879
3.83894
3.8391
3.83926
3.83943
3.8396
3.83978
3.83996
3.84014
3.84033
3.84051
3.8407
3.84088
3.84106
3.84123
3.8414
3.84156
3.84171
3.84184
3.84197
3.84208
3.84217
3.84224
3.84229
3.84232
3.84233
3.84232
3.84228
3.84221
3.84212
3.84201
3.84186
3.84169
3.84149
3.84127
3.84102
3.84074
3.84043
3.8401
3.83975
3.83937
3.83897
3.83855
3.83811
3.83765
3.83717
3.83668
3.83618
3.83567
3.83516
3.83464
3.83412
3.8336
3.83309
3.83258
3.83209
3.8316
3.83113
3.83068
3.83025
3.82983
3.82944
3.82906
3.8287
3.82837
3.82804
3.82774
3.82745
3.82717
3.82691
3.82666
3.82642
3.82619
3.82596
3.82575
3.82554
3.82534
3.82514
3.82496
3.82478
3.82461
3.82445
3.8243
3.82416
3.82402
3.8239
3.82379
3.82369
3.8236
3.82352
3.82345
3.82339
3.82334
3.8233
3.82327
3.82324
3.82322
3.8232
3.82319
3.82319
3.82318
3.82318
3.82318
3.82318
3.82318
3.83932
3.83933
3.83935
3.83938
3.83942
3.83947
3.83953
3.8396
3.83968
3.83977
3.83987
3.83998
3.84009
3.84021
3.84034
3.84048
3.84062
3.84077
3.84092
3.84107
3.84123
3.8414
3.84156
3.84173
3.8419
3.84207
3.84223
3.8424
3.84256
3.84272
3.84287
3.84301
3.84314
3.84326
3.84337
3.84346
3.84353
3.84359
3.84363
3.84366
3.84365
3.84363
3.84359
3.84352
3.84342
3.84331
3.84316
3.843
3.8428
3.84259
3.84234
3.84207
3.84178
3.84147
3.84113
3.84077
3.84039
3.83999
3.83957
3.83914
3.83869
3.83823
3.83776
3.83728
3.83679
3.8363
3.83581
3.83532
3.83484
3.83436
3.83389
3.83343
3.83299
3.83256
3.83214
3.83174
3.83136
3.83099
3.83065
3.83031
3.83
3.8297
3.82941
3.82914
3.82888
3.82863
3.82839
3.82816
3.82794
3.82772
3.82752
3.82732
3.82713
3.82695
3.82677
3.82661
3.82645
3.8263
3.82616
3.82603
3.82591
3.8258
3.8257
3.82561
3.82553
3.82546
3.8254
3.82534
3.8253
3.82526
3.82523
3.8252
3.82518
3.82517
3.82516
3.82515
3.82515
3.82514
3.82514
3.82514
3.84108
3.84109
3.84111
3.84114
3.84118
3.84122
3.84128
3.84135
3.84142
3.8415
3.8416
3.84169
3.8418
3.84191
3.84203
3.84216
3.84229
3.84243
3.84257
3.84271
3.84286
3.84301
3.84316
3.84331
3.84347
3.84362
3.84377
3.84392
3.84407
3.84421
3.84434
3.84446
3.84458
3.84468
3.84478
3.84486
3.84492
3.84497
3.845
3.84501
3.845
3.84497
3.84492
3.84485
3.84475
3.84463
3.84449
3.84433
3.84414
3.84393
3.84369
3.84344
3.84316
3.84285
3.84253
3.84219
3.84183
3.84145
3.84105
3.84064
3.84022
3.83978
3.83934
3.83888
3.83843
3.83796
3.8375
3.83704
3.83658
3.83613
3.83569
3.83525
3.83483
3.83442
3.83402
3.83363
3.83326
3.83291
3.83257
3.83225
3.83194
3.83164
3.83136
3.83109
3.83083
3.83059
3.83035
3.83012
3.8299
3.82969
3.82949
3.82929
3.8291
3.82893
3.82875
3.82859
3.82844
3.82829
3.82816
3.82803
3.82791
3.8278
3.8277
3.82761
3.82753
3.82746
3.82739
3.82734
3.82729
3.82725
3.82721
3.82718
3.82716
3.82714
3.82713
3.82712
3.82711
3.8271
3.8271
3.8271
3.84283
3.84284
3.84286
3.84289
3.84292
3.84297
3.84302
3.84308
3.84315
3.84323
3.84331
3.8434
3.8435
3.84361
3.84372
3.84384
3.84396
3.84408
3.84421
3.84434
3.84448
3.84462
3.84476
3.8449
3.84504
3.84518
3.84531
3.84545
3.84558
3.8457
3.84582
3.84593
3.84603
3.84612
3.8462
3.84627
3.84632
3.84636
3.84638
3.84638
3.84636
3.84633
3.84627
3.8462
3.8461
3.84598
3.84584
3.84568
3.8455
3.84529
3.84507
3.84482
3.84455
3.84426
3.84396
3.84363
3.84328
3.84292
3.84255
3.84216
3.84176
3.84135
3.84093
3.8405
3.84007
3.83963
3.83919
3.83876
3.83832
3.83789
3.83747
3.83706
3.83665
3.83626
3.83588
3.83551
3.83515
3.83481
3.83448
3.83417
3.83386
3.83357
3.8333
3.83303
3.83278
3.83253
3.8323
3.83207
3.83186
3.83165
3.83145
3.83126
3.83107
3.8309
3.83073
3.83057
3.83042
3.83027
3.83014
3.83001
3.8299
3.82979
3.82969
3.8296
3.82952
3.82944
3.82938
3.82932
3.82927
3.82923
3.82919
3.82916
3.82913
3.82911
3.82909
3.82908
3.82907
3.82906
3.82906
3.82906
3.84458
3.84458
3.8446
3.84463
3.84466
3.8447
3.84475
3.84481
3.84487
3.84494
3.84502
3.84511
3.8452
3.8453
3.8454
3.84551
3.84562
3.84573
3.84585
3.84598
3.8461
3.84623
3.84635
3.84648
3.84661
3.84674
3.84686
3.84698
3.8471
3.84721
3.84731
3.84741
3.8475
3.84757
3.84764
3.8477
3.84774
3.84776
3.84777
3.84777
3.84775
3.84771
3.84765
3.84757
3.84747
3.84735
3.84722
3.84706
3.84688
3.84668
3.84646
3.84622
3.84597
3.84569
3.8454
3.84509
3.84476
3.84442
3.84406
3.84369
3.84331
3.84292
3.84252
3.84212
3.84171
3.84129
3.84088
3.84047
3.84006
3.83965
3.83925
3.83885
3.83847
3.83809
3.83773
3.83737
3.83703
3.8367
3.83638
3.83607
3.83578
3.83549
3.83522
3.83496
3.83471
3.83447
3.83424
3.83402
3.8338
3.8336
3.8334
3.83321
3.83303
3.83286
3.8327
3.83254
3.83239
3.83225
3.83212
3.83199
3.83188
3.83177
3.83167
3.83158
3.8315
3.83142
3.83136
3.8313
3.83124
3.8312
3.83116
3.83113
3.8311
3.83107
3.83105
3.83104
3.83103
3.83102
3.83101
3.83101
3.84631
3.84632
3.84633
3.84636
3.84639
3.84643
3.84647
3.84652
3.84658
3.84665
3.84672
3.8468
3.84689
3.84698
3.84707
3.84717
3.84727
3.84738
3.84749
3.8476
3.84772
3.84783
3.84795
3.84807
3.84818
3.8483
3.84841
3.84851
3.84862
3.84872
3.84881
3.84889
3.84897
3.84904
3.84909
3.84914
3.84917
3.84918
3.84919
3.84917
3.84915
3.8491
3.84904
3.84896
3.84886
3.84874
3.84861
3.84845
3.84828
3.84809
3.84788
3.84765
3.8474
3.84714
3.84685
3.84656
3.84625
3.84592
3.84558
3.84523
3.84487
3.8445
3.84412
3.84374
3.84335
3.84296
3.84257
3.84218
3.84179
3.8414
3.84102
3.84064
3.84027
3.83991
3.83956
3.83922
3.83889
3.83857
3.83826
3.83796
3.83768
3.8374
3.83713
3.83688
3.83663
3.8364
3.83617
3.83595
3.83574
3.83554
3.83535
3.83516
3.83498
3.83482
3.83465
3.8345
3.83435
3.83421
3.83408
3.83396
3.83385
3.83374
3.83364
3.83355
3.83347
3.83339
3.83333
3.83327
3.83321
3.83317
3.83312
3.83309
3.83306
3.83303
3.83301
3.83299
3.83298
3.83297
3.83297
3.83296
3.84804
3.84804
3.84806
3.84808
3.84811
3.84814
3.84819
3.84824
3.84829
3.84835
3.84842
3.84849
3.84857
3.84865
3.84874
3.84883
3.84893
3.84903
3.84913
3.84923
3.84933
3.84944
3.84955
3.84965
3.84975
3.84986
3.84996
3.85005
3.85015
3.85023
3.85031
3.85039
3.85045
3.85051
3.85055
3.85059
3.85061
3.85062
3.85062
3.8506
3.85056
3.85051
3.85045
3.85037
3.85027
3.85015
3.85002
3.84987
3.8497
3.84951
3.84931
3.84909
3.84885
3.8486
3.84833
3.84804
3.84775
3.84744
3.84712
3.84678
3.84644
3.84609
3.84573
3.84537
3.845
3.84463
3.84426
3.84388
3.84351
3.84315
3.84278
3.84242
3.84207
3.84173
3.84139
3.84106
3.84074
3.84043
3.84013
3.83985
3.83957
3.8393
3.83904
3.83879
3.83855
3.83832
3.83809
3.83788
3.83767
3.83748
3.83729
3.8371
3.83693
3.83676
3.8366
3.83645
3.83631
3.83617
3.83604
3.83592
3.83581
3.8357
3.83561
3.83552
3.83543
3.83536
3.83529
3.83523
3.83517
3.83513
3.83508
3.83505
3.83501
3.83499
3.83496
3.83495
3.83493
3.83492
3.83491
3.83491
3.84976
3.84976
3.84978
3.8498
3.84982
3.84986
3.8499
3.84994
3.84999
3.85005
3.85011
3.85018
3.85025
3.85033
3.85041
3.85049
3.85058
3.85067
3.85076
3.85085
3.85095
3.85104
3.85114
3.85124
3.85133
3.85142
3.85151
3.8516
3.85168
3.85175
3.85182
3.85189
3.85194
3.85199
3.85203
3.85205
3.85207
3.85207
3.85206
3.85203
3.852
3.85194
3.85188
3.85179
3.85169
3.85158
3.85145
3.8513
3.85113
3.85095
3.85076
3.85054
3.85032
3.85007
3.84982
3.84955
3.84926
3.84897
3.84866
3.84834
3.84802
3.84768
3.84734
3.847
3.84665
3.8463
3.84594
3.84559
3.84524
3.84489
3.84454
3.8442
3.84386
3.84353
3.84321
3.84289
3.84258
3.84229
3.842
3.84172
3.84144
3.84118
3.84093
3.84069
3.84045
3.84022
3.84001
3.8398
3.83959
3.8394
3.83921
3.83904
3.83886
3.8387
3.83854
3.8384
3.83825
3.83812
3.83799
3.83788
3.83776
3.83766
3.83756
3.83747
3.83739
3.83732
3.83725
3.83718
3.83713
3.83708
3.83704
3.837
3.83696
3.83694
3.83691
3.83689
3.83688
3.83687
3.83686
3.83686
3.85147
3.85148
3.85149
3.85151
3.85153
3.85156
3.8516
3.85164
3.85169
3.85174
3.8518
3.85186
3.85192
3.85199
3.85207
3.85214
3.85222
3.85231
3.85239
3.85248
3.85256
3.85265
3.85274
3.85282
3.85291
3.85299
3.85307
3.85314
3.85322
3.85328
3.85334
3.8534
3.85344
3.85348
3.85351
3.85353
3.85353
3.85353
3.85351
3.85349
3.85344
3.85339
3.85332
3.85323
3.85313
3.85302
3.85289
3.85275
3.85259
3.85241
3.85222
3.85202
3.8518
3.85156
3.85132
3.85106
3.85079
3.85051
3.85021
3.84991
3.8496
3.84929
3.84896
3.84863
3.8483
3.84797
3.84763
3.84729
3.84696
3.84662
3.84629
3.84597
3.84564
3.84533
3.84502
3.84471
3.84442
3.84413
3.84385
3.84358
3.84331
3.84306
3.84281
3.84258
3.84235