/*--------------------------------*- C++ -*----------------------------------*\
| =========                 |                                                 |
| \\      /  F ield         | OpenFOAM: The Open Source CFD Toolbox           |
|  \\    /   O peration     | Version:  2406                                  |
|   \\  /    A nd           | Website:  www.openfoam.com                      |
|    \\/     M anipulation  |                                                 |
\*---------------------------------------------------------------------------*/
FoamFile
{
    version     2.0;
    format      ascii;
    arch        "LSB;label=32;scalar=64";
    class       volScalarField;
    location    "0.35";
    object      C_0_0;
}
// * * * * * * * * * * * * * * * * * * * * * * * * * * * * * * * * * * * * * //

dimensions      [1 -3 0 0 0 0 0];

internalField   nonuniform List<scalar> 
14400
(
3.86203
3.86172
3.86107
3.86
3.85837
3.85588
3.85182
3.84235
3.85224
3.85665
3.85952
3.86154
3.86301
3.8641
3.86488
3.86539
3.86566
3.86568
3.86544
3.8649
3.86397
3.86252
3.86022
3.85637
3.84719
3.8574
3.86212
3.86533
3.86773
3.86964
3.8712
3.87251
3.87363
3.8746
3.87543
3.87614
3.87676
3.87729
3.87773
3.8781
3.87839
3.87862
3.87878
3.87888
3.87892
3.8789
3.87883
3.87869
3.8785
3.87825
3.87794
3.87757
3.87714
3.87665
3.87609
3.87546
3.87477
3.87399
3.87314
3.8722
3.87116
3.87002
3.86877
3.86738
3.86584
3.86413
3.86221
3.86003
3.85752
3.85457
3.851
3.84644
3.84014
3.82752
3.83339
3.83293
3.82593
3.83739
3.8427
3.84623
3.84876
3.85062
3.85202
3.85306
3.85379
3.85428
3.85453
3.85457
3.8544
3.85401
3.85339
3.85251
3.85132
3.84974
3.84761
3.84462
3.84008
3.83003
3.83925
3.84308
3.84531
3.84663
3.84733
3.84752
3.84726
3.84649
3.84511
3.84281
3.83892
3.82963
3.8396
3.84409
3.84703
3.84911
3.85065
3.85181
3.85267
3.85328
3.85367
3.85386
3.86234
3.86206
3.86148
3.86056
3.85923
3.85744
3.85523
3.85332
3.85561
3.8582
3.86037
3.86208
3.8634
3.86441
3.86514
3.86564
3.8659
3.86594
3.86574
3.86528
3.86451
3.86336
3.86177
3.85978
3.85813
3.86073
3.86363
3.86614
3.86823
3.86997
3.87145
3.87271
3.87379
3.87473
3.87554
3.87624
3.87685
3.87737
3.8778
3.87817
3.87846
3.87868
3.87884
3.87894
3.87898
3.87896
3.87888
3.87875
3.87856
3.87831
3.878
3.87763
3.8772
3.87671
3.87616
3.87553
3.87484
3.87407
3.87323
3.87229
3.87127
3.87014
3.8689
3.86753
3.86602
3.86434
3.86247
3.86036
3.85796
3.8552
3.85198
3.84817
3.84375
3.83926
3.83853
3.83802
3.83768
3.84109
3.84448
3.84724
3.84941
3.85109
3.85238
3.85335
3.85405
3.85451
3.85475
3.85478
3.85461
3.85424
3.85364
3.85281
3.85171
3.85028
3.84846
3.84618
3.84345
3.84099
3.84269
3.84469
3.84622
3.84725
3.84782
3.84799
3.84775
3.84711
3.84602
3.84441
3.84235
3.84058
3.84298
3.84565
3.84788
3.84966
3.85104
3.85211
3.85292
3.85349
3.85387
3.85405
3.86294
3.8627
3.86223
3.86152
3.86057
3.85943
3.85832
3.85776
3.85869
3.86017
3.86167
3.863
3.86411
3.86499
3.86565
3.86611
3.86638
3.86644
3.86631
3.86597
3.86541
3.86464
3.86371
3.86282
3.86252
3.86374
3.86553
3.86737
3.86907
3.87058
3.87191
3.87308
3.87409
3.87499
3.87576
3.87644
3.87703
3.87753
3.87796
3.87831
3.87859
3.87881
3.87897
3.87906
3.8791
3.87908
3.879
3.87886
3.87867
3.87842
3.87812
3.87775
3.87733
3.87684
3.87629
3.87568
3.87499
3.87423
3.8734
3.87248
3.87147
3.87037
3.86915
3.86782
3.86636
3.86475
3.86296
3.86098
3.85877
3.85629
3.85354
3.85053
3.84742
3.84472
3.84344
3.84292
3.84316
3.84481
3.84688
3.84885
3.85055
3.85195
3.85306
3.85392
3.85454
3.85496
3.85517
3.8552
3.85503
3.85468
3.85414
3.85339
3.85243
3.85123
3.84979
3.84817
3.84655
3.84546
3.84584
3.84675
3.84764
3.84833
3.84873
3.84884
3.84866
3.84819
3.84743
3.84647
3.84549
3.84505
3.84607
3.84763
3.8492
3.85058
3.85174
3.85267
3.85339
3.85392
3.85426
3.85443
3.86376
3.86358
3.86323
3.86272
3.86208
3.8614
3.86085
3.8607
3.86121
3.86211
3.86315
3.86415
3.86504
3.86578
3.86636
3.86678
3.86704
3.86714
3.86709
3.86688
3.86653
3.86608
3.86561
3.86529
3.86539
3.86617
3.86738
3.86874
3.8701
3.87138
3.87254
3.87359
3.87453
3.87536
3.87609
3.87673
3.87729
3.87777
3.87818
3.87852
3.87879
3.879
3.87915
3.87924
3.87927
3.87925
3.87917
3.87903
3.87884
3.8786
3.87829
3.87793
3.87751
3.87703
3.87649
3.87589
3.87521
3.87447
3.87365
3.87276
3.87177
3.8707
3.86953
3.86825
3.86685
3.86532
3.86365
3.86182
3.85983
3.85767
3.85536
3.85297
3.85068
3.84877
3.84759
3.84708
3.84723
3.84811
3.84938
3.85073
3.85199
3.85309
3.854
3.85472
3.85525
3.8556
3.85578
3.85579
3.85564
3.85533
3.85484
3.85419
3.85338
3.8524
3.8513
3.85015
3.84912
3.84846
3.84845
3.84881
3.84928
3.84968
3.84993
3.84999
3.84986
3.84954
3.84907
3.84853
3.84809
3.84804
3.84863
3.8496
3.85069
3.85174
3.85267
3.85344
3.85406
3.85452
3.85482
3.85497
3.86476
3.86463
3.86439
3.86404
3.86364
3.86325
3.86298
3.86298
3.86333
3.86393
3.86466
3.86542
3.86612
3.86673
3.86723
3.86761
3.86787
3.868
3.86802
3.86793
3.86775
3.86754
3.86736
3.86732
3.86757
3.86818
3.86907
3.87012
3.87121
3.87228
3.87329
3.87422
3.87506
3.87582
3.8765
3.8771
3.87763
3.87808
3.87847
3.87879
3.87905
3.87925
3.87939
3.87948
3.8795
3.87948
3.8794
3.87926
3.87907
3.87882
3.87853
3.87817
3.87776
3.87729
3.87676
3.87616
3.87551
3.87478
3.87399
3.87312
3.87217
3.87114
3.87001
3.86879
3.86747
3.86604
3.8645
3.86284
3.86106
3.85919
3.85725
3.85533
3.85355
3.85208
3.85107
3.85057
3.85056
3.85103
3.85179
3.85269
3.8536
3.85442
3.85513
3.85571
3.85614
3.85642
3.85656
3.85656
3.85641
3.85613
3.85571
3.85516
3.85448
3.8537
3.85286
3.85203
3.8513
3.85083
3.85068
3.85078
3.85098
3.85119
3.85132
3.85134
3.85124
3.85104
3.85076
3.85048
3.85032
3.85039
3.8508
3.85146
3.85224
3.85302
3.85375
3.85438
3.85489
3.85528
3.85553
3.85566
3.86589
3.86581
3.86564
3.86542
3.86518
3.86497
3.86486
3.86492
3.86518
3.86562
3.86616
3.86673
3.86729
3.86779
3.86822
3.86857
3.86882
3.86898
3.86905
3.86906
3.86902
3.86897
3.86897
3.86908
3.86938
3.86991
3.87062
3.87145
3.87234
3.87324
3.87411
3.87492
3.87568
3.87637
3.877
3.87755
3.87804
3.87847
3.87883
3.87913
3.87937
3.87956
3.87969
3.87977
3.87979
3.87976
3.87968
3.87954
3.87935
3.87911
3.87881
3.87847
3.87806
3.8776
3.87708
3.87651
3.87587
3.87516
3.8744
3.87356
3.87265
3.87166
3.87059
3.86944
3.8682
3.86688
3.86546
3.86396
3.86239
3.86077
3.85914
3.85756
3.85612
3.85492
3.85406
3.85356
3.85343
3.85364
3.85408
3.85466
3.85527
3.85587
3.8564
3.85684
3.85717
3.85738
3.85748
3.85746
3.85733
3.85707
3.85671
3.85625
3.85569
3.85507
3.85442
3.85379
3.85325
3.85286
3.85267
3.85263
3.85269
3.85276
3.85282
3.85281
3.85274
3.85261
3.85246
3.85233
3.85229
3.85241
3.85273
3.8532
3.85377
3.85436
3.85492
3.85542
3.85584
3.85616
3.85638
3.85649
3.86711
3.86706
3.86695
3.86682
3.86668
3.86658
3.86656
3.86665
3.86687
3.8672
3.86762
3.86807
3.86851
3.86893
3.8693
3.86961
3.86986
3.87004
3.87016
3.87024
3.87029
3.87035
3.87046
3.87065
3.87097
3.87144
3.87204
3.87273
3.87347
3.87423
3.87498
3.87569
3.87637
3.87699
3.87756
3.87806
3.87851
3.87891
3.87925
3.87953
3.87975
3.87993
3.88005
3.88011
3.88013
3.88009
3.88001
3.87987
3.87969
3.87945
3.87916
3.87882
3.87842
3.87797
3.87747
3.87691
3.87629
3.87561
3.87487
3.87407
3.8732
3.87226
3.87125
3.87017
3.86902
3.8678
3.86651
3.86516
3.86377
3.86236
3.86097
3.85964
3.85844
3.85743
3.85667
3.85618
3.85597
3.85601
3.85623
3.85657
3.85698
3.85738
3.85776
3.85807
3.85831
3.85846
3.85852
3.85849
3.85835
3.85813
3.85781
3.85742
3.85697
3.85646
3.85595
3.85546
3.85503
3.85471
3.8545
3.8544
3.85437
3.85437
3.85437
3.85434
3.85429
3.85421
3.85413
3.85409
3.85411
3.85424
3.85449
3.85485
3.85527
3.85572
3.85616
3.85655
3.85689
3.85715
3.85733
3.85742
3.86839
3.86835
3.86829
3.86822
3.86815
3.86812
3.86815
3.86825
3.86844
3.86871
3.86904
3.8694
3.86977
3.87012
3.87044
3.87072
3.87096
3.87115
3.87131
3.87144
3.87155
3.87169
3.87186
3.87209
3.87242
3.87285
3.87336
3.87395
3.87458
3.87523
3.87588
3.87651
3.8771
3.87766
3.87817
3.87863
3.87905
3.87941
3.87972
3.87998
3.88019
3.88034
3.88045
3.88051
3.88052
3.88048
3.88039
3.88026
3.88007
3.87984
3.87955
3.87922
3.87884
3.8784
3.87791
3.87737
3.87678
3.87612
3.87541
3.87465
3.87382
3.87293
3.87199
3.87098
3.86991
3.86879
3.86762
3.8664
3.86517
3.86393
3.86273
3.86159
3.86056
3.85969
3.85901
3.85853
3.85827
3.85819
3.85826
3.85843
3.85867
3.85893
3.85918
3.85939
3.85954
3.85964
3.85966
3.8596
3.85947
3.85927
3.859
3.85866
3.85828
3.85787
3.85746
3.85706
3.85671
3.85643
3.85623
3.8561
3.85602
3.85597
3.85594
3.8559
3.85586
3.85581
3.85578
3.85577
3.85582
3.85595
3.85615
3.85643
3.85675
3.85709
3.85743
3.85775
3.85801
3.85822
3.85837
3.85844
3.8697
3.86968
3.86965
3.86962
3.86959
3.8696
3.86965
3.86976
3.86993
3.87016
3.87043
3.87073
3.87103
3.87133
3.87162
3.87188
3.8721
3.87231
3.87248
3.87264
3.87281
3.87298
3.87319
3.87345
3.87377
3.87416
3.87462
3.87513
3.87567
3.87624
3.8768
3.87735
3.87788
3.87838
3.87884
3.87926
3.87963
3.87996
3.88024
3.88048
3.88067
3.88081
3.88091
3.88095
3.88096
3.88091
3.88082
3.88069
3.8805
3.88027
3.88
3.87967
3.8793
3.87888
3.87841
3.87789
3.87731
3.87669
3.87601
3.87529
3.8745
3.87367
3.87278
3.87184
3.87085
3.86982
3.86876
3.86767
3.86657
3.86548
3.86442
3.86343
3.86253
3.86176
3.86114
3.86068
3.86037
3.86021
3.86018
3.86023
3.86035
3.86049
3.86063
3.86075
3.86084
3.86088
3.86087
3.8608
3.86067
3.86048
3.86024
3.85995
3.85963
3.85929
3.85895
3.85862
3.85832
3.85807
3.85788
3.85774
3.85764
3.85757
3.85752
3.85747
3.85743
3.8574
3.85739
3.8574
3.85746
3.85757
3.85774
3.85796
3.85821
3.85847
3.85874
3.85898
3.85919
3.85936
3.85948
3.85954
3.87102
3.87101
3.871
3.871
3.87101
3.87104
3.8711
3.87121
3.87137
3.87156
3.87179
3.87204
3.8723
3.87257
3.87282
3.87306
3.87328
3.87348
3.87367
3.87386
3.87404
3.87424
3.87447
3.87474
3.87505
3.87541
3.87582
3.87627
3.87675
3.87724
3.87774
3.87822
3.87869
3.87913
3.87954
3.87992
3.88026
3.88056
3.88081
3.88103
3.8812
3.88132
3.88141
3.88145
3.88144
3.88139
3.8813
3.88117
3.88098
3.88076
3.88049
3.88017
3.87981
3.87941
3.87895
3.87845
3.8779
3.87731
3.87667
3.87598
3.87524
3.87445
3.87362
3.87275
3.87184
3.8709
3.86993
3.86894
3.86796
3.86699
3.86605
3.86518
3.86438
3.86369
3.86311
3.86266
3.86233
3.86212
3.86201
3.86198
3.862
3.86205
3.8621
3.86215
3.86218
3.86218
3.86214
3.86205
3.86192
3.86174
3.86152
3.86127
3.861
3.86071
3.86042
3.86014
3.85988
3.85966
3.85948
3.85934
3.85923
3.85915
3.85908
3.85903
3.859
3.85897
3.85897
3.85899
3.85905
3.85914
3.85928
3.85945
3.85965
3.85985
3.86006
3.86025
3.86042
3.86055
3.86065
3.86069
3.87235
3.87235
3.87236
3.87237
3.87239
3.87244
3.87251
3.87262
3.87276
3.87293
3.87313
3.87335
3.87358
3.87381
3.87404
3.87426
3.87447
3.87467
3.87487
3.87506
3.87526
3.87548
3.87571
3.87598
3.87628
3.87661
3.87699
3.87739
3.87781
3.87824
3.87868
3.87911
3.87952
3.87992
3.88028
3.88062
3.88093
3.88119
3.88142
3.88162
3.88177
3.88188
3.88195
3.88198
3.88197
3.88192
3.88182
3.88169
3.88151
3.88129
3.88103
3.88072
3.88037
3.87998
3.87954
3.87907
3.87854
3.87798
3.87737
3.87671
3.87602
3.87528
3.87451
3.8737
3.87286
3.872
3.87111
3.87022
3.86933
3.86846
3.86763
3.86684
3.86613
3.86549
3.86495
3.86451
3.86417
3.86393
3.86376
3.86367
3.86361
3.86359
3.86359
3.86358
3.86356
3.86352
3.86345
3.86335
3.86321
3.86304
3.86285
3.86262
3.86238
3.86213
3.86188
3.86164
3.86141
3.86121
3.86105
3.86091
3.86079
3.8607
3.86063
3.86058
3.86054
3.86052
3.86052
3.86055
3.8606
3.86068
3.86079
3.86092
3.86107
3.86123
3.8614
3.86155
3.86168
3.86178
3.86186
3.86189
3.87369
3.87369
3.8737
3.87372
3.87376
3.87381
3.87389
3.87399
3.87412
3.87427
3.87445
3.87464
3.87485
3.87505
3.87526
3.87547
3.87567
3.87587
3.87607
3.87627
3.87647
3.87669
3.87693
3.87718
3.87747
3.87778
3.87812
3.87848
3.87886
3.87924
3.87963
3.88001
3.88038
3.88073
3.88105
3.88136
3.88163
3.88187
3.88208
3.88225
3.88238
3.88248
3.88254
3.88256
3.88254
3.88248
3.88239
3.88225
3.88208
3.88186
3.88161
3.88131
3.88097
3.8806
3.88018
3.87972
3.87922
3.87869
3.87811
3.87749
3.87684
3.87615
3.87543
3.87468
3.87391
3.87311
3.8723
3.87149
3.87069
3.8699
3.86915
3.86844
3.86779
3.8672
3.8667
3.86627
3.86592
3.86565
3.86545
3.86531
3.8652
3.86513
3.86507
3.86501
3.86495
3.86488
3.86479
3.86468
3.86454
3.86437
3.86419
3.86399
3.86377
3.86355
3.86333
3.86312
3.86292
3.86274
3.86258
3.86244
3.86233
3.86224
3.86217
3.86211
3.86208
3.86206
3.86205
3.86207
3.86211
3.86218
3.86226
3.86237
3.86249
3.86262
3.86274
3.86286
3.86296
3.86305
3.8631
3.86313
3.87501
3.87502
3.87504
3.87506
3.8751
3.87516
3.87524
3.87534
3.87546
3.8756
3.87575
3.87593
3.87611
3.8763
3.87649
3.87668
3.87688
3.87707
3.87726
3.87746
3.87767
3.87788
3.87811
3.87836
3.87863
3.87892
3.87923
3.87956
3.87989
3.88024
3.88058
3.88092
3.88125
3.88156
3.88185
3.88212
3.88236
3.88258
3.88276
3.88291
3.88303
3.88311
3.88316
3.88317
3.88315
3.88309
3.88299
3.88286
3.88268
3.88247
3.88223
3.88194
3.88162
3.88125
3.88086
3.88042
3.87995
3.87944
3.87889
3.87831
3.8777
3.87705
3.87638
3.87569
3.87497
3.87424
3.8735
3.87276
3.87203
3.87131
3.87062
3.86998
3.86938
3.86884
3.86836
3.86794
3.8676
3.86731
3.86708
3.8669
3.86676
3.86664
3.86654
3.86645
3.86636
3.86626
3.86615
3.86603
3.86589
3.86573
3.86555
3.86537
3.86517
3.86497
3.86477
3.86458
3.8644
3.86424
3.86409
3.86396
3.86385
3.86376
3.86369
3.86363
3.86359
3.86357
3.86356
3.86357
3.86361
3.86366
3.86372
3.86381
3.8639
3.864
3.8641
3.86419
3.86427
3.86433
3.86438
3.8644
3.87633
3.87634
3.87636
3.87639
3.87643
3.87649
3.87657
3.87666
3.87677
3.8769
3.87704
3.8772
3.87736
3.87754
3.87772
3.8779
3.87808
3.87827
3.87846
3.87865
3.87885
3.87906
3.87929
3.87952
3.87978
3.88005
3.88033
3.88062
3.88093
3.88123
3.88154
3.88184
3.88213
3.88241
3.88267
3.88291
3.88313
3.88332
3.88348
3.88361
3.88371
3.88378
3.88382
3.88382
3.88379
3.88373
3.88363
3.8835
3.88333
3.88312
3.88288
3.88261
3.8823
3.88195
3.88157
3.88115
3.8807
3.88022
3.87971
3.87916
3.87858
3.87798
3.87736
3.87671
3.87605
3.87537
3.87469
3.87401
3.87334
3.87269
3.87206
3.87147
3.87091
3.87041
3.86995
3.86955
3.86921
3.86891
3.86867
3.86846
3.86829
3.86814
3.86801
3.86789
3.86778
3.86766
3.86753
3.8674
3.86725
3.8671
3.86693
3.86675
3.86657
3.86639
3.86621
3.86603
3.86587
3.86572
3.86558
3.86546
3.86535
3.86526
3.86519
3.86513
3.86509
3.86506
3.86505
3.86506
3.86508
3.86512
3.86517
3.86523
3.8653
3.86538
3.86546
3.86553
3.86559
3.86564
3.86568
3.86569
3.87764
3.87765
3.87767
3.8777
3.87775
3.8778
3.87788
3.87797
3.87807
3.87819
3.87832
3.87846
3.87861
3.87877
3.87894
3.87911
3.87928
3.87946
3.87964
3.87983
3.88003
3.88023
3.88044
3.88067
3.8809
3.88115
3.88141
3.88168
3.88195
3.88223
3.8825
3.88277
3.88303
3.88328
3.88351
3.88373
3.88392
3.88408
3.88423
3.88434
3.88443
3.88449
3.88451
3.88451
3.88447
3.88441
3.88431
3.88417
3.88401
3.88381
3.88357
3.88331
3.88301
3.88268
3.88232
3.88192
3.88149
3.88104
3.88055
3.88004
3.8795
3.87894
3.87835
3.87775
3.87714
3.87651
3.87589
3.87526
3.87465
3.87405
3.87347
3.87292
3.8724
3.87193
3.87149
3.87111
3.87077
3.87047
3.87021
3.86999
3.86979
3.86962
3.86947
3.86933
3.86919
3.86906
3.86892
3.86878
3.86863
3.86848
3.86831
3.86815
3.86798
3.86781
3.86764
3.86748
3.86732
3.86718
3.86705
3.86694
3.86683
3.86675
3.86667
3.86662
3.86657
3.86654
3.86653
3.86653
3.86654
3.86657
3.8666
3.86665
3.8667
3.86676
3.86682
3.86687
3.86692
3.86696
3.86699
3.867
3.87894
3.87895
3.87897
3.879
3.87905
3.8791
3.87917
3.87925
3.87935
3.87946
3.87958
3.87971
3.87985
3.88
3.88016
3.88032
3.88048
3.88065
3.88082
3.881
3.88119
3.88139
3.88159
3.8818
3.88202
3.88225
3.88249
3.88273
3.88298
3.88323
3.88347
3.88371
3.88395
3.88417
3.88437
3.88456
3.88473
3.88488
3.885
3.8851
3.88517
3.88522
3.88524
3.88523
3.88519
3.88511
3.88501
3.88488
3.88472
3.88452
3.8843
3.88404
3.88376
3.88344
3.88309
3.88272
3.88231
3.88188
3.88142
3.88094
3.88044
3.87991
3.87937
3.87881
3.87824
3.87766
3.87708
3.8765
3.87593
3.87538
3.87484
3.87433
3.87385
3.8734
3.87299
3.87262
3.87228
3.87198
3.87172
3.87148
3.87128
3.87109
3.87092
3.87076
3.87061
3.87046
3.87032
3.87017
3.87002
3.86986
3.8697
3.86954
3.86938
3.86922
3.86906
3.86891
3.86877
3.86863
3.86851
3.8684
3.8683
3.86822
3.86814
3.86809
3.86804
3.86801
3.86799
3.86798
3.86798
3.868
3.86803
3.86806
3.8681
3.86814
3.86819
3.86823
3.86826
3.86829
3.86832
3.86833
3.88023
3.88024
3.88026
3.88029
3.88033
3.88039
3.88045
3.88053
3.88062
3.88072
3.88083
3.88096
3.88109
3.88122
3.88137
3.88152
3.88167
3.88183
3.882
3.88217
3.88235
3.88253
3.88272
3.88292
3.88313
3.88334
3.88356
3.88378
3.884
3.88423
3.88445
3.88466
3.88487
3.88507
3.88525
3.88542
3.88556
3.88569
3.8858
3.88589
3.88595
3.88598
3.88599
3.88597
3.88593
3.88585
3.88575
3.88562
3.88546
3.88527
3.88506
3.88481
3.88454
3.88423
3.8839
3.88355
3.88316
3.88275
3.88232
3.88187
3.88139
3.8809
3.88039
3.87987
3.87934
3.8788
3.87827
3.87773
3.8772
3.87669
3.87619
3.87572
3.87526
3.87484
3.87445
3.87409
3.87376
3.87346
3.87319
3.87295
3.87274
3.87254
3.87235
3.87218
3.87202
3.87186
3.87171
3.87156
3.8714
3.87125
3.87109
3.87094
3.87078
3.87063
3.87048
3.87034
3.8702
3.87008
3.86996
3.86985
3.86976
3.86967
3.8696
3.86954
3.86949
3.86946
3.86943
3.86942
3.86942
3.86943
3.86944
3.86946
3.86949
3.86952
3.86956
3.86959
3.86961
3.86964
3.86965
3.86966
3.88151
3.88152
3.88154
3.88157
3.88161
3.88166
3.88172
3.8818
3.88188
3.88197
3.88208
3.88219
3.88231
3.88244
3.88257
3.88272
3.88286
3.88301
3.88317
3.88333
3.8835
3.88367
3.88385
3.88404
3.88423
3.88442
3.88462
3.88482
3.88503
3.88523
3.88543
3.88562
3.8858
3.88598
3.88614
3.88629
3.88642
3.88653
3.88662
3.88669
3.88674
3.88677
3.88677
3.88674
3.88669
3.88662
3.88652
3.88639
3.88623
3.88605
3.88584
3.8856
3.88534
3.88505
3.88474
3.8844
3.88404
3.88365
3.88324
3.88281
3.88237
3.88191
3.88143
3.88095
3.88045
3.87995
3.87945
3.87896
3.87846
3.87799
3.87752
3.87707
3.87665
3.87625
3.87587
3.87553
3.87521
3.87491
3.87464
3.8744
3.87418
3.87397
3.87378
3.8736
3.87343
3.87326
3.8731
3.87295
3.87279
3.87264
3.87249
3.87233
3.87218
3.87204
3.8719
3.87176
3.87163
3.87151
3.87139
3.87129
3.8712
3.87112
3.87105
3.87099
3.87094
3.8709
3.87087
3.87085
3.87084
3.87084
3.87085
3.87086
3.87088
3.8709
3.87093
3.87095
3.87097
3.87098
3.871
3.871
3.88278
3.88279
3.88281
3.88283
3.88287
3.88292
3.88298
3.88305
3.88313
3.88321
3.88331
3.88342
3.88353
3.88365
3.88377
3.88391
3.88404
3.88419
3.88433
3.88449
3.88464
3.88481
3.88497
3.88515
3.88532
3.8855
3.88568
3.88587
3.88605
3.88623
3.88641
3.88658
3.88675
3.8869
3.88705
3.88718
3.88729
3.88739
3.88747
3.88752
3.88756
3.88758
3.88757
3.88754
3.88749
3.88741
3.88731
3.88718
3.88703
3.88685
3.88665
3.88642
3.88617
3.8859
3.8856
3.88527
3.88493
3.88457
3.88418
3.88378
3.88336
3.88293
3.88248
3.88203
3.88157
3.8811
3.88063
3.88017
3.87971
3.87927
3.87883
3.87841
3.87801
3.87763
3.87727
3.87694
3.87662
3.87634
3.87607
3.87582
3.8756
3.87539
3.87519
3.875
3.87483
3.87466
3.8745
3.87434
3.87418
3.87403
3.87388
3.87373
3.87358
3.87344
3.8733
3.87317
3.87305
3.87293
3.87282
3.87272
3.87263
3.87255
3.87248
3.87242
3.87237
3.87233
3.87229
3.87227
3.87226
3.87225
3.87225
3.87226
3.87227
3.87228
3.8723
3.87231
3.87232
3.87234
3.87234
3.87235
3.88404
3.88404
3.88406
3.88409
3.88413
3.88417
3.88423
3.88429
3.88437
3.88445
3.88454
3.88463
3.88474
3.88485
3.88497
3.88509
3.88522
3.88535
3.88549
3.88564
3.88578
3.88593
3.88609
3.88625
3.88641
3.88658
3.88675
3.88691
3.88708
3.88724
3.8874
3.88756
3.8877
3.88784
3.88797
3.88808
3.88818
3.88826
3.88833
3.88838
3.8884
3.88841
3.8884
3.88837
3.88831
3.88823
3.88813
3.888
3.88785
3.88768
3.88749
3.88727
3.88703
3.88676
3.88648
3.88617
3.88585
3.8855
3.88514
3.88476
3.88437
3.88396
3.88354
3.88312
3.88269
3.88225
3.88181
3.88138
3.88095
3.88053
3.88012
3.87973
3.87935
3.87899
3.87865
3.87832
3.87802
3.87774
3.87748
3.87723
3.877
3.87679
3.87659
3.8764
3.87622
3.87605
3.87588
3.87572
3.87556
3.87541
3.87526
3.87512
3.87497
3.87484
3.8747
3.87458
3.87446
3.87434
3.87424
3.87414
3.87405
3.87397
3.8739
3.87384
3.87379
3.87375
3.87371
3.87368
3.87367
3.87365
3.87365
3.87365
3.87365
3.87366
3.87367
3.87367
3.87368
3.87369
3.8737
3.8737
3.88529
3.88529
3.88531
3.88534
3.88537
3.88541
3.88547
3.88553
3.88559
3.88567
3.88575
3.88585
3.88594
3.88605
3.88616
3.88627
3.88639
3.88652
3.88665
3.88678
3.88692
3.88706
3.8872
3.88735
3.8875
3.88765
3.88781
3.88796
3.88811
3.88826
3.8884
3.88854
3.88867
3.88879
3.8889
3.889
3.88908
3.88915
3.88921
3.88925
3.88927
3.88927
3.88925
3.88921
3.88915
3.88907
3.88897
3.88884
3.8887
3.88853
3.88834
3.88813
3.8879
3.88765
3.88738
3.88709
3.88678
3.88645
3.88611
3.88576
3.88538
3.885
3.88461
3.88421
3.88381
3.8834
3.88299
3.88259
3.88218
3.88179
3.8814
3.88103
3.88067
3.88033
3.88
3.87969
3.8794
3.87912
3.87886
3.87862
3.87839
3.87818
3.87798
3.87779
3.8776
3.87743
3.87726
3.8771
3.87694
3.87679
3.87664
3.8765
3.87636
3.87623
3.8761
3.87598
3.87586
3.87575
3.87565
3.87555
3.87546
3.87539
3.87532
3.87525
3.8752
3.87516
3.87512
3.87509
3.87507
3.87505
3.87504
3.87503
3.87503
3.87503
3.87503
3.87504
3.87504
3.87505
3.87505
3.87505
3.88653
3.88653
3.88655
3.88657
3.88661
3.88665
3.8867
3.88675
3.88682
3.88689
3.88696
3.88705
3.88714
3.88724
3.88734
3.88745
3.88756
3.88768
3.8878
3.88792
3.88805
3.88818
3.88831
3.88845
3.88859
3.88873
3.88887
3.889
3.88914
3.88927
3.8894
3.88952
3.88964
3.88975
3.88984
3.88993
3.89
3.89006
3.8901
3.89013
3.89015
3.89014
3.89012
3.89007
3.89001
3.88993
3.88983
3.88971
3.88957
3.8894
3.88922
3.88902
3.8888
3.88856
3.8883
3.88803
3.88773
3.88742
3.8871
3.88676
3.88641
3.88605
3.88569
3.88531
3.88493
3.88455
3.88417
3.88378
3.88341
3.88304
3.88267
3.88232
3.88198
3.88165
3.88134
3.88104
3.88075
3.88049
3.88023
3.87999
3.87977
3.87956
3.87935
3.87916
3.87898
3.87881
3.87864
3.87848
3.87832
3.87817
3.87802
3.87788
3.87775
3.87761
3.87749
3.87737
3.87725
3.87715
3.87705
3.87695
3.87687
3.87679
3.87672
3.87666
3.8766
3.87656
3.87652
3.87649
3.87646
3.87644
3.87642
3.87641
3.87641
3.8764
3.8764
3.8764
3.8764
3.87641
3.87641
3.87641
3.88776
3.88777
3.88778
3.8878
3.88783
3.88787
3.88792
3.88797
3.88803
3.8881
3.88817
3.88825
3.88833
3.88842
3.88852
3.88862
3.88872
3.88883
3.88894
3.88906
3.88918
3.8893
3.88942
3.88955
3.88967
3.8898
3.88993
3.89005
3.89017
3.89029
3.89041
3.89052
3.89062
3.89071
3.8908
3.89087
3.89093
3.89098
3.89102
3.89104
3.89104
3.89103
3.891
3.89096
3.89089
3.89081
3.89071
3.89059
3.89045
3.8903
3.89012
3.88993
3.88972
3.88949
3.88924
3.88898
3.8887
3.88841
3.8881
3.88778
3.88745
3.88712
3.88677
3.88642
3.88606
3.8857
3.88534
3.88498
3.88462
3.88427
3.88393
3.8836
3.88327
3.88296
3.88266
3.88237
3.8821
3.88184
3.88159
3.88135
3.88113
3.88092
3.88072
3.88053
3.88035
3.88017
3.88001
3.87985
3.87969
3.87954
3.8794
3.87926
3.87912
3.87899
3.87887
3.87875
3.87864
3.87854
3.87844
3.87835
3.87826
3.87819
3.87812
3.87806
3.878
3.87795
3.87791
3.87788
3.87785
3.87782
3.8778
3.87779
3.87778
3.87777
3.87777
3.87777
3.87776
3.87776
3.87776
3.87776
3.88898
3.88899
3.889
3.88903
3.88905
3.88909
3.88913
3.88918
3.88924
3.8893
3.88937
3.88944
3.88952
3.8896
3.88969
3.88978
3.88988
3.88998
3.89008
3.89019
3.8903
3.89041
3.89053
3.89064
3.89076
3.89087
3.89099
3.8911
3.89121
3.89132
3.89142
3.89152
3.89161
3.89169
3.89176
3.89183
3.89188
3.89192
3.89195
3.89196
3.89196
3.89194
3.89191
3.89186
3.89179
3.89171
3.89161
3.89149
3.89136
3.89121
3.89104
3.89085
3.89065
3.89043
3.8902
3.88995
3.88968
3.88941
3.88912
3.88881
3.8885
3.88818
3.88786
3.88752
3.88719
3.88685
3.88651
3.88617
3.88584
3.8855
3.88518
3.88486
3.88455
3.88426
3.88397
3.88369
3.88343
3.88317
3.88293
3.8827
3.88248
3.88228
3.88208
3.88189
3.88171
3.88153
3.88137
3.88121
3.88106
3.88091
3.88076
3.88063
3.8805
3.88037
3.88025
3.88013
3.88003
3.87992
3.87983
3.87974
3.87965
3.87958
3.87951
3.87944
3.87939
3.87934
3.8793
3.87926
3.87923
3.8792
3.87918
3.87916
3.87915
3.87914
3.87913
3.87913
3.87912
3.87912
3.87912
3.87912
3.8902
3.89021
3.89022
3.89024
3.89027
3.8903
3.89034
3.89038
3.89044
3.89049
3.89056
3.89062
3.8907
3.89078
3.89086
3.89094
3.89103
3.89113
3.89122
3.89132
3.89142
3.89153
3.89163
3.89174
3.89184
3.89195
3.89205
3.89215
3.89225
3.89235
3.89244
3.89253
3.8926
3.89268
3.89274
3.89279
3.89283
3.89287
3.89289
3.89289
3.89289
3.89286
3.89283
3.89278
3.89271
3.89263
3.89253
3.89241
3.89228
3.89214
3.89197
3.89179
3.8916
3.89139
3.89117
3.89093
3.89068
3.89041
3.89014
3.88986
3.88956
3.88926
3.88895
3.88864
3.88832
3.888
3.88768
3.88736
3.88704
3.88673
3.88642
3.88612
3.88583
3.88554
3.88526
3.885
3.88474
3.8845
3.88426
3.88404
3.88383
3.88362
3.88343
3.88324
3.88306
3.88289
3.88272
3.88257
3.88241
3.88227
3.88213
3.88199
3.88186
3.88174
3.88162
3.88151
3.8814
3.8813
3.88121
3.88112
3.88103
3.88096
3.88089
3.88083
3.88077
3.88072
3.88068
3.88064
3.8806
3.88058
3.88055
3.88053
3.88052
3.8805
3.88049
3.88049
3.88048
3.88048
3.88047
3.88047
3.89141
3.89142
3.89143
3.89145
3.89147
3.8915
3.89154
3.89158
3.89163
3.89168
3.89174
3.8918
3.89187
3.89194
3.89202
3.8921
3.89218
3.89227
3.89236
3.89245
3.89254
3.89264
3.89273
3.89283
3.89293
3.89302
3.89312
3.89321
3.8933
3.89338
3.89346
3.89354
3.89361
3.89367
3.89372
3.89377
3.8938
3.89383
3.89384
3.89384
3.89383
3.8938
3.89376
3.89371
3.89364
3.89356
3.89346
3.89335
3.89322
3.89308
3.89292
3.89275
3.89256
3.89236
3.89215
3.89192
3.89168
3.89144
3.89117
3.8909
3.89063
3.89034
3.89005
3.88975
3.88945
3.88915
3.88885
3.88855
3.88825
3.88795
3.88766
3.88737
3.88709
3.88682
3.88655
3.8863
3.88605
3.88581
3.88558
3.88537
3.88516
3.88496
3.88476
3.88458
3.8844
3.88423
3.88407
3.88392
3.88377
3.88362
3.88348
3.88335
3.88322
3.8831
3.88299
3.88288
3.88277
3.88267
3.88258
3.88249
3.88241
3.88233
3.88227
3.8822
3.88215
3.8821
3.88205
3.88201
3.88197
3.88194
3.88192
3.8819
3.88188
3.88186
3.88185
3.88184
3.88184
3.88183
3.88183
3.88183
3.89262
3.89262
3.89263
3.89265
3.89267
3.8927
3.89274
3.89277
3.89282
3.89287
3.89292
3.89298
3.89304
3.89311
3.89318
3.89325
3.89333
3.89341
3.89349
3.89358
3.89366
3.89375
3.89384
3.89392
3.89401
3.8941
3.89418
3.89427
3.89435
3.89442
3.89449
3.89456
3.89462
3.89467
3.89472
3.89475
3.89478
3.8948
3.8948
3.8948
3.89478
3.89475
3.89471
3.89466
3.89459
3.89451
3.89441
3.8943
3.89418
3.89404
3.89389
3.89372
3.89354
3.89335
3.89315
3.89293
3.8927
3.89247
3.89222
3.89196
3.8917
3.89143
3.89115
3.89087
3.89059
3.8903
3.89002
3.88973
3.88944
3.88916
3.88888
3.88861
3.88834
3.88808
3.88783
3.88758
3.88735
3.88712
3.8869
3.88668
3.88648
3.88628
3.8861
3.88591
3.88574
3.88557
3.88541
3.88526
3.88511
3.88497
3.88484
3.8847
3.88458
3.88446
3.88435
3.88424
3.88413
3.88404
3.88394
3.88386
3.88378
3.8837
3.88364
3.88357
3.88352
3.88346
3.88342
3.88338
3.88334
3.88331
3.88328
3.88326
3.88324
3.88322
3.88321
3.8832
3.88319
3.88318
3.88318
3.88318
3.89381
3.89382
3.89383
3.89385
3.89387
3.89389
3.89392
3.89396
3.894
3.89405
3.8941
3.89415
3.89421
3.89427
3.89434
3.8944
3.89448
3.89455
3.89462
3.8947
3.89478
3.89486
3.89494
3.89502
3.8951
3.89518
3.89525
3.89533
3.8954
3.89546
3.89553
3.89558
3.89564
3.89568
3.89572
3.89575
3.89577
3.89578
3.89578
3.89577
3.89575
3.89572
3.89568
3.89562
3.89555
3.89547
3.89537
3.89527
3.89514
3.89501
3.89486
3.8947
3.89453
3.89435
3.89415
3.89395
3.89373
3.89351
3.89327
3.89303
3.89278
3.89252
3.89226
3.89199
3.89173
3.89145
3.89118
3.89091
3.89064
3.89037
3.89011
3.88985
3.88959
3.88934
3.8891
3.88886
3.88863
3.88841
3.8882
3.88799
3.88779
3.8876
3.88742
3.88724
3.88707
3.88691
3.88675
3.8866
3.88645
3.88631
3.88618
3.88605
3.88593
3.88581
3.8857
3.88559
3.88549
3.8854
3.8853
3.88522
3.88514
3.88507
3.885
3.88494
3.88488
3.88483
3.88478
3.88474
3.8847
3.88467
3.88464
3.88462
3.88459
3.88458
3.88456
3.88455
3.88454
3.88453
3.88453
3.88453
3.89501
3.89501
3.89502
3.89504
3.89506
3.89508
3.89511
3.89514
3.89518
3.89522
3.89527
3.89532
3.89537
3.89543
3.89549
3.89555
3.89562
3.89568
3.89575
3.89582
3.8959
3.89597
3.89604
3.89611
3.89618
3.89626
3.89632
3.89639
3.89645
3.89651
3.89657
3.89662
3.89666
3.8967
3.89673
3.89675
3.89677
3.89677
3.89677
3.89676
3.89673
3.8967
3.89665
3.89659
3.89652
3.89644
3.89635
3.89624
3.89613
3.896
3.89585
3.8957
3.89554
3.89536
3.89517
3.89498
3.89477
3.89455
3.89433
3.8941
3.89386
3.89362
3.89337
3.89312
3.89286
3.89261
3.89235
3.89209
3.89183
3.89158
3.89133
3.89108
3.89084
3.8906
3.89036
3.89014
3.88991
3.8897
3.88949
3.88929
3.8891
3.88891
3.88873
3.88856
3.88839
3.88823
3.88808
3.88793
3.88779
3.88765
3.88752
3.88739
3.88727
3.88716
3.88705
3.88694
3.88684
3.88675
3.88666
3.88658
3.8865
3.88643
3.88636
3.8863
3.88624
3.88619
3.88614
3.8861
3.88606
3.88602
3.88599
3.88597
3.88595
3.88593
3.88591
3.8859
3.88589
3.88588
3.88588
3.88588
3.89619
3.8962
3.89621
3.89622
3.89624
3.89626
3.89629
3.89632
3.89635
3.89639
3.89644
3.89648
3.89653
3.89658
3.89664
3.8967
3.89676
3.89682
3.89688
3.89695
3.89701
3.89708
3.89714
3.89721
3.89727
3.89734
3.8974
3.89746
3.89751
3.89756
3.89761
3.89765
3.89769
3.89772
3.89775
3.89776
3.89777
3.89777
3.89777
3.89775
3.89772
3.89768
3.89764
3.89758
3.89751
3.89743
3.89734
3.89723
3.89712
3.89699
3.89685
3.89671
3.89655
3.89638
3.8962
3.89601
3.89582
3.89561
3.8954
3.89518
3.89495
3.89472
3.89449
3.89425
3.894
3.89376
3.89352
3.89327
3.89303
3.89278
3.89254
3.89231
3.89207
3.89184
3.89162
3.8914
3.89119
3.89098
3.89078
3.89059
3.8904
3.89022
3.89004
3.88987
3.88971
3.88955
3.8894
3.88926
3.88912
3.88898
3.88885
3.88873
3.88861
3.8885
3.88839
3.88829
3.88819
3.8881
3.88801
3.88793
3.88785
3.88778
3.88771
3.88765
3.88759
3.88754
3.88749
3.88745
3.88741
3.88737
3.88734
3.88732
3.88729
3.88728
3.88726
3.88725
3.88723
3.88723
3.88722
3.88722
3.89738
3.89738
3.89739
3.8974
3.89742
3.89744
3.89746
3.89749
3.89753
3.89756
3.8976
3.89764
3.89769
3.89774
3.89779
3.89784
3.89789
3.89795
3.89801
3.89807
3.89813
3.89819
3.89825
3.8983
3.89836
3.89842
3.89847
3.89852
3.89857
3.89862
3.89866
3.8987
3.89873
3.89875
3.89877
3.89878
3.89879
3.89878
3.89877
3.89875
3.89872
3.89868
3.89863
3.89857
3.8985
3.89842
3.89833
3.89823
3.89812
3.898
3.89787
3.89772
3.89757
3.89741
3.89724
3.89706
3.89687
3.89668
3.89647
3.89626
3.89605
3.89583
3.89561
3.89538
3.89515
3.89492
3.89468
3.89445
3.89422
3.89398
3.89376
3.89353
3.89331
3.89309
3.89287
3.89266
3.89246
3.89226
3.89206
3.89187
3.89169
3.89152
3.89134
3.89118
3.89102
3.89087