/*--------------------------------*- C++ -*----------------------------------*\
| =========                 |                                                 |
| \\      /  F ield         | OpenFOAM: The Open Source CFD Toolbox           |
|  \\    /   O peration     | Version:  2406                                  |
|   \\  /    A nd           | Website:  www.openfoam.com                      |
|    \\/     M anipulation  |                                                 |
\*---------------------------------------------------------------------------*/
FoamFile
{
    version     2.0;
    format      ascii;
    arch        "LSB;label=32;scalar=64";
    class       volScalarField;
    location    "4.9";
    object      C;
}
// * * * * * * * * * * * * * * * * * * * * * * * * * * * * * * * * * * * * * //

dimensions      [1 -3 0 0 0 0 0];

internalField   nonuniform List<scalar> 
14400
(
0.331348
0.328213
0.323224
0.317711
0.312728
0.309026
0.307112
0.307295
0.309727
0.314412
0.321206
0.329785
0.339578
0.34964
0.358412
0.363355
0.360027
0.352512
0.343558
0.335024
0.328129
0.323698
0.322325
0.324476
0.33054
0.34088
0.355848
0.375807
0.401132
0.432207
0.469402
0.512998
0.562972
0.618139
0.671129
0.708398
0.734178
0.756762
0.776538
0.793792
0.808748
0.82158
0.832427
0.841398
0.848578
0.854032
0.857811
0.859948
0.860465
0.85937
0.85666
0.85232
0.846323
0.838627
0.829176
0.817897
0.804698
0.789462
0.772043
0.752257
0.729872
0.704599
0.674439
0.628971
0.569481
0.514095
0.464899
0.422103
0.385475
0.354642
0.3292
0.308761
0.292979
0.281554
0.274242
0.270848
0.271224
0.275265
0.282899
0.294074
0.308742
0.326829
0.348174
0.372406
0.398522
0.422981
0.438236
0.443863
0.443302
0.434841
0.417404
0.396514
0.376679
0.359001
0.343889
0.331492
0.321804
0.314689
0.309903
0.307097
0.305824
0.305576
0.305844
0.306228
0.306577
0.307088
0.308203
0.310471
0.314444
0.32061
0.329375
0.341047
0.355834
0.373837
0.395007
0.419036
0.444882
0.468
0.481717
0.487074
0.344555
0.340181
0.333871
0.327283
0.321511
0.317272
0.315036
0.31509
0.317574
0.322492
0.32971
0.338937
0.349669
0.361077
0.371746
0.378681
0.373857
0.364329
0.353816
0.344164
0.336471
0.331475
0.329716
0.331628
0.337584
0.347933
0.363022
0.383205
0.408854
0.440348
0.478055
0.522257
0.572952
0.628861
0.67836
0.712073
0.737356
0.759571
0.77906
0.796091
0.810871
0.823565
0.834303
0.843188
0.850303
0.855708
0.859452
0.861568
0.862076
0.860984
0.85829
0.853978
0.848022
0.840381
0.831003
0.819818
0.806735
0.791646
0.77441
0.754854
0.732761
0.707847
0.679249
0.636927
0.578656
0.522921
0.473092
0.429688
0.392532
0.361256
0.33545
0.314724
0.298728
0.287161
0.279778
0.276384
0.276832
0.281019
0.288873
0.300347
0.315398
0.333954
0.355867
0.380779
0.407658
0.43136
0.444659
0.450042
0.449857
0.443395
0.427298
0.406081
0.38576
0.367629
0.352161
0.339532
0.329753
0.322697
0.318119
0.315656
0.314829
0.315055
0.315711
0.316255
0.316431
0.316546
0.317182
0.319004
0.32263
0.328587
0.337287
0.34904
0.364046
0.382389
0.404002
0.428539
0.454821
0.476279
0.487547
0.492429
0.371597
0.364111
0.355025
0.346323
0.339033
0.333764
0.330912
0.33072
0.333309
0.338678
0.346707
0.357145
0.36956
0.383207
0.396509
0.40342
0.399626
0.387159
0.373963
0.362301
0.35313
0.347063
0.344563
0.346014
0.351761
0.362136
0.377469
0.398103
0.424396
0.456715
0.495402
0.540668
0.592257
0.647694
0.690249
0.719241
0.743604
0.765104
0.784041
0.80064
0.81508
0.827506
0.838032
0.846751
0.853736
0.859045
0.862722
0.864796
0.865287
0.864202
0.861537
0.85728
0.851404
0.843874
0.834639
0.823634
0.81078
0.795975
0.779095
0.75999
0.738471
0.714312
0.687248
0.650852
0.597567
0.540696
0.489523
0.444924
0.406737
0.374586
0.34806
0.32676
0.310336
0.298484
0.290959
0.287566
0.288158
0.292635
0.300928
0.312996
0.3288
0.34827
0.371237
0.397248
0.424874
0.446226
0.456793
0.46179
0.462125
0.457859
0.445925
0.425042
0.403927
0.384929
0.368759
0.35567
0.345711
0.338778
0.334631
0.332892
0.333024
0.334307
0.335867
0.336824
0.33656
0.335753
0.335325
0.336184
0.339085
0.344605
0.353172
0.365084
0.380522
0.399526
0.421956
0.447231
0.473147
0.490033
0.498513
0.502666
0.408655
0.398761
0.386069
0.374537
0.365194
0.358509
0.354797
0.354265
0.357015
0.363033
0.372197
0.384278
0.398838
0.414888
0.42877
0.432215
0.430791
0.419203
0.403329
0.389214
0.37809
0.370547
0.367
0.367794
0.373248
0.383675
0.399386
0.420699
0.447952
0.481484
0.521579
0.568294
0.620798
0.670385
0.704027
0.729714
0.752714
0.773201
0.791358
0.807347
0.821304
0.833346
0.843567
0.852046
0.858845
0.864016
0.867594
0.869608
0.870074
0.868998
0.866377
0.862199
0.856441
0.849071
0.840043
0.829301
0.816775
0.802379
0.786008
0.767538
0.746821
0.72368
0.697898
0.66766
0.623561
0.566744
0.514112
0.46792
0.428266
0.394839
0.367243
0.345089
0.328022
0.315743
0.308003
0.30461
0.305418
0.310328
0.319276
0.332223
0.349134
0.369935
0.394396
0.421763
0.449067
0.465341
0.473668
0.478198
0.478962
0.47608
0.469179
0.453011
0.431106
0.410933
0.393763
0.379995
0.369775
0.363037
0.359564
0.358982
0.360707
0.363836
0.367095
0.369025
0.367739
0.365204
0.362924
0.362189
0.363932
0.368773
0.377129
0.389274
0.405344
0.42528
0.448809
0.474826
0.495825
0.506922
0.513653
0.517056
0.445115
0.440022
0.425671
0.411416
0.399847
0.391516
0.386766
0.385821
0.388799
0.395644
0.406191
0.420188
0.437009
0.454446
0.462475
0.463575
0.463048
0.457341
0.441115
0.42472
0.411393
0.402076
0.397237
0.397206
0.402297
0.412817
0.429051
0.451275
0.479788
0.514881
0.556692
0.604705
0.655876
0.692865
0.71917
0.742874
0.764337
0.783628
0.800844
0.816085
0.829445
0.841007
0.850845
0.85902
0.865584
0.870577
0.874031
0.875968
0.876402
0.875339
0.872774
0.868698
0.863091
0.855925
0.847161
0.836752
0.82464
0.810757
0.795019
0.777334
0.757595
0.735688
0.711496
0.68493
0.650953
0.600698
0.546917
0.498886
0.457398
0.422322
0.393325
0.370036
0.352114
0.339261
0.331234
0.327839
0.328934
0.334419
0.34423
0.358324
0.376662
0.399149
0.425459
0.454232
0.476311
0.487218
0.494298
0.498371
0.499445
0.497655
0.49329
0.484294
0.466217
0.44545
0.427202
0.412578
0.402032
0.395564
0.393002
0.39403
0.398084
0.40407
0.410097
0.414195
0.410661
0.405316
0.400182
0.39712
0.397259
0.401184
0.409253
0.421689
0.438556
0.45947
0.483511
0.506052
0.51905
0.52677
0.53212
0.534849
0.479206
0.478564
0.471625
0.456203
0.442786
0.432769
0.426867
0.425447
0.42874
0.436568
0.448595
0.464478
0.482696
0.492879
0.495477
0.496542
0.496479
0.495212
0.486384
0.468697
0.453124
0.441845
0.435539
0.434539
0.439208
0.449878
0.466798
0.490159
0.520182
0.557092
0.600797
0.649144
0.686679
0.713069
0.736565
0.758274
0.778131
0.796131
0.812306
0.826705
0.839382
0.850392
0.859785
0.867606
0.873893
0.878678
0.881985
0.883831
0.884228
0.88318
0.880683
0.876729
0.871301
0.864376
0.855923
0.845906
0.834278
0.820988
0.805978
0.789182
0.770537
0.749981
0.727468
0.702993
0.676444
0.639678
0.587594
0.538046
0.494487
0.457435
0.426723
0.402027
0.383034
0.369462
0.361071
0.357672
0.359124
0.365324
0.376199
0.391676
0.411682
0.435998
0.463739
0.489874
0.503773
0.511968
0.517934
0.521542
0.522793
0.521806
0.51883
0.514246
0.504686
0.487587
0.468899
0.453328
0.442467
0.436338
0.434851
0.437805
0.444799
0.454288
0.462907
0.465603
0.463424
0.45537
0.446759
0.440752
0.438979
0.441825
0.449539
0.462258
0.480026
0.501309
0.522262
0.535393
0.542937
0.548988
0.553208
0.555371
0.513877
0.513592
0.512799
0.506172
0.493204
0.481991
0.474944
0.472954
0.476708
0.485617
0.498646
0.514935
0.524527
0.527753
0.529509
0.530639
0.531058
0.530767
0.529061
0.519774
0.50305
0.489938
0.482163
0.480073
0.48426
0.495155
0.512956
0.537636
0.569223
0.607713
0.651788
0.686802
0.712142
0.734558
0.755749
0.775526
0.793781
0.810458
0.825544
0.839046
0.850987
0.861394
0.870297
0.877726
0.883705
0.888257
0.891399
0.893144
0.8935
0.892469
0.890049
0.886233
0.881008
0.874354
0.866251
0.856669
0.845578
0.83294
0.81872
0.802881
0.785391
0.76623
0.745402
0.722947
0.698963
0.672756
0.635482
0.5856
0.539866
0.500601
0.467919
0.441556
0.421286
0.40685
0.398018
0.394611
0.396487
0.403535
0.415661
0.432707
0.454505
0.480506
0.507973
0.523931
0.532233
0.538946
0.543927
0.547071
0.548378
0.547946
0.545978
0.542776
0.53872
0.530569
0.517466
0.501491
0.490714
0.485013
0.48455
0.489095
0.498414
0.50489
0.50818
0.508587
0.508776
0.506091
0.50031
0.491896
0.488557
0.490365
0.497643
0.510269
0.528473
0.54462
0.555794
0.56244
0.568306
0.573039
0.576352
0.578056
0.548833
0.548768
0.548717
0.548635
0.54437
0.537323
0.529841
0.527208
0.531594
0.541277
0.551296
0.558315
0.560785
0.562565
0.564167
0.565447
0.566347
0.566894
0.567204
0.566203
0.559128
0.545756
0.537169
0.533899
0.537531
0.548746
0.567669
0.593691
0.626148
0.663998
0.694102
0.716671
0.737286
0.757272
0.776345
0.794302
0.811008
0.826378
0.840365
0.852948
0.864125
0.873899
0.882285
0.889294
0.894943
0.899245
0.902209
0.903845
0.904158
0.903147
0.900812
0.897147
0.892141
0.885783
0.878057
0.868943
0.858423
0.846475
0.833082
0.81823
0.801914
0.784147
0.764962
0.744432
0.722672
0.699851
0.674702
0.639503
0.593292
0.552067
0.517377
0.489133
0.46741
0.451977
0.442625
0.439202
0.441558
0.449564
0.463109
0.481755
0.505133
0.531525
0.547652
0.555604
0.562221
0.567655
0.571755
0.574439
0.575702
0.575621
0.574358
0.572153
0.56932
0.566252
0.561133
0.553266
0.544908
0.539801
0.539893
0.542608
0.545185
0.545703
0.544926
0.544919
0.54563
0.547134
0.547295
0.545552
0.54387
0.545041
0.551741
0.562165
0.572304
0.579839
0.585125
0.590245
0.59481
0.598508
0.601106
0.602444
0.583854
0.583932
0.584152
0.584656
0.585672
0.585005
0.583366
0.583203
0.58583
0.589993
0.593381
0.594501
0.595952
0.597555
0.599148
0.600634
0.601989
0.603259
0.604573
0.606152
0.607368
0.604501
0.599372
0.59517
0.598405
0.61
0.630057
0.656541
0.683947
0.70773
0.726455
0.744798
0.763059
0.7809
0.798057
0.814329
0.82957
0.843679
0.856589
0.868258
0.878664
0.887794
0.895647
0.902224
0.90753
0.91157
0.914349
0.915871
0.916138
0.91515
0.912905
0.9094
0.904628
0.898581
0.891249
0.882624
0.872695
0.861456
0.848904
0.835043
0.81989
0.80348
0.785868
0.767145
0.747441
0.726933
0.705856
0.683132
0.652081
0.611264
0.575349
0.545101
0.521878
0.505361
0.495402
0.491954
0.494815
0.503776
0.518842
0.538433
0.561292
0.575439
0.582367
0.588221
0.593392
0.597697
0.601001
0.603228
0.604369
0.604479
0.60368
0.602157
0.600148
0.597941
0.595857
0.593858
0.590327
0.587236
0.585757
0.584744
0.582586
0.581178
0.580506
0.580531
0.581243
0.582679
0.584912
0.587956
0.589941
0.592676
0.597316
0.602613
0.606512
0.610459
0.614601
0.618606
0.622179
0.625079
0.627119
0.62817
0.618797
0.618952
0.619305
0.619943
0.620983
0.622523
0.624539
0.626163
0.627201
0.627699
0.628431
0.629553
0.630965
0.632556
0.634235
0.635954
0.637715
0.639579
0.641675
0.644208
0.647474
0.651787
0.654289
0.657296
0.663713
0.675234
0.691246
0.708896
0.725689
0.740877
0.756768
0.773006
0.789251
0.805213
0.820654
0.835387
0.849265
0.86218
0.874054
0.884832
0.894478
0.902967
0.910285
0.916425
0.921382
0.925156
0.927745
0.929151
0.929372
0.928409
0.926259
0.92292
0.918389
0.912662
0.905735
0.897607
0.888277
0.877749
0.866033
0.853148
0.839125
0.824013
0.807885
0.79084
0.773014
0.754584
0.735774
0.716862
0.697554
0.672076
0.640702
0.608993
0.584803
0.567244
0.556557
0.553087
0.55641
0.565816
0.581941
0.597414
0.607788
0.612655
0.617181
0.621518
0.62543
0.628741
0.631323
0.633104
0.634066
0.634245
0.633727
0.632647
0.631175
0.629505
0.627824
0.626245
0.624796
0.623119
0.620892
0.618733
0.617038
0.615916
0.615388
0.615458
0.61613
0.617426
0.619369
0.62197
0.625166
0.628576
0.631587
0.634475
0.637591
0.640881
0.644215
0.647397
0.650222
0.65251
0.654119
0.654949
0.653585
0.653773
0.654173
0.654829
0.655785
0.65705
0.658529
0.659928
0.661042
0.661996
0.663048
0.664315
0.665801
0.667468
0.669282
0.671231
0.673337
0.675668
0.678341
0.681531
0.685473
0.690468
0.696902
0.704854
0.713524
0.723663
0.734778
0.746333
0.759013
0.772575
0.786735
0.801208
0.815726
0.830045
0.84396
0.857299
0.869922
0.881722
0.892615
0.902539
0.911448
0.91931
0.926102
0.931808
0.936418
0.939925
0.942325
0.943615
0.943792
0.942855
0.940802
0.937633
0.933346
0.927943
0.921423
0.913792
0.905057
0.89523
0.884332
0.87239
0.859448
0.845564
0.830818
0.815315
0.799191
0.782615
0.765794
0.748979
0.732461
0.716531
0.697856
0.676509
0.6545
0.63639
0.624858
0.621367
0.624887
0.632073
0.639058
0.644124
0.646338
0.649127
0.652185
0.655239
0.65807
0.660512
0.662446
0.6638
0.664547
0.664707
0.664336
0.663527
0.6624
0.661081
0.659687
0.658289
0.656892
0.655393
0.653749
0.652185
0.650916
0.650061
0.649674
0.64978
0.650395
0.651526
0.653169
0.655293
0.657805
0.660499
0.663151
0.665787
0.668496
0.671257
0.673983
0.676544
0.678801
0.680621
0.681899
0.682557
0.688185
0.688381
0.688786
0.689415
0.69028
0.691362
0.69259
0.693839
0.695028
0.696196
0.697449
0.69886
0.700454
0.702233
0.704195
0.706351
0.708735
0.711414
0.71449
0.718101
0.72242
0.727644
0.733955
0.741409
0.749888
0.759124
0.769111
0.779874
0.791439
0.803674
0.816388
0.829367
0.842398
0.855282
0.867843
0.879925
0.891403
0.90217
0.912145
0.92126
0.929465
0.936723
0.943004
0.948287
0.952557
0.955802
0.958016
0.959191
0.959326
0.958416
0.956462
0.953463
0.949421
0.944339
0.938223
0.931082
0.922929
0.913784
0.903673
0.892632
0.880712
0.867976
0.854508
0.840413
0.82582
0.81089
0.795809
0.780798
0.766107
0.752013
0.738827
0.726327
0.712712
0.700113
0.69055
0.68523
0.683669
0.683861
0.683178
0.682986
0.683826
0.685328
0.687195
0.689183
0.691099
0.692791
0.694149
0.695101
0.695617
0.695699
0.695382
0.694728
0.693816
0.692732
0.691554
0.690333
0.689089
0.687812
0.686527
0.685342
0.684382
0.683738
0.683465
0.683595
0.684144
0.685113
0.686488
0.688229
0.690261
0.692465
0.694732
0.697027
0.69935
0.701668
0.703914
0.705997
0.707816
0.709276
0.710297
0.710823
0.722589
0.722782
0.723173
0.723766
0.724557
0.725527
0.726631
0.727812
0.729034
0.730312
0.731692
0.73322
0.734923
0.736816
0.738914
0.741242
0.743838
0.746764
0.750103
0.753962
0.758463
0.763731
0.769865
0.776893
0.784762
0.793366
0.802659
0.812614
0.823193
0.834294
0.845776
0.857473
0.869217
0.880844
0.892202
0.903157
0.913593
0.923412
0.932533
0.94089
0.948431
0.955112
0.960904
0.965779
0.96972
0.972711
0.974744
0.975809
0.975903
0.975022
0.973166
0.970336
0.966535
0.961769
0.956047
0.949383
0.941793
0.933303
0.923943
0.913755
0.902792
0.891121
0.878825
0.866007
0.852788
0.839315
0.825754
0.812297
0.799156
0.786556
0.77473
0.763894
0.754326
0.746001
0.738762
0.732609
0.727595
0.723953
0.721801
0.720779
0.720652
0.721165
0.722082
0.7232
0.724352
0.725404
0.726256
0.72684
0.72712
0.727089
0.726764
0.726185
0.725404
0.724478
0.723463
0.722401
0.72132
0.720241
0.719203
0.718274
0.717532
0.717043
0.716853
0.716991
0.717472
0.718293
0.71944
0.720875
0.722543
0.724369
0.726283
0.72824
0.730209
0.732151
0.734008
0.735713
0.73719
0.738369
0.739192
0.739614
0.756799
0.756985
0.757359
0.757918
0.758656
0.759557
0.760595
0.761743
0.762983
0.764324
0.765789
0.767406
0.7692
0.771192
0.773404
0.775864
0.778612
0.7817
0.785197
0.789181
0.79374
0.798953
0.804879
0.811537
0.818902
0.826919
0.835544
0.844732
0.854424
0.864534
0.874947
0.885533
0.896154
0.906674
0.916965
0.926908
0.936401
0.945352
0.953686
0.961338
0.968254
0.974393
0.979719
0.984206
0.987832
0.99058
0.992439
0.993399
0.993455
0.992603
0.990844
0.988179
0.984613
0.980155
0.974815
0.968609
0.961559
0.953691
0.945041
0.935652
0.92558
0.914891
0.903665
0.892001
0.880011
0.867826
0.855595
0.843482
0.831663
0.820323
0.809645
0.799798
0.790931
0.783081
0.776229
0.770376
0.765565
0.761871
0.759294
0.757676
0.75684
0.756598
0.756767
0.757183
0.757705
0.758218
0.758631
0.758883
0.758935
0.758773
0.758402
0.757845
0.757136
0.756314
0.75542
0.754487
0.753547
0.752629
0.75177
0.751019
0.750429
0.750048
0.749913
0.750046
0.750459
0.751149
0.752103
0.75329
0.754668
0.756185
0.75779
0.75944
0.761096
0.762718
0.764256
0.765656
0.766862
0.76782
0.768486
0.768827
0.790823
0.791002
0.791358
0.79189
0.792591
0.793449
0.794451
0.795581
0.796833
0.798212
0.799733
0.801415
0.80328
0.805349
0.807646
0.810199
0.813045
0.816228
0.819802
0.823827
0.828362
0.833461
0.839162
0.845475
0.852387
0.859865
0.867866
0.876344
0.885238
0.894471
0.903946
0.913558
0.923192
0.932734
0.942074
0.95111
0.95975
0.96791
0.975521
0.982519
0.988855
0.994485
0.999374
1.00349
1.00682
1.00934
1.01103
1.01189
1.01191
1.01109
1.00943
1.00692
1.00359
0.999422
0.994448
0.988679
0.982141
0.974862
0.966878
0.958234
0.948985
0.939196
0.928944
0.91832
0.907428
0.896384
0.885318
0.874371
0.863691
0.853429
0.843729
0.834723
0.826517
0.819163
0.812684
0.807095
0.80242
0.798673
0.795828
0.79379
0.792434
0.791619
0.791205
0.79106
0.791068
0.79113
0.791168
0.791125
0.790964
0.790664
0.790225
0.789657
0.78898
0.788223
0.787414
0.786581
0.785753
0.784958
0.784228
0.783602
0.783117
0.782808
0.782703
0.782821
0.783168
0.783742
0.784532
0.785513
0.786653
0.787913
0.789252
0.790633
0.792018
0.793368
0.794641
0.795794
0.796781
0.797563
0.798105
0.798382
0.824668
0.82484
0.825183
0.825694
0.826368
0.827199
0.828178
0.829297
0.830556
0.831958
0.833515
0.835241
0.837156
0.839278
0.841631
0.844241
0.84714
0.850364
0.853957
0.857961
0.86242
0.867369
0.872831
0.878815
0.885308
0.892286
0.899712
0.90754
0.915714
0.924164
0.93281
0.941561
0.950321
0.958995
0.967487
0.975708
0.983577
0.991018
0.997967
1.00436
1.01016
1.01532
1.0198
1.02357
1.02662
1.02892
1.03046
1.03123
1.03121
1.03042
1.02885
1.0265
1.02338
1.0195
1.01487
1.00952
1.00346
0.996737
0.989373
0.98142
0.972929
0.963964
0.954596
0.944909
0.934997
0.924964
0.914922
0.904994
0.895302
0.885971
0.877119
0.86885
0.861248
0.85437
0.848248
0.842902
0.838345
0.834573
0.831554
0.829223
0.827486
0.826239
0.825374
0.824784
0.824376
0.824065
0.823786
0.823486
0.82313
0.822696
0.822177
0.821576
0.820906
0.820184
0.819431
0.81867
0.817925
0.817221
0.816584
0.816044
0.815629
0.815365
0.815273
0.815365
0.815649
0.81612
0.816769
0.817577
0.818518
0.819561
0.820674
0.821823
0.822975
0.824095
0.825147
0.826096
0.826906
0.827546
0.827988
0.828214
0.858341
0.858507
0.858839
0.859334
0.85999
0.860801
0.861763
0.862875
0.864135
0.86555
0.867127
0.86888
0.870824
0.872977
0.875359
0.877994
0.880909
0.884134
0.8877
0.891641
0.895987
0.900762
0.90598
0.911644
0.917745
0.924259
0.931155
0.938389
0.945912
0.953662
0.961568
0.969554
0.977537
0.985437
0.99317
1.00066
1.00783
1.01462
1.02096
1.02681
1.03211
1.03683
1.04093
1.04438
1.04717
1.04926
1.05065
1.05134
1.0513
1.05054
1.04905
1.04685
1.04394
1.04032
1.03603
1.03106
1.02546
1.01925
1.01246
1.00514
0.997348
0.989134
0.980566
0.971722
0.962687
0.953551
0.944414
0.935379
0.926552
0.918034
0.909925
0.902309
0.895257
0.888821
0.883036
0.877921
0.873485
0.869718
0.866594
0.86406
0.862049
0.860479
0.859266
0.858327
0.857585
0.85697
0.856425
0.855904
0.855374
0.854813
0.854211
0.853566
0.852883
0.852175
0.851456
0.850743
0.850057
0.849416
0.848843
0.84836
0.84799
0.84775
0.847656
0.847719
0.847941
0.848321
0.848848
0.849508
0.85028
0.851139
0.852059
0.85301
0.853963
0.854889
0.855757
0.856538
0.857202
0.857726
0.858087
0.858272
0.891847
0.892009
0.892332
0.892815
0.893455
0.894251
0.8952
0.896303
0.897561
0.898978
0.900563
0.902327
0.904283
0.906446
0.908834
0.911468
0.914368
0.917561
0.921069
0.924917
0.929126
0.933711
0.938682
0.944038
0.949767
0.955851
0.962258
0.968951
0.975884
0.983003
0.990247
0.997548
1.00484
1.01205
1.0191
1.02593
1.03247
1.03866
1.04446
1.0498
1.05464
1.05896
1.0627
1.06586
1.0684
1.07031
1.07156
1.07217
1.0721
1.07137
1.06997
1.06791
1.06519
1.06183
1.05784
1.05325
1.04807
1.04233
1.03608
1.02935
1.02219
1.01466
1.00681
0.998727
0.990476
0.98214
0.973804
0.965558
0.957491
0.94969
0.942237
0.935203
0.92865
0.922622
0.917153
0.912262
0.907954
0.904222
0.901043
0.898376
0.896169
0.894361
0.892885
0.891674
0.890667
0.889805
0.889039
0.888331
0.887649
0.886972
0.886288
0.885592
0.884887
0.884177
0.883474
0.882791
0.882142
0.881543
0.881012
0.880565
0.880219
0.879989
0.879884
0.879913
0.880077
0.880374
0.880795
0.881328
0.881956
0.882658
0.883412
0.884194
0.884979
0.88574
0.886454
0.887095
0.88764
0.888068
0.888363
0.888514
0.925192
0.92535
0.925665
0.926137
0.926765
0.927547
0.928484
0.929576
0.930826
0.932239
0.933821
0.935582
0.937534
0.93969
0.942064
0.944674
0.947536
0.950672
0.954097
0.957831
0.961887
0.966275
0.971
0.976057
0.981437
0.987118
0.993075
0.999273
1.00567
1.01222
1.01887
1.02556
1.03222
1.03881
1.04525
1.05148
1.05746
1.06311
1.0684
1.07328
1.07771
1.08165
1.08507
1.08795
1.09027
1.092
1.09313
1.09366
1.09357
1.09287
1.09155
1.08963
1.08709
1.08397
1.08027
1.07601
1.07122
1.06593
1.06017
1.05398
1.0474
1.04049
1.0333
1.0259
1.01835
1.01073
1.0031
0.995557
0.988164
0.980999
0.974129
0.967618
0.961516
0.955865
0.950693
0.946018
0.941847
0.938174
0.934978
0.932231
0.929891
0.927911
0.926238
0.924819
0.923603
0.922542
0.921597
0.920731
0.919918
0.919137
0.918377
0.917629
0.916893
0.916173
0.915473
0.914804
0.914177
0.913603
0.913096
0.912669
0.912334
0.912101
0.911979
0.911971
0.91208
0.912302
0.912629
0.913052
0.913556
0.914124
0.914738
0.915376
0.916017
0.91664
0.917224
0.917748
0.918193
0.918543
0.918784
0.918907
0.958379
0.958533
0.958842
0.959304
0.95992
0.960689
0.961612
0.962692
0.963929
0.96533
0.9669
0.968647
0.970582
0.972715
0.975058
0.977626
0.980433
0.983492
0.986818
0.990423
0.994316
0.998503
1.00298
1.00776
1.0128
1.01811
1.02365
1.0294
1.03531
1.04134
1.04745
1.05358
1.05969
1.06571
1.0716
1.0773
1.08276
1.08793
1.09276
1.09722
1.10126
1.10486
1.10799
1.11061
1.11272
1.11429
1.11531
1.11577
1.11566
1.11499
1.11375
1.11195
1.10959
1.10668
1.10325
1.09931
1.09489
1.09
1.08469
1.07899
1.07295
1.0666
1.06
1.05322
1.0463
1.03931
1.03233
1.0254
1.01861
1.01201
1.00566
0.999623
0.993932
0.988627
0.983735
0.979272
0.975243
0.971646
0.968466
0.965679
0.963254
0.961154
0.959336
0.95776
0.956383
0.955166
0.954074
0.953078
0.952154
0.951283
0.950452
0.949654
0.948885
0.948146
0.947441
0.946776
0.946158
0.945596
0.945101
0.944681
0.944346
0.944103
0.943958
0.943914
0.94397
0.944124
0.944369
0.944696
0.945093
0.945546
0.946039
0.946554
0.947074
0.94758
0.948054
0.94848
0.948842
0.949127
0.949322
0.949422
0.991411
0.991562
0.991864
0.992317
0.992921
0.993677
0.994585
0.995648
0.996869
0.998251
0.999801
1.00152
1.00343
1.00553
1.00783
1.01034
1.01308
1.01605
1.01926
1.02273
1.02645
1.03044
1.03468
1.03918
1.04391
1.04887
1.05402
1.05935
1.06482
1.07038
1.076
1.08164
1.08724
1.09276
1.09815
1.10336
1.10835
1.11307
1.11749
1.12156
1.12526
1.12855
1.1314
1.13379
1.1357
1.13713
1.13804
1.13844
1.13832
1.13767
1.13651
1.13482
1.13262
1.12993
1.12675
1.1231
1.11901
1.1145
1.1096
1.10435
1.09879
1.09296
1.0869
1.08067
1.07432
1.0679
1.06148
1.05512
1.04886
1.04277
1.03689
1.03128
1.02596
1.02098
1.01635
1.01209
1.00821
1.0047
1.00156
0.998765
0.996293
0.994113
0.992194
0.990502
0.989002
0.987663
0.986455
0.985354
0.984337
0.983388
0.982495
0.981649
0.980847
0.980087
0.979369
0.978699
0.978082
0.977523
0.97703
0.976609
0.976266
0.976008
0.975837
0.975755
0.975762
0.975854
0.976026
0.976269
0.976574
0.976928
0.977317
0.977727
0.978144
0.97855
0.978933
0.979277
0.979569
0.979799
0.979957
0.980038
1.02429
1.02444
1.02474
1.02518
1.02577
1.02651
1.0274
1.02845
1.02965
1.03101
1.03253
1.03422
1.03609
1.03814
1.04039
1.04283
1.04548
1.04835
1.05145
1.05477
1.05832
1.06211
1.06612
1.07036
1.0748
1.07943
1.08423
1.08917
1.09423
1.09936
1.10454
1.10972
1.11487
1.11993
1.12487
1.12964
1.13421
1.13853
1.14257
1.14629
1.14967
1.15267
1.15527
1.15745
1.15918
1.16047
1.16129
1.16163
1.1615
1.16088
1.15978
1.1582
1.15616
1.15365
1.15071
1.14733
1.14355
1.13938
1.13487
1.13003
1.12491
1.11954
1.11397
1.10824
1.1024
1.0965
1.09059
1.08472
1.07895
1.07331
1.06786
1.06263
1.05766
1.05297
1.04859
1.04453
1.0408
1.03739
1.03431
1.03153
1.02904
1.02681
1.02483
1.02305
1.02146
1.02003
1.01873
1.01754
1.01645
1.01544
1.01449
1.0136
1.01277
1.01198
1.01125
1.01057
1.00995
1.00938
1.00889
1.00846
1.0081
1.00782
1.00763
1.00751
1.00747
1.00751
1.00761
1.00778
1.00801
1.00827
1.00857
1.00889
1.00922
1.00955
1.00985
1.01012
1.01036
1.01054
1.01067
1.01073
1.05703
1.05717
1.05746
1.05789
1.05847
1.0592
1.06007
1.06109
1.06227
1.0636
1.06508
1.06674
1.06856
1.07056
1.07274
1.07511
1.07768
1.08044
1.08341
1.08658
1.08997
1.09356
1.09735
1.10133
1.10549
1.10982
1.11429
1.11888
1.12356
1.12831
1.13308
1.13785
1.14258
1.14723
1.15176
1.15613
1.16031
1.16427
1.16796
1.17136
1.17445
1.17719
1.17956
1.18154
1.18312
1.18428
1.18501
1.18531
1.18516
1.18457
1.18353
1.18206
1.18015
1.17783
1.17509
1.17197
1.16847
1.16462
1.16045
1.15599
1.15127
1.14632
1.14119
1.13592
1.13054
1.1251
1.11965
1.11424
1.1089
1.10367
1.09861
1.09373
1.08907
1.08466
1.08051
1.07664
1.07306
1.06976
1.06675
1.064
1.06152
1.05927
1.05725
1.05542
1.05376
1.05226
1.05089
1.04964
1.04849
1.04742
1.04643
1.0455
1.04464
1.04383
1.04308
1.04239
1.04175
1.04118
1.04067
1.04023
1.03986
1.03956
1.03934
1.03918
1.0391
1.03909
1.03913
1.03924
1.03939
1.03959
1.03981
1.04006
1.04031
1.04056
1.0408
1.04101
1.0412
1.04134
1.04144
1.04149
1.08962
1.08976
1.09004
1.09046
1.09103
1.09173
1.09259
1.09358
1.09473
1.09603
1.09748
1.09909
1.10086
1.1028
1.10491
1.1072
1.10967
1.11232
1.11516
1.11819
1.1214
1.1248
1.12838
1.13212
1.13602
1.14006
1.14423
1.14849
1.15283
1.15722
1.16163
1.16602
1.17037
1.17464
1.1788
1.18281
1.18664
1.19026
1.19364
1.19676
1.19957
1.20207
1.20424
1.20604
1.20747
1.20852
1.20917
1.20942
1.20926
1.2087
1.20772
1.20634
1.20457
1.20241
1.19987
1.19697
1.19374
1.19018
1.18633
1.18221
1.17785
1.17329
1.16856
1.1637
1.15874
1.15372
1.14869
1.14368
1.13873
1.13388
1.12916
1.1246
1.12024
1.11608
1.11216
1.10847
1.10504
1.10185
1.09892
1.09622
1.09376
1.09151
1.08947
1.0876
1.08591
1.08436
1.08294
1.08164
1.08044
1.07933
1.0783
1.07734
1.07645
1.07562
1.07485
1.07414
1.0735
1.07291
1.07239
1.07194
1.07155
1.07123
1.07097
1.07079
1.07066
1.0706
1.0706
1.07065
1.07074
1.07087
1.07103
1.07121
1.07139
1.07158
1.07177
1.07193
1.07208
1.07219
1.07227
1.07231
1.12206
1.1222
1.12248
1.12289
1.12344
1.12413
1.12496
1.12593
1.12704
1.1283
1.12971
1.13127
1.13299
1.13487
1.1369
1.13911
1.14148
1.14402
1.14673
1.14961
1.15266
1.15587
1.15924
1.16276
1.16641
1.17019
1.17406
1.17803
1.18205
1.18611
1.19018
1.19424
1.19824
1.20217
1.20599
1.20967
1.21318
1.2165
1.2196
1.22244
1.22502
1.2273
1.22927
1.23091
1.23221
1.23315
1.23373
1.23394
1.23378
1.23323
1.23232
1.23103
1.22937
1.22736
1.22501
1.22232
1.21932
1.21603
1.21247
1.20867
1.20465
1.20043
1.19606
1.19157
1.18699
1.18235
1.1777
1.17305
1.16846
1.16395
1.15955
1.15529
1.15119
1.14728
1.14356
1.14005
1.13676
1.13369
1.13084
1.12821
1.12578
1.12355
1.1215
1.11963
1.11791
1.11633
1.11488
1.11354
1.1123
1.11116
1.11009
1.10911
1.10819
1.10734
1.10656
1.10584
1.10518
1.10458
1.10405
1.10357
1.10317
1.10282
1.10254
1.10232
1.10217
1.10206
1.10201
1.10201
1.10205
1.10212
1.10223
1.10235
1.10248
1.10262
1.10275
1.10288
1.10298
1.10307
1.10313
1.10316
1.15438
1.15451
1.15478
1.15518
1.15571
1.15638
1.15718
1.15813
1.15921
1.16043
1.16179
1.1633
1.16496
1.16677
1.16873
1.17084
1.17311
1.17554
1.17812
1.18086
1.18375
1.18678
1.18995
1.19326
1.19668
1.2002
1.20382
1.2075
1.21124
1.215
1.21876
1.2225
1.22619
1.2298
1.23331
1.23669
1.23992
1.24296
1.2458
1.2484
1.25075
1.25284
1.25464
1.25613
1.2573
1.25815
1.25867
1.25884
1.25867
1.25815
1.25728
1.25607
1.25453
1.25266
1.25047
1.24798
1.2452
1.24216
1.23886
1.23534
1.23162
1.22773
1.22369
1.21954
1.2153
1.21101
1.20669
1.20238
1.19811
1.19391
1.18981
1.18582
1.18197
1.17827
1.17475
1.17141
1.16827
1.16531
1.16256
1.15999
1.15761
1.15541
1.15337
1.1515
1.14977
1.14817
1.14669
1.14533
1.14407
1.1429
1.14181
1.14081
1.13987
1.13901
1.13821
1.13747
1.1368
1.13619
1.13564
1.13515
1.13472
1.13436
1.13405
1.1338
1.13361
1.13347
1.13338
1.13333
1.13333
1.13335
1.1334
1.13348
1.13356
1.13365
1.13375
1.13384
1.13391
1.13397
1.13402
1.13404
1.18655
1.18668
1.18694
1.18733
1.18785
1.18849
1.18927
1.19019
1.19123
1.19241
1.19373
1.19519
1.19678
1.19852
1.2004
1.20243
1.2046
1.20691
1.20936
1.21196
1.21469
1.21755
1.22054
1.22364
1.22684
1.23013
1.2335
1.23693
1.24039
1.24388
1.24736
1.25081
1.25421
1.25754
1.26077
1.26388
1.26684
1.26963
1.27222
1.27461
1.27676
1.27867
1.2803
1.28166
1.28272
1.28349
1.28394
1.28408
1.2839
1.2834
1.28259
1.28146
1.28002
1.27827
1.27624
1.27393
1.27135
1.26853
1.26548
1.26222
1.25878
1.25517
1.25144
1.24759
1.24366
1.23968
1.23567
1.23167
1.2277
1.22378
1.21994
1.2162
1.21258
1.2091
1.20576
1.20259
1.19958
1.19674
1.19408
1.19158
1.18926
1.18709
1.18508
1.18322
1.18149
1.17989
1.1784
1.17703
1.17575
1.17456
1.17346
1.17243
1.17148
1.1706
1.16979
1.16904
1.16835
1.16773
1.16717
1.16666
1.16622
1.16583
1.1655
1.16523
1.165
1.16483
1.1647
1.16462
1.16457
1.16455
1.16456
1.16459
1.16464
1.16469
1.16475
1.16481
1.16486
1.1649
1.16493
1.16494
1.2186
1.21873
1.21898
1.21935
1.21985
1.22048
1.22123
1.22211
1.22312
1.22426
1.22553
1.22693
1.22846
1.23013
1.23193
1.23387
1.23593
1.23813
1.24047
1.24292
1.2455
1.2482
1.25101
1.25392
1.25692
1.25999
1.26313
1.26632
1.26953
1.27276
1.27598
1.27917
1.28231
1.28538
1.28835
1.29121
1.29393
1.29649
1.29887
1.30105
1.30302
1.30476
1.30625
1.30748
1.30845
1.30913
1.30953
1.30964
1.30946
1.30898
1.30821
1.30715
1.3058
1.30418
1.30229
1.30014
1.29775
1.29513
1.2923
1.28928
1.28609
1.28275
1.27929
1.27572
1.27208
1.26838
1.26466
1.26093
1.25723
1.25357
1.24998
1.24647
1.24306
1.23977
1.23661
1.23359
1.23072
1.22799
1.22543
1.22301
1.22074
1.21862
1.21665
1.2148
1.21309
1.21149
1.21
1.20862
1.20733
1.20614
1.20502
1.20399
1.20302
1.20213
1.20131
1.20055
1.19985
1.19921
1.19864
1.19812
1.19765
1.19725
1.1969
1.1966
1.19635
1.19614
1.19598
1.19586
1.19578
1.19573
1.1957
1.19569
1.1957
1.19572
1.19575
1.19578
1.19581
1.19584
1.19585
1.19586
1.25053
1.25065
1.25089
1.25125
1.25173
1.25234
1.25306
1.25391
1.25488
1.25598
1.2572
1.25854
1.26001
1.26161
1.26333
1.26517
1.26714
1.26923
1.27144
1.27376
1.2762
1.27874
1.28138
1.28411
1.28691
1.28978
1.29271
1.29567
1.29866
1.30165
1.30463
1.30758
1.31048
1.31331
1.31605
1.31867
1.32117
1.32352