/*--------------------------------*- C++ -*----------------------------------*\
| =========                 |                                                 |
| \\      /  F ield         | OpenFOAM: The Open Source CFD Toolbox           |
|  \\    /   O peration     | Version:  2406                                  |
|   \\  /    A nd           | Website:  www.openfoam.com                      |
|    \\/     M anipulation  |                                                 |
\*---------------------------------------------------------------------------*/
FoamFile
{
    version     2.0;
    format      ascii;
    arch        "LSB;label=32;scalar=64";
    class       volScalarField;
    location    "4.9";
    object      C_0;
}
// * * * * * * * * * * * * * * * * * * * * * * * * * * * * * * * * * * * * * //

dimensions      [1 -3 0 0 0 0 0];

internalField   nonuniform List<scalar> 
14400
(
0.331773
0.328626
0.323619
0.318089
0.313091
0.30938
0.30746
0.307644
0.310082
0.31478
0.321592
0.330196
0.340021
0.350122
0.358936
0.363913
0.360571
0.35303
0.344047
0.335488
0.328574
0.324131
0.322754
0.324905
0.330978
0.341333
0.356325
0.376314
0.401677
0.432798
0.470049
0.51371
0.563757
0.618991
0.671878
0.709043
0.734809
0.757383
0.77715
0.794396
0.809344
0.822171
0.833013
0.841979
0.849156
0.854608
0.858384
0.86052
0.861035
0.85994
0.85723
0.852891
0.846895
0.839201
0.829752
0.818477
0.805282
0.790051
0.772638
0.752858
0.730483
0.705221
0.675125
0.629732
0.570218
0.51478
0.465526
0.422672
0.385991
0.355113
0.329632
0.309161
0.293353
0.281909
0.274583
0.271181
0.271555
0.2756
0.283243
0.294433
0.309121
0.327234
0.348611
0.37288
0.399033
0.423494
0.438731
0.444355
0.443795
0.435346
0.417901
0.396978
0.37711
0.359404
0.344268
0.331854
0.322151
0.315028
0.310239
0.307432
0.306162
0.305919
0.30619
0.306576
0.306923
0.307431
0.308542
0.310807
0.31478
0.32095
0.329724
0.341409
0.356215
0.374241
0.395439
0.4195
0.445379
0.468494
0.482188
0.487542
0.345005
0.340612
0.334279
0.327671
0.321882
0.317633
0.315392
0.315446
0.317937
0.322866
0.330103
0.339356
0.350119
0.361566
0.372276
0.379235
0.374414
0.364858
0.354315
0.344637
0.336925
0.331916
0.330153
0.332066
0.33803
0.348395
0.363507
0.383721
0.409407
0.440948
0.478711
0.522976
0.573737
0.629698
0.679092
0.712714
0.737986
0.76019
0.77967
0.796693
0.811467
0.824155
0.834888
0.84377
0.85088
0.856283
0.860025
0.862139
0.862646
0.861554
0.85886
0.854548
0.848593
0.840955
0.831579
0.820397
0.807319
0.792233
0.775003
0.755455
0.73337
0.708466
0.679913
0.637675
0.579416
0.523625
0.473732
0.430268
0.393059
0.361736
0.335891
0.315132
0.29911
0.287523
0.280126
0.276725
0.277171
0.281361
0.289225
0.300714
0.315785
0.334368
0.356312
0.38126
0.408172
0.431871
0.445151
0.450532
0.450347
0.443892
0.427796
0.406552
0.386201
0.368041
0.352549
0.339902
0.330108
0.323044
0.318463
0.316001
0.315178
0.315411
0.316072
0.316618
0.316793
0.316902
0.317532
0.319349
0.322975
0.328935
0.337644
0.34941
0.364435
0.382802
0.404442
0.429008
0.455317
0.476764
0.488015
0.492895
0.372094
0.364573
0.355455
0.346729
0.339421
0.334141
0.331283
0.331092
0.333687
0.339067
0.347115
0.357578
0.370024
0.383708
0.397045
0.40395
0.400182
0.387706
0.37448
0.362791
0.353601
0.347521
0.345016
0.346469
0.352225
0.362616
0.377972
0.398636
0.424967
0.457333
0.496075
0.541404
0.593052
0.648501
0.690945
0.719878
0.74423
0.76572
0.784648
0.80124
0.815674
0.828094
0.838615
0.84733
0.854312
0.859619
0.863294
0.865366
0.865856
0.86477
0.862106
0.857849
0.851975
0.844446
0.835213
0.824212
0.811361
0.796561
0.779687
0.760587
0.739076
0.714926
0.687872
0.651566
0.598374
0.541433
0.490189
0.445526
0.407282
0.375084
0.348517
0.327184
0.310733
0.298862
0.291323
0.287921
0.288512
0.292992
0.301295
0.313379
0.329204
0.348701
0.371699
0.397743
0.425393
0.446727
0.457281
0.462276
0.462611
0.458346
0.446425
0.42553
0.404386
0.385359
0.369163
0.356054
0.346082
0.339141
0.334992
0.333256
0.333395
0.334688
0.336258
0.337221
0.336951
0.336134
0.335697
0.336549
0.339446
0.344969
0.353543
0.36547
0.380927
0.399956
0.422414
0.447715
0.473641
0.490504
0.498976
0.503127
0.409122
0.399245
0.386524
0.374966
0.365605
0.358908
0.35519
0.354658
0.357414
0.363444
0.372627
0.384731
0.399321
0.415405
0.429292
0.43273
0.43132
0.419768
0.403869
0.389728
0.378584
0.37103
0.367479
0.368274
0.373737
0.384181
0.399915
0.421259
0.44855
0.482128
0.522278
0.569059
0.621634
0.671124
0.704671
0.730346
0.753335
0.773813
0.791963
0.807944
0.821896
0.833932
0.844149
0.852624
0.85942
0.864588
0.868164
0.870177
0.870641
0.869565
0.866944
0.862767
0.85701
0.849641
0.840615
0.829876
0.817354
0.802962
0.786596
0.768132
0.747421
0.724287
0.698512
0.668323
0.624337
0.567503
0.514808
0.468551
0.428838
0.395362
0.367726
0.345537
0.328443
0.316143
0.308389
0.304988
0.305794
0.310709
0.319667
0.33263
0.349563
0.370392
0.394885
0.422284
0.449586
0.465831
0.474153
0.47868
0.479442
0.476558
0.469666
0.45352
0.431592
0.411389
0.394192
0.380403
0.370168
0.363422
0.359948
0.359373
0.36111
0.364255
0.367531
0.369474
0.368174
0.365623
0.363326
0.36258
0.364317
0.369159
0.377522
0.389682
0.405774
0.425737
0.449295
0.475335
0.496301
0.507378
0.514108
0.517511
0.445537
0.440474
0.42614
0.411871
0.400287
0.391944
0.387188
0.386243
0.389228
0.396084
0.406649
0.420666
0.437513
0.454966
0.462977
0.464082
0.463558
0.457889
0.441678
0.425262
0.411918
0.402592
0.397749
0.39772
0.402821
0.413358
0.429616
0.451872
0.480422
0.515559
0.55742
0.605481
0.656647
0.693537
0.719804
0.743498
0.764952
0.784235
0.801444
0.816679
0.830032
0.84159
0.851423
0.859595
0.866156
0.871147
0.874599
0.876534
0.876967
0.875903
0.873339
0.869264
0.863658
0.856493
0.847731
0.837325
0.825216
0.811336
0.795603
0.777922
0.758189
0.736288
0.712102
0.685541
0.651652
0.601502
0.547653
0.499552
0.458005
0.42288
0.393841
0.370517
0.352566
0.339693
0.33165
0.328247
0.32934
0.33483
0.344652
0.358763
0.377123
0.399639
0.425982
0.45478
0.476812
0.487701
0.494778
0.498849
0.49992
0.498127
0.493756
0.484779
0.466733
0.44594
0.427661
0.413014
0.402453
0.395977
0.393417
0.394455
0.398525
0.404536
0.410585
0.414719
0.411147
0.405781
0.400623
0.397545
0.397673
0.401596
0.409673
0.422125
0.439016
0.45996
0.484026
0.506525
0.519496
0.527218
0.532569
0.535298
0.47963
0.478993
0.472084
0.456681
0.44326
0.43323
0.427324
0.425905
0.429205
0.437044
0.449089
0.464983
0.48322
0.493384
0.495972
0.497045
0.496989
0.495734
0.486959
0.469268
0.453684
0.442402
0.436094
0.435097
0.439776
0.450464
0.467409
0.490802
0.520862
0.55781
0.601562
0.649944
0.68738
0.713703
0.73719
0.75889
0.778738
0.796731
0.8129
0.827293
0.839965
0.850971
0.86036
0.868178
0.874462
0.879245
0.88255
0.884395
0.884791
0.883742
0.881245
0.877292
0.871864
0.864941
0.85649
0.846475
0.83485
0.821563
0.806557
0.789766
0.771125
0.750574
0.728067
0.703597
0.677072
0.640402
0.588347
0.538745
0.495132
0.458034
0.427281
0.402549
0.383527
0.369932
0.361526
0.358119
0.359569
0.365774
0.37666
0.392154
0.412181
0.436526
0.464297
0.490392
0.504252
0.512447
0.51841
0.522016
0.523263
0.522273
0.519292
0.514701
0.505167
0.488106
0.46939
0.453796
0.442918
0.436782
0.435298
0.438267
0.445276
0.454797
0.463389
0.466075
0.463907
0.455881
0.447237
0.441214
0.439426
0.442269
0.449988
0.462724
0.480517
0.501829
0.522731
0.535829
0.543376
0.54943
0.55365
0.555813
0.514302
0.514017
0.513238
0.506638
0.493715
0.482486
0.47544
0.473453
0.477215
0.486132
0.499182
0.515453
0.525026
0.528236
0.53
0.531138
0.531564
0.531281
0.529611
0.520377
0.503649
0.490545
0.482768
0.480683
0.484878
0.495793
0.513623
0.538335
0.56996
0.608469
0.652583
0.687503
0.712769
0.735178
0.756362
0.776133
0.79438
0.811052
0.826132
0.839629
0.851565
0.861968
0.870868
0.878294
0.88427
0.88882
0.89196
0.893704
0.894059
0.893028
0.890608
0.886793
0.881568
0.874916
0.866814
0.857235
0.846145
0.833511
0.819294
0.803459
0.785973
0.766816
0.745993
0.723544
0.699565
0.673412
0.636236
0.586331
0.540555
0.501251
0.468529
0.442129
0.421828
0.407368
0.39852
0.395104
0.396977
0.404031
0.416169
0.433232
0.455045
0.481061
0.508512
0.524417
0.532712
0.539422
0.5444
0.547542
0.548845
0.548408
0.546435
0.543229
0.539168
0.531044
0.517974
0.501989
0.491196
0.485488
0.485028
0.489593
0.498902
0.505346
0.508611
0.508999
0.509209
0.506548
0.500799
0.492393
0.489034
0.49084
0.498122
0.510761
0.528982
0.545085
0.556224
0.562872
0.56874
0.573474
0.576788
0.578493
0.549259
0.549194
0.549143
0.549073
0.544837
0.537829
0.530374
0.527742
0.532138
0.541809
0.551797
0.558799
0.561256
0.563045
0.564655
0.565942
0.566849
0.567404
0.567722
0.566765
0.55974
0.54642
0.537827
0.534567
0.5382
0.549439
0.568398
0.594447
0.626949
0.664748
0.694784
0.717285
0.737897
0.757879
0.776947
0.794898
0.811599
0.826964
0.840946
0.853525
0.864698
0.874469
0.882851
0.889858
0.895505
0.899804
0.902767
0.904402
0.904713
0.903703
0.901368
0.897702
0.892698
0.886341
0.878616
0.869504
0.858986
0.847041
0.833651
0.818802
0.80249
0.784726
0.765545
0.745019
0.723264
0.700448
0.675368
0.640261
0.594022
0.552781
0.518051
0.489764
0.468008
0.452551
0.443182
0.439749
0.442101
0.450113
0.463673
0.482336
0.50571
0.53209
0.548162
0.556088
0.5627
0.56813
0.572226
0.574907
0.576165
0.57608
0.574812
0.572602
0.569765
0.566691
0.561595
0.553746
0.545406
0.540302
0.540381
0.543068
0.545624
0.546113
0.545335
0.545329
0.546038
0.547543
0.547734
0.546012
0.544357
0.545542
0.552238
0.562641
0.572758
0.580262
0.58555
0.590672
0.595239
0.598939
0.601537
0.602876
0.58428
0.584358
0.584579
0.585083
0.5861
0.58546
0.583839
0.583685
0.586313
0.590468
0.593837
0.594962
0.59642
0.598032
0.599632
0.601126
0.602487
0.603764
0.605086
0.606673
0.607929
0.605108
0.600053
0.595891
0.599108
0.610732
0.630844
0.657308
0.684637
0.708363
0.727053
0.745396
0.763655
0.781494
0.798647
0.814915
0.830152
0.844257
0.857163
0.868829
0.879231
0.888358
0.896208
0.902783
0.908087
0.912125
0.914902
0.916423
0.91669
0.915701
0.913457
0.909952
0.90518
0.899134
0.891804
0.88318
0.873253
0.862016
0.849466
0.835609
0.820459
0.804051
0.786443
0.767723
0.748023
0.727518
0.706444
0.683785
0.652807
0.612048
0.576092
0.545796
0.522537
0.505998
0.496024
0.492563
0.495415
0.504381
0.519468
0.539076
0.561868
0.575963
0.582855
0.588703
0.593869
0.59817
0.601469
0.603693
0.604829
0.604935
0.604131
0.602604
0.60059
0.598377
0.596288
0.594298
0.590779
0.58769
0.5862
0.585163
0.582995
0.581588
0.580915
0.58094
0.581651
0.583087
0.585319
0.588373
0.590382
0.593126
0.597761
0.603044
0.606929
0.610878
0.615022
0.619029
0.622604
0.625505
0.627545
0.628598
0.619224
0.619379
0.619732
0.620371
0.62141
0.622948
0.624965
0.626597
0.627634
0.628139
0.628881
0.630012
0.631431
0.633029
0.634715
0.636441
0.638209
0.64008
0.642183
0.644723
0.647996
0.652327
0.654878
0.657917
0.664367
0.67591
0.691905
0.709516
0.726264
0.741456
0.757351
0.77359
0.789834
0.805794
0.821234
0.835963
0.849838
0.86275
0.874621
0.885396
0.895039
0.903525
0.910841
0.916979
0.921934
0.925706
0.928294
0.929699
0.92992
0.928956
0.926807
0.923468
0.918937
0.913211
0.906285
0.898158
0.88883
0.878304
0.86659
0.853707
0.839686
0.824577
0.808451
0.791409
0.773586
0.755158
0.736349
0.717438
0.698166
0.672754
0.641488
0.609736
0.585518
0.56795
0.557252
0.553765
0.557068
0.566463
0.58261
0.59799
0.60831
0.613146
0.617667
0.621998
0.625905
0.629211
0.631789
0.633566
0.634524
0.634698
0.634175
0.633091
0.631614
0.62994
0.628253
0.626669
0.625213
0.623531
0.621303
0.619144
0.617448
0.616326
0.615797
0.615866
0.616538
0.617834
0.619776
0.622377
0.62557
0.628981
0.631994
0.634886
0.638005
0.641296
0.644633
0.647816
0.650642
0.652932
0.654541
0.655371
0.654012
0.6542
0.654601
0.655257
0.656213
0.657478
0.658958
0.660359
0.661478
0.662438
0.663497
0.664772
0.666265
0.667939
0.66976
0.671715
0.673827
0.676164
0.678844
0.68204
0.685989
0.69099
0.697425
0.705393
0.714094
0.724234
0.735327
0.746884
0.759573
0.77314
0.787304
0.801779
0.816297
0.830616
0.844529
0.857866
0.870487
0.882284
0.893174
0.903096
0.912003
0.919862
0.926652
0.932356
0.936965
0.940471
0.94287
0.944159
0.944335
0.943398
0.941345
0.938176
0.93389
0.928487
0.921968
0.914338
0.905605
0.895779
0.884882
0.872942
0.860002
0.84612
0.831376
0.815876
0.799753
0.783178
0.766358
0.749542
0.733022
0.717093
0.69849
0.677205
0.65524
0.637154
0.62562
0.622108
0.625583
0.632704
0.639629
0.644631
0.646833
0.649615
0.652668
0.655716
0.658542
0.660979
0.662909
0.664258
0.665002
0.665157
0.664781
0.663969
0.662837
0.661514
0.660115
0.658713
0.65731
0.655808
0.654162
0.652596
0.651327
0.65047
0.650082
0.650188
0.650802
0.651932
0.653575
0.655699
0.65821
0.660905
0.663558
0.666197
0.668908
0.67167
0.674397
0.67696
0.679218
0.681039
0.682317
0.682975
0.688613
0.68881
0.689214
0.689844
0.690709
0.691792
0.693022
0.694274
0.695466
0.69664
0.697898
0.699315
0.700916
0.702701
0.704669
0.706831
0.709221
0.711906
0.714988
0.718604
0.722929
0.728158
0.734473
0.741933
0.750415
0.759656
0.76965
0.780418
0.791988
0.804228
0.816945
0.829926
0.842958
0.855842
0.868402
0.880483
0.891959
0.902725
0.912697
0.92181
0.930014
0.937269
0.943548
0.94883
0.953098
0.956343
0.958555
0.95973
0.959864
0.958954
0.957
0.954001
0.949959
0.944878
0.938762
0.931622
0.923471
0.914326
0.904217
0.893178
0.881259
0.868525
0.855058
0.840964
0.826373
0.811443
0.796362
0.78135
0.766657
0.75256
0.739371
0.726904
0.71332
0.700739
0.691176
0.685844
0.684258
0.684412
0.683682
0.683483
0.684317
0.685813
0.687674
0.689657
0.691568
0.693255
0.694609
0.695557
0.696069
0.696146
0.695825
0.695167
0.694251
0.693163
0.691981
0.690756
0.689508
0.688228
0.68694
0.685753
0.684792
0.684146
0.683873
0.684002
0.68455
0.685518
0.686893
0.688634
0.690665
0.69287
0.695138
0.697435
0.699759
0.702078
0.704326
0.706409
0.70823
0.70969
0.710712
0.711238
0.723017
0.723211
0.723602
0.724195
0.724987
0.725958
0.727064
0.728248
0.729473
0.730755
0.732141
0.733674
0.735382
0.737281
0.739385
0.741718
0.74432
0.747251
0.750596
0.75446
0.758967
0.764239
0.770377
0.77741
0.785283
0.793892
0.80319
0.81315
0.823733
0.834838
0.846322
0.858022
0.869767
0.881394
0.892752
0.903706
0.914141
0.923959
0.933078
0.941434
0.948972
0.955653
0.961442
0.966316
0.970256
0.973247
0.975278
0.976343
0.976436
0.975555
0.973699
0.970868
0.967068
0.962302
0.956581
0.949918
0.942329
0.933839
0.924481
0.914294
0.903332
0.891662
0.879367
0.866549
0.853331
0.839858
0.826297
0.812839
0.799695
0.787093
0.775264
0.764424
0.754847
0.746516
0.739273
0.733115
0.728097
0.724455
0.722298
0.72127
0.721138
0.721645
0.722557
0.72367
0.724818
0.725865
0.726713
0.727293
0.727569
0.727534
0.727205
0.726622
0.725837
0.724908
0.723889
0.722823
0.721738
0.720656
0.719616
0.718685
0.717941
0.717451
0.71726
0.717397
0.717877
0.718698
0.719844
0.72128
0.722947
0.724773
0.726687
0.728646
0.730616
0.732559
0.734417
0.736123
0.737601
0.73878
0.739603
0.740025
0.757227
0.757414
0.757788
0.758347
0.759086
0.759989
0.761029
0.76218
0.763423
0.764768
0.766237
0.767859
0.769658
0.771655
0.773872
0.776337
0.77909
0.782183
0.785685
0.789674
0.794237
0.799455
0.805386
0.812048
0.819416
0.827438
0.836067
0.845259
0.854955
0.865069
0.875484
0.886072
0.896694
0.907215
0.917505
0.927449
0.936941
0.945891
0.954224
0.961874
0.968789
0.974927
0.980252
0.984737
0.988362
0.99111
0.992967
0.993927
0.993982
0.993131
0.991371
0.988707
0.985141
0.980683
0.975343
0.969138
0.962088
0.954221
0.945572
0.936184
0.926113
0.915424
0.904199
0.892535
0.880545
0.86836
0.856128
0.844014
0.832193
0.820851
0.81017
0.800319
0.791445
0.783591
0.776734
0.770877
0.766063
0.762366
0.759784
0.758161
0.757321
0.757074
0.757238
0.75765
0.758167
0.758675
0.759085
0.759333
0.759381
0.759215
0.75884
0.758279
0.757567
0.756741
0.755843
0.754908
0.753964
0.753043
0.752182
0.751429
0.750838
0.750455
0.750319
0.750451
0.750863
0.751553
0.752506
0.753693
0.75507
0.756588
0.758193
0.759844
0.761501
0.763123
0.764662
0.766063
0.767269
0.768228
0.768894
0.769236
0.791251
0.79143
0.791787
0.79232
0.793022
0.793882
0.794885
0.796018
0.797273
0.798655
0.800179
0.801866
0.803736
0.805809
0.80811
0.810668
0.813518
0.816706
0.820285
0.824314
0.828854
0.833958
0.839662
0.84598
0.852896
0.860377
0.868382
0.876863
0.885761
0.894996
0.904475
0.914088
0.923723
0.933265
0.942606
0.951642
0.960281
0.968441
0.976051
0.983049
0.989384
0.995013
0.999901
1.00402
1.00735
1.00986
1.01156
1.01242
1.01244
1.01161
1.00995
1.00745
1.00411
0.999944
0.99497
0.989202
0.982665
0.975386
0.967402
0.958759
0.94951
0.939722
0.929471
0.918847
0.907954
0.89691
0.885843
0.874895
0.864213
0.853948
0.844245
0.835236
0.827024
0.819667
0.813183
0.807591
0.802911
0.799161
0.796312
0.79427
0.79291
0.79209
0.791672
0.791522
0.791526
0.791584
0.791619
0.791572
0.791407
0.791104
0.790661
0.790089
0.789409
0.788648
0.787836
0.787
0.786169
0.785371
0.78464
0.784011
0.783525
0.783215
0.783109
0.783225
0.783571
0.784145
0.784934
0.785914
0.787054
0.788314
0.789654
0.791035
0.792421
0.793771
0.795045
0.796198
0.797186
0.797968
0.79851
0.798787
0.825096
0.825268
0.825612
0.826124
0.826799
0.827631
0.828612
0.829734
0.830995
0.8324
0.83396
0.83569
0.837609
0.839735
0.842093
0.844707
0.84761
0.850839
0.854435
0.858444
0.862906
0.867859
0.873326
0.879313
0.88581
0.892791
0.90022
0.908052
0.916229
0.924682
0.93333
0.942082
0.950844
0.959518
0.968011
0.976233
0.984101
0.991542
0.99849
1.00489
1.01068
1.01584
1.02032
1.02409
1.02714
1.02944
1.03098
1.03174
1.03173
1.03094
1.02937
1.02702
1.0239
1.02002
1.01539
1.01004
1.00398
0.997254
0.989892
0.981938
0.973448
0.964482
0.955115
0.945428
0.935515
0.925481
0.915439
0.905509
0.895815
0.886482
0.877627
0.869354
0.861749
0.854867
0.848742
0.843392
0.838831
0.835055
0.832033
0.829698
0.827957
0.826706
0.825836
0.825243
0.82483
0.824516
0.824233
0.82393
0.82357
0.823133
0.82261
0.822006
0.821332
0.820607
0.819851
0.819087
0.81834
0.817633
0.816994
0.816452
0.816035
0.81577
0.815676
0.815768
0.81605
0.816521
0.81717
0.817977
0.818918
0.819961
0.821074
0.822223
0.823375
0.824495
0.825548
0.826498
0.827308
0.827948
0.82839
0.828616
0.858768
0.858935
0.859267
0.859763
0.86042
0.861232
0.862196
0.86331
0.864573
0.86599
0.86757
0.869327
0.871274
0.873431
0.875817
0.878456
0.881375
0.884603
0.888174
0.892119
0.896468
0.901247
0.906469
0.912137
0.91824
0.924758
0.931657
0.938894
0.94642
0.954172
0.96208
0.970067
0.978052
0.985953
0.993687
1.00118
1.00835
1.01514
1.02148
1.02732
1.03263
1.03734
1.04144
1.0449
1.04768
1.04977
1.05117
1.05185
1.05181
1.05105
1.04956
1.04736
1.04445
1.04084
1.03654
1.03157
1.02597
1.01976
1.01297
1.00566
0.99786
0.989645
0.981078
0.972233
0.963197
0.954061
0.944923
0.935886
0.927057
0.918537
0.910425
0.902806
0.895751
0.889312
0.883523
0.878405
0.873965
0.870195
0.867067
0.86453
0.862515
0.860941
0.859725
0.858782
0.858036
0.857417
0.856868
0.856344
0.855811
0.855247
0.854641
0.853993
0.853307
0.852596
0.851874
0.851159
0.850469
0.849826
0.849252
0.848767
0.848395
0.848153
0.848059
0.84812
0.848342
0.84872
0.849247
0.849907
0.850678
0.851537
0.852457
0.853408
0.854361
0.855287
0.856156
0.856937
0.857602
0.858125
0.858487
0.858671
0.892274
0.892436
0.892759
0.893243
0.893884
0.894681
0.895632
0.896737
0.897997
0.899417
0.901005
0.902772
0.904731
0.906897
0.909289
0.911926
0.91483
0.918026
0.921538
0.925389
0.929602
0.934191
0.939165
0.944524
0.950257
0.956343
0.962753
0.969449
0.976385
0.983506
0.990751
0.998054
1.00535
1.01255
1.01961
1.02644
1.03298
1.03917
1.04497
1.05031
1.05515
1.05947
1.06321
1.06637
1.06891
1.07081
1.07207
1.07267
1.07261
1.07188
1.07048
1.06842
1.0657
1.06234
1.05835
1.05375
1.04857
1.04284
1.03658
1.02985
1.02269
1.01516
1.00732
0.999231
0.990979
0.982642
0.974305
0.966058
0.957989
0.950186
0.94273
0.935694
0.929137
0.923107
0.917635
0.91274
0.908429
0.904694
0.901511
0.89884
0.89663
0.894818
0.893339
0.892125
0.891114
0.890248
0.889479
0.888767
0.888082
0.887402
0.886715
0.886017
0.885308
0.884596
0.88389
0.883204
0.882553
0.881952
0.881419
0.88097
0.880623
0.880391
0.880285
0.880312
0.880476
0.880771
0.881192
0.881724
0.882352
0.883054
0.883808
0.88459
0.885375
0.886136
0.88685
0.887491
0.888036
0.888464
0.88876
0.88891
0.925617
0.925775
0.926091
0.926564
0.927193
0.927976
0.928915
0.930009
0.931261
0.932676
0.93426
0.936025
0.937979
0.940138
0.942516
0.945128
0.947994
0.951133
0.954562
0.958299
0.962358
0.96675
0.971477
0.976538
0.98192
0.987604
0.993564
0.999764
1.00616
1.01272
1.01936
1.02605
1.03272
1.03931
1.04575
1.05199
1.05796
1.06361
1.06891
1.07378
1.07821
1.08215
1.08557
1.08845
1.09077
1.0925
1.09363
1.09416
1.09407
1.09337
1.09205
1.09013
1.08759
1.08447
1.08077
1.07651
1.07172
1.06643
1.06067
1.05447
1.0479
1.04099
1.0338
1.0264
1.01885
1.01122
1.0036
0.99605
0.988655
0.981487
0.974616
0.968102
0.961997
0.956343
0.951168
0.946491
0.942317
0.93864
0.935441
0.932691
0.930348
0.928364
0.926687
0.925265
0.924045
0.922982
0.922033
0.921164
0.920348
0.919564
0.918801
0.91805
0.917312
0.916588
0.915886
0.915215
0.914585
0.91401
0.913501
0.913072
0.912735
0.912501
0.912378
0.912369
0.912477
0.912698
0.913025
0.913447
0.913951
0.914518
0.915131
0.915769
0.916411
0.917034
0.917618
0.918142
0.918587
0.918937
0.919178
0.919301
0.958803
0.958957
0.959266
0.959729
0.960346
0.961117
0.962041
0.963122
0.964362
0.965764
0.967337
0.969087
0.971024
0.97316
0.975506
0.978077
0.980887
0.983949
0.987278
0.990886
0.994782
0.998972
1.00346
1.00823
1.01328
1.01859
1.02413
1.02988
1.03579
1.04183
1.04794
1.05407
1.06018
1.06621
1.0721
1.0778
1.08325
1.08842
1.09326
1.09771
1.10176
1.10536
1.10848
1.11111
1.11321
1.11478
1.1158
1.11626
1.11616
1.11548
1.11424
1.11244
1.11008
1.10718
1.10375
1.09981
1.09538
1.09049
1.08518
1.07948
1.07344
1.06709
1.06049
1.05371
1.04679
1.0398
1.03281
1.02589
1.01909
1.01249
1.00614
1.0001
0.994407
0.989099
0.984204
0.979738
0.975707
0.972107
0.968924
0.966134
0.963706
0.961602
0.959782
0.958202
0.956821
0.955601
0.954507
0.953508
0.952581
0.951707
0.950873
0.950072
0.949301
0.94856
0.947852
0.947184
0.946564
0.946001
0.945503
0.945082
0.944746
0.944501
0.944355
0.944309
0.944365
0.944517
0.944762
0.945088
0.945485
0.945938
0.94643
0.946945
0.947465
0.947971
0.948445
0.948871
0.949233
0.949518
0.949714
0.949813
0.991834
0.991985
0.992287
0.992741
0.993346
0.994103
0.995012
0.996077
0.997299
0.998684
1.00024
1.00196
1.00387
1.00597
1.00827
1.01079
1.01353
1.0165
1.01972
1.02318
1.02691
1.0309
1.03515
1.03964
1.04438
1.04934
1.0545
1.05983
1.0653
1.07086
1.07649
1.08212
1.08772
1.09324
1.09863
1.10385
1.10884
1.11356
1.11798
1.12205
1.12575
1.12904
1.13189
1.13428
1.13619
1.13761
1.13853
1.13893
1.13881
1.13816
1.13699
1.13531
1.13311
1.13041
1.12723
1.12359
1.11949
1.11499
1.11009
1.10484
1.09928
1.09344
1.08738
1.08115
1.0748
1.06839
1.06197
1.0556
1.04934
1.04325
1.03737
1.03175
1.02643
1.02144
1.01681
1.01255
1.00867
1.00516
1.00201
0.999215
0.996739
0.994557
0.992635
0.99094
0.989437
0.988095
0.986884
0.98578
0.98476
0.983809
0.982913
0.982065
0.98126
0.980497
0.979778
0.979106
0.978486
0.977925
0.97743
0.977007
0.976664
0.976404
0.976232
0.976149
0.976155
0.976246
0.976417
0.97666
0.976964
0.977317
0.977706
0.978116
0.978532
0.978939
0.979321
0.979665
0.979957
0.980187
0.980345
0.980426
1.02471
1.02486
1.02516
1.0256
1.02619
1.02694
1.02783
1.02887
1.03007
1.03144
1.03296
1.03465
1.03652
1.03858
1.04083
1.04327
1.04593
1.0488
1.0519
1.05522
1.05878
1.06257
1.06658
1.07082
1.07526
1.0799
1.0847
1.08964
1.0947
1.09984
1.10502
1.1102
1.11535
1.12041
1.12535
1.13012
1.13469
1.13901
1.14305
1.14677
1.15015
1.15315
1.15575
1.15793
1.15967
1.16095
1.16177
1.16211
1.16198
1.16136
1.16026
1.15869
1.15664
1.15414
1.15119
1.14781
1.14403
1.13986
1.13535
1.13051
1.12539
1.12002
1.11444
1.10871
1.10287
1.09697
1.09106
1.0852
1.07942
1.07378
1.06833
1.0631
1.05812
1.05343
1.04905
1.04499
1.04125
1.03784
1.03475
1.03197
1.02948
1.02725
1.02526
1.02348
1.02189
1.02046
1.01916
1.01797
1.01687
1.01585
1.0149
1.01401
1.01318
1.01239
1.01166
1.01097
1.01035
1.00978
1.00928
1.00885
1.0085
1.00822
1.00802
1.0079
1.00786
1.00789
1.008
1.00817
1.00839
1.00866
1.00896
1.00928
1.00961
1.00993
1.01024
1.01051
1.01074
1.01093
1.01105
1.01112
1.05744
1.05759
1.05788
1.05831
1.05889
1.05962
1.06049
1.06152
1.06269
1.06402
1.06551
1.06717
1.06899
1.071
1.07318
1.07555
1.07812
1.08089
1.08386
1.08703
1.09042
1.09401
1.0978
1.10179
1.10595
1.11028
1.11475
1.11934
1.12403
1.12878
1.13355
1.13832
1.14305
1.1477
1.15223
1.1566
1.16079
1.16474
1.16844
1.17184
1.17492
1.17766
1.18003
1.18202
1.1836
1.18476
1.18549
1.18578
1.18563
1.18504
1.18401
1.18253
1.18063
1.1783
1.17557
1.17244
1.16894
1.16509
1.16093
1.15646
1.15174
1.14679
1.14166
1.13639
1.13101
1.12557
1.12012
1.1147
1.10936
1.10414
1.09907
1.09419
1.08953
1.08511
1.08097
1.07709
1.07351
1.07021
1.06719
1.06444
1.06196
1.05971
1.05768
1.05584
1.05419
1.05269
1.05132
1.05006
1.0489
1.04783
1.04684
1.04591
1.04504
1.04423
1.04348
1.04279
1.04215
1.04158
1.04107
1.04063
1.04025
1.03995
1.03973
1.03957
1.03949
1.03947
1.03952
1.03962
1.03978
1.03997
1.0402
1.04044
1.04069
1.04094
1.04118
1.0414
1.04158
1.04173
1.04183
1.04188
1.09003
1.09017
1.09045
1.09088
1.09144
1.09215
1.09301
1.094
1.09515
1.09645
1.0979
1.09952
1.10129
1.10323
1.10534
1.10764
1.11011
1.11276
1.1156
1.11863
1.12185
1.12525
1.12883
1.13257
1.13648
1.14052
1.14468
1.14895
1.15329
1.15768
1.16209
1.16649
1.17084
1.17511
1.17927
1.18328
1.18711
1.19073
1.19411
1.19723
1.20004
1.20255
1.20471
1.20651
1.20794
1.20899
1.20964
1.20989
1.20973
1.20917
1.20819
1.20681
1.20504
1.20288
1.20034
1.19744
1.1942
1.19065
1.1868
1.18268
1.17832
1.17376
1.16903
1.16416
1.1592
1.15418
1.14915
1.14414
1.13919
1.13434
1.12962
1.12506
1.12069
1.11653
1.1126
1.10892
1.10548
1.10229
1.09935
1.09666
1.09419
1.09194
1.08989
1.08803
1.08633
1.08478
1.08336
1.08205
1.08085
1.07974
1.0787
1.07774
1.07685
1.07602
1.07525
1.07454
1.07389
1.07331
1.07278
1.07233
1.07194
1.07162
1.07136
1.07117
1.07105
1.07099
1.07098
1.07103
1.07112
1.07125
1.07141
1.07159
1.07178
1.07197
1.07215
1.07231
1.07246
1.07257
1.07265
1.07269
1.12248
1.12262
1.12289
1.1233
1.12385
1.12454
1.12537
1.12634
1.12746
1.12872
1.13013
1.1317
1.13342
1.13529
1.13733
1.13954
1.14191
1.14445
1.14717
1.15005
1.1531
1.15631
1.15969
1.16321
1.16686
1.17064
1.17452
1.17848
1.18251
1.18657
1.19064
1.1947
1.1987
1.20263
1.20645
1.21013
1.21365
1.21696
1.22006
1.22291
1.22548
1.22777
1.22974
1.23138
1.23268
1.23362
1.2342
1.23441
1.23424
1.2337
1.23278
1.23149
1.22983
1.22782
1.22547
1.22278
1.21979
1.2165
1.21294
1.20913
1.20511
1.20089
1.19652
1.19203
1.18745
1.18281
1.17815
1.17351
1.16891
1.1644
1.16
1.15574
1.15164
1.14772
1.144
1.14049
1.1372
1.13413
1.13128
1.12864
1.12621
1.12398
1.12193
1.12005
1.11833
1.11674
1.11529
1.11395
1.11271
1.11156
1.1105
1.10951
1.10859
1.10774
1.10696
1.10623
1.10557
1.10497
1.10444
1.10396
1.10355
1.10321
1.10293
1.10271
1.10255
1.10245
1.10239
1.10239
1.10243
1.1025
1.10261
1.10273
1.10286
1.103
1.10313
1.10325
1.10336
1.10345
1.1035
1.10354
1.15479
1.15492
1.15519
1.15559
1.15612
1.15679
1.1576
1.15854
1.15962
1.16085
1.16221
1.16373
1.16538
1.16719
1.16916
1.17127
1.17354
1.17597
1.17856
1.1813
1.18418
1.18722
1.1904
1.1937
1.19712
1.20065
1.20427
1.20795
1.21169
1.21545
1.21921
1.22295
1.22664
1.23026
1.23377
1.23715
1.24038
1.24342
1.24625
1.24886
1.25121
1.2533
1.25509
1.25659
1.25776
1.25861
1.25913
1.2593
1.25913
1.25861
1.25774
1.25653
1.25499
1.25312
1.25093
1.24844
1.24566
1.24261
1.23932
1.2358
1.23208
1.22818
1.22414
1.21999
1.21575
1.21146
1.20714
1.20283
1.19856
1.19436
1.19025
1.18626
1.18241
1.17871
1.17519
1.17185
1.1687
1.16574
1.16298
1.16041
1.15803
1.15583
1.15379
1.15191
1.15018
1.14858
1.1471
1.14574
1.14447
1.1433
1.14222
1.14121
1.14027
1.1394
1.1386
1.13786
1.13719
1.13657
1.13602
1.13553
1.13511
1.13474
1.13443
1.13418
1.13399
1.13385
1.13376
1.13371
1.1337
1.13373
1.13378
1.13385
1.13394
1.13403
1.13412
1.13421
1.13429
1.13435
1.13439
1.13441
1.18696
1.18709
1.18735
1.18774
1.18826
1.18891
1.18969
1.1906
1.19165
1.19283
1.19415
1.19561
1.1972
1.19894
1.20082
1.20285
1.20502
1.20734
1.20979
1.21239
1.21512
1.21799
1.22097
1.22408
1.22728
1.23058
1.23394
1.23737
1.24084
1.24432
1.2478
1.25126
1.25466
1.25799
1.26122
1.26433
1.26729
1.27008
1.27268
1.27506
1.27722
1.27912
1.28076
1.28211
1.28318
1.28394
1.2844
1.28454
1.28436
1.28386
1.28304
1.28191
1.28047
1.27873
1.27669
1.27438
1.2718
1.26898
1.26593
1.26267
1.25923
1.25562
1.25188
1.24803
1.24411
1.24012
1.23612
1.23211
1.22814
1.22422
1.22038
1.21664
1.21301
1.20953
1.20619
1.20301
1.2
1.19717
1.1945
1.192
1.18968
1.18751
1.1855
1.18363
1.1819
1.18029
1.17881
1.17743
1.17615
1.17496
1.17386
1.17283
1.17188
1.171
1.17018
1.16943
1.16874
1.16812
1.16755
1.16705
1.1666
1.16621
1.16588
1.1656
1.16538
1.16521
1.16508
1.16499
1.16494
1.16493
1.16493
1.16496
1.16501
1.16506
1.16512
1.16518
1.16523
1.16527
1.1653
1.16532
1.21901
1.21913
1.21938
1.21976
1.22026
1.22089
1.22164
1.22252
1.22353
1.22467
1.22594
1.22734
1.22888
1.23055
1.23235
1.23429
1.23636
1.23856
1.24089
1.24335
1.24593
1.24863
1.25144
1.25435
1.25735
1.26043
1.26357
1.26675
1.26997
1.2732
1.27642
1.27961
1.28275
1.28582
1.28879
1.29165
1.29437
1.29693
1.29931
1.3015
1.30347
1.3052
1.3067
1.30793
1.30889
1.30958
1.30998
1.31009
1.30991
1.30943
1.30866
1.3076
1.30625
1.30463
1.30273
1.30058
1.29819
1.29557
1.29275
1.28972
1.28653
1.28319
1.27973
1.27616
1.27251
1.26882
1.26509
1.26137
1.25766
1.254
1.25041
1.2469
1.24349
1.2402
1.23704
1.23401
1.23114
1.22841
1.22584
1.22342
1.22116
1.21904
1.21706
1.21521
1.21349
1.21189
1.2104
1.20902
1.20773
1.20653
1.20542
1.20438
1.20342
1.20252
1.20169
1.20093
1.20023
1.19959
1.19902
1.1985
1.19803
1.19763
1.19727
1.19697
1.19672
1.19652
1.19636
1.19624
1.19615
1.1961
1.19607
1.19606
1.19607
1.19609
1.19612
1.19615
1.19618
1.19621
1.19622
1.19623
1.25093
1.25105
1.25129
1.25165
1.25214
1.25274
1.25347
1.25432
1.25529
1.25639
1.25761
1.25895
1.26042
1.26202
1.26374
1.26559
1.26756
1.26965
1.27186
1.27419
1.27662
1.27917
1.2818
1.28453
1.28734
1.29021
1.29314
1.2961
1.29909
1.30209
1.30507
1.30802
1.31092
1.31375
1.31649
1.31911
1.32161
1.32396
1.32615
1.32815