/*--------------------------------*- C++ -*----------------------------------*\
| =========                 |                                                 |
| \\      /  F ield         | OpenFOAM: The Open Source CFD Toolbox           |
|  \\    /   O peration     | Version:  2406                                  |
|   \\  /    A nd           | Website:  www.openfoam.com                      |
|    \\/     M anipulation  |                                                 |
\*---------------------------------------------------------------------------*/
FoamFile
{
    version     2.0;
    format      ascii;
    arch        "LSB;label=32;scalar=64";
    class       volScalarField;
    location    "10";
    object      C;
}
// * * * * * * * * * * * * * * * * * * * * * * * * * * * * * * * * * * * * * //

dimensions      [1 -3 0 0 0 0 0];

internalField   nonuniform List<scalar> 
14400
(
0.211251
0.210551
0.209308
0.207767
0.206189
0.204802
0.203779
0.203225
0.20318
0.203613
0.204426
0.205444
0.206422
0.207052
0.207006
0.206006
0.203955
0.201033
0.197578
0.193965
0.190538
0.187589
0.185356
0.184046
0.18385
0.184961
0.187596
0.192008
0.198487
0.207352
0.218934
0.233559
0.251548
0.273213
0.298848
0.328694
0.362847
0.400986
0.441216
0.471537
0.491537
0.508242
0.522359
0.53408
0.543549
0.550879
0.55615
0.559424
0.560738
0.560114
0.557554
0.553043
0.54655
0.538024
0.527391
0.514553
0.49938
0.481705
0.4605
0.428884
0.387952
0.349649
0.315574
0.28592
0.260544
0.239182
0.221524
0.207231
0.195941
0.187268
0.180828
0.176282
0.173355
0.171847
0.171615
0.172569
0.174652
0.17784
0.18213
0.187539
0.194088
0.201791
0.210628
0.220491
0.231111
0.241897
0.25146
0.25691
0.256082
0.251112
0.244379
0.237306
0.230527
0.224383
0.219057
0.214627
0.211098
0.208419
0.206499
0.205216
0.204433
0.204011
0.203831
0.203816
0.203948
0.204281
0.204928
0.206043
0.207805
0.210394
0.213983
0.218723
0.224733
0.232084
0.240774
0.250696
0.261592
0.272942
0.283669
0.290613
0.215746
0.214875
0.213358
0.211518
0.209668
0.208068
0.206907
0.206296
0.206279
0.206825
0.207832
0.209118
0.210417
0.211379
0.211591
0.210656
0.208386
0.205071
0.201174
0.197148
0.193372
0.190148
0.187717
0.186282
0.186029
0.187151
0.189862
0.194412
0.201085
0.210195
0.222062
0.237011
0.255362
0.27743
0.303514
0.333864
0.368564
0.407125
0.446453
0.47504
0.494371
0.510829
0.524756
0.536331
0.54569
0.552936
0.558149
0.561383
0.562677
0.56205
0.559504
0.555025
0.548584
0.540131
0.529596
0.516887
0.501883
0.484423
0.463986
0.433845
0.393451
0.354791
0.320199
0.290044
0.264205
0.242419
0.224371
0.209721
0.198112
0.189166
0.182507
0.177795
0.174755
0.173179
0.172925
0.173896
0.17604
0.179334
0.183779
0.189398
0.196221
0.204273
0.213541
0.223932
0.235192
0.246726
0.256841
0.262209
0.261946
0.256732
0.249501
0.241959
0.234771
0.228285
0.222688
0.218059
0.2144
0.211658
0.209734
0.208494
0.207783
0.207441
0.207322
0.207328
0.207437
0.207711
0.208285
0.209341
0.211077
0.213693
0.217371
0.222271
0.228515
0.236176
0.245255
0.255652
0.267107
0.279068
0.290242
0.296831
0.225241
0.223966
0.221834
0.219344
0.216919
0.214875
0.213427
0.212699
0.212736
0.213508
0.214909
0.216746
0.218722
0.220411
0.221235
0.2205
0.217685
0.213471
0.208618
0.203726
0.199232
0.19545
0.192617
0.190929
0.190563
0.191706
0.194568
0.199389
0.206442
0.216025
0.228449
0.244031
0.263091
0.285947
0.312905
0.344217
0.379963
0.419449
0.456135
0.481416
0.499976
0.515946
0.529505
0.540798
0.549942
0.557028
0.562125
0.565283
0.566538
0.565904
0.563386
0.55897
0.552629
0.544318
0.533975
0.521518
0.506842
0.489815
0.470267
0.443136
0.404719
0.365144
0.329496
0.298355
0.271611
0.248992
0.230177
0.214826
0.202587
0.193097
0.185993
0.180943
0.177667
0.175952
0.175647
0.176655
0.178922
0.18243
0.187192
0.19324
0.20062
0.209373
0.2195
0.23092
0.243386
0.256258
0.267135
0.272282
0.272808
0.267812
0.259841
0.251444
0.243473
0.236326
0.230202
0.225185
0.221279
0.218423
0.216505
0.21537
0.214826
0.214664
0.214684
0.214742
0.214795
0.214934
0.215343
0.216258
0.217926
0.220578
0.22442
0.229623
0.236314
0.244571
0.254397
0.265699
0.278215
0.29133
0.302957
0.308246
0.240741
0.238666
0.23543
0.231846
0.228491
0.225745
0.223848
0.222933
0.223046
0.224157
0.226157
0.228848
0.231906
0.234829
0.23683
0.236672
0.232671
0.226816
0.220367
0.214099
0.208491
0.203855
0.200412
0.19834
0.197801
0.198972
0.202047
0.207253
0.214848
0.22511
0.238339
0.254841
0.274935
0.298938
0.327145
0.35976
0.396684
0.43653
0.468796
0.49046
0.508168
0.523476
0.53652
0.547415
0.556252
0.563107
0.568039
0.571088
0.572285
0.571644
0.569166
0.564841
0.558644
0.550537
0.540468
0.528367
0.514151
0.497718
0.47895
0.455521
0.420943
0.380478
0.343487
0.310977
0.282929
0.259095
0.239159
0.222784
0.209622
0.199327
0.191554
0.185984
0.182338
0.1804
0.180011
0.181072
0.183528
0.187371
0.192622
0.199332
0.207563
0.217372
0.228772
0.24168
0.255802
0.270281
0.281519
0.28642
0.287658
0.284302
0.275643
0.266082
0.257009
0.24892
0.242045
0.236482
0.232236
0.229244
0.227379
0.226452
0.226218
0.22639
0.226671
0.226825
0.22677
0.226649
0.226747
0.227392
0.228905
0.231567
0.235611
0.241224
0.248538
0.257632
0.268508
0.281056
0.294952
0.309288
0.320172
0.323879
0.263715
0.260057
0.254981
0.249741
0.24505
0.241325
0.238809
0.237633
0.23784
0.239398
0.242198
0.246044
0.250615
0.25538
0.259402
0.260756
0.254243
0.245715
0.236938
0.228763
0.221648
0.215865
0.211602
0.209008
0.208226
0.209411
0.21274
0.218421
0.22669
0.237809
0.252063
0.26975
0.291182
0.316667
0.346472
0.380702
0.41881
0.45679
0.483111
0.502078
0.518761
0.533269
0.545686
0.556088
0.564545
0.571111
0.575834
0.578746
0.579871
0.57922
0.576794
0.572584
0.56657
0.558719
0.548992
0.537332
0.523678
0.507953
0.490073
0.469658
0.440565
0.400647
0.36232
0.32813
0.298409
0.273001
0.251615
0.233919
0.219571
0.208234
0.199582
0.193314
0.189162
0.186911
0.186401
0.18753
0.190249
0.194554
0.20048
0.208092
0.217469
0.228676
0.241736
0.256548
0.272713
0.288788
0.299157
0.303941
0.305794
0.304629
0.296903
0.28619
0.275817
0.266572
0.258764
0.252528
0.247886
0.244779
0.243064
0.242516
0.242821
0.243578
0.244329
0.244659
0.244388
0.243792
0.243331
0.243489
0.24469
0.247277
0.251513
0.257598
0.265667
0.275791
0.287961
0.302022
0.317452
0.332371
0.340245
0.342939
0.295627
0.288971
0.281113
0.273611
0.267182
0.262208
0.25891
0.257404
0.257722
0.259826
0.263605
0.268868
0.27531
0.282382
0.288793
0.289404
0.282153
0.270366
0.258696
0.248177
0.239213
0.232017
0.226733
0.223478
0.222367
0.223534
0.227133
0.233352
0.242405
0.254539
0.270021
0.289141
0.312193
0.339459
0.371156
0.407233
0.446317
0.477608
0.49838
0.515945
0.531528
0.545154
0.556865
0.566708
0.574727
0.58096
0.58544
0.588192
0.589232
0.58857
0.586206
0.582131
0.57633
0.568779
0.559446
0.548293
0.535274
0.520345
0.50346
0.4846
0.4613
0.426187
0.386327
0.350115
0.318373
0.291056
0.267911
0.24862
0.232847
0.220263
0.210554
0.203437
0.198659
0.196016
0.195353
0.196574
0.199631
0.20453
0.211314
0.220058
0.230848
0.243757
0.258804
0.275859
0.294333
0.310816
0.319441
0.324347
0.326803
0.326929
0.322801
0.311948
0.300319
0.289783
0.280898
0.27389
0.268824
0.26566
0.264252
0.26434
0.265532
0.267279
0.268866
0.269544
0.268829
0.26737
0.265954
0.265291
0.265938
0.268304
0.272679
0.279262
0.288179
0.299474
0.313107
0.328828
0.345629
0.357833
0.362511
0.36468
0.330997
0.324509
0.313774
0.303701
0.295267
0.288838
0.284625
0.28273
0.28318
0.285919
0.290816
0.297654
0.306079
0.315169
0.320471
0.318905
0.313622
0.300292
0.285755
0.272684
0.261633
0.252807
0.246321
0.242266
0.240736
0.24184
0.245715
0.252523
0.262462
0.275759
0.292668
0.313457
0.338388
0.367676
0.401378
0.438863
0.474279
0.497694
0.515598
0.531796
0.546251
0.558953
0.569913
0.579152
0.586694
0.592561
0.596774
0.599349
0.600296
0.599623
0.597328
0.593404
0.587841
0.580621
0.571722
0.561118
0.548783
0.53469
0.518823
0.501176
0.481639
0.454209
0.415164
0.377158
0.343172
0.313648
0.288458
0.267318
0.249902
0.235888
0.224975
0.21689
0.211399
0.20831
0.207481
0.208823
0.212297
0.217913
0.22572
0.235795
0.248229
0.263088
0.280357
0.299763
0.320073
0.334749
0.342189
0.347204
0.350141
0.351116
0.350191
0.343224
0.330832
0.318984
0.308913
0.301056
0.295557
0.292422
0.291523
0.292584
0.29514
0.298495
0.301546
0.302984
0.301301
0.298334
0.295371
0.293425
0.293207
0.295166
0.299597
0.306683
0.316512
0.329049
0.34415
0.361164
0.376527
0.38357
0.386887
0.38859
0.364332
0.361718
0.351957
0.3399
0.329504
0.321526
0.31631
0.313987
0.314601
0.318055
0.324153
0.332542
0.34255
0.351128
0.352078
0.349841
0.346029
0.334922
0.318166
0.302575
0.289311
0.278686
0.270838
0.265856
0.263818
0.264819
0.268974
0.276427
0.287355
0.301967
0.320498
0.343189
0.370239
0.401711
0.437212
0.474301
0.500227
0.518161
0.534518
0.549392
0.562726
0.574493
0.584683
0.593294
0.600336
0.605816
0.609746
0.612132
0.612982
0.612298
0.610078
0.606317
0.601009
0.594142
0.585701
0.575675
0.564048
0.550812
0.535965
0.519518
0.501494
0.480634
0.449122
0.409629
0.37319
0.341202
0.313709
0.29048
0.271214
0.2556
0.243347
0.234195
0.227924
0.224357
0.223365
0.224868
0.228836
0.235282
0.244257
0.255839
0.27011
0.287121
0.306797
0.328576
0.349012
0.360211
0.367086
0.372138
0.375443
0.377124
0.377348
0.375336
0.366855
0.354355
0.343134
0.334397
0.328466
0.325457
0.325283
0.327697
0.332167
0.337939
0.343266
0.346372
0.342666
0.337342
0.332098
0.328329
0.326912
0.328276
0.332676
0.340258
0.351048
0.36478
0.381049
0.3978
0.406606
0.410299
0.412876
0.414203
0.397006
0.396609
0.392603
0.381623
0.369926
0.36046
0.354216
0.351436
0.352263
0.356504
0.363804
0.373369
0.383365
0.386196
0.384604
0.382196
0.378795
0.372186
0.355901
0.338155
0.322653
0.310103
0.300751
0.294723
0.292098
0.292961
0.297414
0.305579
0.317609
0.33369
0.354034
0.378845
0.408207
0.441885
0.478249
0.505732
0.523901
0.540022
0.554923
0.568525
0.580769
0.591612
0.601029
0.609007
0.615538
0.620622
0.62426
0.626453
0.627202
0.626508
0.624367
0.620779
0.615736
0.609235
0.601268
0.591831
0.580922
0.568544
0.554708
0.539437
0.522769
0.504757
0.481838
0.446831
0.408605
0.374124
0.344146
0.318614
0.297295
0.27991
0.266181
0.255863
0.248749
0.244676
0.243528
0.245236
0.249776
0.257163
0.267447
0.280695
0.296967
0.316261
0.338339
0.361891
0.378697
0.387247
0.393806
0.398817
0.40237
0.404589
0.405643
0.405762
0.403274
0.395153
0.383531
0.374071
0.367749
0.364961
0.365674
0.369751
0.37645
0.385042
0.391496
0.393299
0.391168
0.383934
0.376106
0.370083
0.367256
0.367895
0.372193
0.380233
0.392003
0.406495
0.422521
0.431663
0.435296
0.438126
0.440116
0.441142
0.430074
0.429901
0.429621
0.425431
0.415885
0.405499
0.398369
0.395082
0.396213
0.401247
0.409357
0.418058
0.421267
0.419814
0.417946
0.415543
0.412468
0.408597
0.398372
0.379646
0.362069
0.347516
0.336535
0.329356
0.326076
0.32678
0.331565
0.340525
0.353776
0.371471
0.393777
0.420842
0.452424
0.487037
0.514666
0.533011
0.54853
0.563102
0.576626
0.589018
0.600212
0.610156
0.618815
0.626165
0.632188
0.636875
0.64022
0.642217
0.642866
0.642163
0.640106
0.636693
0.631923
0.625793
0.618305
0.60946
0.599265
0.587733
0.574885
0.560754
0.545386
0.528844
0.511179
0.486392
0.449341
0.412813
0.380285
0.352266
0.328699
0.309365
0.294013
0.282417
0.274387
0.269775
0.268477
0.270434
0.275624
0.284065
0.295799
0.310867
0.329277
0.350894
0.375016
0.397059
0.408427
0.415913
0.422074
0.426954
0.430631
0.433218
0.434872
0.435798
0.43626
0.434495
0.428698
0.41955
0.413163
0.410749
0.41228
0.417866
0.425668
0.430667
0.432956
0.433116
0.433396
0.431068
0.425717
0.417936
0.414031
0.413966
0.4181
0.426339
0.438744
0.451107
0.458896
0.462013
0.464639
0.466794
0.468319
0.469108
0.463315
0.463284
0.463291
0.463463
0.460666
0.454938
0.447884
0.444049
0.445573
0.450849
0.455401
0.457258
0.45553
0.453757
0.451823
0.449563
0.446873
0.443698
0.439218
0.426582
0.407819
0.391331
0.378641
0.37025
0.366261
0.366797
0.371969
0.381829
0.396414
0.415826
0.440099
0.469282
0.501737
0.527929
0.545645
0.560199
0.574105
0.587229
0.59946
0.610709
0.620904
0.629985
0.637911
0.644649
0.650174
0.654471
0.657526
0.659331
0.659881
0.659172
0.6572
0.653966
0.649469
0.643711
0.636698
0.628438
0.618945
0.608238
0.596346
0.583309
0.569176
0.554013
0.537897
0.520586
0.494684
0.457587
0.422637
0.391996
0.366006
0.344551
0.327421
0.314421
0.305386
0.300186
0.298735
0.300981
0.306904
0.316516
0.329843
0.34688
0.367513
0.391268
0.416063
0.431118
0.439105
0.445904
0.451623
0.456294
0.459981
0.462782
0.464829
0.466296
0.467402
0.468421
0.468411
0.4659
0.462774
0.461224
0.462769
0.465578
0.467864
0.46809
0.467627
0.467794
0.468569
0.470009
0.470013
0.468114
0.465637
0.465152
0.469038
0.476176
0.483193
0.488237
0.490349
0.492476
0.494452
0.496091
0.497258
0.497864
0.496586
0.496628
0.496761
0.497086
0.497765
0.497282
0.495221
0.493572
0.493503
0.494196
0.493689
0.491508
0.489635
0.487862
0.486026
0.484014
0.481761
0.47925
0.476521
0.471511
0.458936
0.441638
0.427365
0.417847
0.41312
0.413483
0.419127
0.430018
0.445999
0.467109
0.49285
0.522752
0.545829
0.561824
0.575101
0.588035
0.600464
0.612249
0.623277
0.633456
0.642708
0.650971
0.658196
0.664345
0.66939
0.673307
0.676081
0.6777
0.678156
0.677443
0.675558
0.672501
0.668275
0.662884
0.656338
0.64865
0.639838
0.629927
0.618953
0.606958
0.593997
0.580135
0.56545
0.550024
0.533059
0.507258
0.471381
0.438256
0.409781
0.38608
0.367016
0.352478
0.342331
0.336479
0.334862
0.337436
0.344171
0.355062
0.370116
0.389227
0.412032
0.437094
0.45509
0.463868
0.470861
0.476976
0.482221
0.486618
0.490218
0.493098
0.495365
0.497155
0.498632
0.499986
0.501416
0.503038
0.503434
0.50341
0.50372
0.503461
0.50234
0.501709
0.50154
0.501864
0.502701
0.50409
0.506077
0.508476
0.509544
0.510869
0.513488
0.516654
0.518608
0.519901
0.521465
0.52309
0.524602
0.52586
0.526758
0.527225
0.529816
0.529881
0.530038
0.530337
0.530833
0.531539
0.532338
0.532336
0.531213
0.529192
0.527163
0.525323
0.52364
0.522029
0.520404
0.518707
0.516908
0.515021
0.513109
0.511294
0.507104
0.497184
0.482412
0.472383
0.466908
0.467075
0.473316
0.485409
0.502576
0.524806
0.549432
0.568218
0.581448
0.593192
0.6049
0.616378
0.627465
0.638025
0.647944
0.657129
0.6655
0.672993
0.679556
0.685147
0.689732
0.693287
0.695792
0.697233
0.697599
0.696885
0.695087
0.692206
0.688245
0.683213
0.677121
0.669985
0.661829
0.652681
0.642581
0.631573
0.619717
0.607081
0.593743
0.579795
0.565343
0.549241
0.524925
0.491
0.460426
0.434537
0.413413
0.397214
0.385839
0.379249
0.377442
0.380382
0.387995
0.40023
0.417079
0.438125
0.46196
0.480972
0.490707
0.497409
0.503495
0.508919
0.513664
0.517739
0.521175
0.524029
0.526379
0.528327
0.529985
0.531474
0.532892
0.534265
0.535459
0.536152
0.536015
0.53555
0.535091
0.534867
0.53496
0.535422
0.536283
0.537566
0.539277
0.541384
0.543818
0.546126
0.547751
0.548868
0.550006
0.551221
0.552521
0.553818
0.555006
0.555989
0.556689
0.557053
0.562982
0.563042
0.563173
0.563389
0.563692
0.564034
0.564269
0.564069
0.563231
0.561914
0.560442
0.55898
0.557573
0.556208
0.554857
0.553501
0.552142
0.550816
0.549599
0.548619
0.548067
0.546241
0.540789
0.532979
0.526935
0.526984
0.53388
0.547127
0.563947
0.58033
0.594138
0.604235
0.614293
0.624596
0.634929
0.645112
0.654993
0.664441
0.673346
0.681616
0.689171
0.695946
0.701888
0.706953
0.711105
0.714317
0.716568
0.71784
0.718123
0.717411
0.715699
0.71299
0.709288
0.704602
0.698947
0.692341
0.684811
0.676388
0.667114
0.657038
0.646219
0.634727
0.622646
0.610072
0.597116
0.583914
0.569515
0.547976
0.517613
0.490299
0.467092
0.449215
0.436495
0.429051
0.42702
0.430374
0.438903
0.452386
0.470898
0.492731
0.510388
0.519991
0.525932
0.531567
0.536792
0.541541
0.545779
0.549498
0.552714
0.555462
0.557797
0.559787
0.561508
0.563034
0.564413
0.565647
0.566664
0.567338
0.567599
0.567623
0.567608
0.567706
0.568012
0.56858
0.569443
0.570613
0.57208
0.573796
0.575656
0.577439
0.578935
0.580173
0.581325
0.582458
0.583581
0.584653
0.585614
0.5864
0.586957
0.587245
0.596088
0.596132
0.596222
0.596355
0.59651
0.596636
0.596632
0.596352
0.595718
0.594791
0.59371
0.592584
0.591465
0.590373
0.589314
0.588297
0.587344
0.586503
0.585854
0.585515
0.585655
0.5865
0.587815
0.587156
0.586971
0.589372
0.595298
0.603927
0.613477
0.622038
0.629696
0.638067
0.646894
0.655969
0.665107
0.674149
0.682953
0.6914
0.699384
0.706817
0.713621
0.719733
0.725098
0.729672
0.733419
0.736309
0.738321
0.739436
0.739643
0.738936
0.73731
0.734767
0.731314
0.72696
0.721723
0.715622
0.708685
0.700947
0.69245
0.683245
0.673392
0.662964
0.652043
0.640729
0.629135
0.617397
0.605678
0.593642
0.575981
0.55249
0.527874
0.508818
0.494683
0.486231
0.483931
0.487773
0.497201
0.511214
0.530207
0.543997
0.551882
0.556659
0.561462
0.566135
0.570565
0.574673
0.578412
0.581761
0.584721
0.587309
0.589559
0.591516
0.593228
0.594739
0.596078
0.597246
0.598213
0.598938
0.599418
0.599737
0.60001
0.600339
0.6008
0.601443
0.602295
0.603364
0.604635
0.606064
0.607571
0.60904
0.610374
0.611565
0.612664
0.613704
0.61469
0.615601
0.616398
0.617041
0.617492
0.617725
0.629149
0.629177
0.62923
0.629298
0.629358
0.629369
0.62927
0.628991
0.628498
0.62782
0.627025
0.626179
0.625329
0.624505
0.62373
0.623028
0.622433
0.621998
0.621797
0.621933
0.622538
0.62377
0.625801
0.628869
0.63264
0.636601
0.641065
0.645813
0.651044
0.657188
0.664034
0.671444
0.679247
0.687278
0.695382
0.703422
0.711272
0.718821
0.725974
0.732646
0.738764
0.744266
0.749098
0.753218
0.756588
0.75918
0.76097
0.76194
0.762079
0.761378
0.759836
0.757455
0.75424
0.750203
0.745362
0.739739
0.733361
0.726265
0.718494
0.710099
0.701142
0.691692
0.681835
0.671665
0.661297
0.650861
0.640514
0.630437
0.620809
0.608166
0.592497
0.57499
0.559773
0.550365
0.547748
0.551956
0.561913
0.573116
0.581646
0.586358
0.589639
0.593299
0.597122
0.600947
0.604658
0.608173
0.611436
0.614415
0.617099
0.619493
0.621614
0.623489
0.625148
0.626617
0.627914
0.629046
0.630004
0.630783
0.631397
0.631898
0.632356
0.632841
0.633407
0.634096
0.63493
0.635913
0.637032
0.638254
0.639523
0.640776
0.641957
0.643049
0.644062
0.645005
0.645876
0.646661
0.647336
0.647873
0.648247
0.648438
0.662182
0.662197
0.662222
0.662248
0.662255
0.662213
0.662087
0.661842
0.661463
0.660967
0.660391
0.659778
0.659167
0.658589
0.658074
0.657652
0.657363
0.657258
0.657403
0.657882
0.658793
0.660243
0.662331
0.665121
0.668505
0.672316
0.676442
0.680973
0.686002
0.691634
0.697808
0.704428
0.711372
0.718512
0.725723
0.732885
0.73989
0.74664
0.753045
0.759029
0.764523
0.769467
0.773812
0.777514
0.780537
0.782852
0.784438
0.785275
0.785353
0.784663
0.783203
0.780975
0.777987
0.774251
0.769784
0.764609
0.758755
0.752259
0.745162
0.737517
0.729382
0.720829
0.711938
0.702801
0.693527
0.684238
0.675079
0.666214
0.657836
0.650178
0.642584
0.633361
0.62449
0.617888
0.614956
0.615707
0.618741
0.621921
0.623022
0.624686
0.627017
0.629778
0.632778
0.635873
0.63895
0.641925
0.644742
0.647363
0.649767
0.65195
0.653916
0.65568
0.657257
0.658665
0.659917
0.661019
0.661975
0.662793
0.66349
0.664102
0.664676
0.665259
0.665892
0.666605
0.667415
0.668326
0.669327
0.670395
0.671493
0.672583
0.673628
0.674612
0.675529
0.676376
0.677148
0.677832
0.678412
0.678868
0.679183
0.679344
0.6952
0.695206
0.695215
0.695218
0.695199
0.695142
0.695023
0.694827
0.694547
0.694194
0.693794
0.693375
0.692971
0.69261
0.692324
0.692144
0.69211
0.692268
0.692676
0.693399
0.694509
0.696077
0.69816
0.70078
0.703894
0.707427
0.711334
0.715632
0.720358
0.725537
0.731137
0.737088
0.743302
0.749677
0.756111
0.762505
0.768764
0.774802
0.780538
0.785902
0.790831
0.795269
0.799168
0.802487
0.805193
0.807256
0.808654
0.809371
0.809394
0.808717
0.807337
0.805256
0.802483
0.79903
0.794914
0.790158
0.784792
0.778852
0.772378
0.765423
0.758042
0.750304
0.742286
0.734074
0.72577
0.717486
0.709349
0.701503
0.694107
0.687331
0.681338
0.676406
0.6723
0.668605
0.665734
0.663676
0.661948
0.66111
0.661331
0.662346
0.663966
0.666016
0.668341
0.670817
0.673341
0.675837
0.678245
0.680527
0.682658
0.684623
0.686421
0.688056
0.689536
0.69087
0.692069
0.693138
0.694086
0.694923
0.695666
0.696344
0.696987
0.697628
0.698298
0.699017
0.6998
0.700648
0.701555
0.702505
0.703473
0.704433
0.705362
0.706243
0.707066
0.707824
0.708508
0.709108
0.709611
0.710003
0.710273
0.71041
0.728211
0.728213
0.728214
0.728208
0.728184
0.728131
0.728037
0.727894
0.727702
0.727469
0.727214
0.726959
0.726731
0.726557
0.726466
0.72649
0.726664
0.72703
0.727634
0.728529
0.729767
0.731396
0.733452
0.735946
0.738862
0.742166
0.745834
0.749864
0.754261
0.759021
0.764114
0.769487
0.775069
0.780782
0.78654
0.79226
0.79786
0.803265
0.808404
0.813211
0.81763
0.821609
0.825104
0.828075
0.830491
0.832323
0.833552
0.83416
0.834136
0.833474
0.832171
0.83023
0.827659
0.824471
0.820683
0.816318
0.811405
0.805977
0.800077
0.793753
0.787059
0.78006
0.772827
0.765441
0.757993
0.750586
0.743329
0.736343
0.729758
0.723701
0.718294
0.713642
0.709702
0.706407
0.703654
0.701424
0.699824
0.698954
0.698847
0.6994
0.700486
0.701978
0.703754
0.705711
0.707762
0.709834
0.711875
0.713844
0.715712
0.717464
0.719089
0.720587
0.72196
0.723212
0.724349
0.725378
0.726307
0.727146
0.72791
0.72862
0.729298
0.729969
0.730653
0.731366
0.732118
0.732911
0.733741
0.734596
0.73546
0.736315
0.737143
0.737931
0.738668
0.739344
0.739952
0.740481
0.740921
0.741262
0.741495
0.741613
0.76122
0.761221
0.761221
0.761215
0.761198
0.761161
0.761101
0.761012
0.760898
0.760767
0.760634
0.760516
0.760437
0.760421
0.760494
0.760685
0.761026
0.761552
0.762302
0.763317
0.764634
0.766288
0.768304
0.770691
0.773442
0.776541
0.779973
0.783729
0.7878
0.79217
0.796811
0.801675
0.806707
0.811841
0.817007
0.822134
0.827152
0.831995
0.836599
0.840908
0.844869
0.848434
0.851563
0.854218
0.856371
0.857995
0.859071
0.859581
0.859517
0.858871
0.857643
0.855834
0.853453
0.850512
0.847029
0.843026
0.83853
0.833576
0.828201
0.822453
0.816382
0.810049
0.80352
0.796869
0.790177
0.783535
0.777036
0.770784
0.764879
0.759422
0.754497
0.750164
0.746426
0.743256
0.740619
0.738511
0.73697
0.736034
0.735703
0.73592
0.736602
0.737655
0.738987
0.740513
0.74216
0.743864
0.745578
0.74726
0.748884
0.75043
0.751885
0.753244
0.754505
0.755668
0.756738
0.757719
0.758617
0.759443
0.760208
0.760928
0.761618
0.762297
0.762979
0.763676
0.764395
0.765138
0.765902
0.766679
0.767457
0.768223
0.768965
0.769671
0.77033
0.770934
0.771474
0.771942
0.77233
0.772629
0.772832
0.772935
0.794229
0.794231
0.794233
0.794234
0.79423
0.794216
0.794191
0.794155
0.794111
0.794067
0.794037
0.794035
0.794081
0.794196
0.794404
0.79473
0.795202
0.795851
0.796706
0.797801
0.799163
0.800819
0.802786
0.805071
0.807673
0.810583
0.813789
0.817279
0.82104
0.825051
0.829283
0.833696
0.838243
0.842868
0.847513
0.852116
0.856619
0.860963
0.865091
0.868954
0.872503
0.875695
0.878494
0.880865
0.88278
0.884216
0.885153
0.885578
0.885479
0.884852
0.883694
0.88201
0.879807
0.877096
0.873895
0.870226
0.866115
0.861593
0.856699
0.851474
0.845968
0.840235
0.834336
0.828337
0.822313
0.816339
0.810499
0.804876
0.799554
0.794609
0.790107
0.786093
0.782582
0.779572
0.777055
0.775031
0.773513
0.772509
0.77201
0.771975
0.772346
0.773053
0.774025
0.775194
0.776499
0.777886
0.77931
0.780736
0.782134
0.783486
0.784778
0.785999
0.787147
0.788218
0.789216
0.790142
0.791001
0.791801
0.792552
0.793264
0.79395
0.794621
0.79529
0.795964
0.796648
0.797345
0.79805
0.79876
0.799465
0.800156
0.800823
0.801457
0.802047
0.802587
0.803069
0.803484
0.803827
0.804091
0.80427
0.80436
0.827235
0.82724
0.827248
0.827259
0.827271
0.827283
0.827294
0.827306
0.827324
0.827355
0.827411
0.827506
0.827655
0.827878
0.828195
0.828629
0.829203
0.829942
0.830872
0.832017
0.8334
0.835039
0.836949
0.839135
0.841597
0.844328
0.84732
0.850559
0.854029
0.85771
0.861573
0.865584
0.8697
0.873875
0.878059
0.8822
0.886246
0.890145
0.893849
0.897313
0.900493
0.903351
0.905853
0.907968
0.909669
0.910936
0.911749
0.912097
0.91197
0.911362
0.910272
0.908705
0.906667
0.90417
0.90123
0.897869
0.89411
0.889984
0.885527
0.880777
0.87578
0.870586
0.86525
0.859832
0.854396
0.84901
0.843744
0.838668
0.833851
0.829354
0.825231
0.821518
0.818237
0.815396
0.812998
0.811045
0.80954
0.80848
0.807852
0.807624
0.807753
0.808185
0.808866
0.809741
0.810757
0.811871
0.813042
0.814237
0.815431
0.816604
0.817739
0.818828
0.819864
0.820843
0.821765
0.822631
0.823444
0.824209
0.824934
0.825626
0.826295
0.826949
0.827596
0.828242
0.82889
0.829541
0.830194
0.830845
0.831487
0.832113
0.832715
0.833285
0.833815
0.834299
0.834729
0.8351
0.835404
0.835638
0.835796
0.835876
0.860236
0.860244
0.86026
0.860283
0.860313
0.86035
0.860395
0.860451
0.860523
0.860618
0.860747
0.860922
0.861156
0.861466
0.861871
0.862388
0.863038
0.863843
0.864822
0.865995
0.867379
0.86899
0.870836
0.872923
0.875251
0.877814
0.880603
0.883607
0.886808
0.890187
0.893716
0.897366
0.901098
0.904874
0.908649
0.912379
0.916018
0.919522
0.922848
0.925955
0.928805
0.931364
0.933599
0.935483
0.936993
0.938108
0.938812
0.939092
0.938941
0.938353
0.937329
0.935871
0.933986
0.931687
0.928987
0.925908
0.922472
0.918707
0.914647
0.910327
0.905789
0.901079
0.896247
0.891345
0.88643
0.881561
0.876799
0.872202
0.867827
0.863726
0.859943
0.85651
0.853451
0.850777
0.848496
0.846611
0.845121
0.84402
0.843294
0.842918
0.842857
0.84307
0.843514
0.844144
0.844918
0.845798
0.846748
0.84774
0.84875
0.849757
0.850748
0.851711
0.852638
0.853525
0.85437
0.855172
0.855934
0.856658
0.857349
0.858012
0.858656
0.859284
0.859903
0.860517
0.861128
0.861736
0.862341
0.862939
0.863525
0.864094
0.864639
0.865153
0.86563
0.866064
0.86645
0.86678
0.867052
0.867259
0.8674
0.867471
0.893229
0.893241
0.893265
0.8933
0.893348
0.893408
0.893485
0.89358
0.893698
0.893848
0.894038
0.894277
0.89458
0.89496
0.895433
0.896014
0.89672
0.897569
0.898578
0.899761
0.901133
0.902704
0.904482
0.906471
0.90867
0.911073
0.913673
0.916457
0.91941
0.922512
0.92574
0.929064
0.932454
0.935873
0.939284
0.942648
0.945926
0.949078
0.952066
0.954855
0.957409
0.959699
0.961695
0.963373
0.964711
0.96569
0.966297
0.966519
0.966348
0.965782
0.964819
0.963463
0.961721
0.959603
0.957125
0.954303
0.951162
0.947726
0.944026
0.940095
0.935971
0.931696
0.927313
0.92287
0.918418
0.914006
0.909688
0.905513
0.901529
0.897781
0.894304
0.89113
0.888279
0.885766
0.883599
0.881781
0.880312
0.879185
0.878386
0.877896
0.877686
0.877724
0.877975
0.878404
0.878974
0.879654
0.880413
0.881226
0.88207
0.882928
0.883785
0.884629
0.885453
0.88625
0.887018
0.887755
0.888461
0.889139
0.88979
0.890419
0.891031
0.891628
0.892215
0.892794
0.893367
0.893935
0.894495
0.895045
0.895581
0.896099
0.896593
0.897058
0.897488
0.897879
0.898224
0.898521
0.898763
0.898949
0.899074
0.899137
0.926211
0.926226
0.926258
0.926305
0.926369
0.926452
0.926556
0.926685
0.926843
0.927038
0.927277
0.92757
0.927928
0.928362
0.928886
0.929514
0.930259
0.931136
0.932159
0.933338
0.934687
0.936211
0.937918
0.939809
0.941883
0.944136
0.946558
0.949138
0.951863
0.954713
0.957666
0.960698
0.963779
0.96688
0.969966
0.973004
0.975959
0.978797
0.981484
0.983988
0.986278
0.988328
0.99011
0.991604
0.992788
0.993647
0.994166
0.994337
0.994152
0.993606
0.992702
0.991441
0.989831
0.98788
0.985604
0.983019
0.980146
0.977009
0.973635
0.970056
0.966304
0.962419
0.958438
0.954406
0.950364
0.946358
0.942433
0.938632
0.934996
0.931563
0.928364
0.925426
0.92277
0.920409
0.918352
0.916603
0.915162
0.914021
0.913171
0.912594
0.912267
0.912165
0.91226
0.912521
0.912921
0.91343
0.914024
0.91468
0.915377
0.9161
0.916834
0.917568
0.918293
0.919004
0.919696
0.920368
0.921017
0.921646
0.922254
0.922844
0.92342
0.923982
0.924535
0.925078
0.925613
0.926141
0.926658
0.927164
0.927655
0.928127
0.928576
0.928997
0.929386
0.929738
0.930049
0.930315
0.930532
0.930698
0.93081
0.930866
0.959177
0.959196
0.959234
0.959292
0.959372
0.959474
0.959603
0.95976
0.959952
0.960184
0.960463
0.960798
0.961198
0.961674
0.962236
0.962896
0.963666
0.964558
0.965582
0.966748
0.968064
0.969537
0.97117
0.972965
0.974919
0.977028
0.979284
0.981676
0.98419
0.986809
0.989514
0.992281
0.995086
0.997901
1.0007
1.00344
1.00611
1.00867
1.01108
1.01333
1.01539
1.01722
1.01881
1.02014
1.02119
1.02194
1.02239
1.02251
1.02231
1.02179
1.02094
1.01977
1.01828
1.01648
1.01439
1.01202
1.00939
1.00653
1.00345
1.00019
0.996772
0.993237
0.989617
0.98595
0.982275
0.97863
0.975055
0.971587
0.968261
0.96511
0.962162
0.959441
0.956965
0.954747
0.952797
0.951118
0.94971
0.948568
0.947683
0.947041
0.946623
0.94641
0.946377
0.946501
0.946757
0.947122
0.947574
0.948092
0.94866
0.949261
0.949883
0.950515
0.951148
0.951777
0.952396
0.953003
0.953595
0.954173
0.954736
0.955285
0.955821
0.956347
0.956863
0.95737
0.957868
0.958356
0.958834
0.959298
0.959748
0.960178
0.960586
0.960968
0.96132
0.961638
0.961918
0.962157
0.962353
0.962501
0.962602
0.962652
0.992124
0.992146
0.992191
0.992259
0.992351
0.992471
0.99262
0.992802
0.993021
0.993283
0.993593
0.993961
0.994393
0.994899
0.995488
0.996169
0.996952
0.997848
0.998863
1.00001
1.00128
1.0027
1.00426
1.00596
1.0078
1.00977
1.01187
1.01409
1.01641
1.01882
1.0213
1.02383
1.02638
1.02894
1.03148
1.03396
1.03637
1.03868
1.04085
1.04288
1.04472
1.04636
1.04778
1.04896
1.04989
1.05054
1.05092
1.05101
1.0508
1.0503
1.0495
1.04841
1.04704
1.04538
1.04346
1.04129
1.03888
1.03626
1.03345
1.03047
1.02736
1.02414
1.02084
1.0175
1.01415
1.01083
1.00757
1.0044
1.00135
0.998455
0.995734
0.993211
0.990902
0.988819
0.986971
0.985362
0.983992
0.982858
0.981952
0.981262
0.980775
0.980474
0.980338
0.980349
0.980485
0.980727
0.981057
0.981456
0.981908
0.982401
0.982921
0.98346
0.984008
0.984559
0.985108
0.985652
0.986188
0.986714
0.987231
0.987737
0.988234
0.988722
0.9892
0.98967
0.990131
0.990582
0.991022
0.991448
0.991859
0.992252
0.992623
0.99297
0.993288
0.993576
0.993828
0.994044
0.99422
0.994353
0.994443
0.994489
1.02505
1.02507
1.02512
1.0252
1.0253
1.02544
1.0256
1.02581
1.02605
1.02633
1.02667
1.02706
1.02751
1.02804
1.02865
1.02934
1.03013
1.03102
1.03202
1.03313
1.03437
1.03573
1.03721
1.03882
1.04055
1.04239
1.04435
1.0464
1.04855
1.05076
1.05304
1.05535
1.05768
1.06
1.0623
1.06456
1.06673
1.06882
1.07078
1.0726
1.07425
1.07572
1.07699
1.07804
1.07886
1.07943
1.07974