/*--------------------------------*- C++ -*----------------------------------*\
| =========                 |                                                 |
| \\      /  F ield         | OpenFOAM: The Open Source CFD Toolbox           |
|  \\    /   O peration     | Version:  2406                                  |
|   \\  /    A nd           | Website:  www.openfoam.com                      |
|    \\/     M anipulation  |                                                 |
\*---------------------------------------------------------------------------*/
FoamFile
{
    version     2.0;
    format      ascii;
    arch        "LSB;label=32;scalar=64";
    class       volScalarField;
    location    "10";
    object      C_0;
}
// * * * * * * * * * * * * * * * * * * * * * * * * * * * * * * * * * * * * * //

dimensions      [1 -3 0 0 0 0 0];

internalField   nonuniform List<scalar> 
14400
(
0.211271
0.210571
0.209327
0.207785
0.206206
0.204819
0.203795
0.203241
0.203196
0.203631
0.204445
0.205465
0.206444
0.207077
0.207031
0.206031
0.20398
0.201057
0.1976
0.193986
0.190558
0.187608
0.185376
0.184068
0.183874
0.184989
0.18763
0.192049
0.198537
0.207413
0.219008
0.233648
0.251654
0.273336
0.29899
0.328857
0.363031
0.401187
0.441419
0.471724
0.491714
0.508417
0.522534
0.534253
0.543722
0.55105
0.556321
0.559594
0.560908
0.560283
0.557723
0.553212
0.546719
0.538193
0.52756
0.514723
0.49955
0.481875
0.460681
0.429076
0.388135
0.349815
0.315719
0.286046
0.260651
0.239272
0.221598
0.20729
0.195987
0.187303
0.180855
0.176302
0.17337
0.171858
0.171625
0.172577
0.17466
0.177849
0.182142
0.187553
0.194106
0.201814
0.210657
0.220527
0.231154
0.241948
0.251516
0.256969
0.25614
0.251166
0.244427
0.237348
0.230564
0.224415
0.219084
0.214651
0.211119
0.208438
0.206516
0.205232
0.204448
0.204027
0.203847
0.203831
0.203964
0.204297
0.204944
0.206061
0.207824
0.210416
0.214007
0.218751
0.224766
0.232122
0.240817
0.250747
0.261649
0.273006
0.28374
0.290687
0.215769
0.214898
0.213381
0.211539
0.209688
0.208087
0.206926
0.206315
0.206299
0.206846
0.207854
0.209142
0.210443
0.211408
0.211621
0.210686
0.208415
0.205099
0.2012
0.197172
0.193395
0.190171
0.18774
0.186306
0.186056
0.187181
0.189898
0.194456
0.201139
0.210259
0.22214
0.237104
0.25547
0.277556
0.30366
0.334031
0.368753
0.407334
0.446654
0.475222
0.494548
0.511004
0.52493
0.536504
0.545862
0.553107
0.558319
0.561553
0.562847
0.562219
0.559673
0.555194
0.548753
0.5403
0.529765
0.517057
0.502053
0.484593
0.464164
0.434036
0.39364
0.354961
0.320349
0.290173
0.264316
0.242512
0.224447
0.209783
0.198161
0.189204
0.182536
0.177817
0.174772
0.173193
0.172936
0.173907
0.176051
0.179345
0.183792
0.189414
0.196241
0.204298
0.213572
0.223971
0.235238
0.24678
0.2569
0.26227
0.262007
0.25679
0.249552
0.242005
0.234811
0.228321
0.222719
0.218085
0.214424
0.21168
0.209754
0.208513
0.207802
0.20746
0.20734
0.207347
0.207456
0.207731
0.208306
0.209362
0.2111
0.213717
0.217398
0.222302
0.228551
0.236217
0.245302
0.255705
0.267167
0.279136
0.290316
0.296906
0.225273
0.223996
0.221864
0.219372
0.216945
0.214901
0.213452
0.212724
0.212762
0.213535
0.214938
0.216777
0.218756
0.220447
0.221273
0.220539
0.217723
0.213507
0.208652
0.203758
0.199261
0.195479
0.192646
0.190959
0.190596
0.191743
0.194611
0.199439
0.206502
0.216096
0.228533
0.24413
0.263206
0.28608
0.313057
0.34439
0.380158
0.419664
0.456332
0.481593
0.500152
0.516121
0.529679
0.540971
0.550114
0.557198
0.562295
0.565453
0.566707
0.566073
0.563555
0.559139
0.552798
0.544487
0.534144
0.521687
0.507012
0.489985
0.470438
0.443325
0.404918
0.365322
0.329651
0.298491
0.271728
0.249091
0.23026
0.214894
0.202642
0.19314
0.186028
0.18097
0.177689
0.17597
0.175663
0.176669
0.178936
0.182446
0.187209
0.193261
0.200646
0.209403
0.219537
0.230964
0.243438
0.256318
0.2672
0.272348
0.272874
0.267876
0.259899
0.251496
0.24352
0.236367
0.230238
0.225218
0.221308
0.21845
0.216532
0.215396
0.214852
0.214689
0.21471
0.214767
0.214821
0.21496
0.21537
0.216286
0.217955
0.220609
0.224454
0.22966
0.236356
0.244618
0.25445
0.265758
0.278281
0.291403
0.303034
0.308323
0.240785
0.238708
0.23547
0.231884
0.228527
0.22578
0.223883
0.222967
0.223081
0.224193
0.226196
0.228889
0.23195
0.234877
0.236882
0.236725
0.232722
0.226863
0.220412
0.214141
0.208531
0.203894
0.200451
0.198379
0.197844
0.199018
0.202099
0.207313
0.214917
0.225191
0.238432
0.254949
0.275059
0.299081
0.327308
0.359943
0.396887
0.436743
0.468985
0.490636
0.508343
0.52365
0.536694
0.547587
0.556423
0.563278
0.568208
0.571258
0.572454
0.571813
0.569335
0.56501
0.558813
0.550706
0.540637
0.528536
0.514321
0.497887
0.47912
0.455704
0.421142
0.380662
0.343651
0.311122
0.283054
0.259202
0.23925
0.22286
0.209686
0.199379
0.191597
0.186019
0.182367
0.180425
0.180033
0.181093
0.183549
0.187393
0.192646
0.19936
0.207596
0.217411
0.228818
0.241732
0.255862
0.270349
0.28159
0.286492
0.28773
0.284374
0.27571
0.266143
0.257064
0.24897
0.242091
0.236523
0.232275
0.229281
0.227415
0.226487
0.226253
0.226426
0.226707
0.226861
0.226806
0.226686
0.226783
0.227429
0.228943
0.231607
0.235654
0.24127
0.248589
0.257687
0.268569
0.281124
0.295026
0.309368
0.320252
0.323959
0.263775
0.260114
0.255035
0.249792
0.245099
0.241372
0.238855
0.237679
0.237887
0.239446
0.242249
0.246099
0.250674
0.255443
0.259471
0.260828
0.254311
0.245778
0.236997
0.228818
0.2217
0.215916
0.211652
0.20906
0.208281
0.209469
0.212804
0.218493
0.226771
0.237902
0.252168
0.26987
0.291318
0.316821
0.346647
0.380899
0.419027
0.456992
0.48329
0.502253
0.518935
0.533442
0.545858
0.55626
0.564715
0.571281
0.576003
0.578915
0.580039
0.579388
0.576962
0.572752
0.566738
0.558888
0.54916
0.537501
0.523847
0.508123
0.490243
0.469834
0.440761
0.400841
0.362497
0.328286
0.298546
0.273121
0.251719
0.234007
0.219646
0.208297
0.199636
0.193359
0.189201
0.186945
0.186433
0.187561
0.19028
0.194586
0.200515
0.20813
0.217512
0.228726
0.241792
0.256612
0.272784
0.288865
0.299234
0.304019
0.305872
0.304708
0.296981
0.286262
0.275883
0.266633
0.25882
0.25258
0.247936
0.244827
0.243111
0.242563
0.242868
0.243627
0.244379
0.24471
0.244438
0.243841
0.24338
0.243538
0.24474
0.247328
0.251567
0.257655
0.265728
0.275857
0.288033
0.3021
0.317536
0.332457
0.340327
0.343021
0.295706
0.289046
0.281182
0.273677
0.267245
0.262269
0.25897
0.257463
0.257783
0.259888
0.263671
0.268938
0.275385
0.282462
0.288879
0.28949
0.28224
0.270447
0.258772
0.248249
0.239281
0.232083
0.226799
0.223544
0.222437
0.223607
0.227212
0.233439
0.242502
0.254646
0.270141
0.289275
0.312344
0.339629
0.371347
0.407443
0.446537
0.477797
0.498556
0.51612
0.531701
0.545326
0.557037
0.566879
0.574897
0.581129
0.585609
0.58836
0.5894
0.588738
0.586373
0.582299
0.576498
0.568947
0.559614
0.548461
0.535443
0.520514
0.50363
0.48477
0.461486
0.426394
0.386519
0.350287
0.318526
0.29119
0.268029
0.248722
0.232936
0.22034
0.210622
0.203496
0.198712
0.196064
0.195398
0.196617
0.199675
0.204575
0.211361
0.220109
0.230904
0.24382
0.258873
0.275936
0.294416
0.310902
0.319525
0.324431
0.326886
0.327013
0.322888
0.312032
0.300397
0.289856
0.280966
0.273955
0.268887
0.265721
0.264313
0.264402
0.265594
0.267344
0.268933
0.269612
0.268896
0.267436
0.266018
0.265354
0.266002
0.268368
0.272745
0.279331
0.288252
0.299553
0.313191
0.328918
0.345724
0.35792
0.362595
0.364764
0.331084
0.3246
0.31386
0.303784
0.295346
0.288914
0.284699
0.282805
0.283256
0.285998
0.290898
0.297741
0.306171
0.315267
0.320567
0.319
0.313722
0.300391
0.285849
0.272773
0.261719
0.25289
0.246404
0.24235
0.240822
0.241931
0.245811
0.252627
0.262575
0.275883
0.292805
0.313608
0.338556
0.367864
0.401586
0.439089
0.47448
0.49787
0.515773
0.53197
0.546424
0.559124
0.570084
0.579322
0.586863
0.592729
0.596942
0.599516
0.600464
0.59979
0.597495
0.593571
0.588008
0.580788
0.571889
0.561286
0.548951
0.534859
0.518992
0.501346
0.481813
0.454407
0.41537
0.377348
0.343342
0.3138
0.288593
0.267437
0.250007
0.235982
0.225058
0.216965
0.211467
0.208373
0.207541
0.208881
0.212356
0.217973
0.225782
0.235862
0.2483
0.263165
0.280441
0.299854
0.32017
0.334842
0.342279
0.347293
0.35023
0.351205
0.350282
0.34332
0.330925
0.319071
0.308996
0.301135
0.295633
0.292497
0.291598
0.292661
0.29522
0.298578
0.301633
0.303073
0.301388
0.298418
0.295452
0.293504
0.293285
0.295245
0.299677
0.306766
0.3166
0.329142
0.344248
0.361267
0.376621
0.383656
0.386973
0.388676
0.364419
0.361811
0.35206
0.34
0.3296
0.321619
0.316401
0.314078
0.314693
0.31815
0.324253
0.332647
0.342659
0.351232
0.352179
0.349944
0.346135
0.335039
0.318279
0.302684
0.289415
0.278789
0.27094
0.265959
0.263924
0.264929
0.269089
0.27655
0.287488
0.302111
0.320655
0.343361
0.370427
0.401916
0.437432
0.474516
0.500411
0.518337
0.534693
0.549565
0.562898
0.574664
0.584852
0.593463
0.600504
0.605984
0.609913
0.612299
0.613149
0.612464
0.610244
0.606484
0.601176
0.594308
0.585868
0.575842
0.564215
0.55098
0.536134
0.519688
0.501664
0.480819
0.44934
0.409839
0.373382
0.341374
0.313863
0.290619
0.271338
0.255712
0.243449
0.234289
0.228011
0.224439
0.223443
0.224944
0.228912
0.235359
0.244338
0.255924
0.2702
0.287217
0.306899
0.328685
0.349118
0.360309
0.367183
0.372232
0.375537
0.377218
0.377442
0.375435
0.366963
0.354458
0.343231
0.334492
0.328558
0.325547
0.325374
0.327791
0.332264
0.338041
0.343374
0.346483
0.342772
0.337446
0.332197
0.328425
0.327006
0.328369
0.332771
0.340357
0.351151
0.364889
0.381159
0.3979
0.406695
0.410387
0.412964
0.41429
0.397096
0.3967
0.392704
0.381739
0.370039
0.360569
0.354324
0.351545
0.352373
0.356617
0.363922
0.37349
0.383477
0.386301
0.384711
0.382304
0.378907
0.37231
0.356034
0.338284
0.322778
0.310227
0.300874
0.294847
0.292225
0.293093
0.297552
0.305725
0.317764
0.333856
0.354212
0.379038
0.408417
0.442112
0.478482
0.505929
0.524078
0.540197
0.555096
0.568697
0.580939
0.591781
0.601198
0.609175
0.615706
0.620789
0.624426
0.626619
0.627368
0.626673
0.624533
0.620944
0.615902
0.609401
0.601434
0.591998
0.581089
0.568711
0.554876
0.539606
0.522939
0.504927
0.482034
0.447063
0.40882
0.374318
0.344321
0.318773
0.297441
0.280043
0.266304
0.255977
0.248856
0.244778
0.243627
0.245333
0.249872
0.25726
0.267547
0.280799
0.297076
0.316376
0.33846
0.362015
0.378807
0.387352
0.393908
0.398917
0.402468
0.404686
0.40574
0.405859
0.403379
0.39527
0.383643
0.374183
0.367856
0.365066
0.365781
0.369862
0.376562
0.38516
0.391604
0.393404
0.391278
0.384056
0.376222
0.370196
0.367366
0.368004
0.372303
0.380346
0.392123
0.406617
0.422627
0.431757
0.435386
0.438215
0.440204
0.441231
0.430167
0.429995
0.429717
0.425539
0.416012
0.405622
0.398496
0.39521
0.396342
0.401376
0.409492
0.418177
0.421377
0.419922
0.418056
0.415656
0.412585
0.408721
0.398518
0.379796
0.362217
0.347662
0.336681
0.329504
0.326227
0.326937
0.331727
0.340696
0.353956
0.371662
0.39398
0.42106
0.45266
0.487285
0.514872
0.533189
0.548705
0.563275
0.576798
0.589189
0.600381
0.610324
0.618983
0.626332
0.632354
0.637041
0.640385
0.642382
0.643031
0.642328
0.640271
0.636858
0.632088
0.625959
0.61847
0.609625
0.599431
0.5879
0.575053
0.560923
0.545556
0.529015
0.511353
0.486599
0.449571
0.413027
0.380483
0.352448
0.328868
0.309522
0.29416
0.282555
0.274518
0.2699
0.268598
0.270553
0.275742
0.284185
0.295921
0.310993
0.329408
0.35103
0.375156
0.397187
0.40854
0.416023
0.42218
0.427058
0.430733
0.433319
0.434972
0.435897
0.43636
0.434603
0.428817
0.419678
0.413284
0.410868
0.4124
0.417994
0.425785
0.430772
0.433053
0.433211
0.433496
0.431177
0.425842
0.418064
0.414155
0.414091
0.418225
0.426464
0.438877
0.451217
0.458992
0.462104
0.464729
0.466883
0.468408
0.469197
0.46341
0.463379
0.463387
0.463561
0.460778
0.455066
0.448025
0.444193
0.445718
0.450984
0.455521
0.457368
0.45564
0.453868
0.451936
0.44968
0.446993
0.443823
0.43936
0.426754
0.407991
0.391502
0.378812
0.370424
0.366439
0.366982
0.37216
0.382027
0.396622
0.416045
0.440328
0.469525
0.501993
0.528139
0.545823
0.560375
0.574279
0.587401
0.599631
0.610879
0.621072
0.630152
0.638078
0.644815
0.650339
0.654635
0.65769
0.659495
0.660045
0.659335
0.657364
0.65413
0.649633
0.643875
0.636863
0.628603
0.61911
0.608404
0.596514
0.583477
0.569346
0.554185
0.538071
0.520773
0.49491
0.457817
0.422856
0.392203
0.366201
0.344735
0.327594
0.314585
0.305542
0.300336
0.298881
0.301125
0.307047
0.31666
0.329989
0.34703
0.367667
0.391426
0.416214
0.431244
0.439223
0.446018
0.451733
0.456401
0.460086
0.462885
0.464931
0.466397
0.467503
0.46852
0.468518
0.466014
0.462897
0.461351
0.462891
0.46569
0.467967
0.468184
0.467721
0.467889
0.468664
0.470105
0.47012
0.468231
0.465768
0.46529
0.469174
0.476301
0.483303
0.488332
0.490441
0.492567
0.494543
0.496181
0.497348
0.497953
0.496683
0.496725
0.496858
0.497184
0.497863
0.497391
0.495338
0.493692
0.493623
0.494311
0.493796
0.491616
0.489745
0.487974
0.486141
0.484133
0.481884
0.479378
0.476654
0.471669
0.459131
0.441832
0.427561
0.418048
0.413329
0.413698
0.419349
0.430247
0.446236
0.467359
0.4931
0.523008
0.546041
0.562002
0.575276
0.588209
0.600635
0.612419
0.623446
0.633623
0.642874
0.651136
0.658361
0.66451
0.669554
0.673471
0.676244
0.677863
0.678318
0.677605
0.67572
0.672664
0.668438
0.663047
0.656502
0.648814
0.640002
0.630093
0.61912
0.607126
0.594166
0.580306
0.565623
0.550201
0.533262
0.507502
0.471622
0.438489
0.410006
0.386295
0.367219
0.352671
0.342517
0.336659
0.335037
0.337608
0.344342
0.355233
0.37029
0.389405
0.412214
0.437274
0.455236
0.463996
0.470983
0.477094
0.482334
0.486728
0.490326
0.493204
0.495469
0.497258
0.498733
0.500086
0.501514
0.503136
0.50354
0.503518
0.503824
0.503555
0.502433
0.501803
0.501634
0.501959
0.502796
0.504184
0.506171
0.508575
0.509653
0.510981
0.513598
0.516757
0.5187
0.519993
0.521557
0.523181
0.524693
0.52595
0.526848
0.527315
0.529914
0.529979
0.530136
0.530435
0.530932
0.531636
0.532435
0.532436
0.531313
0.529295
0.52727
0.525432
0.523751
0.522143
0.520521
0.518827
0.517032
0.51515
0.513243
0.511435
0.507274
0.497391
0.482628
0.472611
0.467149
0.467323
0.473572
0.485669
0.502839
0.525087
0.549673
0.568425
0.581624
0.593366
0.605072
0.616549
0.627634
0.638192
0.648111
0.657295
0.665665
0.673157
0.679719
0.685309
0.689895
0.693449
0.695954
0.697394
0.697761
0.697046
0.695248
0.692367
0.688407
0.683375
0.677283
0.670148
0.661993
0.652846
0.642746
0.63174
0.619886
0.607251
0.593916
0.579971
0.565523
0.549452
0.525178
0.491257
0.460686
0.434785
0.413648
0.397439
0.386056
0.37946
0.377649
0.380585
0.388196
0.40043
0.417281
0.438333
0.462168
0.481135
0.490843
0.497539
0.50362
0.509039
0.51378
0.517852
0.521285
0.524136
0.526485
0.528431
0.530088
0.531575
0.532991
0.534363
0.535554
0.536245
0.536109
0.535644
0.535185
0.534961
0.535054
0.535516
0.536377
0.537659
0.53937
0.541476
0.543908
0.546216
0.547841
0.548958
0.550097
0.551313
0.552613
0.553909
0.555096
0.556079
0.55678
0.557143
0.563081
0.563141
0.563272
0.563489
0.563791
0.564134
0.564369
0.564169
0.563333
0.562018
0.560549
0.55909
0.557686
0.556323
0.554975
0.553622
0.552267
0.550945
0.549733
0.548758
0.548212
0.546414
0.540992
0.533224
0.527203
0.527254
0.534164
0.547409
0.564205
0.580551
0.594329
0.604407
0.614465
0.624766
0.635098
0.64528
0.655159
0.664606
0.673511
0.681779
0.689334
0.696109
0.70205
0.707114
0.711266
0.714478
0.716728
0.718
0.718283
0.717571
0.715859
0.71315
0.709448
0.704763
0.699108
0.692503
0.684974
0.676552
0.667279
0.657204
0.646386
0.634897
0.622818
0.610246
0.597293
0.584095
0.569727
0.548227
0.517907
0.490583
0.467359
0.449474
0.436748
0.429298
0.427261
0.430611
0.439136
0.452616
0.471126
0.492962
0.510567
0.520135
0.526069
0.531698
0.536918
0.541662
0.545897
0.549613
0.552826
0.555571
0.557904
0.559892
0.561612
0.563135
0.564513
0.565746
0.566761
0.567434
0.567694
0.567719
0.567703
0.567801
0.568106
0.568674
0.569537
0.570707
0.572173
0.573888
0.575747
0.57753
0.579025
0.580264
0.581416
0.582549
0.583672
0.584744
0.585705
0.586491
0.587047
0.587336
0.596188
0.596233
0.596323
0.596456
0.596611
0.596738
0.596734
0.596455
0.595822
0.594897
0.593819
0.592694
0.591578
0.590489
0.589433
0.588419
0.587469
0.586632
0.585987
0.585653
0.585797
0.586646
0.587981
0.587344
0.587174
0.589587
0.595514
0.604135
0.613668
0.622204
0.629863
0.638234
0.647061
0.656135
0.665273
0.674313
0.683117
0.691563
0.699547
0.706978
0.713782
0.719893
0.725258
0.729831
0.733578
0.736468
0.738479
0.739594
0.739802
0.739094
0.737468
0.734926
0.731473
0.72712
0.721883
0.715783
0.708847
0.70111
0.692613
0.683409
0.673558
0.663132
0.652213
0.640901
0.629309
0.617574
0.605858
0.593843
0.57622
0.552796
0.528163
0.509107
0.494974
0.486513
0.484208
0.488048
0.497464
0.511468
0.530446
0.544186
0.552032
0.556802
0.561599
0.566267
0.570692
0.574795
0.578531
0.581877
0.584834
0.587419
0.589667
0.591622
0.593332
0.594842
0.596179
0.597346
0.598311
0.599035
0.599514
0.599833
0.600106
0.600435
0.600895
0.601537
0.602389
0.603458
0.604728
0.606156
0.607663
0.609131
0.610465
0.611656
0.612755
0.613796
0.614782
0.615692
0.616489
0.617132
0.617583
0.617816
0.62925
0.629278
0.629331
0.629399
0.62946
0.629472
0.629373
0.629095
0.628604
0.627928
0.627134
0.62629
0.625443
0.624622
0.62385
0.62315
0.622558
0.622126
0.621929
0.622069
0.622677
0.623913
0.625946
0.629014
0.63279
0.636759
0.64122
0.645966
0.651201
0.657348
0.664196
0.671607
0.67941
0.68744
0.695545
0.703584
0.711433
0.718982
0.726134
0.732806
0.738923
0.744424
0.749256
0.753376
0.756746
0.759337
0.761127
0.762097
0.762236
0.761535
0.759994
0.757612
0.754398
0.750362
0.745521
0.739898
0.733521
0.726426
0.718656
0.710262
0.701306
0.691858
0.682002
0.671835
0.661468
0.651035
0.640689
0.630615
0.620992
0.608392
0.592767
0.575297
0.560099
0.550671
0.548047
0.552263
0.56219
0.573342
0.581836
0.586514
0.589788
0.593442
0.597259
0.601079
0.604786
0.608297
0.611556
0.614532
0.617213
0.619604
0.621724
0.623597
0.625253
0.62672
0.628016
0.629146
0.630104
0.630881
0.631495
0.631995
0.632452
0.632936
0.633503
0.634191
0.635024
0.636007
0.637125
0.638346
0.639616
0.640868
0.642049
0.643141
0.644153
0.645096
0.645967
0.646752
0.647427
0.647964
0.648337
0.648529
0.662284
0.662299
0.662325
0.662351
0.662358
0.662317
0.662192
0.661948
0.66157
0.661076
0.660501
0.65989
0.659281
0.658706
0.658193
0.657774
0.657488
0.657386
0.657534
0.658016
0.65893
0.660382
0.662473
0.665264
0.668649
0.672461
0.67659
0.681123
0.686156
0.69179
0.697966
0.704587
0.711531
0.718671
0.725882
0.733044
0.740049
0.746798
0.753203
0.759186
0.76468
0.769624
0.773968
0.777669
0.780692
0.783008
0.784593
0.785431
0.785508
0.784818
0.783358
0.781131
0.778144
0.774408
0.769941
0.764767
0.758914
0.752418
0.745322
0.737678
0.729545
0.720993
0.712102
0.702967
0.693695
0.684408
0.67525
0.666386
0.65801
0.650353
0.642785
0.633583
0.62473
0.618137
0.615199
0.615933
0.618946
0.622098
0.623179
0.624837
0.627164
0.629919
0.632915
0.636005
0.639077
0.642049
0.644863
0.64748
0.649882
0.652062
0.654026
0.655788
0.657363
0.65877
0.660019
0.66112
0.662076
0.662892
0.663588
0.664199
0.664773
0.665355
0.665988
0.6667
0.66751
0.66842
0.66942
0.670488
0.671586
0.672675
0.67372
0.674704
0.675621
0.676468
0.67724
0.677924
0.678503
0.678959
0.679274
0.679435
0.695303
0.69531
0.695319
0.695321
0.695304
0.695247
0.695129
0.694933
0.694654
0.694304
0.693905
0.693488
0.693086
0.692727
0.692443
0.692265
0.692234
0.692395
0.692806
0.693532
0.694644
0.696214
0.698299
0.700921
0.704036
0.707571
0.71148
0.71578
0.720509
0.72569
0.731291
0.737243
0.743457
0.749833
0.756267
0.762661
0.76892
0.774957
0.780694
0.786057
0.790986
0.795423
0.799322
0.802641
0.805346
0.807409
0.808808
0.809525
0.809548
0.808871
0.807491
0.805411
0.802638
0.799185
0.795069
0.790314
0.784949
0.779009
0.772536
0.765582
0.758202
0.750465
0.742448
0.734238
0.725935
0.717652
0.709516
0.701671
0.694276
0.6875
0.681505
0.676571
0.672467
0.668784
0.665911
0.663837
0.662102
0.661265
0.661483
0.662494
0.66411
0.666155
0.668476
0.670948
0.673468
0.67596
0.678366
0.680645
0.682773
0.684736
0.686532
0.688165
0.689643
0.690975
0.692172
0.69324
0.694186
0.695022
0.695765
0.696441
0.697084
0.697725
0.698393
0.699112
0.699894
0.700742
0.701649
0.702598
0.703566
0.704526
0.705454
0.706335
0.707158
0.707915
0.708599
0.709199
0.709702
0.710094
0.710364
0.710501
0.728315
0.728317
0.728319
0.728312
0.728289
0.728237
0.728144
0.728002
0.727811
0.727579
0.727325
0.727072
0.726846
0.726674
0.726585
0.726611
0.726787
0.727156
0.727763
0.72866
0.7299
0.731531
0.733589
0.736085
0.739003
0.742308
0.745978
0.75001
0.754408
0.75917
0.764264
0.769638
0.775222
0.780934
0.786693
0.792413
0.798014
0.803418
0.808556
0.813364
0.817783
0.821762
0.825256
0.828227
0.830643
0.832475
0.833704
0.834312
0.834288
0.833626
0.832323
0.830383
0.827812
0.824624
0.820837
0.816472
0.811559
0.806133
0.800234
0.79391
0.787217
0.780219
0.772986
0.765601
0.758155
0.750748
0.743492
0.736507
0.729922
0.723865
0.718457
0.713803
0.709861
0.706563
0.703809
0.701578
0.699976
0.699104
0.698994
0.699544
0.700627
0.702115
0.703888
0.705841
0.707888
0.709958
0.711996
0.713962
0.715828
0.717577
0.7192
0.720696
0.722067
0.723317
0.724453
0.72548
0.726408
0.727246
0.728009
0.728718
0.729396
0.730066
0.730749
0.731461
0.732213
0.733006
0.733835
0.73469
0.735553
0.736408
0.737236
0.738023
0.73876
0.739436
0.740043
0.740572
0.741012
0.741353
0.741586
0.741705
0.761325
0.761326
0.761326
0.76132
0.761303
0.761268
0.761208
0.76112
0.761007
0.760877
0.760745
0.76063
0.760553
0.760538
0.760613
0.760805
0.761149
0.761677
0.76243
0.763446
0.764765
0.766422
0.768439
0.770828
0.77358
0.776681
0.780115
0.783873
0.787945
0.792317
0.796958
0.801824
0.806856
0.811991
0.817157
0.822284
0.827303
0.832145
0.83675
0.841059
0.845019
0.848584
0.851713
0.854369
0.856522
0.858146
0.859221
0.859732
0.859667
0.859022
0.857793
0.855985
0.853604
0.850664
0.847181
0.843178
0.838683
0.833729
0.828355
0.822607
0.816538
0.810205
0.803677
0.797027
0.790336
0.783694
0.777196
0.770944
0.765039
0.759581
0.754655
0.750322
0.746582
0.74341
0.740771
0.738662
0.737119
0.736181
0.735847
0.736061
0.73674
0.73779
0.739119
0.740642
0.742285
0.743987
0.745698
0.747378
0.748999
0.750543
0.751996
0.753353
0.754612
0.755774
0.756842
0.757821
0.758719
0.759543
0.760307
0.761026
0.761716
0.762394
0.763075
0.763772
0.76449
0.765233
0.765996
0.766772
0.76755
0.768316
0.769058
0.769763
0.770422
0.771026
0.771566
0.772034
0.772421
0.77272
0.772923
0.773026
0.794334
0.794336
0.794339
0.79434
0.794336
0.794323
0.794299
0.794263
0.794221
0.794178
0.794149
0.794149
0.794196
0.794313
0.794522
0.79485
0.795324
0.795975
0.796832
0.797929
0.799293
0.800951
0.802919
0.805206
0.80781
0.810721
0.813928
0.81742
0.821182
0.825195
0.829428
0.833842
0.838389
0.843015
0.84766
0.852264
0.856767
0.861111
0.86524
0.869102
0.872651
0.875844
0.878642
0.881013
0.882929
0.884365
0.885302
0.885726
0.885628
0.885
0.883843
0.882159
0.879956
0.877246
0.874046
0.870377
0.866266
0.861745
0.856851
0.851626
0.846121
0.840388
0.83449
0.828492
0.822468
0.816495
0.810655
0.805032
0.79971
0.794765
0.790262
0.786246
0.782734
0.779723
0.777204
0.775178
0.773658
0.772653
0.772151
0.772114
0.772482
0.773186
0.774155
0.775322
0.776624
0.778008
0.77943
0.780853
0.782249
0.783599
0.784888
0.786108
0.787254
0.788324
0.78932
0.790244
0.791103
0.791902
0.792651
0.793362
0.794047
0.794718
0.795386
0.79606
0.796743
0.797439
0.798144
0.798853
0.799558
0.800249
0.800916
0.801549
0.802139
0.802679
0.80316
0.803576
0.803919
0.804182
0.804361
0.804451
0.82734
0.827345
0.827354
0.827366
0.827378
0.82739
0.827402
0.827414
0.827433
0.827466
0.827523
0.827619
0.82777
0.827995
0.828313
0.828749
0.829324
0.830065
0.830997
0.832143
0.833528
0.835169
0.837081
0.839268
0.841732
0.844465
0.847458
0.850698
0.85417
0.857851
0.861716
0.865727
0.869844
0.87402
0.878204
0.882345
0.886391
0.890291
0.893995
0.897459
0.900639
0.903498
0.905999
0.908114
0.909816
0.911082
0.911896
0.912244
0.912117
0.911509
0.91042
0.908852
0.906814
0.904318
0.901379
0.898017
0.894259
0.890134
0.885676
0.880927
0.875931
0.870737
0.865402
0.859984
0.854549
0.849163
0.843897
0.838821
0.834003
0.829506
0.825382
0.821668
0.818386
0.815544
0.813144
0.811189
0.809682
0.808621
0.807991
0.807761
0.807887
0.808317
0.808995
0.809867
0.810881
0.811992
0.813161
0.814354
0.815546
0.816716
0.81785
0.818937
0.819971
0.820949
0.821869
0.822734
0.823545
0.82431
0.825034
0.825725
0.826393
0.827046
0.827692
0.828337
0.828985
0.829636
0.830289
0.830939
0.83158
0.832206
0.832807
0.833377
0.833907
0.834391
0.834821
0.835191
0.835495
0.835729
0.835887
0.835967
0.860342
0.86035
0.860366
0.86039
0.86042
0.860457
0.860503
0.86056
0.860633
0.860729
0.860859
0.861035
0.86127
0.861582
0.861988
0.862507
0.863159
0.863965
0.864945
0.86612
0.867506
0.869118
0.870966
0.873055
0.875384
0.877948
0.880739
0.883744
0.886946
0.890326
0.893856
0.897507
0.90124
0.905016
0.908792
0.912522
0.916162
0.919666
0.922992
0.926099
0.928949
0.931508
0.933743
0.935628
0.937137
0.938252
0.938956
0.939237
0.939086
0.938499
0.937474
0.936016
0.934132
0.931833
0.929134
0.926054
0.922619
0.918854
0.914794
0.910475
0.905938
0.901228
0.896396
0.891494
0.88658
0.881711
0.876948
0.872351
0.867976
0.863875
0.860091
0.856658
0.853597
0.850922
0.848639
0.846752
0.845261
0.844158
0.84343
0.843052
0.842989
0.8432
0.843641
0.844269
0.845041
0.845918
0.846866
0.847856
0.848864
0.84987
0.850859
0.85182
0.852745
0.853631
0.854474
0.855275
0.856035
0.856758
0.857448
0.858111
0.858753
0.859381
0.859999
0.860612
0.861223
0.861831
0.862435
0.863033
0.863618
0.864187
0.864731
0.865245
0.865722
0.866156
0.866541
0.866872
0.867143
0.867351
0.867491
0.867562
0.893335
0.893347
0.893371
0.893407
0.893455
0.893516
0.893593
0.893689
0.893808
0.893959
0.894149
0.89439
0.894694
0.895076
0.895549
0.896132
0.89684
0.89769
0.8987
0.899885
0.901258
0.902831
0.904611
0.906601
0.908801
0.911206
0.913807
0.916592
0.919546
0.922649
0.925878
0.929203
0.932593
0.936013
0.939424
0.942789
0.946067
0.949219
0.952208
0.954997
0.957551
0.959841
0.961838
0.963516
0.964854
0.965833
0.96644
0.966662
0.966491
0.965925
0.964962
0.963606
0.961865
0.959747
0.957269
0.954448
0.951307
0.947871
0.944171
0.940241
0.936117
0.931842
0.927459
0.923017
0.918564
0.914153
0.909835
0.905659
0.901675
0.897926
0.894449
0.891274
0.888422
0.885908
0.883739
0.88192
0.880449
0.879321
0.87852
0.878028
0.877816
0.877852
0.878101
0.878527
0.879096
0.879773
0.88053
0.881341
0.882184
0.88304
0.883895
0.884737
0.885559
0.886355
0.887122
0.887858
0.888563
0.889239
0.88989
0.890518
0.891129
0.891725
0.892311
0.89289
0.893463
0.894029
0.894589
0.895138
0.895674
0.896191
0.896685
0.89715
0.89758
0.89797
0.898316
0.898612
0.898854
0.89904
0.899165
0.899228
0.926317
0.926333
0.926364
0.926412
0.926476
0.92656
0.926664
0.926794
0.926953
0.927149
0.927389
0.927683
0.928041
0.928477
0.929002
0.929631
0.930378
0.931256
0.93228
0.933461
0.934811
0.936337
0.938045
0.939938
0.942013
0.944266
0.94669
0.949271
0.951997
0.954847
0.957802
0.960834
0.963916
0.967017
0.970104
0.973143
0.976098
0.978936
0.981624
0.984128
0.986418
0.988468
0.990251
0.991744
0.992929
0.993787
0.994307
0.994478
0.994293
0.993748
0.992843
0.991583
0.989972
0.988023
0.985747
0.983162
0.980289
0.977152
0.973778
0.970199
0.966448
0.962563
0.958583
0.95455
0.950508
0.946503
0.942577
0.938776
0.93514
0.931706
0.928506
0.925567
0.92291
0.920548
0.91849
0.91674
0.915297
0.914155
0.913303
0.912724
0.912395
0.912291
0.912384
0.912644
0.913041
0.913549
0.914141
0.914795
0.91549
0.916211
0.916943
0.917676
0.9184
0.919109
0.9198
0.920471
0.921119
0.921746
0.922353
0.922943
0.923518
0.924079
0.924631
0.925174
0.925708
0.926235
0.926752
0.927257
0.927748
0.92822
0.928668
0.929089
0.929477
0.929829
0.93014
0.930406
0.930623
0.930789
0.930901
0.930957
0.959283
0.959302
0.959341
0.959399
0.959479
0.959582
0.959711
0.959869
0.960062
0.960294
0.960574
0.96091
0.961311
0.961788
0.962351
0.963013
0.963784
0.964677
0.965702
0.966869
0.968187
0.969661
0.971295
0.973091
0.975047
0.977157
0.979414
0.981807
0.984322
0.986942
0.989648
0.992416
0.995221
0.998036
1.00083
1.00358
1.00625
1.0088
1.01122
1.01347
1.01553
1.01736
1.01895
1.02028
1.02133
1.02208
1.02252
1.02265
1.02245
1.02193
1.02108
1.01991
1.01842
1.01662
1.01453
1.01216
1.00954
1.00667
1.00359
1.00033
0.996914
0.993378
0.989758
0.986092
0.982416
0.978771
0.975196
0.971728
0.968402
0.96525
0.962302
0.95958
0.957103
0.954884
0.952932
0.951252
0.949842
0.948699
0.947812
0.947168
0.946749
0.946534
0.9465
0.946622
0.946876
0.947239
0.947689
0.948206
0.948772
0.949371
0.949992
0.950622
0.951254
0.951882
0.9525
0.953105
0.953696
0.954273
0.954835
0.955383
0.955919
0.956444
0.956959
0.957465
0.957962
0.95845
0.958927
0.959392
0.959841
0.960271
0.960679
0.96106
0.961412
0.961729
0.962009
0.962248
0.962443
0.962592
0.962692
0.962743
0.99223
0.992252
0.992297
0.992366
0.992459
0.992578
0.992728
0.99291
0.99313
0.993393
0.993704
0.994073
0.994506
0.995013
0.995602
0.996285
0.997069
0.997966
0.998982
1.00013
1.00141
1.00282
1.00438
1.00609
1.00793
1.0099
1.012
1.01422
1.01654
1.01895
1.02143
1.02396
1.02652
1.02907
1.03161
1.0341
1.03651
1.03881
1.04099
1.04301
1.04486
1.0465
1.04792
1.0491
1.05003
1.05068
1.05106
1.05115
1.05094
1.05044
1.04964
1.04855
1.04717
1.04552
1.0436
1.04143
1.03902
1.0364
1.03359
1.03061
1.0275
1.02428
1.02098
1.01764
1.01429
1.01097
1.00771
1.00454
1.00149
0.998592
0.995871
0.993347
0.991037
0.988953
0.987104
0.985493
0.984122
0.982987
0.982079
0.981388
0.9809
0.980596
0.980459
0.980468
0.980603
0.980843
0.981171
0.981569
0.98202
0.982511
0.98303
0.983567
0.984113
0.984663
0.985211
0.985754
0.986289
0.986814
0.98733
0.987836
0.988332
0.988818
0.989296
0.989766
0.990226
0.990676
0.991115
0.991541
0.991952
0.992344
0.992715
0.993061
0.99338
0.993667
0.993919
0.994135
0.99431
0.994444
0.994534
0.994579
1.02516
1.02518
1.02523
1.02531
1.02541
1.02555
1.02571
1.02591
1.02616
1.02644
1.02678
1.02717
1.02763
1.02815
1.02876
1.02945
1.03024
1.03113
1.03213
1.03325
1.03449
1.03585
1.03733
1.03894
1.04067
1.04252
1.04448
1.04653
1.04867
1.05089
1.05316
1.05548
1.05781
1.06013
1.06244
1.06469
1.06687
1.06895
1.07091
1.07273
1.07438
1.07586
1.07712
1.07817
1.07899
1.07956
1.07988