/*--------------------------------*- C++ -*----------------------------------*\
| =========                 |                                                 |
| \\      /  F ield         | OpenFOAM: The Open Source CFD Toolbox           |
|  \\    /   O peration     | Version:  2406                                  |
|   \\  /    A nd           | Website:  www.openfoam.com                      |
|    \\/     M anipulation  |                                                 |
\*---------------------------------------------------------------------------*/
FoamFile
{
    version     2.0;
    format      ascii;
    arch        "LSB;label=32;scalar=64";
    class       volScalarField;
    location    "10";
    object      C_0_0;
}
// * * * * * * * * * * * * * * * * * * * * * * * * * * * * * * * * * * * * * //

dimensions      [1 -3 0 0 0 0 0];

internalField   nonuniform List<scalar> 
14400
(
0.211291
0.21059
0.209345
0.207803
0.206223
0.204835
0.20381
0.203257
0.203212
0.203648
0.204464
0.205485
0.206467
0.207101
0.207057
0.206057
0.204006
0.201082
0.197623
0.194007
0.190579
0.187628
0.185396
0.184089
0.183897
0.185016
0.187663
0.19209
0.198587
0.207475
0.219083
0.233738
0.25176
0.27346
0.299133
0.32902
0.363215
0.401388
0.441622
0.471912
0.491891
0.508593
0.522707
0.534426
0.543893
0.551221
0.556492
0.559764
0.561078
0.560453
0.557892
0.553381
0.546888
0.538362
0.52773
0.514892
0.499721
0.482046
0.460863
0.429269
0.388318
0.34998
0.315864
0.286171
0.260759
0.239362
0.221671
0.207349
0.196033
0.187338
0.180882
0.176322
0.173385
0.171869
0.171634
0.172585
0.174668
0.177858
0.182153
0.187567
0.194124
0.201837
0.210686
0.220562
0.231198
0.241999
0.251573
0.257028
0.256199
0.25122
0.244476
0.237391
0.230601
0.224447
0.219112
0.214675
0.21114
0.208457
0.206533
0.205248
0.204464
0.204042
0.203862
0.203847
0.203979
0.204313
0.204961
0.206079
0.207844
0.210437
0.214032
0.21878
0.224799
0.23216
0.240861
0.250797
0.261706
0.27307
0.28381
0.290761
0.215794
0.214922
0.213403
0.21156
0.209708
0.208107
0.206944
0.206334
0.206318
0.206866
0.207876
0.209166
0.21047
0.211436
0.211651
0.210717
0.208445
0.205127
0.201227
0.197197
0.193419
0.190194
0.187764
0.18633
0.186082
0.187212
0.189935
0.1945
0.201192
0.210324
0.222218
0.237196
0.25558
0.277683
0.303806
0.334198
0.368943
0.407543
0.446855
0.475404
0.494725
0.511179
0.525104
0.536677
0.546033
0.553278
0.55849
0.561723
0.563017
0.562389
0.559842
0.555363
0.548922
0.540469
0.529935
0.517227
0.502223
0.484764
0.464342
0.434228
0.393829
0.355131
0.320498
0.290302
0.264426
0.242605
0.224524
0.209845
0.19821
0.189242
0.182565
0.177839
0.174789
0.173206
0.172947
0.173917
0.176061
0.179356
0.183805
0.18943
0.196262
0.204324
0.213604
0.224009
0.235284
0.246834
0.25696
0.262332
0.262069
0.256847
0.249604
0.242051
0.234851
0.228355
0.222749
0.218112
0.214448
0.211702
0.209774
0.208533
0.207821
0.207478
0.207359
0.207366
0.207475
0.20775
0.208326
0.209383
0.211123
0.213742
0.217426
0.222334
0.228587
0.236258
0.245349
0.255759
0.267227
0.279203
0.290389
0.29698
0.225304
0.224027
0.221893
0.2194
0.216972
0.214926
0.213477
0.212749
0.212787
0.213562
0.214966
0.216808
0.21879
0.220484
0.221312
0.220579
0.217761
0.213544
0.208686
0.20379
0.199292
0.195508
0.192676
0.190989
0.190629
0.19178
0.194654
0.199489
0.206561
0.216167
0.228617
0.244229
0.263321
0.286213
0.31321
0.344564
0.380354
0.419879
0.456528
0.481771
0.500328
0.516296
0.529852
0.541143
0.550285
0.557369
0.562465
0.565623
0.566876
0.566243
0.563724
0.559308
0.552967
0.544656
0.534313
0.521856
0.507181
0.490156
0.47061
0.443513
0.405118
0.3655
0.329807
0.298626
0.271844
0.24919
0.230342
0.214962
0.202697
0.193184
0.186062
0.180997
0.177711
0.175988
0.175678
0.176683
0.178951
0.182461
0.187227
0.193281
0.200671
0.209434
0.219574
0.231009
0.24349
0.256377
0.267265
0.272415
0.27294
0.26794
0.259957
0.251548
0.243566
0.236408
0.230275
0.225251
0.221339
0.218478
0.216558
0.215422
0.214877
0.214715
0.214735
0.214793
0.214847
0.214986
0.215396
0.216313
0.217984
0.22064
0.224488
0.229698
0.236398
0.244665
0.254503
0.265817
0.278347
0.291476
0.303111
0.308399
0.240828
0.238751
0.235511
0.231922
0.228563
0.225815
0.223917
0.223001
0.223116
0.22423
0.226235
0.228931
0.231995
0.234926
0.236934
0.236778
0.232774
0.226912
0.220457
0.214183
0.208571
0.203932
0.200489
0.198419
0.197886
0.199064
0.202151
0.207373
0.214987
0.225272
0.238525
0.255057
0.275184
0.299223
0.32747
0.360127
0.39709
0.436956
0.469174
0.490812
0.508518
0.523824
0.536866
0.547759
0.556594
0.563448
0.568378
0.571427
0.572623
0.571981
0.569504
0.565178
0.558981
0.550875
0.540805
0.528705
0.51449
0.498057
0.47929
0.455886
0.42134
0.380846
0.343816
0.311266
0.283179
0.25931
0.239342
0.222937
0.20975
0.199432
0.191639
0.186053
0.182396
0.180449
0.180056
0.181113
0.18357
0.187415
0.192671
0.199388
0.207629
0.217449
0.228863
0.241785
0.255922
0.270416
0.281661
0.286564
0.287802
0.284446
0.275778
0.266205
0.257119
0.24902
0.242136
0.236565
0.232314
0.229318
0.227451
0.226522
0.226289
0.226461
0.226743
0.226898
0.226843
0.226722
0.22682
0.227466
0.228981
0.231647
0.235697
0.241316
0.248639
0.257743
0.26863
0.281191
0.2951
0.309448
0.320332
0.324037
0.263834
0.260171
0.255089
0.249843
0.245147
0.241418
0.238901
0.237725
0.237934
0.239495
0.2423
0.246154
0.250733
0.255507
0.259539
0.2609
0.254379
0.245842
0.237056
0.228874
0.221753
0.215967
0.211704
0.209112
0.208335
0.209528
0.212869
0.218565
0.226853
0.237995
0.252273
0.26999
0.291455
0.316976
0.346822
0.381096
0.419244
0.457195
0.483469
0.502429
0.519109
0.533616
0.54603
0.556431
0.564886
0.571451
0.576173
0.579084
0.580208
0.579556
0.57713
0.57292
0.566906
0.559056
0.549328
0.53767
0.524016
0.508292
0.490413
0.47001
0.440957
0.401035
0.362673
0.328443
0.298684
0.27324
0.251822
0.234096
0.219721
0.208361
0.199689
0.193404
0.18924
0.18698
0.186465
0.187591
0.19031
0.194617
0.200549
0.208169
0.217555
0.228774
0.241848
0.256675
0.272856
0.288943
0.299312
0.304097
0.30595
0.304787
0.297059
0.286334
0.275949
0.266693
0.258877
0.252633
0.247986
0.244875
0.243158
0.242611
0.242917
0.243676
0.244428
0.24476
0.244488
0.243891
0.24343
0.243588
0.24479
0.247379
0.251621
0.257713
0.26579
0.275923
0.288104
0.302178
0.317619
0.332542
0.340409
0.343102
0.295785
0.28912
0.281252
0.273743
0.267308
0.262329
0.259029
0.257522
0.257843
0.259951
0.263736
0.269008
0.275461
0.282543
0.288965
0.289576
0.282327
0.270528
0.258848
0.24832
0.239349
0.23215
0.226865
0.223611
0.222506
0.22368
0.227292
0.233526
0.242598
0.254753
0.270261
0.28941
0.312495
0.339799
0.371537
0.407654
0.446757
0.477986
0.498732
0.516295
0.531875
0.545499
0.557208
0.567049
0.575066
0.581298
0.585777
0.588528
0.589568
0.588906
0.586541
0.582466
0.576666
0.569115
0.559782
0.548629
0.535612
0.520683
0.503799
0.48494
0.461672
0.426601
0.38671
0.350459
0.318678
0.291325
0.268147
0.248825
0.233025
0.220417
0.210689
0.203555
0.198764
0.196111
0.195443
0.19666
0.199717
0.204619
0.211409
0.22016
0.23096
0.243882
0.258942
0.276012
0.2945
0.310988
0.319609
0.324515
0.32697
0.327097
0.322975
0.312117
0.300476
0.28993
0.281035
0.27402
0.26895
0.265782
0.264373
0.264463
0.265657
0.267409
0.269
0.269679
0.268963
0.267501
0.266082
0.265417
0.266065
0.268432
0.272811
0.279401
0.288326
0.299632
0.313276
0.329009
0.345818
0.358007
0.362679
0.364847
0.331171
0.32469
0.313947
0.303866
0.295425
0.28899
0.284774
0.282879
0.283332
0.286076
0.290981
0.297828
0.306264
0.315365
0.320662
0.319095
0.313822
0.300491
0.285943
0.272862
0.261804
0.252974
0.246487
0.242434
0.240909
0.242022
0.245908
0.252731
0.262688
0.276008
0.292942
0.31376
0.338725
0.368051
0.401793
0.439316
0.474681
0.498046
0.515948
0.532144
0.546596
0.559296
0.570255
0.579492
0.587032
0.592898
0.59711
0.599684
0.600631
0.599957
0.597662
0.593738
0.588176
0.580956
0.572057
0.561454
0.549119
0.535028
0.519161
0.501516
0.481987
0.454606
0.415576
0.377537
0.343512
0.313952
0.288728
0.267556
0.250113
0.236075
0.225142
0.21704
0.211536
0.208437
0.207602
0.20894
0.212414
0.218032
0.225844
0.235928
0.248372
0.263243
0.280526
0.299947
0.320267
0.334935
0.34237
0.347383
0.35032
0.351294
0.350373
0.343417
0.331018
0.319159
0.309079
0.301214
0.29571
0.292573
0.291673
0.292738
0.295299
0.298661
0.30172
0.303161
0.301474
0.298502
0.295532
0.293583
0.293363
0.295323
0.299757
0.306849
0.316688
0.329236
0.344346
0.361369
0.376714
0.383742
0.387058
0.388761
0.364507
0.361904
0.352163
0.3401
0.329696
0.321711
0.316492
0.314169
0.314785
0.318246
0.324353
0.332752
0.342768
0.351337
0.35228
0.350047
0.346242
0.335157
0.318393
0.302792
0.28952
0.278891
0.271042
0.266062
0.264029
0.265039
0.269206
0.276674
0.287621
0.302255
0.320811
0.343532
0.370615
0.402122
0.437653
0.474731
0.500594
0.518513
0.534867
0.549737
0.56307
0.574835
0.585022
0.593632
0.600672
0.606151
0.61008
0.612466
0.613315
0.61263
0.61041
0.60665
0.601342
0.594475
0.586035
0.576009
0.564383
0.551148
0.536303
0.519857
0.501835
0.481004
0.449556
0.410048
0.373573
0.341546
0.314018
0.290757
0.271463
0.255824
0.243551
0.234383
0.228098
0.22452
0.223521
0.225021
0.228988
0.235437
0.244418
0.256008
0.270289
0.287312
0.307001
0.328793
0.349224
0.360408
0.367279
0.372327
0.375631
0.377311
0.377536
0.375534
0.36707
0.354561
0.343329
0.334587
0.32865
0.325637
0.325465
0.327884
0.33236
0.338143
0.343482
0.346594
0.342878
0.337549
0.332296
0.328521
0.3271
0.328463
0.332866
0.340455
0.351255
0.364997
0.381268
0.398
0.406784
0.410475
0.41305
0.414376
0.397187
0.396792
0.392805
0.381855
0.370152
0.360678
0.354432
0.351653
0.352484
0.35673
0.364041
0.373611
0.38359
0.386407
0.384817
0.382413
0.379019
0.372434
0.356166
0.338413
0.322904
0.31035
0.300997
0.294971
0.292352
0.293225
0.29769
0.30587
0.317919
0.334022
0.354392
0.379232
0.408628
0.442338
0.478715
0.506126
0.524255
0.540371
0.555269
0.568869
0.58111
0.591951
0.601366
0.609342
0.615873
0.620956
0.624593
0.626785
0.627534
0.626839
0.624699
0.62111
0.616068
0.609567
0.601601
0.592164
0.581256
0.568879
0.555045
0.539775
0.523108
0.505097
0.482228
0.447294
0.409034
0.374512
0.344497
0.318933
0.297587
0.280177
0.266427
0.256092
0.248964
0.24488
0.243726
0.24543
0.249968
0.257357
0.267646
0.280903
0.297185
0.316491
0.338582
0.36214
0.378917
0.387456
0.394009
0.399016
0.402567
0.404784
0.405837
0.405957
0.403485
0.395386
0.383755
0.374295
0.367964
0.365172
0.365888
0.369973
0.376674
0.385278
0.391711
0.39351
0.391388
0.384177
0.376337
0.370309
0.367476
0.368113
0.372413
0.38046
0.392242
0.406739
0.422734
0.431851
0.435476
0.438304
0.440292
0.441318
0.43026
0.430089
0.429812
0.425647
0.41614
0.405746
0.398622
0.395337
0.39647
0.401504
0.409626
0.418295
0.421486
0.420031
0.418167
0.41577
0.412703
0.408845
0.398664
0.379946
0.362365
0.347808
0.336827
0.329652
0.326379
0.327093
0.33189
0.340866
0.354136
0.371853
0.394184
0.421278
0.452896
0.487533
0.515077
0.533367
0.548881
0.563449
0.57697
0.589359
0.60055
0.610493
0.61915
0.626498
0.63252
0.637207
0.64055
0.642547
0.643195
0.642492
0.640435
0.637023
0.632253
0.626124
0.618636
0.609792
0.599598
0.588067
0.575221
0.561092
0.545725
0.529186
0.511527
0.486805
0.449801
0.413242
0.38068
0.35263
0.329037
0.309679
0.294306
0.282693
0.274648
0.270025
0.268719
0.270671
0.275861
0.284304
0.296043
0.311119
0.329539
0.351167
0.375297
0.397316
0.408653
0.416132
0.422287
0.427162
0.430835
0.43342
0.435072
0.435997
0.436459
0.434712
0.428937
0.419808
0.413405
0.410986
0.41252
0.418123
0.425902
0.430878
0.43315
0.433305
0.433596
0.431286
0.425966
0.418192
0.41428
0.414216
0.41835
0.42659
0.439009
0.451327
0.459089
0.462195
0.464819
0.466973
0.468497
0.469286
0.463505
0.463475
0.463484
0.463659
0.46089
0.455193
0.448166
0.444337
0.445862
0.451119
0.455642
0.457479
0.455749
0.453979
0.45205
0.449796
0.447114
0.443949
0.439503
0.426926
0.408164
0.391673
0.378983
0.370598
0.366618
0.367166
0.372351
0.382225
0.396829
0.416264
0.440557
0.469768
0.502249
0.528349
0.546
0.56055
0.574453
0.587573
0.599801
0.611048
0.621239
0.630319
0.638244
0.64498
0.650504
0.6548
0.657854
0.659659
0.660209
0.659499
0.657528
0.654293
0.649797
0.64404
0.637027
0.628768
0.619276
0.608571
0.596681
0.583646
0.569516
0.554356
0.538244
0.52096
0.495135
0.458048
0.423076
0.39241
0.366397
0.344919
0.327767
0.314749
0.305699
0.300487
0.299028
0.301269
0.307191
0.316804
0.330136
0.347181
0.367823
0.391584
0.416365
0.43137
0.439341
0.446132
0.451844
0.456509
0.460192
0.462989
0.465033
0.466499
0.467603
0.46862
0.468626
0.466129
0.463021
0.461477
0.463012
0.465801
0.46807
0.468278
0.467815
0.467983
0.468758
0.470199
0.470226
0.468348
0.4659
0.465428
0.469309
0.476425
0.483412
0.488426
0.490533
0.492658
0.494633
0.496271
0.497437
0.498043
0.49678
0.496822
0.496956
0.497283
0.497961
0.4975
0.495454
0.493813
0.493742
0.494427
0.493903
0.491725
0.489856
0.488087
0.486257
0.484252
0.482007
0.479506
0.476788
0.471827
0.459325
0.442026
0.427757
0.418249
0.413537
0.413914
0.419572
0.430476
0.446473
0.467609
0.49335
0.523263
0.546252
0.562179
0.575451
0.588382
0.600806
0.612588
0.623614
0.633791
0.64304
0.651301
0.658525
0.664673
0.669717
0.673634
0.676407
0.678026
0.678481
0.677768
0.675883
0.672827
0.668601
0.663211
0.656666
0.648978
0.640167
0.630259
0.619286
0.607293
0.594335
0.580477
0.565797
0.550378
0.533464
0.507746
0.471863
0.438721
0.410232
0.386509
0.367422
0.352864
0.342702
0.336838
0.335212
0.33778
0.344512
0.355404
0.370463
0.389583
0.412396
0.437455
0.455383
0.464124
0.471105
0.477211
0.482448
0.486839
0.490434
0.49331
0.495574
0.497361
0.498835
0.500186
0.501613
0.503235
0.503647
0.503626
0.503928
0.50365
0.502527
0.501897
0.501729
0.502053
0.50289
0.504278
0.506264
0.508674
0.509761
0.511092
0.513708
0.516859
0.518791
0.520084
0.521648
0.523272
0.524783
0.52604
0.526938
0.527405
0.530013
0.530078
0.530235
0.530534
0.53103
0.531734
0.532532
0.532535
0.531413
0.529397
0.527376
0.525541
0.523863
0.522257
0.520638
0.518947
0.517156
0.515279
0.513377
0.511575
0.507443
0.497598
0.482844
0.47284
0.46739
0.467571
0.473829
0.485929
0.503102
0.525368
0.549914
0.568632
0.5818
0.59354
0.605244
0.616719
0.627803
0.63836
0.648278
0.65746
0.665829
0.673321
0.679882
0.685472
0.690057
0.693611
0.696115
0.697556
0.697922
0.697207
0.69541
0.692529
0.688569
0.683538
0.677446
0.670311
0.662156
0.653011
0.642912
0.631907
0.620054
0.607422
0.594089
0.580147
0.565702
0.549663
0.525432
0.491513
0.460946
0.435034
0.413884
0.397664
0.386274
0.379672
0.377855
0.380789
0.388396
0.40063
0.417483
0.43854
0.462377
0.481299
0.490979
0.497669
0.503744
0.509159
0.513896
0.517964
0.521395
0.524244
0.526591
0.528535
0.530191
0.531676
0.533091
0.534461
0.53565
0.536339
0.536202
0.535738
0.53528
0.535055
0.535149
0.53561
0.536471
0.537753
0.539463
0.541569
0.543998
0.546305
0.54793
0.549048
0.550188
0.551404
0.552704
0.554
0.555187
0.55617
0.55687
0.557233
0.563181
0.563241
0.563372
0.563589
0.563891
0.564233
0.564468
0.564269
0.563435
0.562123
0.560657
0.5592
0.557798
0.556438
0.555093
0.553743
0.552392
0.551075
0.549868
0.548898
0.548358
0.546588
0.541195
0.533468
0.527471
0.527525
0.534449
0.547691
0.564464
0.580771
0.59452
0.60458
0.614636
0.624936
0.635266
0.645447
0.655326
0.664772
0.673675
0.681943
0.689496
0.69627
0.702211
0.707275
0.711427
0.714638
0.716888
0.71816
0.718443
0.717731
0.716019
0.71331
0.709609
0.704924
0.69927
0.692665
0.685136
0.676716
0.667443
0.657369
0.646553
0.635066
0.622989
0.61042
0.597471
0.584276
0.569938
0.548477
0.518202
0.490868
0.467626
0.449732
0.437001
0.429545
0.427503
0.430849
0.439369
0.452847
0.471355
0.493194
0.510745
0.520279
0.526206
0.53183
0.537044
0.541784
0.546015
0.549728
0.552938
0.555681
0.558011
0.559998
0.561716
0.563238
0.564613
0.565845
0.566859
0.56753
0.567789
0.567814
0.567798
0.567896
0.568201
0.568768
0.569631
0.5708
0.572266
0.57398
0.575838
0.57762
0.579115
0.580355
0.581507
0.58264
0.583763
0.584835
0.585796
0.586581
0.587138
0.587426
0.596289
0.596333
0.596424
0.596557
0.596712
0.596839
0.596835
0.596557
0.595926
0.595003
0.593927
0.592805
0.591691
0.590605
0.589552
0.58854
0.587594
0.586761
0.58612
0.585791
0.58594
0.586793
0.588147
0.587531
0.587376
0.589802
0.59573
0.604342
0.613859
0.62237
0.630029
0.638401
0.647228
0.656301
0.665438
0.674478
0.683281
0.691726
0.699709
0.70714
0.713943
0.720053
0.725417
0.729991
0.733737
0.736627
0.738638
0.739753
0.73996
0.739253
0.737627
0.735085
0.731632
0.72728
0.722043
0.715943
0.709008
0.701272
0.692776
0.683574
0.673724
0.663299
0.652382
0.641072
0.629483
0.617751
0.606038
0.594043
0.576459
0.553101
0.528452
0.509397
0.495266
0.486797
0.484486
0.488323
0.497727
0.511722
0.530684
0.544375
0.552183
0.556946
0.561737
0.566399
0.570819
0.574919
0.578651
0.581993
0.584947
0.58753
0.589776
0.591729
0.593437
0.594945
0.596281
0.597446
0.59841
0.599132
0.599611
0.599929
0.600201
0.60053
0.60099
0.601632
0.602483
0.603551
0.604821
0.606249
0.607754
0.609222
0.610556
0.611747
0.612846
0.613887
0.614873
0.615783
0.61658
0.617222
0.617674
0.617907
0.629352
0.62938
0.629434
0.629502
0.629563
0.629575
0.629477
0.629199
0.62871
0.628035
0.627244
0.626402
0.625557
0.624738
0.623969
0.623272
0.622684
0.622255
0.622061
0.622205
0.622817
0.624056
0.626091
0.629158
0.632939
0.636918
0.641375
0.646119
0.651357
0.657508
0.664357
0.671769
0.679572
0.687602
0.695706
0.703745
0.711594
0.719142
0.726294
0.732965
0.739082
0.744582
0.749414
0.753533
0.756903
0.759494
0.761284
0.762254
0.762393
0.761692
0.760151
0.757769
0.754555
0.75052
0.74568
0.740057
0.733681
0.726587
0.718817
0.710425
0.70147
0.692023
0.682169
0.672004
0.661639
0.651208
0.640865
0.630792
0.621175
0.608618
0.593036
0.575604
0.560424
0.550978
0.548347
0.552569
0.562466
0.573568
0.582026
0.586669
0.589937
0.593585
0.597396
0.601212
0.604914
0.608421
0.611676
0.614649
0.617327
0.619716
0.621833
0.623704
0.625359
0.626824
0.628119
0.629247
0.630203
0.630979
0.631592
0.632091
0.632548
0.633032
0.633598
0.634286
0.635118
0.6361
0.637219
0.638439
0.639708
0.640959
0.64214
0.643232
0.644244
0.645187
0.646058
0.646843
0.647518
0.648054
0.648428
0.64862
0.662387
0.662402
0.662428
0.662454
0.662462
0.662421
0.662297
0.662053
0.661678
0.661184
0.660612
0.660003
0.659396
0.658823
0.658312
0.657896
0.657613
0.657514
0.657665
0.65815
0.659067
0.660522
0.662615
0.665407
0.668794
0.672607
0.676739
0.681274
0.686309
0.691945
0.698123
0.704745
0.71169
0.71883
0.72604
0.733202
0.740207
0.746956
0.753361
0.759344
0.764836
0.76978
0.774124
0.777825
0.780848
0.783164
0.784749
0.785586
0.785664
0.784974
0.783514
0.781287
0.7783
0.774564
0.770098
0.764924
0.759072
0.752577
0.745482
0.737838
0.729706
0.721156
0.712267
0.703134
0.693862
0.684577
0.675421
0.666559
0.658184
0.650527
0.642986
0.633805
0.624968
0.618385
0.615442
0.616158
0.61915
0.622275
0.623335
0.624989
0.62731
0.63006
0.633051
0.636137
0.639205
0.642173
0.644984
0.647598
0.649997
0.652175
0.654136
0.655896
0.657469
0.658874
0.660123
0.661222
0.662176
0.662991
0.663686
0.664296
0.664869
0.665451
0.666083
0.666795
0.667604
0.668513
0.669514
0.67058
0.671678
0.672767
0.673812
0.674795
0.675712
0.676559
0.677331
0.678015
0.678594
0.67905
0.679365
0.679526
0.695406
0.695413
0.695423
0.695426
0.695408
0.695352
0.695235
0.69504
0.694763
0.694413
0.694016
0.693601
0.6932
0.692844
0.692562
0.692387
0.692359
0.692523
0.692936
0.693664
0.694779
0.696352
0.698439
0.701062
0.704179
0.707716
0.711626
0.715929
0.720659
0.725842
0.731444
0.737398
0.743612
0.749988
0.756423
0.762817
0.769076
0.775113
0.780849
0.786212
0.79114
0.795578
0.799476
0.802795
0.8055
0.807563
0.808962
0.809679
0.809702
0.809025
0.807645
0.805565
0.802792
0.79934
0.795225
0.79047
0.785106
0.779166
0.772694
0.76574
0.758362
0.750626
0.74261
0.734401
0.726099
0.717818
0.709683
0.701839
0.694444
0.687668
0.681673
0.676734
0.672633
0.668962
0.666088
0.663998
0.662257
0.66142
0.661635
0.662642
0.664254
0.666295
0.668612
0.671079
0.673596
0.676085
0.678487
0.680763
0.682888
0.684849
0.686642
0.688273
0.689749
0.69108
0.692275
0.693342
0.694287
0.695122
0.695864
0.696539
0.697181
0.697821
0.698489
0.699207
0.699989
0.700836
0.701742
0.702691
0.703658
0.704618
0.705546
0.706426
0.707249
0.708006
0.70869
0.70929
0.709793
0.710185
0.710455
0.710592
0.728419
0.728422
0.728423
0.728417
0.728395
0.728343
0.728251
0.72811
0.72792
0.727689
0.727437
0.727185
0.726961
0.726791
0.726704
0.726732
0.726911
0.727282
0.727891
0.728791
0.730033
0.731666
0.733726
0.736224
0.739143
0.742451
0.746122
0.750156
0.754556
0.759319
0.764414
0.769789
0.775374
0.781087
0.786846
0.792566
0.798166
0.803571
0.808709
0.813517
0.817935
0.821914
0.825408
0.828379
0.830795
0.832627
0.833856
0.834464
0.834441
0.833778
0.832476
0.830535
0.827965
0.824778
0.82099
0.816626
0.811714
0.806288
0.800389
0.794067
0.787375
0.780377
0.773146
0.765762
0.758316
0.75091
0.743655
0.736671
0.730085
0.724028
0.71862
0.713963
0.71002
0.70672
0.703964
0.701732
0.700128
0.699254
0.699142
0.699689
0.700769
0.702253
0.704022
0.705972
0.708015
0.710082
0.712117
0.71408
0.715943
0.71769
0.719311
0.720805
0.722174
0.723423
0.724557
0.725583
0.726509
0.727346
0.728108
0.728816
0.729493
0.730162
0.730845
0.731557
0.732308
0.7331
0.733929
0.734783
0.735646
0.7365
0.737327
0.738115
0.738851
0.739527
0.740134
0.740663
0.741103
0.741444
0.741677
0.741795
0.76143
0.761431
0.761431
0.761426
0.761409
0.761374
0.761315
0.761229
0.761117
0.760988
0.760857
0.760743
0.760667
0.760655
0.760732
0.760927
0.761272
0.761802
0.762557
0.763575
0.764897
0.766555
0.768575
0.770965
0.773719
0.776821
0.780257
0.784016
0.78809
0.792463
0.797105
0.801972
0.807005
0.81214
0.817307
0.822434
0.827453
0.832296
0.836901
0.841209
0.84517
0.848735
0.851863
0.854519
0.856671
0.858296
0.859371
0.859882
0.859818
0.859172
0.857944
0.856136
0.853755
0.850815
0.847333
0.843331
0.838836
0.833882
0.828509
0.822762
0.816693
0.810361
0.803834
0.797184
0.790494
0.783853
0.777355
0.771103
0.765199
0.75974
0.754814
0.750478
0.746737
0.743563
0.740923
0.738812
0.737268
0.736327
0.735991
0.736203
0.736879
0.737926
0.739251
0.740771
0.742412
0.744111
0.745818
0.747496
0.749115
0.750656
0.752107
0.753462
0.75472
0.75588
0.756946
0.757924
0.75882
0.759644
0.760407
0.761124
0.761813
0.762491
0.763171
0.763867
0.764585
0.765327
0.76609
0.766865
0.767643
0.768408
0.76915
0.769855
0.770513
0.771117
0.771657
0.772125
0.772512
0.772811
0.773014
0.773117
0.794439
0.794442
0.794445
0.794446
0.794443
0.79443
0.794407
0.794373
0.79433
0.794289
0.794261
0.794262
0.794311
0.794429
0.794641
0.794971
0.795447
0.796099
0.796958
0.798057
0.799423
0.801083
0.803053
0.805342
0.807947
0.810859
0.814068
0.817561
0.821325
0.825338
0.829572
0.833987
0.838536
0.843162
0.847808
0.852412
0.856915
0.861259
0.865388
0.86925
0.872799
0.875992
0.878791
0.881162
0.883077
0.884513
0.88545
0.885875
0.885776
0.885149
0.883992
0.882308
0.880105
0.877396
0.874196
0.870527
0.866417
0.861896
0.857003
0.851779
0.846274
0.840542
0.834644
0.828647
0.822623
0.81665
0.810811
0.805188
0.799866
0.79492
0.790416
0.7864
0.782886
0.779873
0.777353
0.775326
0.773804
0.772796
0.772293
0.772253
0.772618
0.77332
0.774287
0.77545
0.776749
0.778131
0.77955
0.78097
0.782365
0.783712
0.785
0.786218
0.787362
0.78843
0.789424
0.790347
0.791204
0.792002
0.792751
0.793461
0.794145
0.794815
0.795482
0.796155
0.796838
0.797533
0.798238
0.798947
0.799651
0.800341
0.801008
0.80164
0.802231
0.80277
0.803252
0.803667
0.80401
0.804273
0.804452
0.804542
0.827446
0.827451
0.82746
0.827472
0.827485
0.827497
0.82751
0.827524
0.827543
0.827577
0.827635
0.827732
0.827885
0.828111
0.828431
0.828868
0.829446
0.830188
0.831121
0.83227
0.833657
0.8353
0.837213
0.839402
0.841867
0.844601
0.847595
0.850836
0.854309
0.857992
0.861858
0.86587
0.869988
0.874164
0.878349
0.882491
0.886537
0.890437
0.894141
0.897605
0.900785
0.903644
0.906145
0.90826
0.909962
0.911228
0.912042
0.91239
0.912263
0.911656
0.910567
0.909
0.906962
0.904466
0.901527
0.898165
0.894408
0.890283
0.885826
0.881077
0.876081
0.870888
0.865553
0.860136
0.854701
0.849315
0.844049
0.838973
0.834155
0.829658
0.825533
0.821818
0.818534
0.815691
0.81329
0.811334
0.809825
0.808762
0.80813
0.807898
0.808022
0.808449
0.809124
0.809994
0.811005
0.812114
0.81328
0.814471
0.815661
0.816829
0.817961
0.819047
0.820079
0.821055
0.821974
0.822837
0.823647
0.82441
0.825133
0.825824
0.826491
0.827143
0.827788
0.828433
0.829079
0.82973
0.830382
0.831032
0.831673
0.832298
0.832899
0.833469
0.833999
0.834482
0.834912
0.835282
0.835586
0.83582
0.835978
0.836058
0.860448
0.860456
0.860473
0.860496
0.860527
0.860565
0.860611
0.860669
0.860743
0.86084
0.860971
0.861148
0.861385
0.861698
0.862105
0.862626
0.863279
0.864087
0.865069
0.866245
0.867633
0.869247
0.871096
0.873187
0.875517
0.878082
0.880874
0.88388
0.887084
0.890465
0.893996
0.897647
0.901381
0.905158
0.908934
0.912665
0.916305
0.91981
0.923136
0.926243
0.929093
0.931652
0.933887
0.935772
0.937282
0.938396
0.939101
0.939382
0.939231
0.938643
0.937619
0.936162
0.934278
0.931979
0.92928
0.926201
0.922765
0.919001
0.914942
0.910623
0.906086
0.901377
0.896545
0.891643
0.886729
0.881861
0.877098
0.8725
0.868125
0.864023
0.860239
0.856804
0.853743
0.851067
0.848783
0.846894
0.845401
0.844297
0.843567
0.843186
0.843121
0.84333
0.843769
0.844394
0.845164
0.846039
0.846985
0.847973
0.848978
0.849982
0.850969
0.851929
0.852853
0.853737
0.854579
0.855378
0.856137
0.856859
0.857548
0.85821
0.858851
0.859478
0.860095
0.860708
0.861317
0.861925
0.862529
0.863126
0.863711
0.864279
0.864823
0.865337
0.865813
0.866247
0.866632
0.866963
0.867234
0.867442
0.867582
0.867653
0.893442
0.893454
0.893478
0.893514
0.893562
0.893624
0.893702
0.893798
0.893918
0.89407
0.894261
0.894503
0.894809
0.895191
0.895666
0.89625
0.896959
0.897811
0.898823
0.900009
0.901384
0.902958
0.904739
0.906731
0.908932
0.911338
0.91394
0.916726
0.919682
0.922786
0.926015
0.929341
0.932732
0.936152
0.939565
0.94293
0.946208
0.949361
0.952349
0.955138
0.957693
0.959983
0.96198
0.963658
0.964996
0.965976
0.966582
0.966804
0.966634
0.966068
0.965106
0.96375
0.962008
0.959891
0.957413
0.954593
0.951451
0.948016
0.944316
0.940386
0.936263
0.931988
0.927606
0.923164
0.918711
0.9143
0.909981
0.905806
0.901821
0.898072
0.894594
0.891418
0.888565
0.88605
0.88388
0.882059
0.880587
0.879457
0.878655
0.87816
0.877946
0.87798
0.878227
0.878651
0.879217
0.879893
0.880648
0.881457
0.882298
0.883152
0.884005
0.884846
0.885667
0.886461
0.887226
0.887961
0.888665
0.88934
0.889989
0.890617
0.891226
0.891822
0.892407
0.892985
0.893557
0.894123
0.894682
0.895231
0.895767
0.896284
0.896777
0.897241
0.897671
0.898061
0.898407
0.898703
0.898945
0.89913
0.899256
0.899319
0.926424
0.926439
0.926471
0.926519
0.926584
0.926667
0.926773
0.926903
0.927063
0.927259
0.927501
0.927796
0.928155
0.928592
0.929118
0.929748
0.930496
0.931376
0.932401
0.933584
0.934935
0.936463
0.938172
0.940066
0.942142
0.944397
0.946821
0.949404
0.95213
0.954982
0.957937
0.96097
0.964053
0.967155
0.970242
0.973281
0.976237
0.979076
0.981763
0.984267
0.986558
0.988608
0.990391
0.991884
0.993069
0.993928
0.994448
0.994619
0.994434
0.993889
0.992985
0.991725
0.990114
0.988165
0.985889
0.983305
0.980432
0.977295
0.973922
0.970342
0.966592
0.962706
0.958727
0.954694
0.950652
0.946646
0.942721
0.938919
0.935283
0.931848
0.928648
0.925709
0.92305
0.920687
0.918627
0.916876
0.915432
0.914288
0.913435
0.912854
0.912523
0.912418
0.912508
0.912766
0.913162
0.913667
0.914258
0.91491
0.915603
0.916323
0.917053
0.917784
0.918506
0.919215
0.919904
0.920573
0.921221
0.921847
0.922453
0.923041
0.923615
0.924176
0.924727
0.925269
0.925803
0.926329
0.926846
0.927351
0.92784
0.928312
0.92876
0.92918
0.929569
0.92992
0.930231
0.930497
0.930714
0.93088
0.930991
0.931048
0.95939
0.959409
0.959447
0.959506
0.959587
0.95969
0.959819
0.959978
0.960171
0.960405
0.960686
0.961023
0.961425
0.961902
0.962467
0.963129
0.963902
0.964796
0.965823
0.966991
0.96831
0.969785
0.971421
0.973218
0.975175
0.977286
0.979544
0.981938
0.984453
0.987074
0.989781
0.992549
0.995356
0.998171
1.00097
1.00372
1.00638
1.00894
1.01136
1.01361
1.01566
1.0175
1.01909
1.02042
1.02147
1.02222
1.02266
1.02279
1.02259
1.02207
1.02122
1.02005
1.01856
1.01676
1.01467
1.0123
1.00968
1.00681
1.00373
1.00047
0.997055
0.99352
0.9899
0.986233
0.982558
0.978913
0.975337
0.971868
0.968542
0.96539
0.962441
0.959718
0.95724
0.95502
0.953067
0.951386
0.949975
0.94883
0.947942
0.947297
0.946876
0.946659
0.946623
0.946743
0.946996
0.947357
0.947805
0.94832
0.948884
0.949482
0.950101
0.95073
0.951361
0.951987
0.952603
0.953208
0.953798
0.954373
0.954934
0.955481
0.956016
0.95654
0.957055
0.95756
0.958057
0.958544
0.959021
0.959485
0.959933
0.960363
0.96077
0.961151
0.961503
0.96182
0.9621
0.962339
0.962534
0.962682
0.962783
0.962833
0.992337
0.992359
0.992404
0.992473
0.992566
0.992686
0.992836
0.993019
0.993239
0.993502
0.993815
0.994184
0.994619
0.995126
0.995717
0.9964
0.997186
0.998084
0.999101
1.00025
1.00153
1.00295
1.00451
1.00621
1.00805
1.01003
1.01213
1.01435
1.01667
1.01908
1.02156
1.02409
1.02665
1.02921
1.03174
1.03423
1.03664
1.03895
1.04112
1.04315
1.04499
1.04663
1.04805
1.04924
1.05016
1.05082
1.0512
1.05128
1.05108
1.05058
1.04978
1.04869
1.04731
1.04566
1.04374
1.04156
1.03916
1.03654
1.03373
1.03075
1.02764
1.02442
1.02112
1.01778
1.01443
1.01111
1.00785
1.00467
1.00163
0.998729
0.996007
0.993483
0.991172
0.989087
0.987236
0.985625
0.984253
0.983116
0.982207
0.981515
0.981024
0.980719
0.98058
0.980588
0.980721
0.98096
0.981286
0.981681
0.982131
0.982621
0.983138
0.983674
0.984219
0.984768
0.985315
0.985856
0.98639
0.986914
0.987429
0.987933
0.988429
0.988915
0.989392
0.98986
0.99032
0.99077
0.991209
0.991634
0.992044
0.992436
0.992807
0.993153
0.993471
0.993757
0.99401
0.994225
0.9944
0.994534
0.994624
0.994669
1.02526
1.02529
1.02534
1.02541
1.02552
1.02565
1.02582
1.02602
1.02626
1.02655
1.02689
1.02728
1.02774
1.02827
1.02887
1.02957
1.03036
1.03125
1.03225
1.03337
1.03461
1.03597
1.03745
1.03906
1.0408
1.04264
1.0446
1.04666
1.0488
1.05102
1.05329
1.05561
1.05794
1.06027
1.06257
1.06482
1.067
1.06908
1.07104
1.07286
1.07452
1.07599
1.07726
1.07831
1.07913
1.0797
1.08002
1.08007
1.07986
1.07938