/*--------------------------------*- C++ -*----------------------------------*\
| =========                 |                                                 |
| \\      /  F ield         | OpenFOAM: The Open Source CFD Toolbox           |
|  \\    /   O peration     | Version:  2406                                  |
|   \\  /    A nd           | Website:  www.openfoam.com                      |
|    \\/     M anipulation  |                                                 |
\*---------------------------------------------------------------------------*/
FoamFile
{
    version     2.0;
    format      ascii;
    arch        "LSB;label=32;scalar=64";
    class       volScalarField;
    location    "10";
    object      D;
}
// * * * * * * * * * * * * * * * * * * * * * * * * * * * * * * * * * * * * * //

dimensions      [0 2 -1 0 0 0 0];

internalField   nonuniform List<scalar> 
14400
(
8.15538e-05
8.15868e-05
8.16647e-05
8.17883e-05
8.19397e-05
8.20895e-05
8.22078e-05
8.22735e-05
8.22805e-05
8.22394e-05
8.21767e-05
8.21294e-05
8.21344e-05
8.2212e-05
8.23459e-05
8.24802e-05
8.2565e-05
8.2636e-05
8.27141e-05
8.27672e-05
8.27236e-05
8.24964e-05
8.2e-05
8.11622e-05
7.99336e-05
7.82994e-05
7.62971e-05
7.40403e-05
7.17205e-05
6.95493e-05
6.76779e-05
6.61683e-05
6.50209e-05
6.42171e-05
6.37541e-05
6.36801e-05
6.41769e-05
6.59054e-05
7.25487e-05
0.000131884
0.00013824
0.00013824
0.00013824
0.00013824
0.00013824
0.00013824
0.00013824
0.00013824
0.00013824
0.00013824
0.00013824
0.00013824
0.00013824
0.00013824
0.00013824
0.00013824
0.00013824
0.00013824
0.000127667
7.20935e-05
6.61238e-05
6.47094e-05
6.44618e-05
6.48166e-05
6.56438e-05
6.69435e-05
6.8767e-05
7.11579e-05
7.40671e-05
7.72796e-05
8.04609e-05
8.33093e-05
8.56508e-05
8.74191e-05
8.8602e-05
8.92114e-05
8.92726e-05
8.88195e-05
8.78986e-05
8.65778e-05
8.4962e-05
8.32081e-05
8.1538e-05
8.02559e-05
7.98379e-05
8.1477e-05
9.12371e-05
0.000136831
9.83263e-05
8.04499e-05
7.6805e-05
7.58573e-05
7.58563e-05
7.63234e-05
7.70416e-05
7.78764e-05
7.87317e-05
7.95383e-05
8.0249e-05
8.08342e-05
8.12763e-05
8.15635e-05
8.16851e-05
8.16308e-05
8.13933e-05
8.09711e-05
8.03663e-05
7.95839e-05
7.86341e-05
7.75394e-05
7.63411e-05
7.51049e-05
7.39176e-05
7.28799e-05
7.21019e-05
7.17202e-05
7.19716e-05
7.35008e-05
7.95702e-05
0.000125634
8.03797e-05
8.0344e-05
8.03241e-05
8.03531e-05
8.04282e-05
8.05248e-05
8.06137e-05
8.06733e-05
8.06968e-05
8.06953e-05
8.06968e-05
8.0741e-05
8.08682e-05
8.10964e-05
8.13842e-05
8.16021e-05
8.16145e-05
8.15613e-05
8.15317e-05
8.15095e-05
8.142e-05
8.11696e-05
8.06689e-05
7.98451e-05
7.86524e-05
7.70833e-05
7.51862e-05
7.30813e-05
7.0947e-05
6.89642e-05
6.72568e-05
6.58767e-05
6.48281e-05
6.41023e-05
6.37096e-05
6.37204e-05
6.43793e-05
6.66566e-05
7.64325e-05
0.000136753
0.00013824
0.00013824
0.00013824
0.00013824
0.00013824
0.00013824
0.00013824
0.00013824
0.00013824
0.00013824
0.00013824
0.00013824
0.00013824
0.00013824
0.00013824
0.00013824
0.00013824
0.00013824
0.000134155
7.39292e-05
6.66406e-05
6.48637e-05
6.44738e-05
6.47382e-05
6.54796e-05
6.66757e-05
6.83633e-05
7.0582e-05
7.33002e-05
7.63429e-05
7.94087e-05
8.21981e-05
8.45174e-05
8.62791e-05
8.74598e-05
8.80666e-05
8.81228e-05
8.7663e-05
8.67373e-05
8.54208e-05
8.3828e-05
8.21264e-05
8.05463e-05
7.93995e-05
7.92045e-05
8.1515e-05
9.62301e-05
0.000137913
0.000108432
8.09279e-05
7.63896e-05
7.51762e-05
7.49908e-05
7.52965e-05
7.58695e-05
7.65789e-05
7.73344e-05
7.8071e-05
7.87431e-05
7.93189e-05
7.97742e-05
8.00863e-05
8.02306e-05
8.01841e-05
7.99355e-05
7.94905e-05
7.88661e-05
7.80819e-05
7.71593e-05
7.61274e-05
7.50299e-05
7.39284e-05
7.28996e-05
7.20317e-05
7.1427e-05
7.12287e-05
7.17155e-05
7.36937e-05
8.10595e-05
0.000133187
7.83682e-05
7.81656e-05
7.79284e-05
7.77597e-05
7.768e-05
7.76689e-05
7.76966e-05
7.77407e-05
7.77942e-05
7.78679e-05
7.79919e-05
7.8212e-05
7.85814e-05
7.91308e-05
7.97885e-05
8.02385e-05
8.00092e-05
7.96297e-05
7.9345e-05
7.91505e-05
7.89551e-05
7.86519e-05
7.81444e-05
7.73601e-05
7.62595e-05
7.48474e-05
7.3184e-05
7.13842e-05
6.95919e-05
6.7939e-05
6.65138e-05
6.53578e-05
6.44835e-05
6.38992e-05
6.36379e-05
6.38111e-05
6.48009e-05
6.85757e-05
9.42726e-05
0.000138213
0.00013824
0.00013824
0.00013824
0.00013824
0.00013824
0.00013824
0.00013824
0.00013824
0.00013824
0.00013824
0.00013824
0.00013824
0.00013824
0.00013824
0.00013824
0.00013824
0.00013824
0.00013824
0.000138081
8.62948e-05
6.82478e-05
6.5216e-05
6.45089e-05
6.45995e-05
6.51828e-05
6.61922e-05
6.76374e-05
6.95449e-05
7.19021e-05
7.45959e-05
7.7394e-05
8.00205e-05
8.22584e-05
8.39851e-05
8.51503e-05
8.57478e-05
8.57961e-05
8.53327e-05
8.44161e-05
8.31367e-05
8.16277e-05
8.00731e-05
7.87092e-05
7.78495e-05
7.80671e-05
8.15773e-05
0.000107457
0.000138222
0.000124534
8.1842e-05
7.58218e-05
7.40723e-05
7.35321e-05
7.35423e-05
7.38526e-05
7.43309e-05
7.48941e-05
7.54856e-05
7.60655e-05
7.66025e-05
7.70659e-05
7.74163e-05
7.76031e-05
7.75754e-05
7.73125e-05
7.68373e-05
7.61974e-05
7.54385e-05
7.45979e-05
7.37104e-05
7.28161e-05
7.19632e-05
7.12101e-05
7.06273e-05
7.03113e-05
7.04288e-05
7.13828e-05
7.47753e-05
9.26284e-05
0.000138048
7.61949e-05
7.56725e-05
7.50912e-05
7.46472e-05
7.43641e-05
7.42125e-05
7.4158e-05
7.4177e-05
7.42618e-05
7.44237e-05
7.46943e-05
7.51297e-05
7.5814e-05
7.68473e-05
7.82274e-05
7.93397e-05
7.83444e-05
7.72863e-05
7.65665e-05
7.61008e-05
7.57422e-05
7.53591e-05
7.48484e-05
7.414e-05
7.32022e-05
7.20467e-05
7.07282e-05
6.93334e-05
6.79603e-05
6.66953e-05
6.56002e-05
6.4712e-05
6.40546e-05
6.36564e-05
6.35802e-05
6.3995e-05
6.5469e-05
7.11226e-05
0.000120631
0.00013824
0.00013824
0.00013824
0.00013824
0.00013824
0.00013824
0.00013824
0.00013824
0.00013824
0.00013824
0.00013824
0.00013824
0.00013824
0.00013824
0.00013824
0.00013824
0.00013824
0.00013824
0.00013824
0.00013824
0.000112072
7.06064e-05
6.57322e-05
6.45882e-05
6.44383e-05
6.481e-05
6.55797e-05
6.6722e-05
6.82408e-05
7.01275e-05
7.23191e-05
7.46688e-05
7.69638e-05
7.89919e-05
8.05999e-05
8.17038e-05
8.22738e-05
8.2319e-05
8.18801e-05
8.10299e-05
7.98791e-05
7.85797e-05
7.73225e-05
7.63364e-05
7.59321e-05
7.67552e-05
8.17203e-05
0.000122275
0.00013824
0.000137304
8.75416e-05
7.59078e-05
7.29797e-05
7.19063e-05
7.15427e-05
7.15404e-05
7.17458e-05
7.20754e-05
7.248e-05
7.29278e-05
7.33927e-05
7.38435e-05
7.423e-05
7.44716e-05
7.44758e-05
7.42035e-05
7.3707e-05
7.30761e-05
7.23847e-05
7.16791e-05
7.09916e-05
7.03505e-05
6.97872e-05
6.93431e-05
6.90779e-05
6.90929e-05
6.95966e-05
7.11761e-05
7.67306e-05
0.000118116
0.00013824
7.48961e-05
7.36745e-05
7.25766e-05
7.18064e-05
7.13111e-05
7.10206e-05
7.08844e-05
7.0873e-05
7.09772e-05
7.12095e-05
7.16077e-05
7.22457e-05
7.32668e-05
7.49588e-05
7.78861e-05
8.24612e-05
7.76097e-05
7.51468e-05
7.37961e-05
7.29955e-05
7.24469e-05
7.19747e-05
7.14685e-05
7.08618e-05
7.01252e-05
6.92632e-05
6.83089e-05
6.73146e-05
6.63397e-05
6.54402e-05
6.46621e-05
6.40423e-05
6.36165e-05
6.34366e-05
6.36108e-05
6.44339e-05
6.70944e-05
8.02718e-05
0.000137761
0.00013824
0.00013824
0.00013824
0.00013824
0.00013824
0.00013824
0.00013824
0.00013824
0.00013824
0.00013824
0.00013824
0.00013824
0.00013824
0.00013824
0.00013824
0.00013824
0.00013824
0.00013824
0.00013824
0.00013824
0.000134559
7.42796e-05
6.67057e-05
6.48248e-05
6.4326e-05
6.4434e-05
6.49345e-05
6.5757e-05
6.68763e-05
6.82728e-05
6.99043e-05
7.16848e-05
7.34794e-05
7.5126e-05
7.64769e-05
7.74295e-05
7.79342e-05
7.79902e-05
7.76394e-05
7.69641e-05
7.60832e-05
7.51465e-05
7.433e-05
7.38506e-05
7.40608e-05
7.58916e-05
8.38519e-05
0.0001355
0.00013824
0.00013824
0.000118113
7.80537e-05
7.23606e-05
7.05219e-05
6.9747e-05
6.94425e-05
6.93981e-05
6.95172e-05
6.97517e-05
7.00757e-05
7.04696e-05
7.09071e-05
7.1337e-05
7.16521e-05
7.17022e-05
7.14109e-05
7.08852e-05
7.02658e-05
6.96475e-05
6.90759e-05
6.8574e-05
6.81583e-05
6.78491e-05
6.76805e-05
6.77144e-05
6.8078e-05
6.90797e-05
7.17644e-05
8.24081e-05
0.000136973
0.00013824
7.74122e-05
7.31105e-05
7.09553e-05
6.9727e-05
6.89931e-05
6.85656e-05
6.83535e-05
6.8311e-05
6.84243e-05
6.87093e-05
6.92173e-05
7.00595e-05
7.14995e-05
7.43262e-05
8.25354e-05
0.000123254
8.02688e-05
7.38692e-05
7.15505e-05
7.03658e-05
6.96269e-05
6.90733e-05
6.85764e-05
6.80661e-05
6.75081e-05
6.68944e-05
6.62378e-05
6.55649e-05
6.49106e-05
6.43122e-05
6.38069e-05
6.34333e-05
6.32402e-05
6.33107e-05
6.38336e-05
6.54041e-05
7.12032e-05
0.000121829
0.00013824
0.00013824
0.00013824
0.00013824
0.00013824
0.00013824
0.00013824
0.00013824
0.00013824
0.00013824
0.00013824
0.00013824
0.00013824
0.00013824
0.00013824
0.00013824
0.00013824
0.00013824
0.00013824
0.00013824
0.00013824
0.000138239
0.000107289
6.99449e-05
6.548e-05
6.43616e-05
6.41316e-05
6.43422e-05
6.48539e-05
6.56078e-05
6.65668e-05
6.76904e-05
6.89205e-05
7.01743e-05
7.13497e-05
7.23419e-05
7.30655e-05
7.34721e-05
7.35562e-05
7.33545e-05
7.29407e-05
7.24179e-05
7.19127e-05
7.15792e-05
7.16423e-05
7.25963e-05
7.65967e-05
0.000104461
0.000138225
0.00013824
0.00013824
0.000137716
8.66813e-05
7.29427e-05
6.97315e-05
6.84479e-05
6.78417e-05
6.75802e-05
6.75305e-05
6.76378e-05
6.78779e-05
6.82364e-05
6.86957e-05
6.92161e-05
6.96647e-05
6.97952e-05
6.94287e-05
6.88128e-05
6.81562e-05
6.75677e-05
6.70821e-05
6.67102e-05
6.64593e-05
6.63465e-05
6.64092e-05
6.67285e-05
6.75055e-05
6.93496e-05
7.53107e-05
0.000120666
0.00013824
0.00013824
0.000113877
7.66441e-05
7.07216e-05
6.85857e-05
6.74982e-05
6.69e-05
6.66038e-05
6.65284e-05
6.66504e-05
6.69913e-05
6.76307e-05
6.87604e-05
7.09696e-05
7.71429e-05
0.00011965
0.000138181
9.67979e-05
7.42745e-05
7.00912e-05
6.84287e-05
6.7494e-05
6.68623e-05
6.63662e-05
6.5923e-05
6.54905e-05
6.5051e-05
6.46043e-05
6.41622e-05
6.37454e-05
6.33807e-05
6.31014e-05
6.29508e-05
6.29966e-05
6.33739e-05
6.44596e-05
6.80431e-05
9.1713e-05
0.000138206
0.00013824
0.00013824
0.00013824
0.00013824
0.00013824
0.00013824
0.00013824
0.00013824
0.00013824
0.00013824
0.00013824
0.00013824
0.00013824
0.00013824
0.00013824
0.00013824
0.00013824
0.00013824
0.00013824
0.00013824
0.00013824
0.00013824
0.000136472
7.58115e-05
6.68214e-05
6.46729e-05
6.39847e-05
6.38728e-05
6.40864e-05
6.45227e-05
6.5124e-05
6.58447e-05
6.66372e-05
6.74467e-05
6.82111e-05
6.88677e-05
6.93643e-05
6.967e-05
6.97825e-05
6.973e-05
6.95679e-05
6.9376e-05
6.92586e-05
6.93631e-05
6.99551e-05
7.17401e-05
7.80366e-05
0.000128075
0.00013824
0.00013824
0.00013824
0.00013824
0.00012886
7.69875e-05
7.00693e-05
6.78684e-05
6.68576e-05
6.63672e-05
6.61676e-05
6.61818e-05
6.63819e-05
6.67602e-05
6.73146e-05
6.80513e-05
6.88244e-05
6.91919e-05
6.85272e-05
6.76428e-05
6.68275e-05
6.6186e-05
6.57203e-05
6.54198e-05
6.52822e-05
6.53264e-05
6.56075e-05
6.62544e-05
6.76708e-05
7.1713e-05
9.50418e-05
0.000138196
0.00013824
0.00013824
0.000138229
0.000102494
7.35423e-05
6.86402e-05
6.68435e-05
6.59638e-05
6.55477e-05
6.54302e-05
6.55698e-05
6.59986e-05
6.68579e-05
6.85397e-05
7.28836e-05
9.61739e-05
0.000138194
0.00013824
0.000127278
7.6338e-05
6.95405e-05
6.72111e-05
6.60301e-05
6.52999e-05
6.47818e-05
6.43703e-05
6.40132e-05
6.36853e-05
6.33786e-05
6.30971e-05
6.28545e-05
6.26733e-05
6.25884e-05
6.26558e-05
6.2978e-05
6.37928e-05
6.58925e-05
7.38333e-05
0.000135448
0.00013824
0.00013824
0.00013824
0.00013824
0.00013824
0.00013824
0.00013824
0.00013824
0.00013824
0.00013824
0.00013824
0.00013824
0.00013824
0.00013824
0.00013824
0.00013824
0.00013824
0.00013824
0.00013824
0.00013824
0.00013824
0.00013824
0.00013824
0.00013824
0.00012114
7.13899e-05
6.56827e-05
6.41272e-05
6.35939e-05
6.35015e-05
6.3658e-05
6.39737e-05
6.43923e-05
6.48695e-05
6.53644e-05
6.58378e-05
6.62536e-05
6.65833e-05
6.68125e-05
6.69439e-05
6.70005e-05
6.70253e-05
6.70838e-05
6.72744e-05
6.77689e-05
6.89757e-05
7.25932e-05
9.33595e-05
0.000138154
0.00013824
0.00013824
0.00013824
0.00013824
0.000138239
0.000113665
7.43316e-05
6.85397e-05
6.66414e-05
6.58041e-05
6.54208e-05
6.53539e-05
6.55598e-05
6.60473e-05
6.68489e-05
6.81835e-05
7.00882e-05
7.20365e-05
6.9421e-05
6.76429e-05
6.63436e-05
6.54928e-05
6.49599e-05
6.46776e-05
6.46215e-05
6.4821e-05
6.5381e-05
6.65422e-05
6.92914e-05
8.00612e-05
0.000137182
0.00013824
0.00013824
0.00013824
0.00013824
0.000138103
8.96692e-05
7.12829e-05
6.73296e-05
6.58122e-05
6.51766e-05
6.49886e-05
6.51706e-05
6.57756e-05
6.71281e-05
7.02328e-05
8.20647e-05
0.000137448
0.00013824
0.00013824
0.000138209
9.62411e-05
7.10639e-05
6.68008e-05
6.51823e-05
6.4291e-05
6.37126e-05
6.32975e-05
6.29765e-05
6.27161e-05
6.25031e-05
6.23374e-05
6.22303e-05
6.22067e-05
6.23115e-05
6.2635e-05
6.33768e-05
6.51519e-05
7.13333e-05
0.000125259
0.00013824
0.00013824
0.00013824
0.00013824
0.00013824
0.00013824
0.00013824
0.00013824
0.00013824
0.00013824
0.00013824
0.00013824
0.00013824
0.00013824
0.00013824
0.00013824
0.00013824
0.00013824
0.00013824
0.00013824
0.00013824
0.00013824
0.00013824
0.00013824
0.00013824
0.000138227
9.6617e-05
6.88333e-05
6.48102e-05
6.35905e-05
6.31392e-05
6.30297e-05
6.31081e-05
6.32976e-05
6.35503e-05
6.38315e-05
6.41133e-05
6.43734e-05
6.45968e-05
6.47782e-05
6.49244e-05
6.50568e-05
6.52143e-05
6.54607e-05
6.5908e-05
6.67934e-05
6.87991e-05
7.5276e-05
0.000126814
0.00013824
0.00013824
0.00013824
0.00013824
0.00013824
0.00013824
0.000138236
0.000105587
7.31419e-05
6.77617e-05
6.6129e-05
6.53899e-05
6.52188e-05
6.55009e-05
6.63289e-05
6.78285e-05
7.18169e-05
8.02959e-05
0.000103381
7.66312e-05
7.04836e-05
6.71529e-05
6.56414e-05
6.48733e-05
6.45446e-05
6.45606e-05
6.49825e-05
6.61221e-05
6.86663e-05
7.67494e-05
0.000135071
0.00013824
0.00013824
0.00013824
0.00013824
0.00013824
0.00013824
0.00013795
8.73802e-05
7.10122e-05
6.69693e-05
6.57802e-05
6.54112e-05
6.57235e-05
6.6806e-05
7.00444e-05
7.99252e-05
0.000136541
0.00013824
0.00013824
0.00013824
0.00013824
0.000133842
7.52186e-05
6.7428e-05
6.49888e-05
6.3794e-05
6.3087e-05
6.26262e-05
6.23077e-05
6.20842e-05
6.19369e-05
6.18635e-05
6.18779e-05
6.20156e-05
6.23496e-05
6.30714e-05
6.47431e-05
7.02885e-05
0.000113577
0.00013824
0.00013824
0.00013824
0.00013824
0.00013824
0.00013824
0.00013824
0.00013824
0.00013824
0.00013824
0.00013824
0.00013824
0.00013824
0.00013824
0.00013824
0.00013824
0.00013824
0.00013824
0.00013824
0.00013824
0.00013824
0.00013824
0.00013824
0.00013824
0.00013824
0.00013824
0.00013824
0.000137602
7.84425e-05
6.66262e-05
6.40239e-05
6.30655e-05
6.26607e-05
6.25181e-05
6.25184e-05
6.26011e-05
6.2731e-05
6.28839e-05
6.30438e-05
6.32018e-05
6.33575e-05
6.35207e-05
6.37146e-05
6.39812e-05
6.43956e-05
6.51108e-05
6.65459e-05
7.06641e-05
9.67756e-05
0.000138217
0.00013824
0.00013824
0.00013824
0.00013824
0.00013824
0.00013824
0.00013824
0.000138236
0.000110627
7.37052e-05
6.86701e-05
6.66236e-05
6.6227e-05
6.67762e-05
6.9158e-05
7.37938e-05
0.000105097
0.00013723
0.000138234
0.000135292
9.35035e-05
7.22544e-05
6.7504e-05
6.59275e-05
6.54107e-05
6.55297e-05
6.64531e-05
7.00551e-05
8.03632e-05
0.000135441
0.00013824
0.00013824
0.00013824
0.00013824
0.00013824
0.00013824
0.00013824
0.00013824
0.000138067
9.97234e-05
7.27937e-05
6.92055e-05
6.78409e-05
6.88959e-05
7.21985e-05
9.11125e-05
0.000137215
0.00013824
0.00013824
0.00013824
0.00013824
0.00013824
0.00013824
0.000120112
7.21358e-05
6.59409e-05
6.39139e-05
6.29145e-05
6.234e-05
6.1985e-05
6.17728e-05
6.16772e-05
6.16941e-05
6.18461e-05
6.22026e-05
6.2906e-05
6.4541e-05
6.99067e-05
0.000108265
0.000138239
0.00013824
0.00013824
0.00013824
0.00013824
0.00013824
0.00013824
0.00013824
0.00013824
0.00013824
0.00013824
0.00013824
0.00013824
0.00013824
0.00013824
0.00013824
0.00013824
0.00013824
0.00013824
0.00013824
0.00013824
0.00013824
0.00013824
0.00013824
0.00013824
0.00013824
0.00013824
0.00013824
0.00013824
0.000133453
7.25927e-05
6.54552e-05
6.34577e-05
6.26182e-05
6.22196e-05
6.20335e-05
6.19677e-05
6.19771e-05
6.20352e-05
6.21261e-05
6.22434e-05
6.23896e-05
6.25775e-05
6.28359e-05
6.32196e-05
6.38344e-05
6.4923e-05
6.72603e-05
7.5126e-05
0.000134553
0.00013824
0.00013824
0.00013824
0.00013824
0.00013824
0.00013824
0.00013824
0.00013824
0.00013824
0.000138239
0.00012703
8.48901e-05
7.2448e-05
7.13e-05
7.28638e-05
8.95703e-05
0.000128343
0.000138237
0.00013824
0.00013824
0.00013824
0.000138201
0.000119344
7.69668e-05
7.1066e-05
6.96238e-05
7.01518e-05
7.29268e-05
0.000102133
0.00013761
0.00013824
0.00013824
0.00013824
0.00013824
0.00013824
0.00013824
0.00013824
0.00013824
0.00013824
0.00013824
0.00013823
0.000124775
9.36251e-05
7.97588e-05
8.98558e-05
0.000120203
0.000138179
0.00013824
0.00013824
0.00013824
0.00013824
0.00013824
0.00013824
0.00013824
0.000138239
0.000107868
7.06863e-05
6.5171e-05
6.3367e-05
6.25304e-05
6.20692e-05
6.18355e-05
6.17934e-05
6.19338e-05
6.23032e-05
6.31112e-05
6.46955e-05
7.02621e-05
0.000111094
0.000138239
0.00013824
0.00013824
0.00013824
0.00013824
0.00013824
0.00013824
0.00013824
0.00013824
0.00013824
0.00013824
0.00013824
0.00013824
0.00013824
0.00013824
0.00013824
0.00013824
0.00013824
0.00013824
0.00013824
0.00013824
0.00013824
0.00013824
0.00013824
0.00013824
0.00013824
0.00013824
0.00013824
0.00013824
0.00013824
0.00013824
0.00012692
7.13312e-05
6.49447e-05
6.31002e-05
6.22927e-05
6.18652e-05
6.16341e-05
6.1527e-05
6.15026e-05
6.15393e-05
6.16308e-05
6.17815e-05
6.20086e-05
6.23538e-05
6.29052e-05
6.38603e-05
6.58098e-05
7.19001e-05
0.00012067
0.00013824
0.00013824
0.00013824
0.00013824
0.00013824
0.00013824
0.00013824
0.00013824
0.00013824
0.00013824
0.00013824
0.00013824
0.000138024
0.000126833
0.000118106
0.000129336
0.000138161
0.00013824
0.00013824
0.00013824
0.00013824
0.00013824
0.00013824
0.00013824
0.00013682
0.000117587
0.000101941
0.000109281
0.000130622
0.000138235
0.00013824
0.00013824
0.00013824
0.00013824
0.00013824
0.00013824
0.00013824
0.00013824
0.00013824
0.00013824
0.00013824
0.00013824
0.00013824
0.000138204
0.000137498
0.00013816
0.00013824
0.00013824
0.00013824
0.00013824
0.00013824
0.00013824
0.00013824
0.00013824
0.00013824
0.00013824
0.000138238
0.000107634
7.06918e-05
6.51902e-05
6.36172e-05
6.28334e-05
6.24909e-05
6.25474e-05
6.29707e-05
6.38598e-05
6.65329e-05
7.18624e-05
0.000122288
0.00013824
0.00013824
0.00013824
0.00013824
0.00013824
0.00013824
0.00013824
0.00013824
0.00013824
0.00013824
0.00013824
0.00013824
0.00013824
0.00013824
0.00013824
0.00013824
0.00013824
0.00013824
0.00013824
0.00013824
0.00013824
0.00013824
0.00013824
0.00013824
0.00013824
0.00013824
0.00013824
0.00013824
0.00013824
0.00013824
0.00013824
0.00013824
0.00013824
0.000123834
7.10018e-05
6.48009e-05
6.30085e-05
6.21315e-05
6.16456e-05
6.13908e-05
6.12748e-05
6.1258e-05
6.13328e-05
6.15059e-05
6.18007e-05
6.2288e-05
6.31492e-05
6.49077e-05
7.01066e-05
0.000105263
0.000138238
0.00013824
0.00013824
0.00013824
0.00013824
0.00013824
0.00013824
0.00013824
0.00013824
0.00013824
0.00013824
0.00013824
0.00013824
0.00013824
0.00013824
0.00013824
0.00013824
0.00013824
0.00013824
0.00013824
0.00013824
0.00013824
0.00013824
0.00013824
0.00013824
0.00013824
0.00013824
0.000138234
0.000138239
0.00013824
0.00013824
0.00013824
0.00013824
0.00013824
0.00013824
0.00013824
0.00013824
0.00013824
0.00013824
0.00013824
0.00013824
0.00013824
0.00013824
0.00013824
0.00013824
0.00013824
0.00013824
0.00013824
0.00013824
0.00013824
0.00013824
0.00013824
0.00013824
0.00013824
0.00013824
0.00013824
0.00013824
0.00013824
0.000138239
0.000120853
7.28462e-05
6.81e-05
6.55461e-05
6.45882e-05
6.50723e-05
6.69285e-05
6.9901e-05
9.13379e-05
0.000134319
0.00013824
0.00013824
0.00013824
0.00013824
0.00013824
0.00013824
0.00013824
0.00013824
0.00013824
0.00013824
0.00013824
0.00013824
0.00013824
0.00013824
0.00013824
0.00013824
0.00013824
0.00013824
0.00013824
0.00013824
0.00013824
0.00013824
0.00013824
0.00013824
0.00013824
0.00013824
0.00013824
0.00013824
0.00013824
0.00013824
0.00013824
0.00013824
0.00013824
0.00013824
0.00013824
0.000127066
7.17467e-05
6.55926e-05
6.32757e-05
6.21858e-05
6.16767e-05
6.14207e-05
6.13276e-05
6.13914e-05
6.1623e-05
6.20531e-05
6.28264e-05
6.44783e-05
6.94407e-05
9.9061e-05
0.000138232
0.00013824
0.00013824
0.00013824
0.00013824
0.00013824
0.00013824
0.00013824
0.00013824
0.00013824
0.00013824
0.00013824
0.00013824
0.00013824
0.00013824
0.00013824
0.00013824
0.00013824
0.00013824
0.00013824
0.00013824
0.00013824
0.00013824
0.00013824
0.00013824
0.00013824
0.00013824
0.00013824
0.00013824
0.00013824
0.00013824
0.00013824
0.00013824
0.00013824
0.00013824
0.00013824
0.00013824
0.00013824
0.00013824
0.00013824
0.00013824
0.00013824
0.00013824
0.00013824
0.00013824
0.00013824
0.00013824
0.00013824
0.00013824
0.00013824
0.00013824
0.00013824
0.00013824
0.00013824
0.00013824
0.00013824
0.00013824
0.00013824
0.00013824
0.00013824
0.00013824
0.000135206
0.000106667
7.96779e-05
7.28733e-05
7.71411e-05
9.70943e-05
0.000125764
0.000138216
0.00013824
0.00013824
0.00013824
0.00013824
0.00013824
0.00013824
0.00013824
0.00013824
0.00013824
0.00013824
0.00013824
0.00013824
0.00013824
0.00013824
0.00013824
0.00013824
0.00013824
0.00013824
0.00013824
0.00013824
0.00013824
0.00013824
0.00013824
0.00013824
0.00013824
0.00013824
0.00013824
0.00013824
0.00013824
0.00013824
0.00013824
0.00013824
0.00013824
0.00013824
0.00013824
0.00013824
0.00013824
0.000134034
8.00479e-05
6.77973e-05
6.39423e-05
6.28105e-05
6.22224e-05
6.19456e-05
6.20016e-05
6.24124e-05
6.32065e-05
6.47765e-05
7.00448e-05
0.00010443
0.000138232
0.00013824
0.00013824
0.00013824
0.00013824
0.00013824
0.00013824
0.00013824
0.00013824
0.00013824
0.00013824
0.00013824
0.00013824
0.00013824
0.00013824
0.00013824
0.00013824
0.00013824
0.00013824
0.00013824
0.00013824
0.00013824
0.00013824
0.00013824
0.00013824
0.00013824
0.00013824
0.00013824
0.00013824
0.00013824
0.00013824
0.00013824
0.00013824
0.00013824
0.00013824
0.00013824
0.00013824
0.00013824
0.00013824
0.00013824
0.00013824
0.00013824
0.00013824
0.00013824
0.00013824
0.00013824
0.00013824
0.00013824
0.00013824
0.00013824
0.00013824
0.00013824
0.00013824
0.00013824
0.00013824
0.00013824
0.00013824
0.00013824
0.00013824
0.00013824
0.00013824
0.00013824
0.00013824
0.000138239
0.000137872
0.000136009
0.000137607
0.000138232
0.00013824
0.00013824
0.00013824
0.00013824
0.00013824
0.00013824
0.00013824
0.00013824
0.00013824
0.00013824
0.00013824
0.00013824
0.00013824
0.00013824
0.00013824
0.00013824
0.00013824
0.00013824
0.00013824
0.00013824
0.00013824
0.00013824
0.00013824
0.00013824
0.00013824
0.00013824
0.00013824
0.00013824
0.00013824
0.00013824
0.00013824
0.00013824
0.00013824
0.00013824
0.00013824
0.00013824
0.00013824
0.00013824
0.00013824
0.00013824
0.000137974
0.000107629
7.08121e-05
6.72912e-05
6.5024e-05
6.38718e-05
6.39149e-05
6.52262e-05
6.78953e-05
7.31236e-05
0.000121561
0.000138238
0.00013824
0.00013824
0.00013824
0.00013824
0.00013824
0.00013824
0.00013824
0.00013824
0.00013824
0.00013824
0.00013824
0.00013824
0.00013824
0.00013824
0.00013824
0.00013824
0.00013824
0.00013824
0.00013824
0.00013824
0.00013824
0.00013824
0.00013824
0.00013824
0.00013824
0.00013824
0.00013824
0.00013824
0.00013824
0.00013824
0.00013824
0.00013824
0.00013824
0.00013824
0.00013824
0.00013824
0.00013824
0.00013824
0.00013824
0.00013824
0.00013824
0.00013824
0.00013824
0.00013824
0.00013824
0.00013824
0.00013824
0.00013824
0.00013824
0.00013824
0.00013824
0.00013824
0.00013824
0.00013824
0.00013824
0.00013824
0.00013824
0.00013824
0.00013824
0.00013824
0.00013824
0.00013824
0.00013824
0.00013824
0.00013824
0.00013824
0.00013824
0.00013824
0.00013824
0.00013824
0.00013824
0.00013824
0.00013824
0.00013824
0.00013824
0.00013824
0.00013824
0.00013824
0.00013824
0.00013824
0.00013824
0.00013824
0.00013824
0.00013824
0.00013824
0.00013824
0.00013824
0.00013824
0.00013824
0.00013824
0.00013824
0.00013824
0.00013824
0.00013824
0.00013824
0.00013824
0.00013824
0.00013824
0.00013824
0.00013824
0.00013824
0.00013824
0.00013824
0.00013824
0.00013824
0.00013824
0.00013824
0.00013824
0.00013824
0.000138239
0.000132996
0.000106244
8.05611e-05
7.13771e-05
7.13374e-05
8.09871e-05
0.000109825
0.000136218
0.00013824
0.00013824
0.00013824
0.00013824
0.00013824
0.00013824
0.00013824
0.00013824
0.00013824
0.00013824
0.00013824
0.00013824
0.00013824
0.00013824
0.00013824
0.00013824
0.00013824
0.00013824
0.00013824
0.00013824
0.00013824
0.00013824
0.00013824
0.00013824
0.00013824
0.00013824
0.00013824
0.00013824
0.00013824
0.00013824
0.00013824
0.00013824
0.00013824
0.00013824
0.00013824
0.00013824
0.00013824
0.00013824
0.00013824
0.00013824
0.00013824
0.00013824
0.00013824
0.00013824
0.00013824
0.00013824
0.00013824
0.00013824
0.00013824
0.00013824
0.00013824
0.00013824
0.00013824
0.00013824
0.00013824
0.00013824
0.00013824
0.00013824
0.00013824
0.00013824
0.00013824
0.00013824
0.00013824
0.00013824
0.00013824
0.00013824
0.00013824
0.00013824
0.00013824
0.00013824
0.00013824
0.00013824
0.00013824
0.00013824
0.00013824
0.00013824
0.00013824
0.00013824
0.00013824
0.00013824
0.00013824
0.00013824
0.00013824
0.00013824
0.00013824
0.00013824
0.00013824
0.00013824
0.00013824
0.00013824
0.00013824
0.00013824
0.00013824
0.00013824
0.00013824
0.00013824
0.00013824
0.00013824
0.00013824
0.00013824
0.00013824
0.00013824
0.00013824
0.00013824
0.00013824
0.00013824
0.00013824
0.00013824
0.00013824
0.00013824
0.00013824
0.00013824
0.00013824
0.000138239
0.000138
0.000135236
0.000135078
0.00013801
0.00013824
0.00013824
0.00013824
0.00013824
0.00013824
0.00013824
0.00013824
0.00013824
0.00013824
0.00013824
0.00013824
0.00013824
0.00013824
0.00013824
0.00013824
0.00013824
0.00013824
0.00013824
0.00013824
0.00013824
0.00013824
0.00013824
0.00013824
0.00013824
0.00013824
0.00013824
0.00013824
0.00013824
0.00013824
0.00013824
0.00013824
0.00013824
0.00013824
0.00013824
0.00013824
0.00013824
0.00013824
0.00013824
0.00013824
0.00013824
0.00013824
0.00013824
0.00013824
0.00013824
0.00013824
0.00013824
0.00013824
0.00013824
0.00013824
0.00013824
0.00013824
0.00013824
0.00013824
0.00013824
0.00013824
0.00013824
0.00013824
0.00013824
0.00013824
0.00013824
0.00013824
0.00013824
0.00013824
0.00013824
0.00013824
0.00013824
0.00013824
0.00013824
0.00013824
0.00013824
0.00013824
0.00013824
0.00013824
0.00013824
0.00013824
0.00013824
0.00013824
0.00013824
0.00013824
0.00013824
0.00013824
0.00013824
0.00013824
0.00013824
0.00013824
0.00013824
0.00013824
0.00013824
0.00013824
0.00013824
0.00013824
0.00013824
0.00013824
0.00013824
0.00013824
0.00013824
0.00013824
0.00013824
0.00013824
0.00013824
0.00013824
0.00013824
0.00013824
0.00013824
0.00013824
0.00013824
0.00013824
0.00013824
0.00013824
0.00013824
0.00013824
0.00013824
0.00013824
0.00013824
0.00013824
0.00013824
0.00013824
0.00013824
0.00013824
0.00013824
0.00013824
0.00013824
0.00013824
0.00013824
0.00013824
0.00013824
0.00013824
0.00013824
0.00013824
0.00013824
0.00013824
0.00013824
0.00013824
0.00013824
0.00013824
0.00013824
0.00013824
0.00013824
0.00013824
0.00013824
0.00013824
0.00013824
0.00013824
0.00013824
0.00013824
0.00013824
0.00013824
0.00013824
0.00013824
0.00013824
0.00013824
0.00013824
0.00013824
0.00013824
0.00013824
0.00013824
0.00013824
0.00013824
0.00013824
0.00013824
0.00013824
0.00013824
0.00013824
0.00013824
0.00013824
0.00013824
0.00013824
0.00013824
0.00013824
0.00013824
0.00013824
0.00013824
0.00013824
0.00013824
0.00013824
0.00013824
0.00013824
0.00013824
0.00013824
0.00013824
0.00013824
0.00013824
0.00013824
0.00013824
0.00013824
0.00013824
0.00013824
0.00013824
0.00013824
0.00013824
0.00013824
0.00013824
0.00013824
0.00013824
0.00013824
0.00013824
0.00013824
0.00013824
0.00013824
0.00013824
0.00013824
0.00013824
0.00013824
0.00013824
0.00013824
0.00013824
0.00013824
0.00013824
0.00013824
0.00013824
0.00013824
0.00013824
0.00013824
0.00013824
0.00013824
0.00013824
0.00013824
0.00013824
0.00013824
0.00013824
0.00013824
0.00013824
0.00013824
0.00013824
0.00013824
0.00013824
0.00013824
0.00013824
0.00013824
0.00013824
0.00013824
0.00013824
0.00013824
0.00013824
0.00013824
0.00013824
0.00013824
0.00013824
0.00013824
0.00013824
0.00013824
0.00013824
0.00013824
0.00013824
0.00013824
0.00013824
0.00013824
0.00013824
0.00013824
0.00013824
0.00013824
0.00013824
0.00013824
0.00013824
0.00013824
0.00013824
0.00013824
0.00013824
0.00013824
0.00013824
0.00013824
0.00013824
0.00013824
0.00013824
0.00013824
0.00013824
0.00013824
0.00013824
0.00013824
0.00013824
0.00013824
0.00013824
0.00013824
0.00013824
0.00013824
0.00013824
0.00013824
0.00013824
0.00013824
0.00013824
0.00013824
0.00013824
0.00013824
0.00013824
0.00013824
0.00013824
0.00013824
0.00013824
0.00013824
0.00013824
0.00013824
0.00013824
0.00013824
0.00013824
0.00013824
0.00013824
0.00013824
0.00013824
0.00013824
0.00013824
0.00013824
0.00013824
0.00013824
0.00013824
0.00013824
0.00013824
0.00013824
0.00013824
0.00013824
0.00013824
0.00013824
0.00013824
0.00013824
0.00013824
0.00013824
0.00013824
0.00013824
0.00013824
0.00013824
0.00013824
0.00013824
0.00013824
0.00013824
0.00013824
0.00013824
0.00013824
0.00013824
0.00013824
0.00013824
0.00013824
0.00013824
0.00013824
0.00013824
0.00013824
0.00013824
0.00013824
0.00013824
0.00013824
0.00013824
0.00013824
0.00013824
0.00013824
0.00013824
0.00013824
0.00013824
0.00013824
0.00013824
0.00013824
0.00013824
0.00013824
0.00013824
0.00013824
0.00013824
0.00013824
0.00013824
0.00013824
0.00013824
0.00013824
0.00013824
0.00013824
0.00013824
0.00013824
0.00013824
0.00013824
0.00013824
0.00013824
0.00013824
0.00013824
0.00013824
0.00013824
0.00013824
0.00013824
0.00013824
0.00013824
0.00013824
0.00013824
0.00013824
0.00013824
0.00013824
0.00013824
0.00013824
0.00013824
0.00013824
0.00013824
0.00013824
0.00013824
0.00013824
0.00013824
0.00013824
0.00013824
0.00013824
0.00013824
0.00013824
0.00013824
0.00013824
0.00013824
0.00013824
0.00013824
0.00013824
0.00013824
0.00013824
0.00013824
0.00013824
0.00013824
0.00013824
0.00013824
0.00013824
0.00013824
0.00013824
0.00013824
0.00013824
0.00013824
0.00013824
0.00013824
0.00013824
0.00013824
0.00013824
0.00013824
0.00013824
0.00013824
0.00013824
0.00013824
0.00013824
0.00013824
0.00013824
0.00013824
0.00013824
0.00013824
0.00013824
0.00013824
0.00013824
0.00013824
0.00013824
0.00013824
0.00013824
0.00013824