/*--------------------------------*- C++ -*----------------------------------*\
| =========                 |                                                 |
| \\      /  F ield         | OpenFOAM: The Open Source CFD Toolbox           |
|  \\    /   O peration     | Version:  2406                                  |
|   \\  /    A nd           | Website:  www.openfoam.com                      |
|    \\/     M anipulation  |                                                 |
\*---------------------------------------------------------------------------*/
FoamFile
{
    version     2.0;
    format      ascii;
    arch        "LSB;label=32;scalar=64";
    class       volScalarField;
    location    "10";
    object      Da;
}
// * * * * * * * * * * * * * * * * * * * * * * * * * * * * * * * * * * * * * //

dimensions      [0 2 -1 0 0 0 0];

internalField   nonuniform List<scalar> 
14400
(
5.29582e-05
5.29728e-05
5.30074e-05
5.30622e-05
5.31294e-05
5.31958e-05
5.32482e-05
5.32773e-05
5.32804e-05
5.32622e-05
5.32344e-05
5.32134e-05
5.32155e-05
5.32496e-05
5.33089e-05
5.33683e-05
5.34062e-05
5.3438e-05
5.3473e-05
5.34971e-05
5.34784e-05
5.33784e-05
5.31595e-05
5.27896e-05
5.22468e-05
5.15244e-05
5.06389e-05
4.96403e-05
4.86132e-05
4.76514e-05
4.68221e-05
4.61529e-05
4.56443e-05
4.52878e-05
4.5082e-05
4.50482e-05
4.52663e-05
4.60269e-05
4.89523e-05
7.51405e-05
7.8e-05
7.8e-05
7.8e-05
7.8e-05
7.8e-05
7.8e-05
7.8e-05
7.8e-05
7.8e-05
7.8e-05
7.8e-05
7.8e-05
7.8e-05
7.8e-05
7.8e-05
7.8e-05
7.8e-05
7.8e-05
7.32727e-05
4.87586e-05
4.61254e-05
4.55023e-05
4.53942e-05
4.55522e-05
4.59192e-05
4.64953e-05
4.73034e-05
4.83626e-05
4.96509e-05
5.10727e-05
5.24799e-05
5.37392e-05
5.47741e-05
5.55554e-05
5.60778e-05
5.63469e-05
5.63736e-05
5.6173e-05
5.57656e-05
5.51813e-05
5.44665e-05
5.36905e-05
5.29513e-05
5.23834e-05
5.21973e-05
5.29202e-05
5.72302e-05
7.73764e-05
6.03601e-05
5.24651e-05
5.08553e-05
5.04372e-05
5.04375e-05
5.06448e-05
5.09629e-05
5.13325e-05
5.1711e-05
5.20679e-05
5.23823e-05
5.2641e-05
5.28365e-05
5.29635e-05
5.30173e-05
5.29933e-05
5.28883e-05
5.27017e-05
5.24343e-05
5.20884e-05
5.16684e-05
5.11841e-05
5.06539e-05
5.01067e-05
4.9581e-05
4.91213e-05
4.87764e-05
4.86068e-05
4.8717e-05
4.9392e-05
5.20731e-05
7.24204e-05
5.24385e-05
5.24229e-05
5.24143e-05
5.24273e-05
5.24607e-05
5.25037e-05
5.25431e-05
5.25695e-05
5.258e-05
5.25793e-05
5.25798e-05
5.25992e-05
5.26552e-05
5.2756e-05
5.28832e-05
5.29796e-05
5.29855e-05
5.29625e-05
5.295e-05
5.29408e-05
5.29018e-05
5.27917e-05
5.25709e-05
5.22071e-05
5.168e-05
5.09863e-05
5.01472e-05
4.92155e-05
4.82704e-05
4.7392e-05
4.66354e-05
4.60237e-05
4.55588e-05
4.52368e-05
4.50623e-05
4.5066e-05
4.53554e-05
4.63562e-05
5.06365e-05
7.73223e-05
7.8e-05
7.8e-05
7.8e-05
7.8e-05
7.8e-05
7.8e-05
7.8e-05
7.8e-05
7.8e-05
7.8e-05
7.8e-05
7.8e-05
7.8e-05
7.8e-05
7.8e-05
7.8e-05
7.8e-05
7.8e-05
7.61578e-05
4.95574e-05
4.6352e-05
4.55702e-05
4.53994e-05
4.55174e-05
4.58464e-05
4.63766e-05
4.71245e-05
4.81075e-05
4.93113e-05
5.06582e-05
5.20145e-05
5.3248e-05
5.42731e-05
5.50516e-05
5.55731e-05
5.5841e-05
5.58655e-05
5.56619e-05
5.52523e-05
5.46699e-05
5.39652e-05
5.32122e-05
5.25126e-05
5.20045e-05
5.19169e-05
5.29365e-05
5.94346e-05
7.78549e-05
6.48239e-05
5.26758e-05
5.06711e-05
5.01356e-05
5.00543e-05
5.01901e-05
5.04441e-05
5.07583e-05
5.10927e-05
5.14187e-05
5.1716e-05
5.19707e-05
5.21721e-05
5.231e-05
5.23738e-05
5.23533e-05
5.22434e-05
5.20467e-05
5.17706e-05
5.14238e-05
5.10157e-05
5.05592e-05
5.00734e-05
4.95858e-05
4.91302e-05
4.87456e-05
4.84775e-05
4.83889e-05
4.86032e-05
4.94765e-05
5.27292e-05
7.57599e-05
5.15481e-05
5.14587e-05
5.1354e-05
5.12797e-05
5.12447e-05
5.124e-05
5.12524e-05
5.1272e-05
5.12957e-05
5.13283e-05
5.13829e-05
5.14801e-05
5.16432e-05
5.18859e-05
5.21766e-05
5.23757e-05
5.22747e-05
5.21076e-05
5.19824e-05
5.18971e-05
5.18114e-05
5.1678e-05
5.14541e-05
5.11077e-05
5.06212e-05
4.99966e-05
4.92606e-05
4.84637e-05
4.76699e-05
4.69375e-05
4.63059e-05
4.57936e-05
4.5406e-05
4.51467e-05
4.50303e-05
4.51059e-05
4.55417e-05
4.72036e-05
5.84852e-05
7.79875e-05
7.8e-05
7.8e-05
7.8e-05
7.8e-05
7.8e-05
7.8e-05
7.8e-05
7.8e-05
7.8e-05
7.8e-05
7.8e-05
7.8e-05
7.8e-05
7.8e-05
7.8e-05
7.8e-05
7.8e-05
7.8e-05
7.79272e-05
5.49708e-05
4.70592e-05
4.57255e-05
4.54146e-05
4.54558e-05
4.57148e-05
4.61623e-05
4.68028e-05
4.76479e-05
4.86921e-05
4.98849e-05
5.11233e-05
5.2285e-05
5.32745e-05
5.40377e-05
5.45525e-05
5.48162e-05
5.48373e-05
5.4632e-05
5.42263e-05
5.36601e-05
5.29922e-05
5.23039e-05
5.16998e-05
5.13185e-05
5.14133e-05
5.29631e-05
6.43933e-05
7.7992e-05
7.19383e-05
5.30787e-05
5.04191e-05
4.96465e-05
4.94083e-05
4.94134e-05
4.95511e-05
4.97631e-05
5.00125e-05
5.02743e-05
5.0531e-05
5.07686e-05
5.09735e-05
5.11285e-05
5.12111e-05
5.11989e-05
5.10826e-05
5.08725e-05
5.05894e-05
5.02537e-05
4.98818e-05
4.9489e-05
4.90931e-05
4.87155e-05
4.83819e-05
4.81235e-05
4.79832e-05
4.80344e-05
4.84553e-05
4.9953e-05
5.78291e-05
7.79145e-05
5.05855e-05
5.03547e-05
5.00979e-05
4.99018e-05
4.97769e-05
4.971e-05
4.96861e-05
4.96946e-05
4.97321e-05
4.98037e-05
4.99233e-05
5.01157e-05
5.04181e-05
5.08747e-05
5.14846e-05
5.19762e-05
5.1537e-05
5.107e-05
5.07526e-05
5.05474e-05
5.03895e-05
5.02207e-05
4.99953e-05
4.96823e-05
4.92676e-05
4.87563e-05
4.81726e-05
4.75549e-05
4.69467e-05
4.63862e-05
4.59009e-05
4.55072e-05
4.52157e-05
4.50388e-05
4.50044e-05
4.51867e-05
4.58363e-05
4.83293e-05
7.01526e-05
7.8e-05
7.8e-05
7.8e-05
7.8e-05
7.8e-05
7.8e-05
7.8e-05
7.8e-05
7.8e-05
7.8e-05
7.8e-05
7.8e-05
7.8e-05
7.8e-05
7.8e-05
7.8e-05
7.8e-05
7.8e-05
7.8e-05
7.79998e-05
6.63678e-05
4.81024e-05
4.59533e-05
4.54493e-05
4.53842e-05
4.55495e-05
4.58908e-05
4.63971e-05
4.70701e-05
4.7906e-05
4.88767e-05
4.9917e-05
5.09327e-05
5.18299e-05
5.25409e-05
5.30288e-05
5.32805e-05
5.33001e-05
5.31055e-05
5.2729e-05
5.22194e-05
5.16439e-05
5.10869e-05
5.06497e-05
5.04697e-05
5.08322e-05
5.3025e-05
7.09396e-05
7.79999e-05
7.75846e-05
5.55901e-05
5.04552e-05
4.91621e-05
4.86881e-05
4.85278e-05
4.85272e-05
4.86184e-05
4.87644e-05
4.89436e-05
4.91418e-05
4.93475e-05
4.9547e-05
4.97179e-05
4.98248e-05
4.98267e-05
4.97062e-05
4.94866e-05
4.92075e-05
4.89015e-05
4.85893e-05
4.8285e-05
4.80012e-05
4.77517e-05
4.75549e-05
4.74372e-05
4.74433e-05
4.76654e-05
4.83627e-05
5.08158e-05
6.90905e-05
7.79999e-05
5.00091e-05
4.94694e-05
4.89843e-05
4.8644e-05
4.84252e-05
4.82968e-05
4.82367e-05
4.82318e-05
4.82779e-05
4.83807e-05
4.85567e-05
4.88387e-05
4.929e-05
5.00377e-05
5.13309e-05
5.33509e-05
5.12098e-05
5.01222e-05
4.95258e-05
4.91724e-05
4.89304e-05
4.8722e-05
4.84985e-05
4.82304e-05
4.79046e-05
4.75231e-05
4.71006e-05
4.66602e-05
4.62284e-05
4.58298e-05
4.5485e-05
4.52102e-05
4.50213e-05
4.49411e-05
4.50172e-05
4.53796e-05
4.65492e-05
5.23095e-05
7.77798e-05
7.8e-05
7.8e-05
7.8e-05
7.8e-05
7.8e-05
7.8e-05
7.8e-05
7.8e-05
7.8e-05
7.8e-05
7.8e-05
7.8e-05
7.8e-05
7.8e-05
7.8e-05
7.8e-05
7.8e-05
7.8e-05
7.8e-05
7.8e-05
7.63391e-05
4.97141e-05
4.63815e-05
4.55531e-05
4.53339e-05
4.53827e-05
4.56049e-05
4.59695e-05
4.64655e-05
4.70842e-05
4.7807e-05
4.85956e-05
4.93902e-05
5.01191e-05
5.07168e-05
5.11381e-05
5.13611e-05
5.13854e-05
5.12297e-05
5.09303e-05
5.05398e-05
5.01246e-05
4.97624e-05
4.95493e-05
4.9641e-05
5.04487e-05
5.39627e-05
7.67851e-05
7.8e-05
7.79998e-05
6.90928e-05
5.14015e-05
4.88868e-05
4.80746e-05
4.77324e-05
4.75981e-05
4.75787e-05
4.76315e-05
4.77354e-05
4.78788e-05
4.80531e-05
4.82466e-05
4.84368e-05
4.85762e-05
4.85984e-05
4.84695e-05
4.82369e-05
4.79629e-05
4.76894e-05
4.74364e-05
4.72143e-05
4.70303e-05
4.68933e-05
4.68185e-05
4.68331e-05
4.69934e-05
4.74356e-05
4.86205e-05
5.33116e-05
7.74346e-05
7.8e-05
5.11176e-05
4.92181e-05
4.82659e-05
4.77231e-05
4.73988e-05
4.72098e-05
4.71162e-05
4.70974e-05
4.71476e-05
4.72736e-05
4.74982e-05
4.78704e-05
4.85069e-05
4.97558e-05
5.33801e-05
7.13623e-05
5.23819e-05
4.95552e-05
4.85309e-05
4.80076e-05
4.76813e-05
4.74369e-05
4.72174e-05
4.69919e-05
4.67451e-05
4.64735e-05
4.61828e-05
4.58848e-05
4.5595e-05
4.53299e-05
4.51059e-05
4.49401e-05
4.48542e-05
4.48847e-05
4.51148e-05
4.58071e-05
4.83634e-05
7.06763e-05
7.8e-05
7.8e-05
7.8e-05
7.8e-05
7.8e-05
7.8e-05
7.8e-05
7.8e-05
7.8e-05
7.8e-05
7.8e-05
7.8e-05
7.8e-05
7.8e-05
7.8e-05
7.8e-05
7.8e-05
7.8e-05
7.8e-05
7.8e-05
7.8e-05
7.79994e-05
6.42312e-05
4.78081e-05
4.58414e-05
4.53489e-05
4.52483e-05
4.53422e-05
4.55692e-05
4.59034e-05
4.63284e-05
4.68262e-05
4.73711e-05
4.79264e-05
4.84469e-05
4.88861e-05
4.92063e-05
4.93859e-05
4.94228e-05
4.9333e-05
4.91493e-05
4.89172e-05
4.86929e-05
4.85445e-05
4.85714e-05
4.89921e-05
5.07584e-05
6.30576e-05
7.79935e-05
7.8e-05
7.8e-05
7.77661e-05
5.51979e-05
4.91415e-05
4.77238e-05
4.71568e-05
4.68891e-05
4.67736e-05
4.67517e-05
4.67992e-05
4.69054e-05
4.7064e-05
4.72672e-05
4.74973e-05
4.76957e-05
4.77534e-05
4.75912e-05
4.73189e-05
4.70285e-05
4.67682e-05
4.65535e-05
4.63889e-05
4.62778e-05
4.62278e-05
4.62552e-05
4.63961e-05
4.67391e-05
4.75534e-05
5.01856e-05
7.02062e-05
7.8e-05
7.8e-05
6.72076e-05
5.07764e-05
4.81608e-05
4.72171e-05
4.67366e-05
4.64723e-05
4.63415e-05
4.63081e-05
4.63621e-05
4.65128e-05
4.67953e-05
4.72946e-05
4.82707e-05
5.09977e-05
6.97661e-05
7.79738e-05
5.9666e-05
4.97312e-05
4.78838e-05
4.71494e-05
4.67365e-05
4.64575e-05
4.62383e-05
4.60425e-05
4.58512e-05
4.56568e-05
4.54591e-05
4.52633e-05
4.50786e-05
4.4917e-05
4.47931e-05
4.47261e-05
4.47458e-05
4.49117e-05
4.53897e-05
4.69655e-05
5.73307e-05
7.7984e-05
7.8e-05
7.8e-05
7.8e-05
7.8e-05
7.8e-05
7.8e-05
7.8e-05
7.8e-05
7.8e-05
7.8e-05
7.8e-05
7.8e-05
7.8e-05
7.8e-05
7.8e-05
7.8e-05
7.8e-05
7.8e-05
7.8e-05
7.8e-05
7.8e-05
7.8e-05
7.71947e-05
5.0372e-05
4.64307e-05
4.54854e-05
4.51825e-05
4.51338e-05
4.52289e-05
4.54225e-05
4.56891e-05
4.60084e-05
4.63596e-05
4.67181e-05
4.70566e-05
4.73473e-05
4.75671e-05
4.77022e-05
4.77516e-05
4.77279e-05
4.76557e-05
4.75702e-05
4.75176e-05
4.75631e-05
4.78241e-05
4.86121e-05
5.13927e-05
7.34942e-05
7.8e-05
7.8e-05
7.8e-05
7.8e-05
7.38355e-05
5.09274e-05
4.78719e-05
4.68996e-05
4.6453e-05
4.62362e-05
4.6148e-05
4.61544e-05
4.62428e-05
4.64101e-05
4.66552e-05
4.69808e-05
4.73222e-05
4.74847e-05
4.71908e-05
4.68001e-05
4.64398e-05
4.61562e-05
4.59503e-05
4.58175e-05
4.57565e-05
4.57758e-05
4.58998e-05
4.61852e-05
4.68101e-05
4.85929e-05
5.88657e-05
7.79803e-05
7.8e-05
7.8e-05
7.7995e-05
6.21672e-05
4.94029e-05
4.72394e-05
4.6446e-05
4.60575e-05
4.58737e-05
4.58217e-05
4.58835e-05
4.60729e-05
4.64524e-05
4.71949e-05
4.9112e-05
5.93778e-05
7.79793e-05
7.8e-05
7.31359e-05
5.06405e-05
4.76385e-05
4.66096e-05
4.6088e-05
4.57654e-05
4.55365e-05
4.53547e-05
4.51968e-05
4.50518e-05
4.4916e-05
4.47914e-05
4.46839e-05
4.46035e-05
4.45657e-05
4.45951e-05
4.4737e-05
4.5096e-05
4.60201e-05
4.95061e-05
7.67277e-05
7.8e-05
7.8e-05
7.8e-05
7.8e-05
7.8e-05
7.8e-05
7.8e-05
7.8e-05
7.8e-05
7.8e-05
7.8e-05
7.8e-05
7.8e-05
7.8e-05
7.8e-05
7.8e-05
7.8e-05
7.8e-05
7.8e-05
7.8e-05
7.8e-05
7.8e-05
7.8e-05
7.8e-05
7.03638e-05
4.84463e-05
4.59303e-05
4.52444e-05
4.50096e-05
4.49694e-05
4.50392e-05
4.51793e-05
4.53649e-05
4.55764e-05
4.57957e-05
4.60054e-05
4.61894e-05
4.63353e-05
4.64365e-05
4.64945e-05
4.65191e-05
4.65297e-05
4.65551e-05
4.66389e-05
4.68569e-05
4.73896e-05
4.8986e-05
5.81364e-05
7.79613e-05
7.8e-05
7.8e-05
7.8e-05
7.8e-05
7.79998e-05
6.71007e-05
4.97521e-05
4.7195e-05
4.63564e-05
4.59863e-05
4.5817e-05
4.57875e-05
4.58784e-05
4.60938e-05
4.64481e-05
4.70373e-05
4.78765e-05
4.8737e-05
4.75825e-05
4.67982e-05
4.62246e-05
4.58487e-05
4.56133e-05
4.54885e-05
4.54636e-05
4.55515e-05
4.57985e-05
4.63103e-05
4.75214e-05
5.22549e-05
7.75229e-05
7.8e-05
7.8e-05
7.8e-05
7.8e-05
7.79381e-05
5.64898e-05
4.84016e-05
4.66592e-05
4.59895e-05
4.57087e-05
4.56256e-05
4.57061e-05
4.59733e-05
4.65699e-05
4.79379e-05
5.31422e-05
7.76436e-05
7.8e-05
7.8e-05
7.79862e-05
5.9392e-05
4.83072e-05
4.64266e-05
4.57121e-05
4.53184e-05
4.50629e-05
4.48795e-05
4.47376e-05
4.46224e-05
4.45282e-05
4.44547e-05
4.44072e-05
4.43965e-05
4.44426e-05
4.45853e-05
4.49126e-05
4.56956e-05
4.84205e-05
7.21675e-05
7.8e-05
7.8e-05
7.8e-05
7.8e-05
7.8e-05
7.8e-05
7.8e-05
7.8e-05
7.8e-05
7.8e-05
7.8e-05
7.8e-05
7.8e-05
7.8e-05
7.8e-05
7.8e-05
7.8e-05
7.8e-05
7.8e-05
7.8e-05
7.8e-05
7.8e-05
7.8e-05
7.8e-05
7.8e-05
7.79941e-05
5.94985e-05
4.73133e-05
4.55436e-05
4.50067e-05
4.48082e-05
4.47604e-05
4.47956e-05
4.48799e-05
4.4992e-05
4.51167e-05
4.52415e-05
4.53567e-05
4.54555e-05
4.55356e-05
4.56001e-05
4.56584e-05
4.57278e-05
4.58364e-05
4.60336e-05
4.64243e-05
4.73099e-05
5.01696e-05
7.29247e-05
7.8e-05
7.8e-05
7.8e-05
7.8e-05
7.8e-05
7.8e-05
7.79982e-05
6.35187e-05
4.92247e-05
4.68501e-05
4.61285e-05
4.58023e-05
4.57268e-05
4.58513e-05
4.62168e-05
4.68794e-05
4.8638e-05
5.2359e-05
6.25426e-05
5.07542e-05
4.80481e-05
4.65805e-05
4.59129e-05
4.55741e-05
4.54289e-05
4.54359e-05
4.56219e-05
4.61242e-05
4.72432e-05
5.07997e-05
7.65715e-05
7.8e-05
7.8e-05
7.8e-05
7.8e-05
7.8e-05
7.8e-05
7.78685e-05
5.54677e-05
4.82809e-05
4.64994e-05
4.59741e-05
4.58109e-05
4.5949e-05
4.64271e-05
4.78527e-05
5.21914e-05
7.7234e-05
7.8e-05
7.8e-05
7.8e-05
7.8e-05
7.60292e-05
5.01372e-05
4.67022e-05
4.56256e-05
4.50979e-05
4.47855e-05
4.45819e-05
4.44411e-05
4.43423e-05
4.42771e-05
4.42446e-05
4.42507e-05
4.43113e-05
4.44586e-05
4.47773e-05
4.55149e-05
4.79585e-05
6.69791e-05
7.79999e-05
7.8e-05
7.8e-05
7.8e-05
7.8e-05
7.8e-05
7.8e-05
7.8e-05
7.8e-05
7.8e-05
7.8e-05
7.8e-05
7.8e-05
7.8e-05
7.8e-05
7.8e-05
7.8e-05
7.8e-05
7.8e-05
7.8e-05
7.8e-05
7.8e-05
7.8e-05
7.8e-05
7.8e-05
7.8e-05
7.8e-05
7.77048e-05
5.14936e-05
4.63388e-05
4.51962e-05
4.47745e-05
4.45964e-05
4.45339e-05
4.45345e-05
4.45715e-05
4.46291e-05
4.4697e-05
4.47678e-05
4.48377e-05
4.49065e-05
4.49785e-05
4.50641e-05
4.51818e-05
4.53646e-05
4.56802e-05
4.63134e-05
4.81292e-05
5.96189e-05
7.79895e-05
7.8e-05
7.8e-05
7.8e-05
7.8e-05
7.8e-05
7.8e-05
7.8e-05
7.7998e-05
6.57359e-05
4.94724e-05
4.7246e-05
4.63459e-05
4.61712e-05
4.64132e-05
4.74616e-05
4.95111e-05
6.32882e-05
7.75448e-05
7.79971e-05
7.66766e-05
5.81615e-05
4.88295e-05
4.67316e-05
4.60384e-05
4.58106e-05
4.58631e-05
4.62702e-05
4.78557e-05
5.23663e-05
7.67355e-05
7.8e-05
7.8e-05
7.8e-05
7.8e-05
7.8e-05
7.8e-05
7.8e-05
7.8e-05
7.79212e-05
6.09047e-05
4.9069e-05
4.74824e-05
4.68791e-05
4.73453e-05
4.88054e-05
5.71022e-05
7.75365e-05
7.8e-05
7.8e-05
7.8e-05
7.8e-05
7.8e-05
7.8e-05
6.99186e-05
4.87781e-05
4.6045e-05
4.515e-05
4.47084e-05
4.44546e-05
4.42977e-05
4.42039e-05
4.41616e-05
4.41689e-05
4.42359e-05
4.4393e-05
4.47032e-05
4.54248e-05
4.77887e-05
6.46209e-05
7.79996e-05
7.8e-05
7.8e-05
7.8e-05
7.8e-05
7.8e-05
7.8e-05
7.8e-05
7.8e-05
7.8e-05
7.8e-05
7.8e-05
7.8e-05
7.8e-05
7.8e-05
7.8e-05
7.8e-05
7.8e-05
7.8e-05
7.8e-05
7.8e-05
7.8e-05
7.8e-05
7.8e-05
7.8e-05
7.8e-05
7.8e-05
7.8e-05
7.8e-05
7.58219e-05
4.89663e-05
4.58265e-05
4.49466e-05
4.45766e-05
4.44011e-05
4.43194e-05
4.42906e-05
4.42951e-05
4.4321e-05
4.43612e-05
4.44131e-05
4.44777e-05
4.45608e-05
4.46749e-05
4.48443e-05
4.51158e-05
4.55963e-05
4.66273e-05
5.00922e-05
7.63426e-05
7.8e-05
7.8e-05
7.8e-05
7.8e-05
7.8e-05
7.8e-05
7.8e-05
7.8e-05
7.8e-05
7.79996e-05
7.30052e-05
5.43535e-05
4.89152e-05
4.84096e-05
4.9098e-05
5.64159e-05
7.35874e-05
7.79986e-05
7.8e-05
7.8e-05
7.8e-05
7.79823e-05
6.95861e-05
5.08787e-05
4.83046e-05
4.76679e-05
4.79014e-05
4.91252e-05
6.19536e-05
7.77128e-05
7.8e-05
7.8e-05
7.8e-05
7.8e-05
7.8e-05
7.8e-05
7.8e-05
7.8e-05
7.8e-05
7.8e-05
7.79956e-05
7.20017e-05
5.82089e-05
5.20992e-05
5.65453e-05
6.99756e-05
7.7972e-05
7.8e-05
7.8e-05
7.8e-05
7.8e-05
7.8e-05
7.8e-05
7.8e-05
7.79995e-05
6.44828e-05
4.81354e-05
4.57037e-05
4.4907e-05
4.45376e-05
4.43338e-05
4.42305e-05
4.42118e-05
4.42739e-05
4.44367e-05
4.47923e-05
4.54904e-05
4.79446e-05
6.58634e-05
7.79995e-05
7.8e-05
7.8e-05
7.8e-05
7.8e-05
7.8e-05
7.8e-05
7.8e-05
7.8e-05
7.8e-05
7.8e-05
7.8e-05
7.8e-05
7.8e-05
7.8e-05
7.8e-05
7.8e-05
7.8e-05
7.8e-05
7.8e-05
7.8e-05
7.8e-05
7.8e-05
7.8e-05
7.8e-05
7.8e-05
7.8e-05
7.8e-05
7.8e-05
7.8e-05
7.8e-05
7.28876e-05
4.84165e-05
4.56017e-05
4.47882e-05
4.44322e-05
4.42441e-05
4.41424e-05
4.40954e-05
4.40848e-05
4.41011e-05
4.41416e-05
4.42082e-05
4.43086e-05
4.44611e-05
4.47047e-05
4.51264e-05
4.59869e-05
4.86733e-05
7.0161e-05
7.8e-05
7.8e-05
7.8e-05
7.8e-05
7.8e-05
7.8e-05
7.8e-05
7.8e-05
7.8e-05
7.8e-05
7.8e-05
7.8e-05
7.79013e-05
7.29071e-05
6.90388e-05
7.40176e-05
7.79636e-05
7.8e-05
7.8e-05
7.8e-05
7.8e-05
7.8e-05
7.8e-05
7.8e-05
7.7354e-05
6.88059e-05
6.18812e-05
6.51266e-05
7.45861e-05
7.79979e-05
7.8e-05
7.8e-05
7.8e-05
7.8e-05
7.8e-05
7.8e-05
7.8e-05
7.8e-05
7.8e-05
7.8e-05
7.8e-05
7.8e-05
7.8e-05
7.79835e-05
7.76621e-05
7.79632e-05
7.8e-05
7.8e-05
7.8e-05
7.8e-05
7.8e-05
7.8e-05
7.8e-05
7.8e-05
7.8e-05
7.8e-05
7.79991e-05
6.4362e-05
4.81357e-05
4.57085e-05
4.50156e-05
4.4669e-05
4.45177e-05
4.45426e-05
4.47301e-05
4.51222e-05
4.62936e-05
4.86384e-05
7.08179e-05
7.79999e-05
7.8e-05
7.8e-05
7.8e-05
7.8e-05
7.8e-05
7.8e-05
7.8e-05
7.8e-05
7.8e-05
7.8e-05
7.8e-05
7.8e-05
7.8e-05
7.8e-05
7.8e-05
7.8e-05
7.8e-05
7.8e-05
7.8e-05
7.8e-05
7.8e-05
7.8e-05
7.8e-05
7.8e-05
7.8e-05
7.8e-05
7.8e-05
7.8e-05
7.8e-05
7.8e-05
7.8e-05
7.8e-05
7.15056e-05
4.82698e-05
4.55359e-05
4.4746e-05
4.43604e-05
4.41466e-05
4.40344e-05
4.39833e-05
4.39759e-05
4.4009e-05
4.40855e-05
4.42158e-05
4.44311e-05
4.48115e-05
4.55875e-05
4.78781e-05
6.33254e-05
7.79991e-05
7.8e-05
7.8e-05
7.8e-05
7.8e-05
7.8e-05
7.8e-05
7.8e-05
7.8e-05
7.8e-05
7.8e-05
7.8e-05
7.8e-05
7.8e-05
7.8e-05
7.8e-05
7.8e-05
7.8e-05
7.8e-05
7.8e-05
7.8e-05
7.8e-05
7.8e-05
7.8e-05
7.8e-05
7.8e-05
7.8e-05
7.79974e-05
7.79996e-05
7.8e-05
7.8e-05
7.8e-05
7.8e-05
7.8e-05
7.8e-05
7.8e-05
7.8e-05
7.8e-05
7.8e-05
7.8e-05
7.8e-05
7.8e-05
7.8e-05
7.8e-05
7.8e-05
7.8e-05
7.8e-05
7.8e-05
7.8e-05
7.8e-05
7.8e-05
7.8e-05
7.8e-05
7.8e-05
7.8e-05
7.8e-05
7.8e-05
7.8e-05
7.79996e-05
7.02049e-05
4.90672e-05
4.69877e-05
4.58572e-05
4.5436e-05
4.56477e-05
4.64694e-05
4.77832e-05
5.71052e-05
7.62045e-05
7.8e-05
7.8e-05
7.8e-05
7.8e-05
7.8e-05
7.8e-05
7.8e-05
7.8e-05
7.8e-05
7.8e-05
7.8e-05
7.8e-05
7.8e-05
7.8e-05
7.8e-05
7.8e-05
7.8e-05
7.8e-05
7.8e-05
7.8e-05
7.8e-05
7.8e-05
7.8e-05
7.8e-05
7.8e-05
7.8e-05
7.8e-05
7.8e-05
7.8e-05
7.8e-05
7.8e-05
7.8e-05
7.8e-05
7.8e-05
7.8e-05
7.29352e-05
4.8586e-05
4.58765e-05
4.48631e-05
4.43839e-05
4.41596e-05
4.40466e-05
4.40054e-05
4.40337e-05
4.41361e-05
4.43261e-05
4.46672e-05
4.53966e-05
4.7582e-05
6.05668e-05
7.79961e-05
7.8e-05
7.8e-05
7.8e-05
7.8e-05
7.8e-05
7.8e-05
7.8e-05
7.8e-05
7.8e-05
7.8e-05
7.8e-05
7.8e-05
7.8e-05
7.8e-05
7.8e-05
7.8e-05
7.8e-05
7.8e-05
7.8e-05
7.8e-05
7.8e-05
7.8e-05
7.8e-05
7.8e-05
7.8e-05
7.8e-05
7.8e-05
7.8e-05
7.8e-05
7.8e-05
7.8e-05
7.8e-05
7.8e-05
7.8e-05
7.8e-05
7.8e-05
7.8e-05
7.8e-05
7.8e-05
7.8e-05
7.8e-05
7.8e-05
7.8e-05
7.8e-05
7.8e-05
7.8e-05
7.8e-05
7.8e-05
7.8e-05
7.8e-05
7.8e-05
7.8e-05
7.8e-05
7.8e-05
7.8e-05
7.8e-05
7.8e-05
7.8e-05
7.8e-05
7.8e-05
7.66105e-05
6.39197e-05
5.20012e-05
4.90471e-05
5.08865e-05
5.96699e-05
7.23891e-05
7.79887e-05
7.8e-05
7.8e-05
7.8e-05
7.8e-05
7.8e-05
7.8e-05
7.8e-05
7.8e-05
7.8e-05
7.8e-05
7.8e-05
7.8e-05
7.8e-05
7.8e-05
7.8e-05
7.8e-05
7.8e-05
7.8e-05
7.8e-05
7.8e-05
7.8e-05
7.8e-05
7.8e-05
7.8e-05
7.8e-05
7.8e-05
7.8e-05
7.8e-05
7.8e-05
7.8e-05
7.8e-05
7.8e-05
7.8e-05
7.8e-05
7.8e-05
7.8e-05
7.8e-05
7.60696e-05
5.21408e-05
4.68491e-05
4.51568e-05
4.46584e-05
4.43982e-05
4.4276e-05
4.43008e-05
4.44822e-05
4.4833e-05
4.55229e-05
4.78475e-05
6.29223e-05
7.79961e-05
7.8e-05
7.8e-05
7.8e-05
7.8e-05
7.8e-05
7.8e-05
7.8e-05
7.8e-05
7.8e-05
7.8e-05
7.8e-05
7.8e-05
7.8e-05
7.8e-05
7.8e-05
7.8e-05
7.8e-05
7.8e-05
7.8e-05
7.8e-05
7.8e-05
7.8e-05
7.8e-05
7.8e-05
7.8e-05
7.8e-05
7.8e-05
7.8e-05
7.8e-05
7.8e-05
7.8e-05
7.8e-05
7.8e-05
7.8e-05
7.8e-05
7.8e-05
7.8e-05
7.8e-05
7.8e-05
7.8e-05
7.8e-05
7.8e-05
7.8e-05
7.8e-05
7.8e-05
7.8e-05
7.8e-05
7.8e-05
7.8e-05
7.8e-05
7.8e-05
7.8e-05
7.8e-05
7.8e-05
7.8e-05
7.8e-05
7.8e-05
7.8e-05
7.8e-05
7.8e-05
7.8e-05
7.8e-05
7.79995e-05
7.78274e-05
7.69659e-05
7.77027e-05
7.7996e-05
7.8e-05
7.8e-05
7.8e-05
7.8e-05
7.8e-05
7.8e-05
7.8e-05
7.8e-05
7.8e-05
7.8e-05
7.8e-05
7.8e-05
7.8e-05
7.8e-05
7.8e-05
7.8e-05
7.8e-05
7.8e-05
7.8e-05
7.8e-05
7.8e-05
7.8e-05
7.8e-05
7.8e-05
7.8e-05
7.8e-05
7.8e-05
7.8e-05
7.8e-05
7.8e-05
7.8e-05
7.8e-05
7.8e-05
7.8e-05
7.8e-05
7.8e-05
7.8e-05
7.8e-05
7.8e-05
7.8e-05
7.78734e-05
6.42925e-05
4.81777e-05
4.66286e-05
4.56235e-05
4.51187e-05
4.51381e-05
4.57134e-05
4.6895e-05
4.9167e-05
7.05059e-05
7.79992e-05
7.8e-05
7.8e-05
7.8e-05
7.8e-05
7.8e-05
7.8e-05
7.8e-05
7.8e-05
7.8e-05
7.8e-05
7.8e-05
7.8e-05
7.8e-05
7.8e-05
7.8e-05
7.8e-05
7.8e-05
7.8e-05
7.8e-05
7.8e-05
7.8e-05
7.8e-05
7.8e-05
7.8e-05
7.8e-05
7.8e-05
7.8e-05
7.8e-05
7.8e-05
7.8e-05
7.8e-05
7.8e-05
7.8e-05
7.8e-05
7.8e-05
7.8e-05
7.8e-05
7.8e-05
7.8e-05
7.8e-05
7.8e-05
7.8e-05
7.8e-05
7.8e-05
7.8e-05
7.8e-05
7.8e-05
7.8e-05
7.8e-05
7.8e-05
7.8e-05
7.8e-05
7.8e-05
7.8e-05
7.8e-05
7.8e-05
7.8e-05
7.8e-05
7.8e-05
7.8e-05
7.8e-05
7.8e-05
7.8e-05
7.8e-05
7.8e-05
7.8e-05
7.8e-05
7.8e-05
7.8e-05
7.8e-05
7.8e-05
7.8e-05
7.8e-05
7.8e-05
7.8e-05
7.8e-05
7.8e-05
7.8e-05
7.8e-05
7.8e-05
7.8e-05
7.8e-05
7.8e-05
7.8e-05
7.8e-05
7.8e-05
7.8e-05
7.8e-05
7.8e-05
7.8e-05
7.8e-05
7.8e-05
7.8e-05
7.8e-05
7.8e-05
7.8e-05
7.8e-05
7.8e-05
7.8e-05
7.8e-05
7.8e-05
7.8e-05
7.8e-05
7.8e-05
7.8e-05
7.8e-05
7.8e-05
7.8e-05
7.8e-05
7.79997e-05
7.56018e-05
6.37044e-05
5.23581e-05
4.83901e-05
4.8376e-05
5.25516e-05
6.53024e-05
7.70613e-05
7.8e-05
7.8e-05
7.8e-05
7.8e-05
7.8e-05
7.8e-05
7.8e-05
7.8e-05
7.8e-05
7.8e-05
7.8e-05
7.8e-05
7.8e-05
7.8e-05
7.8e-05
7.8e-05
7.8e-05
7.8e-05
7.8e-05
7.8e-05
7.8e-05
7.8e-05
7.8e-05
7.8e-05
7.8e-05
7.8e-05
7.8e-05
7.8e-05
7.8e-05
7.8e-05
7.8e-05
7.8e-05
7.8e-05
7.8e-05
7.8e-05
7.8e-05
7.8e-05
7.8e-05
7.8e-05
7.8e-05
7.8e-05
7.8e-05
7.8e-05
7.8e-05
7.8e-05
7.8e-05
7.8e-05
7.8e-05
7.8e-05
7.8e-05
7.8e-05
7.8e-05
7.8e-05
7.8e-05
7.8e-05
7.8e-05
7.8e-05
7.8e-05
7.8e-05
7.8e-05
7.8e-05
7.8e-05
7.8e-05
7.8e-05
7.8e-05
7.8e-05
7.8e-05
7.8e-05
7.8e-05
7.8e-05
7.8e-05
7.8e-05
7.8e-05
7.8e-05
7.8e-05
7.8e-05
7.8e-05
7.8e-05
7.8e-05
7.8e-05
7.8e-05
7.8e-05
7.8e-05
7.8e-05
7.8e-05
7.8e-05
7.8e-05
7.8e-05
7.8e-05
7.8e-05
7.8e-05
7.8e-05
7.8e-05
7.8e-05
7.8e-05
7.8e-05
7.8e-05
7.8e-05
7.8e-05
7.8e-05
7.8e-05
7.8e-05
7.8e-05
7.8e-05
7.8e-05
7.8e-05
7.8e-05
7.8e-05
7.8e-05
7.8e-05
7.8e-05
7.8e-05
7.8e-05
7.79995e-05
7.78856e-05
7.66028e-05
7.65321e-05
7.7891e-05
7.79998e-05
7.8e-05
7.8e-05
7.8e-05
7.8e-05
7.8e-05
7.8e-05
7.8e-05
7.8e-05
7.8e-05
7.8e-05
7.8e-05
7.8e-05
7.8e-05
7.8e-05
7.8e-05
7.8e-05
7.8e-05
7.8e-05
7.8e-05
7.8e-05
7.8e-05
7.8e-05
7.8e-05
7.8e-05
7.8e-05
7.8e-05
7.8e-05
7.8e-05
7.8e-05
7.8e-05
7.8e-05
7.8e-05
7.8e-05
7.8e-05
7.8e-05
7.8e-05
7.8e-05
7.8e-05
7.8e-05
7.8e-05
7.8e-05
7.8e-05
7.8e-05
7.8e-05
7.8e-05
7.8e-05
7.8e-05
7.8e-05
7.8e-05
7.8e-05
7.8e-05
7.8e-05
7.8e-05
7.8e-05
7.8e-05
7.8e-05
7.8e-05
7.8e-05
7.8e-05
7.8e-05
7.8e-05
7.8e-05
7.8e-05
7.8e-05
7.8e-05
7.8e-05
7.8e-05
7.8e-05
7.8e-05
7.8e-05
7.8e-05
7.8e-05
7.8e-05
7.8e-05
7.8e-05
7.8e-05
7.8e-05
7.8e-05
7.8e-05
7.8e-05
7.8e-05
7.8e-05
7.8e-05
7.8e-05
7.8e-05
7.8e-05
7.8e-05
7.8e-05
7.8e-05
7.8e-05
7.8e-05
7.8e-05
7.8e-05
7.8e-05
7.8e-05
7.8e-05
7.8e-05
7.8e-05
7.8e-05
7.8e-05
7.8e-05
7.8e-05
7.8e-05
7.8e-05
7.8e-05
7.8e-05
7.8e-05
7.8e-05
7.8e-05
7.8e-05
7.8e-05
7.8e-05
7.8e-05
7.8e-05
7.8e-05
7.8e-05
7.8e-05
7.8e-05
7.8e-05
7.8e-05
7.8e-05
7.8e-05
7.8e-05
7.8e-05
7.8e-05
7.8e-05
7.8e-05
7.8e-05
7.8e-05
7.8e-05
7.8e-05
7.8e-05
7.8e-05
7.8e-05
7.8e-05
7.8e-05
7.8e-05
7.8e-05
7.8e-05
7.8e-05
7.8e-05
7.8e-05
7.8e-05
7.8e-05
7.8e-05
7.8e-05
7.8e-05
7.8e-05
7.8e-05
7.8e-05
7.8e-05
7.8e-05
7.8e-05
7.8e-05
7.8e-05
7.8e-05
7.8e-05
7.8e-05
7.8e-05
7.8e-05
7.8e-05
7.8e-05
7.8e-05
7.8e-05
7.8e-05
7.8e-05
7.8e-05
7.8e-05
7.8e-05
7.8e-05
7.8e-05
7.8e-05
7.8e-05
7.8e-05
7.8e-05
7.8e-05
7.8e-05
7.8e-05
7.8e-05
7.8e-05
7.8e-05
7.8e-05
7.8e-05
7.8e-05
7.8e-05
7.8e-05
7.8e-05
7.8e-05
7.8e-05
7.8e-05
7.8e-05
7.8e-05
7.8e-05
7.8e-05
7.8e-05
7.8e-05
7.8e-05
7.8e-05
7.8e-05
7.8e-05
7.8e-05
7.8e-05
7.8e-05
7.8e-05
7.8e-05
7.8e-05
7.8e-05
7.8e-05
7.8e-05
7.8e-05
7.8e-05
7.8e-05
7.8e-05
7.8e-05
7.8e-05
7.8e-05
7.8e-05
7.8e-05
7.8e-05
7.8e-05
7.8e-05
7.8e-05
7.8e-05
7.8e-05
7.8e-05
7.8e-05
7.8e-05
7.8e-05
7.8e-05
7.8e-05
7.8e-05
7.8e-05
7.8e-05
7.8e-05
7.8e-05
7.8e-05
7.8e-05
7.8e-05
7.8e-05
7.8e-05
7.8e-05
7.8e-05
7.8e-05
7.8e-05
7.8e-05
7.8e-05
7.8e-05
7.8e-05
7.8e-05
7.8e-05
7.8e-05
7.8e-05
7.8e-05
7.8e-05
7.8e-05
7.8e-05
7.8e-05
7.8e-05
7.8e-05
7.8e-05
7.8e-05
7.8e-05
7.8e-05
7.8e-05
7.8e-05
7.8e-05
7.8e-05
7.8e-05
7.8e-05
7.8e-05
7.8e-05
7.8e-05
7.8e-05
7.8e-05
7.8e-05
7.8e-05
7.8e-05
7.8e-05
7.8e-05
7.8e-05
7.8e-05
7.8e-05
7.8e-05
7.8e-05
7.8e-05
7.8e-05
7.8e-05
7.8e-05
7.8e-05
7.8e-05
7.8e-05
7.8e-05
7.8e-05
7.8e-05
7.8e-05
7.8e-05
7.8e-05
7.8e-05
7.8e-05
7.8e-05
7.8e-05
7.8e-05
7.8e-05
7.8e-05
7.8e-05
7.8e-05
7.8e-05
7.8e-05
7.8e-05
7.8e-05
7.8e-05
7.8e-05
7.8e-05
7.8e-05
7.8e-05
7.8e-05
7.8e-05
7.8e-05
7.8e-05
7.8e-05
7.8e-05
7.8e-05
7.8e-05
7.8e-05
7.8e-05
7.8e-05
7.8e-05
7.8e-05
7.8e-05
7.8e-05
7.8e-05
7.8e-05
7.8e-05
7.8e-05
7.8e-05
7.8e-05
7.8e-05
7.8e-05
7.8e-05
7.8e-05
7.8e-05
7.8e-05
7.8e-05
7.8e-05
7.8e-05
7.8e-05
7.8e-05
7.8e-05
7.8e-05
7.8e-05
7.8e-05
7.8e-05
7.8e-05
7.8e-05
7.8e-05
7.8e-05
7.8e-05
7.8e-05
7.8e-05
7.8e-05
7.8e-05
7.8e-05
7.8e-05
7.8e-05
7.8e-05
7.8e-05
7.8e-05
7.8e-05
7.8e-05
7.8e-05
7.8e-05
7.8e-05
7.8e-05
7.8e-05
7.8e-05
7.8e-05
7.8e-05
7.8e-05
7.8e-05
7.8e-05
7.8e-05
7.8e-05
7.8e-05
7.8e-05
7.8e-05
7.8e-05
7.8e-05
7.8e-05
7.8e-05
7.8e-05
7.8e-05
7.8e-05
7.8e-05
7.8e-05
7.8e-05
7.8e-05
7.8e-05
7.8e-05
7.8e-05
7.8e-05
7.8e-05
7.8e-05
7.8e-05
7.8e-05
7.8e-05
7.8e-05
7.8e-05
7.8e-05
7.8e-05
7.8e-05
7.8e-05
7.8e-05
7.8e-05
7.8e-05
7.8e-05
7.8e-05
7.8e-05
7.8e-05
7.8e-05
7.8e-05
7.8e-05
7.8e-05
7.8e-05
7.8e-05
7.8e-05
7.8e-05
7.8e-05
7.8e-05
7.8e-05
7.8e-05
7.8e-05
7.8e-05
7.8e-05
7.8e-05
7.8e-05
7.8e-05
7.8e-05
7.8e-05
7.8e-05
7.8e-05
7.8e-05
7.8e-05
7.8e-05
7.8e-05
7.8e-05
7.8e-05
7.8e-05
7.8e-05
7.8e-05
7.8e-05
7.8e-05
7.8e-05
7.8e-05
7.8e-05
7.8e-05
7.8e-05
7.8e-05
7.8e-05
7.8e-05
7.8e-05
7.8e-05
7.8e-05
7.8e-05
7.8e-05
7.8e-05
7.8e-05
7.8e-05
7.8e-05
7.8e-05
7.8e-05
7.8e-05
7.8e-05
7.8e-05
7.8e-05
7.8e-05
7.8e-05
7.8e-05
7.8e-05
7.8e-05
7.8e-05
7.8e-05
7.8e-05
7.8e-05
7.8e-05
7.8e-05
7.8e-05
7.8e-05
7.8e-05
7.8e-05
7.8e-05
7.8e-05
7.8e-05
7.8e-05
7.8e-05
7.8e-05
7.8e-05
7.8e-05
7.8e-05
7.8e-05
7.8e-05
7.8e-05
7.8e-05
7.8e-05
7.8e-05
7.8e-05
7.8e-05
7.8e-05
7.8e-05
7.8e-05
7.8e-05
7.8e-05
7.8e-05
7.8e-05
7.8e-05
7.8e-05
7.8e-05
7.8e-05
7.8e-05
7.8e-05
7.8e-05
7.8e-05
7.8e-05
7.8e-05
7.8e-05
7.8e-05
7.8e-05
7.8e-05
7.8e-05
7.8e-05
7.8e-05
7.8e-05
7.8e-05
7.8e-05
7.8e-05
7.8e-05
7.8e-05
7.8e-05
7.8e-05
7.8e-05
7.8e-05
7.8e-05
7.8e-05
7.8e-05
7.8e-05
7.8e-05
7.8e-05
7.8e-05
7.8e-05
7.8e-05
7.8e-05
7.8e-05
7.8e-05
7.8e-05
7.8e-05
7.8e-05
7.8e-05
7.8e-05
7.8e-05
7.8e-05
7.8e-05
7.8e-05
7.8e-05
7.8e-05
7.8e-05
7.8e-05
7.8e-05
7.8e-05
7.8e-05
7.8e-05
7.8e-05
7.8e-05
7.8e-05
7.8e-05
7.8e-05
7.8e-05
7.8e-05
7.8e-05
7.8e-05
7.8e-05
7.8e-05
7.8e-05
7.8e-05
7.8e-05
7.8e-05
7.8e-05
7.8e-05
7.8e-05
7.8e-05
7.8e-05
7.8e-05
7.8e-05
7.8e-05
7.8e-05
7.8e-05
7.8e-05
7.8e-05
7.8e-05
7.8e-05
7.8e-05
7.8e-05
7.8e-05
7.8e-05
7.8e-05
7.8e-05
7.8e-05
7.8e-05
7.8e-05
7.8e-05
7.8e-05
7.8e-05
7.8e-05
7.8e-05
7.8e-05
7.8e-05
7.8e-05
7.8e-05
7.8e-05
7.8e-05
7.8e-05
7.8e-05
7.8e-05
7.8e-05
7.8e-05
7.8e-05
7.8e-05
7.8e-05
7.8e-05
7.8e-05
7.8e-05
7.8e-05
7.8e-05
7.8e-05
7.8e-05
7.8e-05
7.8e-05
7.8e-05
7.8e-05
7.8e-05
7.8e-05
7.8e-05
7.8e-05
7.8e-05
7.8e-05
7.8e-05
7.8e-05
7.8e-05
7.8e-05
7.8e-05
7.8e-05
7.8e-05
7.8e-05
7.8e-05
7.8e-05
7.8e-05
7.8e-05
7.8e-05
7.8e-05
7.8e-05
7.8e-05
7.8e-05
7.8e-05
7.8e-05
7.8e-05
7.8e-05
7.8e-05
7.8e-05
7.8e-05
7.8e-05
7.8e-05
7.8e-05
7.8e-05
7.8e-05
7.8e-05
7.8e-05
7.8e-05
7.8e-05
7.8e-05
7.8e-05
7.8e-05
7.8e-05
7.8e-05
7.8e-05
7.8e-05
7.8e-05
7.8e-05
7.8e-05
7.8e-05
7.8e-05
7.8e-05
7.8e-05
7.8e-05
7.8e-05
7.8e-05
7.8e-05
7.8e-05
7.8e-05
7.8e-05
7.8e-05
7.8e-05
7.8e-05
7.8e-05
7.8e-05
7.8e-05
7.8e-05
7.8e-05
7.8e-05
7.8e-05
7.8e-05
7.8e-05
7.8e-05
7.8e-05
7.8e-05
7.8e-05
7.8e-05
7.8e-05
7.8e-05
7.8e-05
7.8e-05
7.8e-05
7.8e-05
7.8e-05
7.8e-05
7.8e-05
7.8e-05
7.8e-05
7.8e-05
7.8e-05
7.8e-05
7.8e-05
7.8e-05
7.8e-05
7.8e-05
7.8e-05
7.8e-05
7.8e-05
7.8e-05
7.8e-05
7.8e-05
7.8e-05
7.8e-05
7.8e-05
7.8e-05
7.8e-05
7.8e-05
7.8e-05
7.8e-05
7.8e-05
7.8e-05
7.8e-05
7.8e-05
7.8e-05
7.8e-05
7.8e-05
7.8e-05
7.8e-05
7.8e-05
7.8e-05
7.8e-05
7.8e-05
7.8e-05
7.8e-05
7.8e-05
7.8e-05
7.8e-05
7.8e-05
7.8e-05
7.8e-05
7.8e-05
7.8e-05
7.8e-05
7.8e-05
7.8e-05
7.8e-05
7.8e-05
7.8e-05
7.8e-05
7.8e-05
7.8e-05
7.8e-05
7.8e-05
7.8e-05
7.8e-05
7.8e-05
7.8e-05
7.8e-05
7.8e-05
7.8e-05
7.8e-05
7.8e-05
7.8e-05
7.8e-05
7.8e-05
7.8e-05
7.8e-05
7.8e-05
7.8e-05
7.8e-05
7.8e-05
7.8e-05
7.8e-05
7.8e-05
7.8e-05
7.8e-05
7.8e-05
7.8e-05
7.8e-05
7.8e-05
7.8e-05
7.8e-05
7.8e-05
7.8e-05
7.8e-05
7.8e-05
7.8e-05
7.8e-05
7.8e-05
7.8e-05
7.8e-05
7.8e-05
7.8e-05
7.8e-05
7.8e-05
7.8e-05
7.8e-05
7.8e-05
7.8e-05
7.8e-05
7.8e-05
7.8e-05
7.8e-05
7.8e-05
7.8e-05
7.8e-05
7.8e-05
7.8e-05
7.8e-05
7.8e-05
7.8e-05
7.8e-05
7.8e-05
7.8e-05
7.8e-05
7.8e-05
7.8e-05
7.8e-05
7.8e-05
7.8e-05
7.8e-05
7.8e-05
7.8e-05
7.8e-05
7.8e-05
7.8e-05
7.8e-05
7.8e-05
7.8e-05
7.8e-05
7.8e-05
7.8e-05
7.8e-05
7.8e-05
7.8e-05
7.8e-05
7.8e-05
7.8e-05
7.8e-05
7.8e-05
7.8e-05
7.8e-05
7.8e-05
7.8e-05
7.8e-05
7.8e-05
7.8e-05
7.8e-05
7.8e-05
7.8e-05
7.8e-05
7.8e-05
7.8e-05
7.8e-05
7.8e-05
7.8e-05
7.8e-05
7.8e-05
7.8e-05
7.8e-05
7.8e-05
7.8e-05
7.8e-05
7.8e-05
7.8e-05
7.8e-05
7.8e-05
7.8e-05
7.8e-05
7.8e-05
7.8e-05
7.8e-05
7.8e-05
7.8e-05
7.8e-05
7.8e-05
7.8e-05
7.8e-05
7.8e-05
7.8e-05
7.8e-05
7.8e-05
7.8e-05
7.8e-05
7.8e-05
7.8e-05
7.8e-05
7.8e-05
7.8e-05
7.8e-05
7.8e-05
7.8e-05
7.8e-05
7.8e-05
7.8e-05
7.8e-05
7.8e-05
7.8e-05
7.8e-05
7.8e-05
7.8e-05
7.8e-05
7.8e-05
7.8e-05
7.8e-05
7.8e-05
7.8e-05
7.8e-05
7.8e-05
7.8e-05
7.8e-05
7.8e-05
7.8e-05
7.8e-05
7.8e-05
7.8e-05
7.8e-05
7.8e-05
7.8e-05
7.8e-05