/*--------------------------------*- C++ -*----------------------------------*\
| =========                 |                                                 |
| \\      /  F ield         | OpenFOAM: The Open Source CFD Toolbox           |
|  \\    /   O peration     | Version:  2406                                  |
|   \\  /    A nd           | Website:  www.openfoam.com                      |
|    \\/     M anipulation  |                                                 |
\*---------------------------------------------------------------------------*/
FoamFile
{
    version     2.0;
    format      ascii;
    arch        "LSB;label=32;scalar=64";
    class       volScalarField;
    location    "3.55";
    object      C_0_0;
}
// * * * * * * * * * * * * * * * * * * * * * * * * * * * * * * * * * * * * * //

dimensions      [1 -3 0 0 0 0 0];

internalField   nonuniform List<scalar> 
14400
(
0.5511
0.538514
0.521319
0.505056
0.491703
0.482314
0.477517
0.477686
0.483007
0.493498
0.509003
0.529141
0.553177
0.579498
0.602539
0.6137
0.613017
0.599218
0.57741
0.556712
0.539927
0.528385
0.522885
0.523994
0.532172
0.547821
0.571301
0.602937
0.642988
0.69157
0.748407
0.811562
0.86636
0.90344
0.931224
0.955681
0.977242
0.996243
1.01294
1.02755
1.04022
1.05108
1.06023
1.06776
1.07373
1.07819
1.08117
1.08271
1.08282
1.08149
1.07874
1.07454
1.06887
1.06169
1.05297
1.04264
1.03063
1.01683
1.00115
0.983437
0.963514
0.941162
0.916107
0.887998
0.856029
0.807661
0.740415
0.675917
0.618423
0.568878
0.527318
0.493492
0.467064
0.447701
0.435104
0.429026
0.429274
0.435703
0.448203
0.46668
0.491016
0.520992
0.556093
0.594598
0.625752
0.643457
0.653232
0.65758
0.65668
0.650367
0.63662
0.610631
0.578112
0.548374
0.523139
0.502943
0.487914
0.477933
0.472655
0.471477
0.473482
0.477367
0.481374
0.483397
0.481933
0.478513
0.475275
0.47401
0.476055
0.482363
0.493581
0.510103
0.532104
0.55952
0.591877
0.627462
0.656284
0.672663
0.68193
0.686428
0.565769
0.55368
0.535219
0.517796
0.503547
0.493528
0.488355
0.488392
0.493816
0.50464
0.5207
0.541593
0.566535
0.59375
0.615048
0.623395
0.623196
0.612887
0.591527
0.569686
0.551944
0.539705
0.533722
0.534544
0.542626
0.558366
0.582119
0.614194
0.654825
0.704057
0.761427
0.824356
0.874034
0.907291
0.934549
0.958576
0.979803
0.998544
1.01504
1.02948
1.04202
1.05278
1.06185
1.06932
1.07524
1.07966
1.08262
1.08414
1.08424
1.08292
1.08018
1.07601
1.07037
1.06324
1.05458
1.04432
1.0324
1.01872
1.00318
0.985646
0.965942
0.943866
0.919161
0.891497
0.860448
0.816963
0.753855
0.688265
0.629742
0.579396
0.537201
0.502875
0.476071
0.456452
0.443719
0.437622
0.43797
0.444618
0.457455
0.476384
0.501273
0.53186
0.567461
0.605768
0.634042
0.649444
0.658661
0.662827
0.662093
0.656371
0.645019
0.622735
0.590609
0.560361
0.534599
0.514035
0.498849
0.488974
0.484117
0.483721
0.486919
0.492443
0.49841
0.501816
0.498961
0.49357
0.488682
0.486215
0.487468
0.493345
0.504443
0.521105
0.543452
0.571365
0.604181
0.639248
0.664171
0.678048
0.686698
0.690927
0.58876
0.581134
0.562318
0.543027
0.527126
0.515913
0.510016
0.509798
0.515427
0.526907
0.544048
0.566357
0.592682
0.619687
0.63499
0.640803
0.64112
0.63544
0.618276
0.595109
0.575803
0.562314
0.555423
0.555687
0.563578
0.579506
0.603805
0.636749
0.678525
0.728997
0.787046
0.845232
0.885668
0.915035
0.941106
0.964272
0.984849
1.00309
1.01919
1.03332
1.04561
1.05617
1.06508
1.07243
1.07825
1.0826
1.08551
1.087
1.08709
1.08578
1.08306
1.07893
1.07336
1.06633
1.05778
1.04767
1.03593
1.02248
1.00722
0.990019
0.970741
0.9492
0.925173
0.898374
0.868427
0.832009
0.778228
0.712082
0.652147
0.600425
0.557038
0.521743
0.4942
0.474074
0.461068
0.454934
0.45548
0.462562
0.476068
0.495888
0.521869
0.553674
0.590232
0.626082
0.648087
0.66089
0.669138
0.672976
0.672492
0.667695
0.658545
0.642903
0.615263
0.584149
0.557424
0.536164
0.520651
0.510952
0.50689
0.50798
0.513447
0.522159
0.532307
0.539372
0.532844
0.523247
0.515152
0.510396
0.510143
0.515204
0.526099
0.543053
0.566053
0.594874
0.628478
0.658644
0.676686
0.688272
0.695886
0.699654
0.616153
0.613074
0.600943
0.580192
0.562182
0.54935
0.542441
0.541867
0.547795
0.560218
0.578898
0.603153
0.630743
0.650054
0.658866
0.663673
0.664646
0.661817
0.652692
0.631952
0.611197
0.59617
0.588036
0.58749
0.595098
0.611313
0.636423
0.670621
0.714038
0.766063
0.823696
0.867788
0.89884
0.926062
0.950567
0.972558
0.992233
1.00977
1.02531
1.039
1.05093
1.0612
1.06989
1.07705
1.08273
1.08698
1.08981
1.09126
1.09133
1.09003
1.08736
1.0833
1.07783
1.07092
1.06255
1.05265
1.04117
1.02805
1.01318
0.996473
0.977802
0.957021
0.933955
0.908399
0.880117
0.848851
0.807014
0.746401
0.685491
0.632047
0.586996
0.550302
0.521672
0.500796
0.487383
0.48119
0.482026
0.48975
0.504239
0.525349
0.552856
0.586229
0.623312
0.650617
0.665993
0.676886
0.684025
0.687446
0.687205
0.683371
0.676061
0.665531
0.647492
0.61857
0.591262
0.569181
0.553148
0.543619
0.540633
0.543734
0.552109
0.564414
0.576886
0.58085
0.577311
0.565428
0.553721
0.546028
0.543739
0.54769
0.558376
0.575795
0.599545
0.628837
0.659977
0.68018
0.692833
0.702467
0.70892
0.712149
0.646514
0.644649
0.640138
0.627381
0.608004
0.593513
0.585427
0.584442
0.590726
0.604246
0.62458
0.649958
0.669293
0.679605
0.686167
0.690378
0.691971
0.69101
0.687898
0.677549
0.657418
0.641151
0.631579
0.629977
0.637188
0.653811
0.679983
0.715635
0.760922
0.813391
0.856622
0.887815
0.914893
0.939806
0.962541
0.98316
1.00176
1.01844
1.0333
1.04643
1.05792
1.06783
1.07622
1.08315
1.08865
1.09276
1.0955
1.0969
1.09695
1.09566
1.09304
1.08907
1.08373
1.07699
1.06883
1.05921
1.04807
1.03535
1.02098
1.00489
0.986974
0.967125
0.945226
0.921151
0.894779
0.866028
0.834301
0.789821
0.729642
0.674397
0.627295
0.588836
0.558798
0.53694
0.522992
0.516714
0.517921
0.526475
0.54223
0.564932
0.594114
0.628427
0.658429
0.675747
0.687632
0.696636
0.702629
0.705578
0.705512
0.702523
0.696785
0.688611
0.678447
0.660921
0.635257
0.612727
0.595924
0.586442
0.584709
0.590049
0.600874
0.612573
0.617795
0.617859
0.618156
0.613409
0.602355
0.592172
0.587615
0.590266
0.600856
0.618966
0.643063
0.6705
0.689848
0.701856
0.711983
0.719842
0.725179
0.727873
0.678739
0.677643
0.675694
0.671756
0.66183
0.647236
0.638295
0.636992
0.643571
0.657819
0.678523
0.69436
0.703812
0.710393
0.715821
0.719699
0.721851
0.722343
0.721477
0.719648
0.711205
0.696417
0.685769
0.682916
0.689566
0.706777
0.734245
0.770787
0.816465
0.854523
0.883386
0.908906
0.933112
0.955729
0.976631
0.995782
1.0132
1.02892
1.04301
1.05551
1.06647
1.07596
1.08401
1.09067
1.09596
1.09991
1.10254
1.10387
1.1039
1.10264
1.10007
1.09621
1.09102
1.08449
1.07659
1.06728
1.05654
1.0443
1.03052
1.01513
0.998077
0.97928
0.958674
0.936199
0.91182
0.885551
0.857492
0.826327
0.782949
0.727262
0.678015
0.63763
0.60591
0.582874
0.568275
0.56188
0.563508
0.573034
0.590274
0.61463
0.644578
0.673721
0.691423
0.70272
0.712151
0.719396
0.724278
0.726723
0.726742
0.724422
0.719946
0.71361
0.705851
0.697161
0.683071
0.665086
0.647665
0.638121
0.637597
0.644577
0.651174
0.654629
0.654303
0.654295
0.654663
0.655367
0.652413
0.646457
0.640249
0.641619
0.652223
0.670821
0.690173
0.705715
0.715955
0.725341
0.733402
0.739737
0.744083
0.746289
0.712059
0.711489
0.710532
0.709541
0.708065
0.703158
0.698295
0.697311
0.703721
0.714391
0.724728
0.731347
0.736966
0.742335
0.747023
0.750746
0.753392
0.755032
0.755922
0.756482
0.757198
0.753705
0.74852
0.744953
0.750979
0.768991
0.797733
0.831484
0.861786
0.885936
0.908834
0.931311
0.95292
0.973366
0.99247
1.01014
1.02633
1.04105
1.0543
1.06611
1.07651
1.08553
1.09321
1.09956
1.10461
1.10838
1.11089
1.11214
1.11215
1.11091
1.10841
1.10467
1.09965
1.09335
1.08574
1.0768
1.06649
1.05479
1.04166
1.02705
1.01092
0.993244
0.973991
0.953151
0.930751
0.906865
0.881649
0.855364
0.826572
0.787808
0.73837
0.696764
0.663195
0.638896
0.623577
0.617021
0.619038
0.629526
0.648287
0.673434
0.697665
0.713337
0.72292
0.731557
0.738855
0.74452
0.748364
0.750296
0.750309
0.748478
0.744966
0.740031
0.73404
0.727472
0.720915
0.71219
0.702325
0.69488
0.692508
0.693047
0.692736
0.691181
0.690465
0.690356
0.690809
0.691885
0.693835
0.694652
0.69473
0.697909
0.706316
0.717224
0.727059
0.734882
0.742773
0.75015
0.756549
0.761621
0.765125
0.766912
0.74595
0.745723
0.745402
0.745241
0.74561
0.746975
0.747568
0.749026
0.753054
0.757817
0.761406
0.765721
0.770369
0.774958
0.779189
0.78287
0.785939
0.788473
0.790695
0.79297
0.795819
0.799948
0.803279
0.807395
0.816787
0.833487
0.854531
0.875829
0.894903
0.91464
0.934703
0.954583
0.973892
0.992344
1.00974
1.02597
1.04095
1.05464
1.06703
1.07813
1.08793
1.09646
1.10372
1.10975
1.11454
1.11812
1.12049
1.12166
1.12164
1.12042
1.11801
1.1144
1.10957
1.10352
1.09623
1.08768
1.07785
1.06672
1.05427
1.04047
1.02531
1.00879
0.990893
0.971665
0.951165
0.929509
0.906877
0.883539
0.859873
0.835326
0.803464
0.765138
0.730069
0.704907
0.688908
0.682143
0.684305
0.695063
0.714217
0.730268
0.741398
0.748428
0.755356
0.761732
0.767193
0.771464
0.774361
0.775787
0.77572
0.774216
0.771409
0.767509
0.762806
0.757665
0.752509
0.747783
0.743634
0.739163
0.73521
0.731288
0.728553
0.726875
0.726022
0.725853
0.726333
0.727513
0.729552
0.732699
0.737128
0.741738
0.74696
0.751995
0.757696
0.763883
0.770104
0.775937
0.781021
0.785073
0.787884
0.789322
0.780066
0.780052
0.780112
0.780409
0.781161
0.782575
0.784699
0.787347
0.789826
0.792635
0.795964
0.799762
0.803829
0.80794
0.811904
0.815605
0.81902
0.822226
0.825414
0.828885
0.833048
0.838424
0.845625
0.855217
0.866459
0.879539
0.893604
0.908995
0.925623
0.94302
0.960752
0.978428
0.99572
1.01237
1.02819
1.04305
1.05685
1.06953
1.08107
1.09143
1.10062
1.10864
1.11548
1.12116
1.12569
1.12906
1.13129
1.13238
1.13233
1.13114
1.12881
1.12534
1.12071
1.11493
1.10797
1.09984
1.09051
1.07997
1.06823
1.05526
1.04108
1.02569
1.00913
0.991449
0.972738
0.953127
0.932809
0.912043
0.891171
0.87062
0.850724
0.827418
0.802208
0.778771
0.762413
0.755411
0.756943
0.763153
0.770304
0.775186
0.779048
0.78361
0.788342
0.792824
0.796721
0.799781
0.801831
0.80277
0.802567
0.801258
0.798944
0.795788
0.79201
0.787874
0.783661
0.779624
0.775872
0.772298
0.768758
0.765663
0.763313
0.761744
0.760893
0.760702
0.761155
0.762283
0.764159
0.766862
0.770378
0.774424
0.778606
0.783047
0.787837
0.79285
0.797824
0.802472
0.806527
0.809764
0.812017
0.813171
0.814196
0.814307
0.814583
0.815124
0.816049
0.817454
0.819351
0.821638
0.824124
0.826906
0.830052
0.833533
0.837247
0.841067
0.844882
0.848629
0.852308
0.855997
0.859852
0.864106
0.869062
0.875072
0.882486
0.891534
0.902095
0.913856
0.926745
0.940704
0.955573
0.971063
0.986859
1.00266
1.01819
1.03323
1.04761
1.06119
1.07386
1.08558
1.09627
1.10591
1.11449
1.12199
1.12841
1.13374
1.13798
1.14114
1.14323
1.14423
1.14415
1.14299
1.14075
1.13743
1.13301
1.1275
1.1209
1.11319
1.10437
1.09444
1.0834
1.07126
1.05804
1.04377
1.02849
1.01227
0.995208
0.977454
0.959189
0.940654
0.922147
0.904027
0.8867
0.870637
0.855359
0.839939
0.827111
0.819106
0.815847
0.814838
0.813589
0.814135
0.815991
0.818622
0.82158
0.824499
0.827084
0.829109
0.830412
0.830895
0.83052
0.829304
0.827321
0.82469
0.821573
0.818158
0.814638
0.811179
0.807878
0.804753
0.801833
0.799292
0.797292
0.795894
0.795104
0.794907
0.795303
0.796305
0.797938
0.800211
0.803073
0.806375
0.809946
0.81375
0.817756
0.821854
0.82587
0.829601
0.832848
0.835442
0.837247
0.838173
0.848216
0.848396
0.84879
0.849455
0.850456
0.85184
0.853613
0.85573
0.858127
0.860814
0.863803
0.867071
0.87056
0.874199
0.877928
0.881719
0.885587
0.889603
0.89389
0.898625
0.904023
0.910316
0.917711
0.926327
0.936129
0.94699
0.958816
0.971504
0.984903
0.998801
1.01296
1.02715
1.04114
1.05475
1.06782
1.08022
1.09185
1.10263
1.11252
1.12146
1.12944
1.13643
1.14241
1.14739
1.15136
1.15431
1.15625
1.15716
1.15705
1.15593
1.15378
1.15061
1.14641
1.14118
1.13493
1.12765
1.11934
1.11001
1.09968
1.08835
1.07607
1.06286
1.04878
1.03392
1.01838
1.00229
0.985839
0.969235
0.952737
0.936641
0.92127
0.906961
0.894004
0.882766
0.873187
0.865208
0.858991
0.854834
0.852537
0.851774
0.85216
0.853305
0.854857
0.856508
0.858008
0.859158
0.859812
0.859878
0.859312
0.858119
0.856346
0.854079
0.851434
0.848546
0.845554
0.842578
0.839707
0.837002
0.834527
0.832383
0.830667
0.829438
0.82872
0.828521
0.828844
0.829696
0.831077
0.832972
0.835329
0.838057
0.841054
0.844252
0.847581
0.850942
0.854202
0.857212
0.859824
0.861907
0.863357
0.8641
0.882054
0.882272
0.882726
0.88345
0.884479
0.885838
0.887532
0.88954
0.891839
0.89442
0.897276
0.900388
0.903723
0.907241
0.910913
0.914731
0.918718
0.922936
0.92748
0.932481
0.938089
0.944457
0.951715
0.959932
0.969102
0.979161
0.990025
1.00159
1.01373
1.02628
1.03904
1.05184
1.06448
1.07682
1.08871
1.10002
1.11068
1.12059
1.12971
1.13798
1.14537
1.15186
1.15743
1.16206
1.16576
1.1685
1.17028
1.17111
1.17098
1.16989
1.16783
1.16481
1.16083
1.15589
1.14998
1.14313
1.13533
1.12659
1.11694
1.1064
1.09501
1.08281
1.06986
1.05625
1.04209
1.0275
1.01264
0.997711
0.982926
0.968529
0.954779
0.941932
0.930221
0.919849
0.910882
0.903354
0.89734
0.892908
0.889953
0.888263
0.887568
0.887583
0.888033
0.888669
0.889282
0.889702
0.889801
0.889493
0.888732
0.887513
0.885864
0.883844
0.881537
0.879039
0.876452
0.87387
0.871371
0.869023
0.866889
0.865044
0.863555
0.86247
0.861817
0.861611
0.861858
0.862558
0.863703
0.865269
0.867213
0.869469
0.871962
0.874622
0.877374
0.88013
0.882783
0.88522
0.887328
0.889006
0.890173
0.890771
0.915675
0.915911
0.916393
0.91714
0.918171
0.919502
0.921134
0.923061
0.925269
0.927749
0.930492
0.933483
0.936702
0.940129
0.943751
0.947573
0.95162
0.955942
0.960614
0.965729
0.971394
0.97771
0.984759
0.992585
1.00119
1.01052
1.02053
1.03111
1.04216
1.05353
1.06509
1.07667
1.08813
1.09934
1.11016
1.12049
1.13025
1.13935
1.14774
1.15537
1.16221
1.16822
1.17338
1.17768
1.1811
1.18364
1.18528
1.18602
1.18587
1.18481
1.18284
1.17998
1.17621
1.17155
1.166
1.15956
1.15225
1.14409
1.1351
1.12531
1.11476
1.1035
1.0916
1.07914
1.06622
1.05296
1.03952
1.02604
1.01273
0.999771
0.987384
0.975766
0.965098
0.955526
0.947138
0.939985
0.934106
0.929504
0.926104
0.923756
0.922268
0.921427
0.921021
0.920853
0.92075
0.920568
0.920197
0.919559
0.91861
0.917336
0.915752
0.913897
0.91183
0.909622
0.907346
0.905079
0.902885
0.900828
0.898963
0.89735
0.896039
0.895069
0.894467
0.894248
0.894418
0.894975
0.895906
0.897189
0.898785
0.900643
0.902702
0.904899
0.907164
0.90942
0.911581
0.913558
0.915263
0.916617
0.917557
0.918039
0.949061
0.949303
0.949794
0.950544
0.951565
0.952863
0.954443
0.9563
0.958426
0.960816
0.963461
0.96635
0.969473
0.97282
0.97639
0.98019
0.984246
0.988599
0.993303
0.998429
1.00405
1.01023
1.01702
1.02446
1.03254
1.04122
1.05046
1.06016
1.07025
1.08061
1.09111
1.10163
1.11204
1.12223
1.1321
1.14154
1.15046
1.15882
1.16653
1.17356
1.17987
1.18542
1.19019
1.19417
1.19733
1.19967
1.20117
1.20183
1.20165
1.20063
1.19876
1.19605
1.19249
1.1881
1.18289
1.17686
1.17003
1.16242
1.15406
1.14498
1.13522
1.12484
1.1139
1.10249
1.09069
1.07863
1.06642
1.05421
1.04217
1.03045
1.01922
1.00865
0.998878
0.990021
0.982159
0.975343
0.969594
0.9649
0.961201
0.958389
0.95632
0.954836
0.953772
0.952972
0.952295
0.951623
0.95086
0.949938
0.948813
0.94747
0.945911
0.944163
0.942266
0.94027
0.938233
0.936213
0.934264
0.932439
0.930787
0.929354
0.928181
0.9273
0.926734
0.926496
0.926591
0.927016
0.927758
0.928796
0.930096
0.931616
0.933304
0.935107
0.936962
0.938805
0.940564
0.942167
0.943547
0.944641
0.9454
0.945789
0.982203
0.982446
0.982936
0.983678
0.984679
0.985944
0.987474
0.989268
0.991321
0.993628
0.996185
0.998984
1.00202
1.00529
1.0088
1.01255
1.01658
1.0209
1.02557
1.03063
1.03614
1.04213
1.04865
1.0557
1.06328
1.07137
1.07991
1.08884
1.09808
1.10753
1.1171
1.12669
1.13617
1.14546
1.15446
1.16309
1.17126
1.17892
1.18601
1.19248
1.19828
1.2034
1.20781
1.21147
1.21439
1.21653
1.2179
1.21849
1.21829
1.2173
1.21552
1.21296
1.20961
1.20549
1.2006
1.19496
1.18858
1.1815
1.17373
1.16532
1.1563
1.14673
1.13668
1.12622
1.11543
1.10443
1.09332
1.08222
1.07128
1.06063
1.0504
1.04073
1.03174
1.02352
1.01614
1.00963
1.00403
0.999302
0.995413
0.992277
0.989788
0.987824
0.986258
0.984967
0.983836
0.982768
0.981682
0.980518
0.979236
0.977817
0.976259
0.974577
0.972798
0.97096
0.969103
0.967275
0.965518
0.963876
0.96239
0.961098
0.960031
0.959216
0.958672
0.95841
0.958434
0.95874
0.959315
0.960141
0.961187
0.962419
0.963793
0.965262
0.966774
0.968273
0.969701
0.971001
0.972117
0.973001
0.973613
0.973927
1.0151
1.01534
1.01583
1.01655
1.01753
1.01876
1.02024
1.02198
1.02396
1.02619
1.02867
1.03138
1.03433
1.03752
1.04096
1.04464
1.0486
1.05286
1.05745
1.0624
1.06774
1.07352
1.07973
1.08641
1.09352
1.10106
1.10897
1.1172
1.12569
1.13435
1.14309
1.15184
1.1605
1.16898
1.1772
1.18509
1.19258
1.1996
1.2061
1.21205
1.21739
1.2221
1.22616
1.22953
1.23221
1.23417
1.23542
1.23593
1.23571
1.23476
1.23307
1.23065
1.2275
1.22363
1.21906
1.21379
1.20785
1.20126
1.19405
1.18626
1.17793
1.16911
1.15987
1.15027
1.1404
1.13034
1.1202
1.11008
1.1001
1.09038
1.08102
1.07215
1.06384
1.05618
1.04923
1.04302
1.03757
1.03287
1.02887
1.02552
1.02273
1.02041
1.01847
1.0168
1.01531
1.01393
1.01258
1.01122
1.0098
1.0083
1.00673
1.00509
1.00339
1.00167
0.999946
0.998264
0.996657
0.995158
0.993801
0.992616
0.991629
0.990862
0.990329
0.990039
0.989996
0.990194
0.990622
0.991263
0.992093
0.993079
0.994187
0.995374
0.996598
0.997812
0.998967
1.00002
1.00092
1.00163
1.00213
1.00238
1.04776
1.048
1.04847
1.04918
1.05013
1.05132
1.05276
1.05443
1.05635
1.05851
1.06091
1.06354
1.06641
1.06951
1.07286
1.07646
1.08034
1.08449
1.08896
1.09376
1.09892
1.10445
1.11037
1.11667
1.12335
1.13037
1.13771
1.14531
1.15312
1.16107
1.16908
1.17709
1.185
1.19276
1.20028
1.2075
1.21435
1.22079
1.22676
1.23222
1.23713
1.24146
1.24519
1.24828
1.25074
1.25253
1.25366
1.25411
1.25387
1.25295
1.25135
1.24907
1.24611
1.24249
1.23821
1.23329
1.22776
1.22164
1.21496
1.20774
1.20005
1.19192
1.18341
1.1746
1.16554
1.15633
1.14705
1.1378
1.12867
1.11976
1.11117
1.10298
1.09528
1.08813
1.08158
1.07566
1.07038
1.06573
1.06168
1.05819
1.0552
1.05263
1.05041
1.04845
1.04669
1.04506
1.0435
1.04197
1.04043
1.03887
1.03728
1.03565
1.03401
1.03237
1.03075
1.02918
1.02769
1.0263
1.02504
1.02394
1.02301
1.02227
1.02174
1.02142
1.02132
1.02142
1.02172
1.0222
1.02284
1.02362
1.0245
1.02545
1.02643
1.02741
1.02834
1.02918
1.02991
1.03048
1.03088
1.03108
1.08019
1.08041
1.08087
1.08156
1.08249
1.08364
1.08503
1.08665
1.08851
1.09059
1.09291
1.09546
1.09824
1.10126
1.10451
1.10802
1.11178
1.11582
1.12014
1.12477
1.12972
1.135
1.14062
1.14656
1.15282
1.15937
1.16619
1.17322
1.18042
1.18773
1.19508
1.20242
1.20967
1.21677
1.22365
1.23027
1.23655
1.24245
1.24793
1.25294
1.25744
1.26142
1.26484
1.26768
1.26993
1.27156
1.27258
1.27296
1.27271
1.27183
1.27031
1.26816
1.26538
1.26199
1.258
1.25342
1.24827
1.24258
1.23639
1.22971
1.2226
1.2151
1.20727
1.19916
1.19084
1.18239
1.17388
1.16539
1.15702
1.14883
1.14091
1.13334
1.12618
1.11949
1.1133
1.10765
1.10255
1.09798
1.09394
1.09038
1.08725
1.0845
1.08208
1.07991
1.07794
1.07611
1.07439
1.07272
1.07109
1.06947
1.06785
1.06624
1.06463
1.06305
1.0615
1.06002
1.05861
1.05731
1.05612
1.05508
1.05419
1.05348
1.05294
1.05259
1.05243
1.05244
1.05263
1.05297
1.05345
1.05405
1.05474
1.05549
1.05627
1.05705
1.05779
1.05847
1.05905
1.05951
1.05983
1.05999
1.11238
1.1126
1.11305
1.11372
1.11461
1.11573
1.11707
1.11864
1.12043
1.12244
1.12468
1.12715
1.12984
1.13276
1.13591
1.13931
1.14295
1.14685
1.15101
1.15546
1.16019
1.16522
1.17053
1.17613
1.182
1.18812
1.19445
1.20096
1.20761
1.21434
1.2211
1.22783
1.23448
1.24099
1.2473
1.25336
1.25912
1.26454
1.26956
1.27416
1.27829
1.28194
1.28508
1.28768
1.28973
1.29122
1.29213
1.29245
1.29219
1.29134
1.2899
1.28788
1.28527
1.2821
1.27837
1.27411
1.26932
1.26404
1.25829
1.25211
1.24554
1.23862
1.2314
1.22393
1.21628
1.20851
1.20069
1.19288
1.18517
1.17762
1.1703
1.16328
1.15661
1.15033
1.14449
1.1391
1.13418
1.12972
1.12571
1.12212
1.11892
1.11605
1.11349
1.11116
1.10904
1.10707
1.10522
1.10344
1.10173
1.10006
1.09842
1.09681
1.09523
1.09369
1.0922
1.09078
1.08944
1.08819
1.08706
1.08607
1.08521
1.0845
1.08396
1.08358
1.08336
1.08329
1.08338
1.08361
1.08395
1.0844
1.08493
1.08551
1.08612
1.08673
1.08732
1.08785
1.08831
1.08868
1.08893
1.08906
1.14435
1.14457
1.145
1.14564
1.14651
1.14759
1.14888
1.1504
1.15212
1.15407
1.15623
1.15861
1.16121
1.16403
1.16708
1.17035
1.17386
1.17761
1.18161
1.18586
1.19037
1.19514
1.20017
1.20543
1.21093
1.21664
1.22253
1.22856
1.23471
1.24092
1.24714
1.25333
1.25944
1.26541
1.2712
1.27676
1.28205
1.28701
1.29162
1.29583
1.29963
1.30297
1.30585
1.30823
1.3101
1.31144
1.31226
1.31253
1.31226
1.31144
1.31008
1.30817
1.30573
1.30277
1.29929
1.29531
1.29086
1.28596
1.28063
1.27491
1.26883
1.26244
1.25577
1.24889
1.24184
1.23468
1.22747
1.22028
1.21316
1.20619
1.1994
1.19287
1.18664
1.18075
1.17522
1.17008
1.16535
1.16101
1.15706
1.15348
1.15024
1.14731
1.14465
1.14222
1.13999
1.13791
1.13596
1.13411
1.13233
1.13062
1.12896
1.12735
1.12579
1.12428
1.12283
1.12145
1.12016
1.11897
1.11788
1.11691
1.11607
1.11537
1.11481
1.1144
1.11413
1.114
1.114
1.11412
1.11435
1.11466
1.11505
1.11549
1.11596
1.11643
1.11689
1.11731
1.11767
1.11795
1.11815
1.11825
1.17611
1.17632
1.17673
1.17736
1.17819
1.17923
1.18048
1.18194
1.1836
1.18548
1.18756
1.18986
1.19236
1.19508
1.19801
1.20116
1.20453
1.20813
1.21195
1.21601
1.2203
1.22481
1.22955
1.23451
1.23966
1.24498
1.25046
1.25606
1.26175
1.26748
1.27322
1.27891
1.28453
1.29002
1.29534
1.30044
1.30529
1.30984
1.31407
1.31794
1.32141
1.32448
1.32711
1.32928
1.33098
1.3322
1.33293
1.33316
1.33288
1.33209
1.3308
1.329
1.32672
1.32394
1.3207
1.317
1.31286
1.3083
1.30336
1.29806
1.29243
1.28652
1.28037
1.27401
1.2675
1.2609
1.25424
1.2476
1.24102
1.23455
1.22825
1.22217
1.21633
1.21079
1.20556
1.20067
1.19612
1.19191
1.18804
1.1845
1.18126
1.1783
1.17558
1.17309
1.17078
1.16862
1.16661
1.1647
1.16288
1.16113
1.15946
1.15784
1.15629
1.15481
1.15339
1.15205
1.15079
1.14963
1.14857
1.14762
1.1468
1.1461
1.14552
1.14508
1.14476
1.14457
1.14449
1.14452
1.14465
1.14486
1.14513
1.14545
1.1458
1.14615
1.1465
1.14682
1.1471
1.14732
1.14747
1.14755
1.20766
1.20786
1.20826
1.20886
1.20966
1.21066
1.21187
1.21327
1.21488
1.21668
1.21869
1.22089
1.2233
1.22591
1.22873
1.23175
1.23498
1.23841
1.24206
1.24592
1.24999
1.25426
1.25873
1.26338
1.2682
1.27317
1.27827
1.28347
1.28874
1.29403
1.29933
1.30458
1.30975
1.3148
1.31968
1.32437
1.32882
1.333
1.33688
1.34042
1.34361
1.34642
1.34882
1.35081
1.35236
1.35346
1.3541
1.35428
1.354
1.35324
1.35202
1.35033
1.34819
1.34559
1.34256
1.33912
1.33527
1.33103
1.32645
1.32153
1.31632
1.31085
1.30516
1.29928
1.29327
1.28716
1.28101
1.27486
1.26876
1.26275
1.25689
1.25121
1.24574
1.24052
1.23557
1.2309
1.22654
1.22247
1.2187
1.21522
1.212
1.20903
1.2063
1.20376
1.20141
1.19921
1.19714
1.19519
1.19334
1.19158
1.18989
1.18828
1.18673
1.18526
1.18387
1.18255
1.18133
1.18019
1.17915
1.17822
1.1774
1.17669
1.1761
1.17563
1.17527
1.17502
1.17488
1.17484
1.17487
1.17499
1.17516
1.17538
1.17562
1.17588
1.17614
1.17638
1.17659
1.17676
1.17687
1.17693
1.23901
1.2392
1.23958
1.24016
1.24093
1.2419
1.24306
1.2444
1.24595
1.24768
1.24961
1.25172
1.25404
1.25654
1.25924
1.26213
1.26521
1.26849
1.27196
1.27563
1.27948
1.28351
1.28772
1.29208
1.2966
1.30124
1.30599
1.31081
1.31569
1.32059
1.32548
1.33033
1.33509
1.33973
1.34423
1.34854
1.35262
1.35646
1.36002
1.36327
1.36619
1.36876
1.37096
1.37277
1.37418
1.37517
1.37574
1.37588
1.37559
1.37486
1.3737
1.37211
1.3701
1.36768
1.36485
1.36164
1.35806
1.35412
1.34986
1.34531
1.34048
1.33541
1.33013
1.32469
1.31912
1.31347
1.30777
1.30206
1.2964
1.29081
1.28534
1.28003
1.2749
1.26998
1.26529
1.26085
1.25666
1.25274
1.24907
1.24566
1.24249
1.23954
1.23681
1.23426
1.23188
1.22966
1.22756
1.22559
1.22372
1.22194
1.22025
1.21864
1.2171
1.21565
1.21427
1.21298
1.21177
1.21065
1.20963
1.2087
1.20788
1.20717
1.20656
1.20606
1.20567
1.20537
1.20517
1.20506
1.20502
1.20506
1.20514
1.20528
1.20544
1.20561
1.20579
1.20597
1.20612
1.20624
1.20633
1.20637
1.27016
1.27035
1.27072
1.27127
1.27201
1.27294
1.27405
1.27535
1.27682
1.27849
1.28033
1.28236
1.28458
1.28697
1.28955
1.29231
1.29525
1.29837
1.30167
1.30514
1.30878
1.31259
1.31654
1.32064
1.32487
1.3292
1.33362
1.3381
1.34263
1.34717
1.35169
1.35616
1.36055
1.36482
1.36896
1.37292
1.37668
1.3802
1.38347
1.38645
1.38913
1.39148
1.39348
1.39513
1.39641
1.3973
1.3978
1.39791
1.39761
1.39691
1.39581
1.39432
1.39243
1.39016
1.38753
1.38453
1.38119
1.37754
1.37358
1.36935
1.36487
1.36016
1.35528
1.35023
1.34507
1.33982
1.33453
1.32923
1.32396
1.31876
1.31365
1.30867
1.30385
1.2992
1.29476
1.29053
1.28652
1.28274
1.27919
1.27587
1.27275
1.26984
1.26713
1.26459
1.26221
1.25997
1.25787
1.25588
1.254
1.25222
1.25053
1.24892
1.24739
1.24595
1.24459
1.24331
1.24212
1.24101
1.24
1.23908
1.23826
1.23754
1.23692
1.2364
1.23597
1.23563
1.23538
1.23521
1.23511
1.23507
1.23509
1.23514
1.23523
1.23534
1.23546
1.23557
1.23568
1.23576
1.23582
1.23585
1.30113
1.30131
1.30166
1.3022
1.30291
1.3038
1.30486
1.3061
1.30752
1.30911
1.31088
1.31282
1.31494
1.31722
1.31968
1.32231
1.32511
1.32808
1.3312
1.33449
1.33793
1.34151
1.34523
1.34907
1.35303
1.35707
1.36119
1.36536
1.36955
1.37376
1.37794
1.38206
1.38612
1.39006
1.39387
1.39751
1.40096
1.4042
1.4072
1.40993
1.41239
1.41454
1.41637
1.41787
1.41902
1.41983
1.42026
1.42034
1.42004
1.41936
1.41832
1.41691
1.41514
1.41302
1.41056
1.40776
1.40466
1.40125
1.39757
1.39364
1.38948
1.38511
1.38057
1.37589
1.3711
1.36622
1.3613
1.35637
1.35146
1.3466
1.34182
1.33715
1.33261
1.32823
1.32402
1.31999
1.31616
1.31252
1.30909
1.30585
1.30281
1.29995
1.29727
1.29475
1.29238
1.29015
1.28805
1.28606
1.28419
1.28241
1.28072
1.27912
1.2776
1.27617
1.27482
1.27356
1.27238
1.27129
1.27028
1.26937
1.26855
1.26782
1.26718
1.26663
1.26617
1.2658
1.2655
1.26528
1.26513
1.26503
1.26499
1.26498
1.26501
1.26506
1.26512
1.26519
1.26525
1.26531
1.26534
1.26537
1.33192
1.33209
1.33243
1.33294
1.33362
1.33448
1.33549
1.33668
1.33804
1.33956
1.34125
1.3431
1.34512
1.3473
1.34965
1.35215
1.35481
1.35762
1.36058
1.36369
1.36693
1.3703
1.3738
1.3774
1.38109
1.38487
1.3887
1.39258
1.39647
1.40037
1.40424
1.40805
1.41179
1.41543
1.41893
1.42229
1.42546
1.42844
1.43119
1.4337
1.43595
1.43791
1.43958
1.44095
1.44199
1.44271
1.44309
1.44313
1.44283
1.44219
1.4412
1.43987
1.43821
1.43622
1.43392
1.43131
1.42841
1.42524
1.42182
1.41816
1.41429
1.41023
1.40601
1.40166
1.3972
1.39267
1.38809
1.38349
1.37891
1.37436
1.36989
1.3655
1.36123
1.35708
1.35309
1.34926
1.34559
1.3421
1.33879
1.33565
1.33269
1.32989
1.32725
1.32477
1.32242
1.32021
1.31812
1.31614
1.31427
1.3125
1.31082
1.30923
1.30773
1.30631
1.30498
1.30372
1.30255
1.30147
1.30047
1.29956
1.29874
1.298
1.29734
1.29678
1.29629
1.29588
1.29555
1.29529
1.29509
1.29494
1.29485
1.29479
1.29477
1.29477
1.29478
1.29481
1.29484
1.29487
1.29489
1.2949
1.36254
1.36271
1.36303
1.36352
1.36417
1.36499
1.36596
1.36709
1.36839
1.36984
1.37145
1.37322
1.37515
1.37722
1.37945
1.38183
1.38435
1.38701
1.38981
1.39274
1.3958
1.39897
1.40225
1.40562
1.40908
1.4126
1.41617
1.41978
1.4234
1.42701
1.43059
1.43412
1.43757
1.44092
1.44416
1.44724
1.45017
1.4529
1.45543
1.45773
1.45978
1.46158
1.46311
1.46435
1.46529
1.46593
1.46626
1.46628
1.46597
1.46535
1.46441
1.46316
1.4616
1.45974
1.45758
1.45515
1.45244
1.44949
1.4463
1.44289
1.43929
1.43551
1.43158
1.42753
1.42338
1.41916
1.41489
1.4106
1.40631
1.40206
1.39786
1.39374
1.38971
1.38579
1.382
1.37835
1.37485
1.3715
1.36831
1.36527
1.36239
1.35967
1.35708
1.35464
1.35233
1.35014
1.34807
1.34612
1.34426
1.3425
1.34084
1.33926
1.33777
1.33637
1.33504
1.3338
1.33265
1.33157
1.33058
1.32967
1.32884
1.32809
1.32743
1.32684
1.32633
1.3259
1.32553
1.32523
1.32499
1.3248
1.32466
1.32456
1.3245
1.32446
1.32443
1.32443
1.32443
1.32443
1.32444
1.32444
1.393
1.39316
1.39347
1.39394
1.39456
1.39533
1.39626
1.39735
1.39858
1.39997
1.4015
1.40319
1.40502
1.40699
1.4091
1.41136
1.41375
1.41627
1.41891
1.42168
1.42455
1.42753
1.43061
1.43377
1.437
1.44029
1.44361
1.44697
1.45033
1.45368
1.45699
1.46026
1.46345
1.46654
1.46952
1.47237
1.47506
1.47757
1.47989
1.482
1.48388
1.48553
1.48692
1.48804
1.48889
1.48946
1.48975
1.48974
1.48943
1.48883
1.48794
1.48676
1.48529
1.48354
1.48153
1.47925
1.47672
1.47397
1.47099
1.46781
1.46446
1.46094
1.45728
1.45351
1.44964
1.4457
1.44171
1.4377
1.43369
1.4297
1.42576
1.42188
1.41808
1.41437
1.41078
1.4073
1.40396
1.40075
1.39767
1.39474
1.39195
1.38929
1.38677
1.38438
1.38211
1.37996
1.37792
1.37598
1.37415
1.37241
1.37076
1.3692
1.36773
1.36634
1.36503
1.3638
1.36265
1.36158
1.3606
1.35969
1.35886
1.35811
1.35743
1.35683
1.3563
1.35584
1.35545
1.35512
1.35484
1.35462
1.35444
1.3543
1.3542
1.35412
1.35407
1.35404
1.35401
1.354
1.35399
1.35399
1.4233
1.42345
1.42375
1.42419
1.42479
1.42553
1.42641
1.42745
1.42862
1.42994
1.4314
1.433
1.43474
1.43662
1.43862
1.44076
1.44302
1.4454
1.44789
1.4505
1.4532
1.456
1.45889
1.46184
1.46486
1.46793
1.47103
1.47415
1.47727
1.48038
1.48345
1.48647
1.48942
1.49228
1.49502
1.49765
1.50012
1.50243
1.50456
1.5065
1.50822
1.50972
1.51099
1.51201
1.51278
1.51328
1.51352
1.51349
1.51319
1.51261
1.51176
1.51064
1.50926
1.50762
1.50573
1.5036
1.50124
1.49866
1.49589
1.49292
1.48979
1.48651
1.4831
1.47957
1.47596
1.47228
1.46855
1.4648
1.46104
1.4573
1.45359
1.44994
1.44635
1.44284
1.43943
1.43612
1.43293
1.42985
1.4269
1.42407
1.42137
1.41879
1.41633
1.414
1.41178
1.40966
1.40766
1.40575
1.40394
1.40223
1.4006
1.39906
1.3976
1.39623
1.39493
1.39372
1.39258
1.39152
1.39054
1.38963
1.3888
1.38804
1.38736
1.38674
1.3862
1.38572
1.3853
1.38495
1.38464
1.38439
1.38418
1.38401
1.38388
1.38377
1.38369
1.38363
1.38359
1.38356
1.38354
1.38353
1.45346
1.4536
1.45388
1.45431
1.45487
1.45558
1.45642
1.4574
1.45852
1.45978
1.46116
1.46268
1.46433
1.46611
1.46801
1.47003
1.47216
1.47441
1.47676
1.47921
1.48176
1.48439
1.48709
1.48986
1.49268
1.49554
1.49843
1.50133
1.50423
1.50711
1.50996
1.51275
1.51548
1.51812
1.52065
1.52307
1.52535
1.52747
1.52943
1.5312