/*--------------------------------*- C++ -*----------------------------------*\
| =========                 |                                                 |
| \\      /  F ield         | OpenFOAM: The Open Source CFD Toolbox           |
|  \\    /   O peration     | Version:  2406                                  |
|   \\  /    A nd           | Website:  www.openfoam.com                      |
|    \\/     M anipulation  |                                                 |
\*---------------------------------------------------------------------------*/
FoamFile
{
    version     2.0;
    format      ascii;
    arch        "LSB;label=32;scalar=64";
    class       volScalarField;
    location    "3.55";
    object      D;
}
// * * * * * * * * * * * * * * * * * * * * * * * * * * * * * * * * * * * * * //

dimensions      [0 2 -1 0 0 0 0];

internalField   nonuniform List<scalar> 
14400
(
9.44415e-05
6.54272e-05
6.10818e-05
5.95876e-05
5.88473e-05
5.84351e-05
5.82141e-05
5.81318e-05
5.8173e-05
5.83484e-05
5.87029e-05
5.93553e-05
6.06657e-05
6.4278e-05
8.43248e-05
0.000138162
0.00013161
6.81184e-05
6.15659e-05
5.95034e-05
5.85134e-05
5.79428e-05
5.759e-05
5.73747e-05
5.72617e-05
5.72379e-05
5.73062e-05
5.74868e-05
5.78312e-05
5.84684e-05
5.98075e-05
6.39862e-05
9.60949e-05
0.000138236
0.00013824
0.00013824
0.00013824
0.00013824
0.00013824
0.00013824
0.00013824
0.00013824
0.00013824
0.00013824
0.00013824
0.00013824
0.00013824
0.00013824
0.00013824
0.00013824
0.00013824
0.00013824
0.00013824
0.00013824
0.00013824
0.00013824
0.00013824
0.00013824
0.00013824
0.00013824
0.00013824
0.00013824
0.00013824
0.00013824
0.000134335
6.76563e-05
6.0931e-05
5.8942e-05
5.80366e-05
5.75355e-05
5.72346e-05
5.70515e-05
5.6947e-05
5.69012e-05
5.69038e-05
5.69515e-05
5.70458e-05
5.71946e-05
5.74136e-05
5.77339e-05
5.82186e-05
5.90175e-05
6.06063e-05
6.55397e-05
0.0001068
0.00013824
0.00013824
0.00013824
0.00013824
0.00013824
0.000108578
6.6338e-05
6.13462e-05
5.97749e-05
5.9029e-05
5.86312e-05
5.8434e-05
5.83801e-05
5.84478e-05
5.86324e-05
5.89367e-05
5.9352e-05
5.98043e-05
6.00488e-05
5.98001e-05
5.93412e-05
5.89196e-05
5.86096e-05
5.84196e-05
5.83465e-05
5.83945e-05
5.85848e-05
5.89742e-05
5.97089e-05
6.12623e-05
6.62106e-05
0.000108138
0.00013824
0.00013824
0.00013824
0.000118365
6.73612e-05
6.16354e-05
5.98508e-05
5.90109e-05
5.85555e-05
5.83149e-05
5.82268e-05
5.82735e-05
5.84676e-05
5.88622e-05
5.96027e-05
6.1166e-05
6.61824e-05
0.000109732
0.00013824
0.000138076
7.91622e-05
6.30073e-05
5.99252e-05
5.87199e-05
5.80748e-05
5.7689e-05
5.74581e-05
5.73396e-05
5.73179e-05
5.73963e-05
5.75984e-05
5.79858e-05
5.87176e-05
6.03269e-05
6.57636e-05
0.000119455
0.00013824
0.00013824
0.00013824
0.00013824
0.00013824
0.00013824
0.00013824
0.00013824
0.00013824
0.00013824
0.00013824
0.00013824
0.00013824
0.00013824
0.00013824
0.00013824
0.00013824
0.00013824
0.00013824
0.00013824
0.00013824
0.00013824
0.00013824
0.00013824
0.00013824
0.00013824
0.00013824
0.00013824
0.00013824
0.00013824
0.00013824
0.000138149
8.03514e-05
6.23681e-05
5.93169e-05
5.82081e-05
5.76394e-05
5.73078e-05
5.71082e-05
5.69943e-05
5.69432e-05
5.69437e-05
5.69919e-05
5.709e-05
5.72464e-05
5.74791e-05
5.78234e-05
5.83527e-05
5.9247e-05
6.10952e-05
6.70593e-05
0.000124312
0.00013824
0.00013824
0.00013824
0.00013824
0.00013824
0.000130067
6.87626e-05
6.21223e-05
6.01371e-05
5.92475e-05
5.87883e-05
5.85644e-05
5.8505e-05
5.85867e-05
5.88113e-05
5.92012e-05
5.97927e-05
6.05848e-05
6.11969e-05
6.05831e-05
5.97828e-05
5.91844e-05
5.87888e-05
5.8559e-05
5.84721e-05
5.85257e-05
5.87428e-05
5.91936e-05
6.00716e-05
6.20374e-05
6.86342e-05
0.000129872
0.00013824
0.00013824
0.00013824
0.000137952
7.73471e-05
6.33849e-05
6.05193e-05
5.93963e-05
5.88312e-05
5.85423e-05
5.84399e-05
5.84997e-05
5.87401e-05
5.92375e-05
6.0219e-05
6.24984e-05
7.09039e-05
0.000136376
0.00013824
0.00013824
0.000118318
6.65705e-05
6.09213e-05
5.91917e-05
5.83712e-05
5.79085e-05
5.76417e-05
5.75102e-05
5.74935e-05
5.75955e-05
5.78489e-05
5.83454e-05
5.93502e-05
6.20296e-05
7.63185e-05
0.000138041
0.00013824
0.00013824
0.00013824
0.00013824
0.00013824
0.00013824
0.00013824
0.00013824
0.00013824
0.00013824
0.00013824
0.00013824
0.00013824
0.00013824
0.00013824
0.00013824
0.00013824
0.00013824
0.00013824
0.00013824
0.00013824
0.00013824
0.00013824
0.00013824
0.00013824
0.00013824
0.00013824
0.00013824
0.00013824
0.00013824
0.00013824
0.00013824
0.0001159
6.53198e-05
6.01201e-05
5.85814e-05
5.7866e-05
5.74671e-05
5.72315e-05
5.70969e-05
5.70342e-05
5.70301e-05
5.70797e-05
5.71859e-05
5.73593e-05
5.76228e-05
5.80228e-05
5.86625e-05
5.98307e-05
6.27778e-05
7.80235e-05
0.000138053
0.00013824
0.00013824
0.00013824
0.00013824
0.00013824
0.000138238
9.92722e-05
6.5397e-05
6.11285e-05
5.97738e-05
5.91498e-05
5.8858e-05
5.87834e-05
5.88972e-05
5.92179e-05
5.98315e-05
6.09756e-05
6.34089e-05
6.72285e-05
6.34282e-05
6.09718e-05
5.9817e-05
5.91968e-05
5.8871e-05
5.87521e-05
5.88212e-05
5.91063e-05
5.97217e-05
6.10638e-05
6.53038e-05
9.90036e-05
0.000138237
0.00013824
0.00013824
0.00013824
0.00013824
0.000129527
6.86006e-05
6.20733e-05
6.01787e-05
5.93593e-05
5.89633e-05
5.88298e-05
5.89174e-05
5.92605e-05
6.00093e-05
6.17475e-05
6.76722e-05
0.000123174
0.00013824
0.00013824
0.00013824
0.000138207
8.58913e-05
6.36342e-05
6.01639e-05
5.89319e-05
5.83072e-05
5.79676e-05
5.78102e-05
5.78039e-05
5.79537e-05
5.83135e-05
5.90612e-05
6.0797e-05
6.6953e-05
0.000128799
0.00013824
0.00013824
0.00013824
0.00013824
0.00013824
0.00013824
0.00013824
0.00013824
0.00013824
0.00013824
0.00013824
0.00013824
0.00013824
0.00013824
0.00013824
0.00013824
0.00013824
0.00013824
0.00013824
0.00013824
0.00013824
0.00013824
0.00013824
0.00013824
0.00013824
0.00013824
0.00013824
0.00013824
0.00013824
0.00013824
0.00013824
0.00013824
0.00013824
0.000138082
7.71499e-05
6.20427e-05
5.93031e-05
5.82747e-05
5.7746e-05
5.74441e-05
5.7272e-05
5.7189e-05
5.71766e-05
5.72288e-05
5.73493e-05
5.75534e-05
5.78744e-05
5.83837e-05
5.92576e-05
6.10823e-05
6.71134e-05
0.000123952
0.00013824
0.00013824
0.00013824
0.00013824
0.00013824
0.00013824
0.00013824
0.000137849
7.59551e-05
6.35268e-05
6.08838e-05
5.98563e-05
5.94063e-05
5.9293e-05
5.94733e-05
6.00041e-05
6.11908e-05
6.43316e-05
7.94146e-05
0.000134799
7.97783e-05
6.4368e-05
6.11849e-05
5.99865e-05
5.94502e-05
5.9265e-05
5.93732e-05
5.98166e-05
6.08374e-05
6.3472e-05
7.58881e-05
0.000137853
0.00013824
0.00013824
0.00013824
0.00013824
0.00013824
0.00013824
0.000118042
6.76875e-05
6.20102e-05
6.04347e-05
5.97526e-05
5.95445e-05
5.96948e-05
6.02996e-05
6.17831e-05
6.7019e-05
0.000109874
0.00013824
0.00013824
0.00013824
0.00013824
0.00013824
0.000137288
7.18072e-05
6.24193e-05
6.00623e-05
5.90401e-05
5.85387e-05
5.83239e-05
5.8342e-05
5.85978e-05
5.91999e-05
6.06996e-05
6.59745e-05
0.000114698
0.00013824
0.00013824
0.00013824
0.00013824
0.00013824
0.00013824
0.00013824
0.00013824
0.00013824
0.00013824
0.00013824
0.00013824
0.00013824
0.00013824
0.00013824
0.00013824
0.00013824
0.00013824
0.00013824
0.00013824
0.00013824
0.00013824
0.00013824
0.00013824
0.00013824
0.00013824
0.00013824
0.00013824
0.00013824
0.00013824
0.00013824
0.00013824
0.00013824
0.00013824
0.00013824
0.000131824
6.72447e-05
6.08375e-05
5.90279e-05
5.82247e-05
5.77964e-05
5.75558e-05
5.74369e-05
5.74105e-05
5.74668e-05
5.7612e-05
5.78708e-05
5.83003e-05
5.90385e-05
6.05102e-05
6.49225e-05
9.87038e-05
0.000138238
0.00013824
0.00013824
0.00013824
0.00013824
0.00013824
0.00013824
0.00013824
0.00013824
0.000136761
7.23249e-05
6.39335e-05
6.13997e-05
6.04746e-05
6.02401e-05
6.05941e-05
6.16994e-05
6.50854e-05
7.98485e-05
0.000137954
0.00013824
0.000137983
8.03377e-05
6.51252e-05
6.16916e-05
6.05795e-05
6.02192e-05
6.04505e-05
6.13696e-05
6.39159e-05
7.23663e-05
0.000136808
0.00013824
0.00013824
0.00013824
0.00013824
0.00013824
0.00013824
0.00013824
0.00013824
0.000118481
6.84885e-05
6.33816e-05
6.14861e-05
6.10528e-05
6.13858e-05
6.30018e-05
6.79581e-05
0.000111789
0.00013824
0.00013824
0.00013824
0.00013824
0.00013824
0.00013824
0.00013824
0.000136304
7.1334e-05
6.32955e-05
6.06359e-05
5.96525e-05
5.92669e-05
5.93651e-05
5.99399e-05
6.12374e-05
6.63934e-05
0.000111755
0.00013824
0.00013824
0.00013824
0.00013824
0.00013824
0.00013824
0.00013824
0.00013824
0.00013824
0.00013824
0.00013824
0.00013824
0.00013824
0.00013824
0.00013824
0.00013824
0.00013824
0.00013824
0.00013824
0.00013824
0.00013824
0.00013824
0.00013824
0.00013824
0.00013824
0.00013824
0.00013824
0.00013824
0.00013824
0.00013824
0.00013824
0.00013824
0.00013824
0.00013824
0.00013824
0.00013824
0.00013824
0.000121445
6.63514e-05
6.07259e-05
5.91193e-05
5.84096e-05
5.80261e-05
5.78389e-05
5.77873e-05
5.7851e-05
5.80404e-05
5.8404e-05
5.90641e-05
6.03887e-05
6.39769e-05
8.38807e-05
0.000138191
0.00013824
0.00013824
0.00013824
0.00013824
0.00013824
0.00013824
0.00013824
0.00013824
0.00013824
0.00013824
0.000137032
8.11882e-05
6.65218e-05
6.31227e-05
6.23007e-05
6.3459e-05
6.72973e-05
9.03779e-05
0.000138068
0.00013824
0.00013824
0.00013824
0.000138087
9.10006e-05
6.73284e-05
6.34873e-05
6.22995e-05
6.31383e-05
6.65267e-05
8.15158e-05
0.000137085
0.00013824
0.00013824
0.00013824
0.00013824
0.00013824
0.00013824
0.00013824
0.00013824
0.00013824
0.00013824
0.000130208
8.00301e-05
6.72723e-05
6.58736e-05
6.70161e-05
7.64946e-05
0.000126965
0.00013824
0.00013824
0.00013824
0.00013824
0.00013824
0.00013824
0.00013824
0.00013824
0.00013824
0.000137165
8.38897e-05
6.60184e-05
6.2632e-05
6.13533e-05
6.19013e-05
6.43263e-05
6.87107e-05
0.00012325
0.00013824
0.00013824
0.00013824
0.00013824
0.00013824
0.00013824
0.00013824
0.00013824
0.00013824
0.00013824
0.00013824
0.00013824
0.00013824
0.00013824
0.00013824
0.00013824
0.00013824
0.00013824
0.00013824
0.00013824
0.00013824
0.00013824
0.00013824
0.00013824
0.00013824
0.00013824
0.00013824
0.00013824
0.00013824
0.00013824
0.00013824
0.00013824
0.00013824
0.00013824
0.00013824
0.00013824
0.00013824
0.00013824
0.00013824
0.000119024
6.66904e-05
6.12061e-05
5.96629e-05
5.88786e-05
5.85405e-05
5.84383e-05
5.85164e-05
5.87955e-05
5.94016e-05
6.07096e-05
6.44945e-05
8.27483e-05
0.000138134
0.00013824
0.00013824
0.00013824
0.00013824
0.00013824
0.00013824
0.00013824
0.00013824
0.00013824
0.00013824
0.00013824
0.00013824
0.000138128
0.000112621
7.4849e-05
6.88722e-05
7.75767e-05
0.000118009
0.000138223
0.00013824
0.00013824
0.00013824
0.00013824
0.00013824
0.000138225
0.000118467
7.80981e-05
6.89359e-05
7.52643e-05
0.000113041
0.000138137
0.00013824
0.00013824
0.00013824
0.00013824
0.00013824
0.00013824
0.00013824
0.00013824
0.00013824
0.00013824
0.00013824
0.00013824
0.00013811
0.000122826
0.000106907
0.000121209
0.000137944
0.00013824
0.00013824
0.00013824
0.00013824
0.00013824
0.00013824
0.00013824
0.00013824
0.00013824
0.00013824
0.00013824
0.000138195
0.000116835
7.90232e-05
6.82308e-05
7.31065e-05
0.000104146
0.000135837
0.00013824
0.00013824
0.00013824
0.00013824
0.00013824
0.00013824
0.00013824
0.00013824
0.00013824
0.00013824
0.00013824
0.00013824
0.00013824
0.00013824
0.00013824
0.00013824
0.00013824
0.00013824
0.00013824
0.00013824
0.00013824
0.00013824
0.00013824
0.00013824
0.00013824
0.00013824
0.00013824
0.00013824
0.00013824
0.00013824
0.00013824
0.00013824
0.00013824
0.00013824
0.00013824
0.00013824
0.00013824
0.00013824
0.00013824
0.00013824
0.00013824
0.000127767
6.93012e-05
6.36567e-05
6.0774e-05
6.00093e-05
5.97762e-05
5.98915e-05
6.04051e-05
6.1842e-05
6.62954e-05
9.52158e-05
0.000138178
0.00013824
0.00013824
0.00013824
0.00013824
0.00013824
0.00013824
0.00013824
0.00013824
0.00013824
0.00013824
0.00013824
0.00013824
0.00013824
0.00013824
0.00013824
0.000137674
0.000132254
0.000137952
0.00013824
0.00013824
0.00013824
0.00013824
0.00013824
0.00013824
0.00013824
0.00013824
0.00013824
0.000137987
0.000132595
0.000137737
0.00013824
0.00013824
0.00013824
0.00013824
0.00013824
0.00013824
0.00013824
0.00013824
0.00013824
0.00013824
0.00013824
0.00013824
0.00013824
0.00013824
0.00013824
0.00013824
0.000138239
0.00013824
0.00013824
0.00013824
0.00013824
0.00013824
0.00013824
0.00013824
0.00013824
0.00013824
0.00013824
0.00013824
0.00013824
0.00013824
0.00013824
0.00013824
0.000138097
0.00013445
0.000137655
0.000138239
0.00013824
0.00013824
0.00013824
0.00013824
0.00013824
0.00013824
0.00013824
0.00013824
0.00013824
0.00013824
0.00013824
0.00013824
0.00013824
0.00013824
0.00013824
0.00013824
0.00013824
0.00013824
0.00013824
0.00013824
0.00013824
0.00013824
0.00013824
0.00013824
0.00013824
0.00013824
0.00013824
0.00013824
0.00013824
0.00013824
0.00013824
0.00013824
0.00013824
0.00013824
0.00013824
0.00013824
0.00013824
0.00013824
0.00013824
0.00013824
0.00013824
0.00013824
0.00013824
0.000136704
9.87423e-05
6.72969e-05
6.4865e-05
6.39653e-05
6.42645e-05
6.58092e-05
7.26705e-05
0.000120764
0.000138236
0.00013824
0.00013824
0.00013824
0.00013824
0.00013824
0.00013824
0.00013824
0.00013824
0.00013824
0.00013824
0.00013824
0.00013824
0.00013824
0.00013824
0.00013824
0.00013824
0.00013824
0.00013824
0.00013824
0.00013824
0.00013824
0.00013824
0.00013824
0.00013824
0.00013824
0.00013824
0.00013824
0.00013824
0.00013824
0.00013824
0.00013824
0.00013824
0.00013824
0.00013824
0.00013824
0.00013824
0.00013824
0.00013824
0.00013824
0.00013824
0.00013824
0.00013824
0.00013824
0.00013824
0.00013824
0.00013824
0.00013824
0.00013824
0.00013824
0.00013824
0.00013824
0.00013824
0.00013824
0.00013824
0.00013824
0.00013824
0.00013824
0.00013824
0.00013824
0.00013824
0.00013824
0.00013824
0.00013824
0.00013824
0.00013824
0.00013824
0.00013824
0.00013824
0.00013824
0.00013824
0.00013824
0.00013824
0.00013824
0.00013824
0.00013824
0.00013824
0.00013824
0.00013824
0.00013824
0.00013824
0.00013824
0.00013824
0.00013824
0.00013824
0.00013824
0.00013824
0.00013824
0.00013824
0.00013824
0.00013824
0.00013824
0.00013824
0.00013824
0.00013824
0.00013824
0.00013824
0.00013824
0.00013824
0.00013824
0.00013824
0.00013824
0.00013824
0.00013824
0.00013824
0.00013824
0.00013824
0.00013824
0.00013824
0.00013824
0.00013824
0.00013824
0.000138238
0.000132247
0.000110369
9.60137e-05
9.95969e-05
0.000119441
0.000137649
0.00013824
0.00013824
0.00013824
0.00013824
0.00013824
0.00013824
0.00013824
0.00013824
0.00013824
0.00013824
0.00013824
0.00013824
0.00013824
0.00013824
0.00013824
0.00013824
0.00013824
0.00013824
0.00013824
0.00013824
0.00013824
0.00013824
0.00013824
0.00013824
0.00013824
0.00013824
0.00013824
0.00013824
0.00013824
0.00013824
0.00013824
0.00013824
0.00013824
0.00013824
0.00013824
0.00013824
0.00013824
0.00013824
0.00013824
0.00013824
0.00013824
0.00013824
0.00013824
0.00013824
0.00013824
0.00013824
0.00013824
0.00013824
0.00013824
0.00013824
0.00013824
0.00013824
0.00013824
0.00013824
0.00013824
0.00013824
0.00013824
0.00013824
0.00013824
0.00013824
0.00013824
0.00013824
0.00013824
0.00013824
0.00013824
0.00013824
0.00013824
0.00013824
0.00013824
0.00013824
0.00013824
0.00013824
0.00013824
0.00013824
0.00013824
0.00013824
0.00013824
0.00013824
0.00013824
0.00013824
0.00013824
0.00013824
0.00013824
0.00013824
0.00013824
0.00013824
0.00013824
0.00013824
0.00013824
0.00013824
0.00013824
0.00013824
0.00013824
0.00013824
0.00013824
0.00013824
0.00013824
0.00013824
0.00013824
0.00013824
0.00013824
0.00013824
0.00013824
0.00013824
0.00013824
0.00013824
0.00013824
0.00013824
0.00013824
0.00013824
0.00013824
0.00013824
0.00013824
0.00013824
0.00013824
0.00013824
0.000138236
0.000138238
0.00013824
0.00013824
0.00013824
0.00013824
0.00013824
0.00013824
0.00013824
0.00013824
0.00013824
0.00013824
0.00013824
0.00013824
0.00013824
0.00013824
0.00013824
0.00013824
0.00013824
0.00013824
0.00013824
0.00013824
0.00013824
0.00013824
0.00013824
0.00013824
0.00013824
0.00013824
0.00013824
0.00013824
0.00013824
0.00013824
0.00013824
0.00013824
0.00013824
0.00013824
0.00013824
0.00013824
0.00013824
0.00013824
0.00013824
0.00013824
0.00013824
0.00013824
0.00013824
0.00013824
0.00013824
0.00013824
0.00013824
0.00013824
0.00013824
0.00013824
0.00013824
0.00013824
0.00013824
0.00013824
0.00013824
0.00013824
0.00013824
0.00013824
0.00013824
0.00013824
0.00013824
0.00013824
0.00013824
0.00013824
0.00013824
0.00013824
0.00013824
0.00013824
0.00013824
0.00013824
0.00013824
0.00013824
0.00013824
0.00013824
0.00013824
0.00013824
0.00013824
0.00013824
0.00013824
0.00013824
0.00013824
0.00013824
0.00013824
0.00013824
0.00013824
0.00013824
0.00013824
0.00013824
0.00013824
0.00013824
0.00013824
0.00013824
0.00013824
0.00013824
0.00013824
0.00013824
0.00013824
0.00013824
0.00013824
0.00013824
0.00013824
0.00013824
0.00013824
0.00013824
0.00013824
0.00013824
0.00013824
0.00013824
0.00013824
0.00013824
0.00013824
0.00013824
0.00013824
0.00013824
0.00013824
0.00013824
0.00013824
0.00013824
0.00013824
0.00013824
0.00013824
0.00013824
0.00013824
0.00013824
0.00013824
0.00013824
0.00013824
0.00013824
0.00013824
0.00013824
0.00013824
0.00013824
0.00013824
0.00013824
0.00013824
0.00013824
0.00013824
0.00013824
0.00013824
0.00013824
0.00013824
0.00013824
0.00013824
0.00013824
0.00013824
0.00013824
0.00013824
0.00013824
0.00013824
0.00013824
0.00013824
0.00013824
0.00013824
0.00013824
0.00013824
0.00013824
0.00013824
0.00013824
0.00013824
0.00013824
0.00013824
0.00013824
0.00013824
0.00013824
0.00013824
0.00013824
0.00013824
0.00013824
0.00013824
0.00013824
0.00013824
0.00013824
0.00013824
0.00013824
0.00013824
0.00013824
0.00013824
0.00013824
0.00013824
0.00013824
0.00013824
0.00013824
0.00013824
0.00013824
0.00013824
0.00013824
0.00013824
0.00013824
0.00013824
0.00013824
0.00013824
0.00013824
0.00013824
0.00013824
0.00013824
0.00013824
0.00013824
0.00013824
0.00013824
0.00013824
0.00013824
0.00013824
0.00013824
0.00013824
0.00013824
0.00013824
0.00013824
0.00013824
0.00013824
0.00013824
0.00013824
0.00013824
0.00013824
0.00013824
0.00013824
0.00013824
0.00013824
0.00013824
0.00013824
0.00013824
0.00013824
0.00013824
0.00013824
0.00013824
0.00013824
0.00013824
0.00013824
0.00013824
0.00013824
0.00013824
0.00013824
0.00013824
0.00013824
0.00013824
0.00013824
0.00013824
0.00013824
0.00013824
0.00013824
0.00013824
0.00013824
0.00013824
0.00013824
0.00013824
0.00013824
0.00013824
0.00013824
0.00013824
0.00013824
0.00013824
0.00013824
0.00013824
0.00013824
0.00013824
0.00013824
0.00013824
0.00013824
0.00013824
0.00013824
0.00013824
0.00013824
0.00013824
0.00013824
0.00013824
0.00013824
0.00013824
0.00013824
0.00013824
0.00013824
0.00013824
0.00013824
0.00013824
0.00013824
0.00013824
0.00013824
0.00013824
0.00013824
0.00013824
0.00013824
0.00013824
0.00013824
0.00013824
0.00013824
0.00013824
0.00013824
0.00013824
0.00013824
0.00013824
0.00013824
0.00013824
0.00013824
0.00013824
0.00013824
0.00013824
0.00013824
0.00013824
0.00013824
0.00013824
0.00013824
0.00013824
0.00013824
0.00013824
0.00013824
0.00013824
0.00013824
0.00013824
0.00013824
0.00013824
0.00013824
0.00013824
0.00013824
0.00013824
0.00013824
0.00013824
0.00013824
0.00013824
0.00013824
0.00013824
0.00013824
0.00013824
0.00013824
0.00013824
0.00013824
0.00013824
0.00013824
0.00013824
0.00013824
0.00013824
0.00013824
0.00013824
0.00013824
0.00013824
0.00013824
0.00013824
0.00013824
0.00013824
0.00013824
0.00013824
0.00013824
0.00013824
0.00013824
0.00013824
0.00013824
0.00013824
0.00013824
0.00013824
0.00013824
0.00013824
0.00013824
0.00013824
0.00013824
0.00013824
0.00013824
0.00013824
0.00013824
0.00013824
0.00013824
0.00013824
0.00013824
0.00013824
0.00013824
0.00013824
0.00013824
0.00013824
0.00013824
0.00013824
0.00013824
0.00013824
0.00013824
0.00013824
0.00013824
0.00013824
0.00013824
0.00013824
0.00013824
0.00013824
0.00013824
0.00013824
0.00013824
0.00013824
0.00013824
0.00013824
0.00013824
0.00013824
0.00013824
0.00013824
0.00013824
0.00013824
0.00013824
0.00013824
0.00013824
0.00013824
0.00013824
0.00013824
0.00013824
0.00013824
0.00013824
0.00013824
0.00013824
0.00013824
0.00013824
0.00013824
0.00013824
0.00013824
0.00013824
0.00013824
0.00013824
0.00013824
0.00013824
0.00013824
0.00013824
0.00013824
0.00013824
0.00013824
0.00013824
0.00013824
0.00013824
0.00013824
0.00013824
0.00013824
0.00013824
0.00013824
0.00013824
0.00013824
0.00013824
0.00013824
0.00013824
0.00013824
0.00013824
0.00013824
0.00013824
0.00013824
0.00013824
0.00013824
0.00013824
0.00013824
0.00013824
0.00013824
0.00013824
0.00013824
0.00013824
0.00013824
0.00013824
0.00013824
0.00013824
0.00013824
0.00013824
0.00013824
0.00013824
0.00013824
0.00013824
0.00013824
0.00013824
0.00013824
0.00013824
0.00013824
0.00013824
0.00013824
0.00013824
0.00013824
0.00013824
0.00013824
0.00013824
0.00013824
0.00013824
0.00013824
0.00013824
0.00013824
0.00013824
0.00013824
0.00013824
0.00013824
0.00013824
0.00013824
0.00013824
0.00013824
0.00013824
0.00013824
0.00013824
0.00013824
0.00013824
0.00013824
0.00013824
0.00013824
0.00013824
0.00013824
0.00013824
0.00013824
0.00013824
0.00013824
0.00013824
0.00013824
0.00013824
0.00013824
0.00013824
0.00013824
0.00013824
0.00013824
0.00013824
0.00013824
0.00013824
0.00013824
0.00013824
0.00013824
0.00013824
0.00013824
0.00013824
0.00013824
0.00013824
0.00013824
0.00013824
0.00013824
0.00013824
0.00013824
0.00013824
0.00013824
0.00013824
0.00013824
0.00013824
0.00013824
0.00013824
0.00013824
0.00013824
0.00013824
0.00013824
0.00013824
0.00013824
0.00013824
0.00013824
0.00013824
0.00013824
0.00013824
0.00013824
0.00013824
0.00013824
0.00013824
0.00013824
0.00013824
0.00013824
0.00013824
0.00013824
0.00013824
0.00013824
0.00013824
0.00013824
0.00013824
0.00013824
0.00013824
0.00013824
0.00013824
0.00013824
0.00013824
0.00013824
0.00013824
0.00013824
0.00013824
0.00013824
0.00013824
0.00013824
0.00013824
0.00013824
0.00013824
0.00013824
0.00013824
0.00013824
0.00013824
0.00013824
0.00013824
0.00013824
0.00013824
0.00013824
0.00013824
0.00013824
0.00013824
0.00013824
0.00013824
0.00013824
0.00013824
0.00013824
0.00013824
0.00013824
0.00013824
0.00013824
0.00013824
0.00013824
0.00013824
0.00013824
0.00013824
0.00013824
0.00013824
0.00013824
0.00013824
0.00013824
0.00013824
0.00013824
0.00013824
0.00013824
0.00013824
0.00013824
0.00013824
0.00013824
0.00013824
0.00013824
0.00013824
0.00013824
0.00013824
0.00013824
0.00013824
0.00013824
0.00013824
0.00013824
0.00013824
0.00013824
0.00013824
0.00013824
0.00013824
0.00013824
0.00013824
0.00013824
0.00013824
0.00013824
0.00013824
0.00013824
0.00013824
0.00013824
0.00013824
0.00013824
0.00013824
0.00013824
0.00013824
0.00013824
0.00013824
0.00013824
0.00013824
0.00013824
0.00013824
0.00013824
0.00013824
0.00013824
0.00013824
0.00013824
0.00013824
0.00013824
0.00013824
0.00013824
0.00013824
0.00013824
0.00013824
0.00013824
0.00013824
0.00013824
0.00013824
0.00013824
0.00013824
0.00013824
0.00013824
0.00013824
0.00013824
0.00013824
0.00013824
0.00013824
0.00013824
0.00013824
0.00013824
0.00013824
0.00013824
0.00013824
0.00013824
0.00013824
0.00013824
0.00013824
0.00013824
0.00013824
0.00013824
0.00013824
0.00013824
0.00013824
0.00013824
0.00013824
0.00013824
0.00013824
0.00013824
0.00013824
0.00013824
0.00013824
0.00013824
0.00013824
0.00013824
0.00013824
0.00013824
0.00013824
0.00013824
0.00013824
0.00013824
0.00013824
0.00013824
0.00013824
0.00013824
0.00013824
0.00013824
0.00013824
0.00013824
0.00013824
0.00013824
0.00013824
0.00013824
0.00013824
0.00013824
0.00013824
0.00013824
0.00013824
0.00013824
0.00013824
0.00013824
0.00013824
0.00013824
0.00013824
0.00013824
0.00013824
0.00013824
0.00013824
0.00013824
0.00013824
0.00013824
0.00013824
0.00013824
0.00013824
0.00013824
0.00013824
0.00013824
0.00013824
0.00013824
0.00013824
0.00013824
0.00013824
0.00013824
0.00013824
0.00013824
0.00013824
0.00013824
0.00013824
0.00013824
0.00013824
0.00013824
0.00013824
0.00013824
0.00013824
0.00013824
0.00013824
0.00013824
0.00013824
0.00013824
0.00013824
0.00013824
0.00013824
0.00013824
0.00013824
0.00013824
0.00013824
0.00013824
0.00013824
0.00013824
0.00013824
0.00013824
0.00013824
0.00013824
0.00013824
0.00013824
0.00013824
0.00013824
0.00013824
0.00013824
0.00013824
0.00013824
0.00013824
0.00013824
0.00013824
0.00013824
0.00013824
0.00013824
0.00013824
0.00013824
0.00013824
0.00013824
0.00013824
0.00013824
0.00013824
0.00013824
0.00013824
0.00013824
0.00013824
0.00013824
0.00013824
0.00013824
0.00013824
0.00013824
0.00013824
0.00013824
0.00013824
0.00013824
0.00013824
0.00013824
0.00013824
0.00013824
0.00013824
0.00013824
0.00013824
0.00013824
0.00013824
0.00013824
0.00013824
0.00013824
0.00013824
0.00013824
0.00013824
0.00013824
0.00013824
0.00013824
0.00013824
0.00013824
0.00013824
0.00013824
0.00013824
0.00013824
0.00013824
0.00013824
0.00013824
0.00013824
0.00013824
0.00013824
0.00013824
0.00013824
0.00013824
0.00013824
0.00013824
0.00013824
0.00013824
0.00013824
0.00013824
0.00013824
0.00013824
0.00013824
0.00013824
0.00013824
0.00013824
0.00013824
0.00013824
0.00013824
0.00013824
0.00013824
0.00013824
0.00013824
0.00013824
0.00013824
0.00013824
0.00013824
0.00013824
0.00013824
0.00013824
0.00013824
0.00013824
0.00013824
0.00013824
0.00013824
0.00013824
0.00013824
0.00013824
0.00013824
0.00013824
0.00013824
0.00013824
0.00013824
0.00013824
0.00013824
0.00013824
0.00013824
0.00013824
0.00013824
0.00013824
0.00013824
0.00013824
0.00013824
0.00013824
0.00013824
0.00013824
0.00013824
0.00013824
0.00013824
0.00013824
0.00013824
0.00013824
0.00013824
0.00013824
0.00013824
0.00013824
0.00013824
0.00013824
0.00013824
0.00013824
0.00013824
0.00013824
0.00013824
0.00013824
0.00013824
0.00013824
0.00013824
0.00013824
0.00013824
0.00013824
0.00013824
0.00013824
0.00013824
0.00013824
0.00013824
0.00013824
0.00013824
0.00013824
0.00013824
0.00013824
0.00013824
0.00013824
0.00013824
0.00013824
0.00013824
0.00013824
0.00013824
0.00013824
0.00013824
0.00013824
0.00013824
0.00013824
0.00013824
0.00013824
0.00013824
0.00013824
0.00013824
0.00013824
0.00013824
0.00013824
0.00013824
0.00013824
0.00013824
0.00013824
0.00013824
0.00013824
0.00013824
0.00013824
0.00013824
0.00013824
0.00013824
0.00013824
0.00013824
0.00013824
0.00013824
0.00013824
0.00013824
0.00013824
0.00013824
0.00013824
0.00013824
0.00013824
0.00013824
0.00013824
0.00013824
0.00013824
0.00013824
0.00013824
0.00013824
0.00013824
0.00013824
0.00013824
0.00013824
0.00013824
0.00013824
0.00013824
0.00013824
0.00013824
0.00013824
0.00013824
0.00013824
0.00013824
0.00013824
0.00013824
0.00013824
0.00013824
0.00013824
0.00013824
0.00013824
0.00013824
0.00013824
0.00013824
0.00013824
0.00013824
0.00013824
0.00013824
0.00013824
0.00013824
0.00013824
0.00013824
0.00013824
0.00013824
0.00013824
0.00013824
0.00013824
0.00013824
0.00013824
0.00013824
0.00013824
0.00013824
0.00013824
0.00013824
0.00013824
0.00013824
0.00013824
0.00013824
0.00013824
0.00013824
0.00013824
0.00013824
0.00013824
0.00013824
0.00013824
0.00013824
0.00013824
0.00013824
0.00013824
0.00013824
0.00013824
0.00013824
0.00013824
0.00013824
0.00013824
0.00013824
0.00013824
0.00013824
0.00013824
0.00013824
0.00013824
0.00013824
0.00013824
0.00013824
0.00013824
0.00013824
0.00013824
0.00013824
0.00013824
0.00013824
0.00013824
0.00013824
0.00013824
0.00013824
0.00013824
0.00013824
0.00013824
0.00013824
0.00013824
0.00013824
0.00013824
0.00013824
0.00013824
0.00013824
0.00013824
0.00013824
0.00013824
0.00013824
0.00013824
0.00013824
0.00013824
0.00013824
0.00013824
0.00013824
0.00013824
0.00013824
0.00013824
0.00013824
0.00013824
0.00013824
0.00013824
0.00013824
0.00013824
0.00013824
0.00013824
0.00013824
0.00013824
0.00013824
0.00013824
0.00013824
0.00013824
0.00013824
0.00013824
0.00013824
0.00013824
0.00013824
0.00013824
0.00013824
0.00013824
0.00013824
0.00013824
0.00013824
0.00013824
0.00013824
0.00013824
0.00013824
0.00013824
0.00013824
0.00013824
0.00013824
0.00013824
0.00013824
0.00013824
0.00013824
0.00013824
0.00013824
0.00013824
0.00013824
0.00013824
0.00013824
0.00013824
0.00013824
0.00013824
0.00013824
0.00013824
0.00013824
0.00013824
0.00013824
0.00013824
0.00013824
0.00013824
0.00013824
0.00013824
0.00013824
0.00013824
0.00013824
0.00013824
0.00013824
0.00013824
0.00013824
0.00013824
0.00013824
0.00013824
0.00013824
0.00013824
0.00013824
0.00013824
0.00013824
0.00013824
0.00013824
0.00013824
0.00013824
0.00013824
0.00013824
0.00013824
0.00013824
0.00013824
0.00013824
0.00013824
0.00013824
0.00013824
0.00013824
0.00013824
0.00013824
0.00013824
0.00013824
0.00013824
0.00013824
0.00013824
0.00013824
0.00013824
0.00013824
0.00013824
0.00013824
0.00013824
0.00013824
0.00013824
0.00013824
0.00013824
0.00013824
0.00013824
0.00013824
0.00013824
0.00013824
0.00013824
0.00013824
0.00013824
0.00013824
0.00013824
0.00013824
0.00013824
0.00013824
0.00013824
0.00013824
0.00013824
0.00013824
0.00013824
0.00013824
0.00013824
0.00013824
0.00013824
0.00013824
0.00013824
0.00013824
0.00013824
0.00013824
0.00013824
0.00013824
0.00013824
0.00013824
0.00013824
0.00013824
0.00013824
0.00013824
0.00013824
0.00013824
0.00013824
0.00013824
0.00013824
0.00013824
0.00013824
0.00013824
0.00013824
0.00013824
0.00013824
0.00013824
0.00013824
0.00013824
0.00013824
0.00013824
0.00013824
0.00013824
0.00013824
0.00013824
0.00013824
0.00013824
0.00013824
0.00013824
0.00013824
0.00013824
0.00013824
0.00013824
0.00013824
0.00013824
0.00013824
0.00013824
0.00013824
0.00013824
0.00013824
0.00013824
0.00013824
0.00013824
0.00013824
0.00013824
0.00013824
0.00013824
0.00013824
0.00013824
0.00013824
0.00013824
0.00013824
0.00013824
0.00013824
0.00013824
0.00013824
0.00013824
0.00013824
0.00013824
0.00013824
0.00013824
0.00013824
0.00013824
0.00013824
0.00013824
0.00013824
0.00013824
0.00013824
0.00013824
0.00013824
0.00013824
0.00013824
0.00013824
0.00013824
0.00013824
0.00013824
0.00013824
0.00013824
0.00013824
0.00013824
0.00013824
0.00013824
0.00013824
0.00013824
0.00013824
0.00013824
0.00013824
0.00013824
0.00013824
0.00013824
0.00013824
0.00013824
0.00013824
0.00013824
0.00013824
0.00013824
0.00013824
0.00013824
0.00013824
0.00013824
0.00013824
0.00013824
0.00013824
0.00013824
0.00013824
0.00013824
0.00013824
0.00013824
0.00013824
0.00013824
0.00013824
0.00013824
0.00013824
0.00013824
0.00013824
0.00013824
0.00013824
0.00013824
0.00013824
0.00013824