/*--------------------------------*- C++ -*----------------------------------*\
| =========                 |                                                 |
| \\      /  F ield         | OpenFOAM: The Open Source CFD Toolbox           |
|  \\    /   O peration     | Version:  2406                                  |
|   \\  /    A nd           | Website:  www.openfoam.com                      |
|    \\/     M anipulation  |                                                 |
\*---------------------------------------------------------------------------*/
FoamFile
{
    version     2.0;
    format      ascii;
    arch        "LSB;label=32;scalar=64";
    class       volScalarField;
    location    "7.8";
    object      C;
}
// * * * * * * * * * * * * * * * * * * * * * * * * * * * * * * * * * * * * * //

dimensions      [1 -3 0 0 0 0 0];

internalField   nonuniform List<scalar> 
14400
(
0.227535
0.226535
0.224784
0.222657
0.22054
0.218766
0.217582
0.217145
0.217516
0.218658
0.220437
0.222613
0.224832
0.226638
0.227507
0.226974
0.224849
0.221445
0.217327
0.213092
0.209277
0.206331
0.204626
0.204481
0.206181
0.209995
0.216188
0.22503
0.236805
0.251809
0.270364
0.292807
0.319492
0.350763
0.386901
0.42794
0.472942
0.515681
0.546031
0.5672
0.585441
0.601047
0.614235
0.625171
0.633983
0.640768
0.645599
0.648529
0.64959
0.648798
0.646155
0.641644
0.635233
0.626872
0.61649
0.603993
0.589261
0.572138
0.552422
0.529661
0.495763
0.449554
0.404733
0.364284
0.328733
0.297977
0.27172
0.249611
0.231292
0.216422
0.204681
0.19577
0.189415
0.185369
0.183424
0.18342
0.185243
0.188828
0.194145
0.20119
0.209961
0.22044
0.232554
0.246124
0.260768
0.275633
0.288281
0.294795
0.293787
0.286607
0.276617
0.266257
0.256401
0.247485
0.239741
0.233275
0.228099
0.224154
0.221321
0.219437
0.218307
0.217732
0.217535
0.217597
0.217889
0.218484
0.219544
0.221288
0.223959
0.227795
0.233011
0.239784
0.248239
0.258443
0.270378
0.283908
0.298695
0.313985
0.327858
0.335771
0.234229
0.232969
0.230819
0.228272
0.225786
0.223731
0.22237
0.221864
0.222276
0.223574
0.225623
0.228182
0.230884
0.23322
0.234552
0.234195
0.231741
0.227756
0.223013
0.218219
0.213947
0.210653
0.208701
0.208401
0.210027
0.21384
0.220097
0.229064
0.24102
0.256261
0.275105
0.297892
0.324973
0.35669
0.393322
0.434911
0.480453
0.521228
0.549337
0.570118
0.588075
0.603465
0.616487
0.627295
0.636009
0.642721
0.647501
0.650397
0.651442
0.65065
0.648023
0.643544
0.637184
0.628892
0.618604
0.606229
0.591653
0.57473
0.555273
0.533016
0.501236
0.456615
0.411202
0.370114
0.334011
0.302774
0.276094
0.253611
0.234963
0.219807
0.20782
0.198705
0.19219
0.188032
0.18603
0.186024
0.187904
0.191607
0.197105
0.204395
0.213481
0.224347
0.236926
0.251051
0.266358
0.281994
0.294984
0.301104
0.300836
0.293795
0.283366
0.272524
0.262236
0.252962
0.244941
0.23828
0.232992
0.229013
0.226218
0.224429
0.223429
0.222988
0.222892
0.222992
0.223246
0.223744
0.224678
0.226303
0.228891
0.232701
0.237961
0.244856
0.253514
0.264006
0.276318
0.29032
0.305691
0.321655
0.335493
0.34212
0.248125
0.246238
0.243192
0.239743
0.23649
0.23386
0.232138
0.231491
0.231984
0.233589
0.236177
0.239509
0.243207
0.246694
0.249122
0.249288
0.24597
0.240647
0.23457
0.228623
0.223429
0.219436
0.216989
0.216375
0.217848
0.221652
0.228033
0.237244
0.249559
0.265269
0.284691
0.308161
0.336026
0.368613
0.406152
0.448532
0.49423
0.531039
0.555781
0.575857
0.593276
0.608252
0.620953
0.631513
0.640037
0.646608
0.651286
0.654117
0.65513
0.654338
0.651742
0.647327
0.641064
0.63291
0.622804
0.610665
0.596392
0.579857
0.5609
0.539326
0.511221
0.47019
0.423901
0.381732
0.344611
0.312446
0.284934
0.261711
0.242413
0.226691
0.21422
0.204706
0.19788
0.193508
0.191395
0.19139
0.193387
0.197326
0.203183
0.210961
0.220668
0.232295
0.245783
0.26097
0.277476
0.294318
0.307417
0.312921
0.313525
0.307908
0.296888
0.285152
0.274031
0.26406
0.255497
0.248458
0.242958
0.238928
0.23623
0.234659
0.233953
0.233816
0.233953
0.23414
0.234304
0.234571
0.235214
0.236565
0.238957
0.242693
0.248024
0.255147
0.264198
0.275247
0.288282
0.303164
0.31952
0.336328
0.349151
0.353946
0.270219
0.267052
0.262399
0.25746
0.252996
0.249481
0.247209
0.246345
0.246955
0.24901
0.252394
0.256885
0.262121
0.267505
0.27199
0.273527
0.268217
0.260492
0.252257
0.244541
0.237959
0.232922
0.229734
0.228645
0.229881
0.233662
0.240217
0.249787
0.262633
0.279041
0.299323
0.32381
0.352838
0.386705
0.425543
0.468802
0.512653
0.543407
0.565167
0.584254
0.60092
0.615313
0.62756
0.637767
0.646019
0.652386
0.656919
0.659656
0.660623
0.65983
0.657279
0.652956
0.646836
0.63888
0.629036
0.617236
0.603394
0.587405
0.569141
0.548444
0.524081
0.488546
0.442461
0.399157
0.360659
0.327158
0.298421
0.274106
0.253847
0.237291
0.224114
0.214019
0.206748
0.202072
0.199808
0.199813
0.201989
0.206283
0.212676
0.221175
0.231795
0.244535
0.259344
0.276049
0.294173
0.312246
0.324216
0.329181
0.330461
0.327589
0.317115
0.304272
0.291996
0.28103
0.271687
0.264106
0.258313
0.254242
0.25174
0.250564
0.250386
0.250802
0.251374
0.251729
0.251708
0.251537
0.25164
0.252489
0.254519
0.258091
0.26349
0.270924
0.280532
0.292378
0.306441
0.322544
0.340119
0.357232
0.366768
0.37016
0.301768
0.296124
0.288898
0.281799
0.275666
0.270958
0.267952
0.266799
0.267553
0.270189
0.274597
0.280583
0.287833
0.2958
0.303321
0.305955
0.298507
0.287386
0.276239
0.266197
0.257809
0.251412
0.247251
0.24553
0.246443
0.250184
0.256961
0.266998
0.280544
0.297875
0.319295
0.345121
0.375666
0.411181
0.451677
0.495943
0.532608
0.556967
0.577142
0.595073
0.610836
0.62452
0.636208
0.645975
0.653888
0.659997
0.664346
0.666965
0.667874
0.667082
0.664589
0.660383
0.654444
0.646739
0.637225
0.625848
0.612542
0.597227
0.579817
0.560218
0.538354
0.509524
0.467207
0.422648
0.382397
0.347162
0.316827
0.291078
0.269559
0.251915
0.23782
0.226981
0.219143
0.21409
0.211647
0.211682
0.214107
0.218875
0.225974
0.235415
0.247222
0.261398
0.277892
0.296511
0.316594
0.334826
0.344282
0.349003
0.350858
0.349985
0.343248
0.329888
0.316362
0.304182
0.293854
0.285588
0.279445
0.275374
0.273214
0.272686
0.273376
0.274733
0.276075
0.276748
0.276363
0.275403
0.274581
0.274596
0.276021
0.279293
0.284723
0.292526
0.302829
0.315669
0.330991
0.348545
0.367297
0.381322
0.387087
0.389739
0.341169
0.333191
0.322706
0.31294
0.30478
0.298624
0.294725
0.293217
0.294145
0.297472
0.30308
0.310773
0.320232
0.330688
0.33904
0.339535
0.334287
0.320721
0.306453
0.293756
0.283254
0.275239
0.269902
0.267406
0.267914
0.271599
0.278646
0.289261
0.303677
0.322155
0.344983
0.372453
0.404808
0.442121
0.483789
0.524574
0.552134
0.572715
0.59136
0.608059
0.622833
0.635722
0.646775
0.656039
0.663558
0.66937
0.673504
0.675985
0.676826
0.676035
0.67361
0.669543
0.663817
0.656406
0.647277
0.636391
0.623698
0.609146
0.592681
0.574252
0.55382
0.530586
0.496866
0.452128
0.410043
0.372765
0.340491
0.31299
0.289925
0.270948
0.255733
0.243993
0.235479
0.229984
0.227344
0.227437
0.230185
0.235547
0.243517
0.254113
0.267357
0.28325
0.301709
0.322406
0.344068
0.359718
0.367076
0.371689
0.373969
0.374046
0.371533
0.361709
0.347292
0.333815
0.322347
0.313278
0.306746
0.302743
0.301119
0.301574
0.303608
0.306494
0.309168
0.310496
0.309362
0.307021
0.304696
0.303415
0.30392
0.30671
0.312109
0.320319
0.33143
0.345383
0.362004
0.380654
0.397685
0.405949
0.409918
0.41197
0.378437
0.374383
0.362878
0.35073
0.34049
0.332742
0.327841
0.325931
0.327067
0.331176
0.338097
0.347531
0.358984
0.370336
0.373657
0.372219
0.369594
0.359318
0.342697
0.327345
0.314576
0.304764
0.298088
0.294693
0.294726
0.298345
0.305719
0.317031
0.332488
0.352332
0.376827
0.406226
0.440622
0.479664
0.521069
0.550938
0.57162
0.59039
0.607523
0.622969
0.636713
0.648761
0.659131
0.667848
0.674936
0.680419
0.684316
0.686644
0.68741
0.686621
0.684274
0.680363
0.674875
0.667791
0.659088
0.648738
0.636712
0.622979
0.60751
0.590288
0.571311
0.550604
0.5253
0.487321
0.443792
0.404296
0.369813
0.340273
0.315392
0.294843
0.27831
0.265514
0.256216
0.250218
0.247366
0.24755
0.250697
0.256774
0.265779
0.277728
0.292643
0.3105
0.331128
0.353824
0.374874
0.385875
0.392251
0.396708
0.399284
0.4001
0.399368
0.395343
0.384148
0.370023
0.357433
0.347496
0.340553
0.336701
0.33583
0.337662
0.341616
0.346847
0.351653
0.354306
0.351693
0.347105
0.342512
0.339368
0.338595
0.340709
0.346
0.35464
0.366655
0.381714
0.399298
0.417372
0.427212
0.431592
0.434665
0.436253
0.412116
0.411801
0.406736
0.394534
0.382787
0.373463
0.367528
0.365185
0.366577
0.37154
0.379793
0.390674
0.402996
0.408022
0.407355
0.405938
0.403772
0.398889
0.384408
0.367044
0.352072
0.34039
0.332259
0.327858
0.327352
0.330906
0.338676
0.350814
0.367486
0.388899
0.415278
0.446819
0.483288
0.522957
0.553496
0.574272
0.592634
0.609701
0.625373
0.639583
0.65229
0.663477
0.673141
0.681285
0.687919
0.693054
0.696699
0.698863
0.699551
0.698764
0.696503
0.69276
0.687528
0.680794
0.672544
0.662763
0.651434
0.638546
0.624093
0.60808
0.590533
0.571504
0.55108
0.523724
0.48311
0.441979
0.405217
0.373415
0.346474
0.324121
0.306069
0.292057
0.281861
0.275294
0.272215
0.272521
0.276147
0.28306
0.293258
0.306749
0.323537
0.343544
0.366373
0.390289
0.405848
0.413502
0.419343
0.42361
0.426358
0.427702
0.427827
0.426982
0.422536
0.412127
0.399086
0.388371
0.381038
0.377429
0.377481
0.381036
0.387331
0.395477
0.40251
0.404661
0.402493
0.395335
0.388028
0.382541
0.380222
0.381519
0.386624
0.395661
0.408651
0.424343
0.441037
0.450878
0.455151
0.458521
0.460896
0.462124
0.446057
0.445953
0.44572
0.440965
0.43095
0.420573
0.413775
0.410961
0.412691
0.418475
0.427659
0.438112
0.442968
0.44264
0.441709
0.440405
0.438637
0.43638
0.429375
0.412645
0.395993
0.382541
0.372894
0.367398
0.366292
0.369791
0.378044
0.391156
0.409205
0.432334
0.460645
0.494229
0.531345
0.560662
0.580938
0.598404
0.614943
0.630407
0.644686
0.657698
0.669387
0.679718
0.68867
0.696232
0.702402
0.707178
0.710563
0.712558
0.713165
0.712383
0.710212
0.706647
0.701683
0.695314
0.687533
0.678334
0.667716
0.655679
0.642235
0.627406
0.611235
0.593786
0.575157
0.555286
0.526842
0.485977
0.447137
0.412938
0.383736
0.359363
0.339587
0.324191
0.312973
0.305763
0.302434
0.302893
0.307076
0.314946
0.326488
0.341679
0.360471
0.382656
0.407145
0.426664
0.436137
0.442715
0.448008
0.452031
0.454835
0.456524
0.457254
0.457236
0.456736
0.453331
0.445893
0.435321
0.427934
0.424721
0.425629
0.430779
0.43851
0.44376
0.446511
0.447077
0.44696
0.444535
0.439439
0.432095
0.428497
0.429028
0.433848
0.442929
0.456527
0.468918
0.477053
0.480695
0.483858
0.486445
0.488275
0.489222
0.480101
0.480127
0.480239
0.480532
0.477641
0.472103
0.465539
0.462227
0.464386
0.470346
0.475904
0.478955
0.47823
0.47736
0.476438
0.475336
0.473989
0.472386
0.470515
0.462725
0.44624
0.431555
0.420437
0.413783
0.412011
0.415477
0.424322
0.438581
0.458114
0.482958
0.512702
0.546817
0.573085
0.591713
0.607863
0.623463
0.638325
0.652299
0.665266
0.677136
0.687842
0.697337
0.705588
0.712573
0.718277
0.722693
0.725816
0.727641
0.728167
0.727393
0.725315
0.721932
0.717243
0.711245
0.703938
0.695326
0.685415
0.674219
0.661761
0.648075
0.633214
0.61725
0.600277
0.582409
0.563204
0.535085
0.495704
0.459261
0.427741
0.401182
0.379482
0.36253
0.350157
0.342218
0.338609
0.339249
0.344067
0.353008
0.36603
0.383007
0.403719
0.427411
0.449412
0.460798
0.467483
0.473214
0.477944
0.481669
0.484429
0.486306
0.487428
0.487968
0.488147
0.488242
0.487004
0.483363
0.479225
0.476892
0.477842
0.480277
0.482444
0.482836
0.482253
0.482346
0.483138
0.484607
0.484683
0.483159
0.48146
0.481719
0.486073
0.493345
0.500422
0.505491
0.508099
0.510731
0.513141
0.515128
0.516537
0.517268
0.514119
0.514214
0.514451
0.514929
0.515808
0.515597
0.513951
0.512875
0.513476
0.514919
0.515272
0.513944
0.512955
0.512131
0.511345
0.510512
0.509597
0.508611
0.50761
0.506514
0.499921
0.486981
0.475005
0.467286
0.464788
0.468272
0.47782
0.493426
0.514286
0.540221
0.568681
0.590624
0.606489
0.621006
0.635336
0.64926
0.662597
0.675197
0.686942
0.697737
0.707508
0.7162
0.723772
0.730193
0.735441
0.739503
0.742366
0.744023
0.744471
0.743705
0.741723
0.738525
0.734111
0.728484
0.72165
0.713617
0.704401
0.694022
0.682514
0.669919
0.656297
0.641722
0.626292
0.61012
0.593341
0.575285
0.54899
0.512198
0.47889
0.450155
0.42636
0.407705
0.394047
0.385273
0.381342
0.382193
0.387721
0.397826
0.412435
0.431128
0.453141
0.475541
0.487839
0.494131
0.499781
0.504716
0.508884
0.512272
0.514905
0.516842
0.518184
0.519061
0.519638
0.520106
0.520667
0.521414
0.520945
0.520187
0.519927
0.519285
0.517868
0.51701
0.516679
0.516898
0.517691
0.519073
0.521091
0.52368
0.525239
0.526995
0.529909
0.533188
0.535145
0.536934
0.538952
0.540987
0.542849
0.544386
0.545478
0.546044
0.548041
0.54816
0.548423
0.54888
0.549584
0.550539
0.551669
0.552183
0.5517
0.550476
0.549288
0.548301
0.547514
0.546867
0.546298
0.545771
0.545277
0.544849
0.544561
0.544541
0.544872
0.541362
0.534925
0.527208
0.524238
0.527943
0.538079
0.554936
0.575618
0.595484
0.61225
0.624966
0.637658
0.650486
0.663216
0.675645
0.687604
0.698951
0.709569
0.719362
0.728254
0.736184
0.743107
0.748985
0.753793
0.75751
0.760121
0.761616
0.761988
0.761232
0.759347
0.756333
0.752192
0.746931
0.740559
0.733091
0.724547
0.714956
0.704354
0.692791
0.68033
0.667051
0.653048
0.638438
0.623355
0.607962
0.591819
0.568591
0.536706
0.506572
0.480636
0.460276
0.445245
0.435506
0.431193
0.432292
0.438593
0.449843
0.466054
0.48573
0.505811
0.517448
0.522958
0.528088
0.532793
0.536984
0.540604
0.543631
0.546075
0.547976
0.549404
0.550453
0.551237
0.551876
0.552469
0.553046
0.553493
0.553519
0.552836
0.551939
0.551142
0.550656
0.550553
0.550877
0.551654
0.552896
0.554606
0.556744
0.559206
0.561631
0.563496
0.564991
0.566523
0.568127
0.56979
0.571415
0.572884
0.574089
0.574944
0.575387
0.581845
0.58196
0.582201
0.582583
0.583109
0.583736
0.58434
0.58462
0.584394
0.583789
0.583094
0.582459
0.581935
0.581522
0.58121
0.580995
0.580892
0.580947
0.581243
0.581909
0.583136
0.585205
0.586036
0.585902
0.587331
0.592122
0.601129
0.612887
0.625289
0.636476
0.646643
0.657472
0.668689
0.680066
0.691396
0.7025
0.713224
0.723435
0.73302
0.741888
0.74996
0.757176
0.763485
0.768848
0.773235
0.776623
0.778992
0.780332
0.780633
0.779889
0.7781
0.775267
0.771393
0.766488
0.760565
0.753641
0.745742
0.736899
0.727154
0.716561
0.705183
0.693102
0.680413
0.667228
0.653682
0.639928
0.626149
0.612351
0.593383
0.569078
0.541892
0.52049
0.504143
0.493255
0.488479
0.48989
0.496992
0.508865
0.525943
0.540699
0.549898
0.554146
0.55837
0.56247
0.566319
0.569822
0.572918
0.575574
0.577788
0.579582
0.581002
0.582111
0.582983
0.583691
0.584287
0.584779
0.585107
0.585163
0.584894
0.58448
0.584106
0.583918
0.584001
0.584403
0.585152
0.586253
0.587692
0.589416
0.59132
0.59321
0.59489
0.596388
0.597831
0.59926
0.600667
0.601998
0.603181
0.604143
0.604822
0.605173
0.615534
0.615635
0.615839
0.616143
0.616531
0.616957
0.617333
0.617525
0.617462
0.617192
0.616841
0.616506
0.616243
0.616078
0.616027
0.616106
0.616348
0.616804
0.617556
0.618717
0.62044
0.622923
0.626385
0.631014
0.635851
0.641394
0.648116
0.655119
0.662507
0.67087
0.679958
0.689589
0.699563
0.709691
0.719801
0.729736
0.739357
0.748543
0.75719
0.765208
0.772524
0.779074
0.784809
0.789688
0.793678
0.796753
0.798894
0.800087
0.800321
0.799592
0.797898
0.795241
0.791626
0.787065
0.781571
0.775167
0.767879
0.759744
0.750804
0.741114
0.73074
0.719762
0.708272
0.69638
0.684215
0.671922
0.659673
0.647662
0.636123
0.622519
0.60575
0.586978
0.569989
0.557925
0.552639
0.554285
0.561934
0.571861
0.579997
0.585185
0.587741
0.590725
0.593905
0.597104
0.60019
0.603067
0.60567
0.607959
0.609921
0.611563
0.612912
0.614006
0.614893
0.615617
0.616209
0.616674
0.616992
0.617132
0.617099
0.616979
0.616884
0.616911
0.617129
0.617583
0.618296
0.619272
0.620492
0.62191
0.623447
0.624997
0.626467
0.627842
0.629153
0.630415
0.631619
0.632729
0.6337
0.63448
0.635027
0.63531
0.649122
0.649207
0.649375
0.649618
0.649915
0.65023
0.650508
0.650687
0.650736
0.650677
0.650571
0.65048
0.650452
0.65052
0.650712
0.651055
0.651589
0.652367
0.653459
0.654961
0.656985
0.659659
0.663096
0.667347
0.672277
0.677726
0.683548
0.689929
0.696903
0.704535
0.712732
0.721363
0.730281
0.739335
0.748381
0.757285
0.765925
0.774191
0.781988
0.789232
0.795852
0.801788
0.80699
0.811417
0.815035
0.817817
0.819744
0.820799
0.820973
0.820261
0.818659
0.816172
0.812805
0.808572
0.803488
0.797576
0.790866
0.783393
0.775204
0.766351
0.756902
0.746932
0.736532
0.725807
0.714875
0.703873
0.692957
0.682305
0.67212
0.662633
0.653778
0.643292
0.632926
0.62452
0.619514
0.618268
0.619762
0.622045
0.622732
0.623526
0.625073
0.627108
0.629421
0.63185
0.63427
0.636588
0.638736
0.640672
0.642373
0.643837
0.645075
0.646109
0.646967
0.647676
0.648257
0.648718
0.649057
0.649274
0.649389
0.649455
0.64954
0.649711
0.650021
0.650503
0.651178
0.652047
0.653094
0.654284
0.655562
0.656865
0.658138
0.659359
0.660523
0.661629
0.662664
0.663601
0.664408
0.665051
0.665498
0.665728
0.682625
0.682697
0.682838
0.683038
0.683281
0.68354
0.683783
0.68398
0.684117
0.684207
0.684285
0.684392
0.684566
0.68484
0.685245
0.685814
0.686587
0.687613
0.688954
0.690683
0.692881
0.695631
0.698994
0.702987
0.707557
0.712627
0.718143
0.724142
0.73064
0.737636
0.745071
0.752851
0.760863
0.768987
0.777104
0.785099
0.792866
0.800308
0.807338
0.813879
0.819864
0.825236
0.829946
0.833954
0.837227
0.839737
0.841464
0.842393
0.842513
0.841818
0.840306
0.837982
0.834852
0.83093
0.826233
0.820784
0.814614
0.80776
0.800266
0.792186
0.783584
0.774533
0.765119
0.755439
0.745604
0.735737
0.725978
0.71648
0.707413
0.698954
0.691278
0.68462
0.678966
0.673977
0.669736
0.666374
0.663575
0.661683
0.660962
0.661104
0.661917
0.663212
0.664821
0.666605
0.668453
0.670278
0.672014
0.673618
0.675063
0.676338
0.677442
0.678388
0.679189
0.679863
0.680425
0.680882
0.681244
0.681518
0.681729
0.681911
0.682111
0.682374
0.682739
0.683231
0.683866
0.684645
0.685554
0.686569
0.687652
0.688762
0.689863
0.690931
0.691952
0.692916
0.693806
0.694602
0.695281
0.695816
0.696187
0.696377
0.716055
0.716118
0.716241
0.716416
0.716629
0.716865
0.717105
0.717333
0.717545
0.71775
0.717971
0.718237
0.71858
0.719028
0.719613
0.720369
0.721331
0.722545
0.72406
0.725935
0.728226
0.730989
0.734261
0.73805
0.742336
0.747081
0.752256
0.757857
0.763879
0.770298
0.777065
0.784106
0.791332
0.798646
0.805948
0.813141
0.820133
0.826838
0.833178
0.839082
0.844489
0.849345
0.853604
0.857227
0.860181
0.86244
0.863983
0.864796
0.864867
0.864191
0.862766
0.860597
0.857692
0.854063
0.849729
0.844713
0.839047
0.832765
0.825913
0.818543
0.810714
0.802497
0.793972
0.785228
0.776365
0.767494
0.758738
0.750226
0.742098
0.734491
0.727539
0.721355
0.715959
0.711288
0.707289
0.70392
0.701254
0.699374
0.698331
0.698011
0.69828
0.699002
0.700046
0.701297
0.70266
0.704056
0.705425
0.706724
0.707924
0.709007
0.709969
0.71081
0.711539
0.712164
0.712696
0.713143
0.713516
0.713827
0.714096
0.714349
0.714618
0.714936
0.715329
0.715817
0.716411
0.717111
0.717909
0.718785
0.719715
0.720669
0.721621
0.72255
0.723439
0.724275
0.725042
0.725721
0.726296
0.726746
0.727057
0.727215
0.749423
0.74948
0.749593
0.749754
0.749956
0.750187
0.750439
0.750703
0.75098
0.751277
0.751612
0.752007
0.752487
0.75308
0.753812
0.754716
0.755824
0.757174
0.758808
0.76077
0.763101
0.765839
0.769009
0.772618
0.776657
0.781104
0.785942
0.791153
0.79672
0.802613
0.808785
0.815177
0.821714
0.828316
0.834901
0.841384
0.847687
0.853733
0.859452
0.864782
0.869665
0.874052
0.877899
0.881168
0.88383
0.885858
0.887233
0.88794
0.887968
0.887312
0.885971
0.883949
0.881255
0.877901
0.873906
0.869294
0.864094
0.858341
0.85208
0.845357
0.838233
0.83077
0.823044
0.815134
0.807133
0.799137
0.791253
0.783589
0.77626
0.769374
0.76303
0.757303
0.752222
0.747776
0.743948
0.74073
0.738148
0.736229
0.734976
0.734327
0.734192
0.734471
0.735063
0.735877
0.736832
0.73786
0.738907
0.73993
0.7409
0.741799
0.742615
0.743345
0.743991
0.744558
0.745051
0.745479
0.745851
0.746179
0.746478
0.74677
0.747077
0.747422
0.747823
0.748297
0.748849
0.749481
0.750185
0.750949
0.751753
0.752578
0.753402
0.754208
0.75498
0.755704
0.756364
0.756946
0.757435
0.757817
0.758079
0.758212
0.782732
0.782787
0.782895
0.783052
0.783252
0.78349
0.78376
0.78406
0.784393
0.784766
0.785192
0.785691
0.786283
0.786991
0.78784
0.788858
0.790074
0.79152
0.793229
0.795235
0.797569
0.800257
0.803318
0.806756
0.810568
0.814739
0.819254
0.824094
0.829235
0.834647
0.840287
0.846102
0.85203
0.858005
0.863954
0.869808
0.875497
0.880954
0.886117
0.890929
0.895338
0.899299
0.90277
0.905718
0.908113
0.90993
0.911151
0.911762
0.911753
0.911118
0.909857
0.907974
0.905477
0.90238
0.898701
0.894462
0.889693
0.884427
0.878706
0.872575
0.866089
0.859307
0.852298
0.845134
0.837895
0.830669
0.823546
0.816618
0.809979
0.803715
0.797905
0.792605
0.787848
0.783646
0.779997
0.776905
0.774377
0.772419
0.771017
0.770129
0.769689
0.769625
0.769859
0.770317
0.770932
0.771646
0.772411
0.773188
0.773949
0.774673
0.775347
0.775965
0.776524
0.777025
0.777472
0.777872
0.77823
0.778558
0.778869
0.779177
0.779498
0.77985
0.780247
0.780697
0.781207
0.781777
0.782402
0.783071
0.783771
0.784487
0.785202
0.785901
0.78657
0.787195
0.787764
0.788264
0.788682
0.789007
0.789229
0.789342
0.815987
0.816041
0.816148
0.816306
0.81651
0.81676
0.817051
0.817386
0.817766
0.818201
0.818701
0.819282
0.819962
0.82076
0.821699
0.822802
0.824094
0.825602
0.827352
0.829371
0.831682
0.834303
0.837248
0.840521
0.844119
0.84803
0.852241
0.856732
0.86148
0.866453
0.871613
0.876913
0.8823
0.887718
0.893104
0.898398
0.903539
0.908469
0.913132
0.917478
0.921459
0.925034
0.928165
0.93082
0.932972
0.934598
0.93568
0.936205
0.936163
0.93555
0.934365
0.932612
0.9303
0.927442
0.924055
0.920161
0.915788
0.910969
0.905741
0.900148
0.89424
0.888073
0.881706
0.875207
0.868646
0.862099
0.855643
0.849359
0.843322
0.837604
0.832268
0.827363
0.822921
0.818961
0.815491
0.812515
0.810037
0.808053
0.806545
0.805481
0.804812
0.804482
0.80443
0.804599
0.804932
0.805381
0.805903
0.806463
0.807034
0.807597
0.808136
0.808643
0.809114
0.809546
0.809941
0.810304
0.810639
0.810955
0.811261
0.811569
0.81189
0.812235
0.812616
0.813038
0.813506
0.814019
0.814574
0.815162
0.815774
0.816396
0.817017
0.817623
0.818203
0.818744
0.819234
0.819664
0.820022
0.820299
0.820489
0.820585
0.849188
0.849242
0.849351
0.849512
0.849724
0.849987
0.8503
0.850665
0.851086
0.85157
0.852129
0.852774
0.853522
0.854389
0.855394
0.856557
0.857899
0.859442
0.861208
0.863216
0.865484
0.868026
0.870851
0.873962
0.877355
0.881022
0.884948
0.889115
0.8935
0.898072
0.902798
0.907637
0.912541
0.917461
0.922345
0.92714
0.931792
0.93625
0.940465
0.944392
0.947987
0.951213
0.954036
0.956426
0.958358
0.95981
0.960766
0.961214
0.961144
0.960553
0.95944
0.95781
0.95567
0.953033
0.949916
0.94634
0.94233
0.937919
0.933141
0.928037
0.922652
0.917037
0.911247
0.905341
0.899382
0.893436
0.88757
0.881852
0.876346
0.871111
0.866202
0.861658
0.857513
0.853786
0.850489
0.847628
0.845204
0.84321
0.84163
0.840438
0.839595
0.839059
0.838782
0.838717
0.838817
0.839042
0.839356
0.839726
0.840129
0.840544
0.840957
0.841358
0.841741
0.842103
0.842444
0.842764
0.843068
0.843362
0.843653
0.843948
0.844256
0.844585
0.844943
0.845333
0.84576
0.84622
0.846713
0.84723
0.847765
0.848307
0.848847
0.849373
0.849875
0.850342
0.850765
0.851135
0.851442
0.85168
0.851842
0.851924
0.882334
0.88239
0.882501
0.882667
0.882888
0.883164
0.883497
0.883888
0.884342
0.884866
0.88547
0.886165
0.886963
0.88788
0.888931
0.890133
0.891503
0.89306
0.894821
0.8968
0.899012
0.901466
0.904168
0.907121
0.910319
0.913754
0.917414
0.92128
0.925331
0.929539
0.933872
0.938295
0.942766
0.947242
0.951677
0.956025
0.960239
0.964274
0.968087
0.971636
0.974884
0.977796
0.98034
0.98249
0.984223
0.985518
0.986361
0.98674
0.986647
0.986078
0.985033
0.983517
0.981536
0.979104
0.976235
0.972951
0.969275
0.965236
0.960867
0.956206
0.951294
0.946177
0.940904
0.935528
0.930106
0.924694
0.91935
0.914133
0.909097
0.904294
0.899767
0.895556
0.891687
0.888181
0.885051
0.882304
0.87994
0.877953
0.876328
0.875045
0.874073
0.873378
0.872922
0.872668
0.872578
0.872616
0.872752
0.872957
0.873211
0.873493
0.87379
0.874092
0.874391
0.874682
0.874965
0.87524
0.875507
0.875772
0.876039
0.876313
0.8766
0.876907
0.877237
0.877593
0.877978
0.87839
0.878826
0.879281
0.879749
0.880221
0.88069
0.881146
0.881581
0.881985
0.88235
0.882668
0.882932
0.883136
0.883275
0.883345
0.915424
0.915482
0.915596
0.915768
0.915997
0.916286
0.916635
0.917047
0.917528
0.918083
0.918721
0.919451
0.920286
0.921236
0.922316
0.92354
0.924921
0.926475
0.928214
0.930152
0.932297
0.934657
0.937236
0.940033
0.943045
0.946262
0.949673
0.953261
0.957004
0.960879
0.964857
0.968904
0.972985
0.977062
0.981095
0.985043
0.988865
0.992521
0.995972
0.999182
1.00212
1.00474
1.00704
1.00897
1.01052
1.01168
1.01242
1.01274
1.01263
1.01208
1.0111
1.00969
1.00785
1.00561
1.00297
0.999953
0.996582
0.992882
0.988886
0.984626
0.980141
0.975472
0.970663
0.965763
0.960819
0.955882
0.951003
0.946232
0.941616
0.937199
0.933019
0.92911
0.925497
0.9222
0.919231
0.916597
0.9143
0.912333
0.910686
0.90934
0.908273
0.907457
0.906861
0.906456
0.906209
0.906092
0.906077
0.906141
0.906263
0.906427
0.906619
0.906828
0.907047
0.90727
0.907496
0.907722
0.90795
0.908181
0.908418
0.908665
0.908926
0.909205
0.909504
0.909826
0.91017
0.910535
0.91092
0.911319
0.911728
0.912139
0.912546
0.912942
0.913317
0.913666
0.913981
0.914255
0.914482
0.914657
0.914776
0.914837
0.948457
0.948516
0.948633
0.94881
0.949047
0.949346
0.949709
0.950138
0.950639
0.951217
0.951879
0.952634
0.953492
0.954463
0.955558
0.956788
0.958167
0.959704
0.96141
0.963296
0.965367
0.967629
0.970084
0.972731
0.975565
0.978577
0.981756
0.985086
0.988547
0.992118
0.995771
0.999479
1.00321
1.00693
1.0106
1.01419
1.01766
1.02097
1.0241
1.027
1.02966
1.03203
1.0341
1.03583
1.03722
1.03825
1.0389
1.03917
1.03904
1.03851
1.03759
1.03628
1.03458
1.03251
1.03008
1.02731
1.02422
1.02083
1.01717
1.01327
1.00917
1.00491
1.00052
0.99604
0.991525
0.987013
0.982549
0.978177
0.973936
0.969866
0.966
0.962368
0.958992
0.95589
0.953075
0.950554
0.948328
0.946393
0.944741
0.943357
0.942222
0.941315
0.940611
0.940085
0.939711
0.939465
0.939324
0.939266
0.939275
0.939333
0.93943
0.939554
0.939698
0.939856
0.940025
0.940203
0.940388
0.940582
0.940787
0.941003
0.941235
0.941483
0.941749
0.942035
0.942339
0.942662
0.942999
0.943348
0.943704
0.944062
0.944414
0.944756
0.945081
0.945382
0.945653
0.945889
0.946084
0.946235
0.946337
0.946389
0.981432
0.981492
0.981612
0.981793
0.982036
0.982343
0.982716
0.983157
0.983672
0.984266
0.984944
0.985715
0.986586
0.987566
0.988664
0.98989
0.991253
0.992763
0.994428
0.996254
0.998246
1.00041
1.00274
1.00524
1.00791
1.01073
1.01369
1.01678
1.01998
1.02327
1.02663
1.03003
1.03344
1.03684
1.04019
1.04345
1.0466
1.04961
1.05245
1.05508
1.05748
1.05962
1.06148
1.06304
1.06429
1.0652
1.06577
1.06599
1.06585
1.06534
1.06448
1.06326
1.06169
1.05978
1.05754
1.05499
1.05215
1.04904
1.04569
1.04212
1.03837
1.03447
1.03045
1.02636
1.02223
1.0181
1.014
1.00999
1.00609
1.00233
0.998748
0.995369
0.992212
0.989294
0.986626
0.984216
0.982065
0.980172
0.978528
0.977124
0.975943
0.974969
0.974183
0.973562
0.973085
0.972733
0.972486
0.972325
0.972235
0.972202
0.972214
0.972261
0.972335
0.972432
0.972546
0.972675
0.972818
0.972974
0.973143
0.973327
0.973527
0.973742
0.973975
0.974225
0.974491
0.974773
0.975067
0.97537
0.975679
0.975988
0.976293
0.976588
0.976868
0.977128
0.977361
0.977563
0.977731
0.97786
0.977948
0.977992
1.01435
1.01441
1.01453
1.01471
1.01496
1.01527
1.01565
1.0161
1.01663
1.01723
1.01792
1.0187
1.01957
1.02055
1.02164
1.02285
1.02419
1.02567
1.02728
1.02904
1.03096
1.03302
1.03523
1.03759
1.04009
1.04273
1.04549
1.04836
1.05132
1.05436
1.05745
1.06057
1.0637
1.0668
1.06985
1.07283
1.07569
1.07843
1.081
1.08338
1.08555
1.08749
1.08917
1.09057
1.09169
1.0925
1.09299
1.09317
1.09302
1.09253
1.09172
1.09059
1.08913
1.08737
1.0853
1.08296
1.08035
1.07749
1.07442
1.07115
1.06771
1.06414
1.06046
1.05672
1.05293
1.04914
1.04538
1.04169
1.03809
1.03462
1.0313
1.02815
1.02519
1.02245
1.01992
1.01762
1.01555
1.0137
1.01208
1.01067
1.00946
1.00844
1.00759
1.00689
1.00634
1.0059
1.00556
1.00531
1.00514
1.00503
1.00496
1.00494
1.00495
1.00499
1.00505
1.00513
1.00523
1.00535
1.00549
1.00564
1.0058
1.00598
1.00618
1.0064
1.00663
1.00687
1.00713
1.00739
1.00765
1.00792
1.00818
1.00844
1.00868
1.0089
1.0091
1.00927
1.00942
1.00953
1.0096
1.00964
1.0472
1.04726
1.04738
1.04757
1.04782
1.04814
1.04852
1.04898
1.0495
1.05011
1.0508
1.05158
1.05245
1.05342
1.0545
1.05569
1.057
1.05843
1.05999
1.06169
1.06351
1.06548
1.06757
1.0698
1.07215
1.07461
1.07718
1.07985
1.08259
1.0854
1.08824
1.09111
1.09397
1.09681
1.0996
1.10231
1.10492
1.1074
1.10974
1.1119
1.11386
1.11561
1.11713
1.11839
1.11939
1.1201
1.12054
1.12068
1.12051
1.12005
1.11929
1.11823
1.11688
1.11525
1.11335
1.11119
1.10879
1.10617
1.10335
1.10035
1.0972
1.09392
1.09055
1.08711
1.08363
1.08015
1.0767
1.07329
1.06997
1.06675
1.06367
1.06073
1.05797
1.05538
1.05299
1.05079
1.0488
1.04701
1.04541
1.04401
1.04279
1.04173
1.04084
1.04009
1.03947
1.03896
1.03855
1.03823
1.03798
1.0378
1.03767
1.03758
1.03754
1.03752
1.03754
1.03757
1.03763
1.03771
1.03781
1.03793
1.03806
1.03821
1.03838
1.03856
1.03875
1.03896
1.03918
1.0394
1.03963
1.03986
1.04008
1.0403
1.0405
1.04069
1.04086
1.04101
1.04113
1.04123
1.04129
1.04133
1.07999
1.08005
1.08018
1.08036
1.08062
1.08093
1.08132
1.08177
1.0823
1.08291
1.0836
1.08437
1.08523
1.08619
1.08724
1.08841
1.08968
1.09107
1.09257
1.09419
1.09594
1.0978
1.09978
1.10188
1.10408
1.10639
1.10878
1.11126
1.1138
1.11639
1.11901
1.12165
1.12427
1.12687
1.12942
1.13189
1.13427
1.13653
1.13865
1.14061
1.14239
1.14397
1.14534
1.14647
1.14736
1.148
1.14837
1.14848
1.14831
1.14787
1.14716
1.14617
1.14492
1.14341
1.14166
1.13967
1.13746
1.13505
1.13245
1.1297
1.1268
1.1238
1.1207
1.11754
1.11434
1.11114
1.10796
1.10481
1.10174
1.09876
1.09589
1.09315
1.09056
1.08812
1.08586
1.08376
1.08185
1.08012
1.07856
1.07717