/*--------------------------------*- C++ -*----------------------------------*\
| =========                 |                                                 |
| \\      /  F ield         | OpenFOAM: The Open Source CFD Toolbox           |
|  \\    /   O peration     | Version:  2406                                  |
|   \\  /    A nd           | Website:  www.openfoam.com                      |
|    \\/     M anipulation  |                                                 |
\*---------------------------------------------------------------------------*/
FoamFile
{
    version     2.0;
    format      ascii;
    arch        "LSB;label=32;scalar=64";
    class       volScalarField;
    location    "7.8";
    object      C_0_0;
}
// * * * * * * * * * * * * * * * * * * * * * * * * * * * * * * * * * * * * * //

dimensions      [1 -3 0 0 0 0 0];

internalField   nonuniform List<scalar> 
14400
(
0.227663
0.22666
0.224907
0.222776
0.220655
0.218879
0.217695
0.217259
0.217631
0.218778
0.220563
0.222747
0.224975
0.226789
0.227665
0.227137
0.225011
0.221605
0.217484
0.213247
0.20943
0.206485
0.204785
0.204648
0.20636
0.21019
0.216403
0.22527
0.237074
0.252113
0.270707
0.293195
0.319931
0.35126
0.387462
0.42857
0.473635
0.516297
0.546565
0.567723
0.585956
0.601556
0.614738
0.625669
0.634477
0.641259
0.646087
0.649015
0.650074
0.649282
0.646638
0.642127
0.635717
0.627356
0.616976
0.604482
0.589753
0.572633
0.552922
0.53018
0.496345
0.450175
0.405301
0.364788
0.329175
0.298363
0.272057
0.249903
0.231545
0.21664
0.204868
0.195931
0.189554
0.185491
0.183535
0.183523
0.185343
0.188929
0.194252
0.201305
0.210089
0.220583
0.232715
0.246306
0.260973
0.275861
0.288525
0.295043
0.294034
0.286842
0.276833
0.266453
0.25658
0.247647
0.23989
0.233412
0.228226
0.224274
0.221436
0.219549
0.218418
0.217842
0.217645
0.217707
0.218
0.218597
0.219659
0.221407
0.224083
0.227926
0.233152
0.239935
0.248405
0.258625
0.270578
0.284128
0.298938
0.314252
0.328137
0.33605
0.234369
0.233106
0.230952
0.228401
0.225911
0.223853
0.222491
0.221986
0.222401
0.223703
0.225759
0.228327
0.231038
0.233384
0.234725
0.234372
0.231918
0.227929
0.223182
0.218384
0.214111
0.210817
0.20887
0.208577
0.210215
0.214043
0.22032
0.229312
0.241297
0.256572
0.275456
0.298288
0.32542
0.357196
0.39389
0.435543
0.481138
0.521834
0.549867
0.570639
0.588589
0.603973
0.61699
0.627793
0.636503
0.643212
0.647989
0.650883
0.651926
0.651133
0.648506
0.644027
0.637667
0.629376
0.619089
0.606717
0.592144
0.575225
0.555773
0.533524
0.501813
0.457252
0.411779
0.370625
0.334461
0.303169
0.276439
0.253911
0.235225
0.220033
0.208015
0.198874
0.192337
0.188163
0.186148
0.186135
0.188012
0.191716
0.197219
0.204518
0.213616
0.224498
0.237095
0.251241
0.26657
0.282229
0.295233
0.301355
0.301088
0.294038
0.28359
0.272728
0.262422
0.253132
0.245097
0.238425
0.233127
0.229142
0.226342
0.22455
0.223549
0.223108
0.223012
0.223113
0.223368
0.223866
0.224802
0.22643
0.229023
0.23284
0.238109
0.245015
0.253687
0.264195
0.276525
0.290548
0.305941
0.321928
0.335774
0.342397
0.248292
0.246399
0.243347
0.239892
0.236634
0.234
0.232276
0.23163
0.232126
0.233736
0.236331
0.239673
0.243383
0.246883
0.249322
0.249497
0.246175
0.240846
0.234762
0.22881
0.223612
0.219618
0.217175
0.216568
0.218052
0.221872
0.228272
0.237508
0.249852
0.265597
0.285058
0.308574
0.336491
0.369137
0.406737
0.449174
0.494896
0.53162
0.556308
0.576377
0.593788
0.608758
0.621454
0.632009
0.64053
0.647097
0.651773
0.654602
0.655613
0.65482
0.652223
0.647808
0.641546
0.633393
0.623288
0.611152
0.596882
0.580349
0.561396
0.539827
0.511782
0.470822
0.424486
0.382256
0.345076
0.312857
0.285294
0.262027
0.24269
0.226932
0.214431
0.20489
0.198043
0.193655
0.19153
0.191517
0.19351
0.19745
0.203313
0.2111
0.220819
0.232461
0.245968
0.261175
0.277703
0.294567
0.307674
0.313179
0.313782
0.308165
0.297129
0.285372
0.274233
0.264245
0.255669
0.248618
0.243109
0.239072
0.236371
0.234798
0.234092
0.233955
0.234093
0.234282
0.234446
0.234714
0.235357
0.23671
0.239106
0.242848
0.248187
0.255321
0.264385
0.27545
0.288504
0.303406
0.319783
0.336609
0.349431
0.354223
0.270423
0.267248
0.262585
0.257637
0.253166
0.249646
0.247371
0.246508
0.24712
0.249182
0.252574
0.257077
0.262328
0.267728
0.272232
0.273784
0.268465
0.260726
0.252481
0.244757
0.23817
0.233132
0.229946
0.228863
0.23011
0.233906
0.240481
0.250074
0.262949
0.279392
0.299714
0.324247
0.353329
0.387257
0.426159
0.469476
0.513281
0.543953
0.565691
0.58477
0.601429
0.615816
0.628059
0.638261
0.64651
0.652873
0.657403
0.660139
0.661104
0.660311
0.657759
0.653436
0.647317
0.639362
0.629519
0.617721
0.603881
0.587895
0.569635
0.548942
0.524617
0.489163
0.443061
0.399704
0.361149
0.327592
0.298806
0.274445
0.254146
0.237555
0.224347
0.214227
0.206934
0.202242
0.199966
0.199963
0.202136
0.206431
0.212829
0.221337
0.23197
0.244725
0.259552
0.276277
0.294423
0.312514
0.324481
0.329446
0.330725
0.327857
0.317377
0.304515
0.292221
0.281238
0.27188
0.264288
0.258486
0.25441
0.251904
0.250728
0.250551
0.25097
0.251544
0.2519
0.251879
0.251707
0.251809
0.252659
0.254691
0.258268
0.263675
0.27112
0.280741
0.292604
0.306685
0.322807
0.340401
0.357522
0.367045
0.370436
0.30202
0.296362
0.289121
0.282011
0.275868
0.271154
0.268145
0.266991
0.267749
0.270391
0.27481
0.280809
0.288076
0.296063
0.303605
0.306241
0.298801
0.287663
0.276502
0.26645
0.258056
0.251657
0.247496
0.245781
0.246704
0.250459
0.257255
0.267316
0.280891
0.298257
0.319717
0.345591
0.376191
0.411766
0.452326
0.496627
0.533185
0.557491
0.577659
0.595584
0.611342
0.62502
0.636703
0.646467
0.654375
0.660482
0.664829
0.667446
0.668353
0.66756
0.665067
0.660861
0.654922
0.647218
0.637706
0.626331
0.613027
0.597715
0.580308
0.560713
0.538856
0.510099
0.467848
0.423231
0.382921
0.34763
0.317243
0.291449
0.269889
0.25221
0.238084
0.227219
0.219359
0.214289
0.211834
0.211862
0.214284
0.219053
0.226157
0.235608
0.247426
0.261617
0.27813
0.296769
0.316873
0.335108
0.344555
0.349275
0.35113
0.350258
0.34353
0.330159
0.316615
0.304419
0.294075
0.285797
0.279646
0.27557
0.273407
0.27288
0.273574
0.274936
0.276283
0.27696
0.276573
0.275609
0.274783
0.274796
0.276222
0.279497
0.284934
0.292748
0.303066
0.315922
0.331263
0.348836
0.367602
0.381607
0.387363
0.390014
0.341434
0.333469
0.322971
0.313191
0.305018
0.298855
0.294952
0.293444
0.294376
0.297709
0.303329
0.311036
0.320514
0.33099
0.339338
0.339829
0.334601
0.321039
0.30676
0.294053
0.283543
0.275524
0.270187
0.267696
0.268213
0.271912
0.278978
0.289618
0.304063
0.322575
0.345444
0.372962
0.40537
0.442744
0.484474
0.525184
0.552658
0.573232
0.591871
0.608565
0.623333
0.636218
0.647267
0.656527
0.664043
0.669852
0.673984
0.676463
0.677303
0.676511
0.674086
0.670019
0.664293
0.656882
0.647755
0.63687
0.62418
0.609631
0.593169
0.574743
0.554315
0.531114
0.497484
0.452741
0.410608
0.373275
0.340948
0.3134
0.290293
0.271279
0.256034
0.244267
0.235731
0.23022
0.227568
0.227653
0.230398
0.235761
0.243737
0.254342
0.267598
0.283506
0.301983
0.322698
0.344375
0.360006
0.367358
0.371969
0.374248
0.374323
0.37182
0.362011
0.34758
0.334085
0.322601
0.31352
0.306979
0.302971
0.301347
0.301805
0.303845
0.306741
0.309423
0.310759
0.309618
0.307271
0.304938
0.303652
0.304155
0.306946
0.312351
0.320573
0.331698
0.345669
0.362308
0.380972
0.397978
0.406222
0.410192
0.412244
0.378694
0.374658
0.363177
0.351021
0.340769
0.333012
0.328107
0.326197
0.327336
0.331453
0.338387
0.347834
0.359298
0.37065
0.373958
0.372525
0.369912
0.359674
0.343053
0.327692
0.314914
0.305097
0.29842
0.295028
0.29507
0.298703
0.306096
0.317433
0.33292
0.352799
0.377335
0.406779
0.441225
0.480311
0.521716
0.551486
0.572136
0.590901
0.608028
0.62347
0.637209
0.649252
0.659619
0.668332
0.675417
0.680898
0.684793
0.687119
0.687884
0.687094
0.684747
0.680835
0.675347
0.668264
0.659562
0.649215
0.63719
0.623459
0.607993
0.590774
0.5718
0.551095
0.525856
0.487985
0.444412
0.404855
0.370317
0.340728
0.315805
0.295219
0.278654
0.265831
0.25651
0.250496
0.247632
0.247808
0.250952
0.257031
0.266041
0.278001
0.292928
0.310799
0.331442
0.354154
0.375192
0.386169
0.392541
0.396996
0.399569
0.400383
0.39965
0.395641
0.384472
0.370331
0.357723
0.347774
0.340821
0.336965
0.336095
0.337934
0.341896
0.347142
0.351957
0.354631
0.351998
0.347403
0.342797
0.339646
0.338867
0.34098
0.346277
0.354928
0.36696
0.382037
0.399627
0.417674
0.427486
0.431865
0.434938
0.436526
0.412379
0.412066
0.407027
0.394863
0.383108
0.373773
0.367834
0.365493
0.366889
0.371859
0.380127
0.391011
0.403327
0.408334
0.407665
0.406252
0.404093
0.399242
0.384813
0.367444
0.352465
0.340777
0.332643
0.328245
0.327747
0.331316
0.339106
0.351269
0.367973
0.389421
0.415838
0.447424
0.483941
0.52364
0.554077
0.574788
0.593143
0.610205
0.625872
0.640077
0.65278
0.663964
0.673624
0.681765
0.688396
0.693528
0.697172
0.699334
0.700021
0.699234
0.696972
0.693229
0.687997
0.681264
0.673015
0.663235
0.651908
0.639023
0.624571
0.608561
0.591016
0.57199
0.551568
0.524296
0.483768
0.442586
0.40577
0.373921
0.346939
0.324549
0.306464
0.292424
0.282205
0.275621
0.272529
0.272828
0.27645
0.283365
0.293569
0.307072
0.323873
0.343894
0.366733
0.390647
0.406165
0.413805
0.41964
0.423903
0.426648
0.42799
0.428112
0.427267
0.422843
0.412467
0.399411
0.38869
0.381344
0.377729
0.377785
0.381352
0.387652
0.395819
0.40283
0.40497
0.402817
0.395682
0.388356
0.382863
0.380533
0.381826
0.386937
0.395985
0.408992
0.424699
0.441348
0.451158
0.455423
0.458793
0.461169
0.462396
0.446325
0.446222
0.445995
0.44127
0.431306
0.420917
0.414124
0.411315
0.413048
0.418834
0.428036
0.438452
0.443289
0.442951
0.442025
0.440726
0.438966
0.436717
0.429762
0.413089
0.396443
0.382987
0.373336
0.367842
0.366745
0.370259
0.378534
0.391673
0.409754
0.432919
0.461263
0.494886
0.532042
0.561251
0.581449
0.59891
0.615444
0.630903
0.645178
0.658186
0.669871
0.680199
0.689147
0.696707
0.702874
0.707648
0.711031
0.713025
0.713631
0.712849
0.710677
0.707112
0.702148
0.69578
0.688
0.678803
0.668186
0.656151
0.642709
0.627882
0.611713
0.594267
0.57564
0.555791
0.527441
0.486608
0.447735
0.4135
0.38426
0.35985
0.34004
0.324615
0.313373
0.306145
0.302804
0.303254
0.307434
0.315306
0.326855
0.342059
0.360865
0.383063
0.407555
0.427014
0.436454
0.443025
0.448312
0.452329
0.45513
0.456816
0.457543
0.457523
0.457022
0.453642
0.446234
0.435682
0.428273
0.425053
0.425965
0.431138
0.438844
0.444067
0.4468
0.447352
0.447252
0.444847
0.439785
0.432458
0.428841
0.42937
0.434192
0.443282
0.456892
0.469232
0.477334
0.480967
0.48413
0.486717
0.488547
0.489494
0.480373
0.4804
0.480514
0.480812
0.477955
0.472456
0.465924
0.462623
0.464781
0.470719
0.476244
0.479273
0.47854
0.477674
0.476757
0.475662
0.474324
0.472731
0.470875
0.463147
0.446738
0.432064
0.42094
0.414291
0.412526
0.416008
0.424879
0.439167
0.45873
0.483614
0.51337
0.5475
0.57367
0.592217
0.608363
0.623959
0.638818
0.652787
0.66575
0.677617
0.68832
0.697812
0.70606
0.713042
0.718745
0.723159
0.72628
0.728104
0.72863
0.727854
0.725776
0.722394
0.717704
0.711707
0.704401
0.69579
0.685881
0.674686
0.66223
0.648546
0.633687
0.617726
0.600756
0.582893
0.563738
0.535713
0.496339
0.459883
0.428334
0.401737
0.380001
0.363019
0.350622
0.342663
0.33904
0.339671
0.344485
0.353429
0.36646
0.383451
0.404176
0.427869
0.449792
0.461128
0.467805
0.473529
0.478253
0.481972
0.484728
0.486601
0.48772
0.488257
0.488433
0.488526
0.487308
0.483685
0.479569
0.477242
0.47818
0.480591
0.482737
0.483105
0.482522
0.482616
0.483408
0.484878
0.484982
0.483481
0.481812
0.482086
0.486434
0.493681
0.500729
0.505764
0.50837
0.511001
0.513412
0.515398
0.516808
0.517538
0.514395
0.514491
0.514729
0.515208
0.516088
0.515904
0.514277
0.51321
0.51381
0.515241
0.515574
0.51425
0.513267
0.512449
0.511668
0.510842
0.509936
0.508959
0.507969
0.5069
0.500374
0.487543
0.47556
0.46786
0.465364
0.468864
0.478447
0.494085
0.514964
0.54095
0.56932
0.591188
0.606984
0.621498
0.635825
0.649747
0.66308
0.675677
0.687419
0.698211
0.70798
0.716669
0.724239
0.730657
0.735904
0.739964
0.742825
0.744482
0.744929
0.744162
0.74218
0.738982
0.734568
0.728942
0.722108
0.714076
0.704861
0.694485
0.682978
0.670385
0.656764
0.642193
0.626766
0.610598
0.593824
0.57583
0.549623
0.512875
0.47956
0.450784
0.426951
0.408264
0.394584
0.385791
0.381844
0.382684
0.388204
0.39831
0.412931
0.43164
0.45365
0.475953
0.488186
0.494467
0.500107
0.505035
0.509197
0.512579
0.515207
0.51714
0.518478
0.519351
0.519925
0.52039
0.520947
0.521694
0.521244
0.520491
0.520222
0.519555
0.518136
0.517279
0.516948
0.517168
0.51796
0.519342
0.521358
0.523955
0.525539
0.527305
0.530213
0.533475
0.535412
0.537203
0.539222
0.541256
0.543119
0.544656
0.545747
0.546314
0.548321
0.54844
0.548704
0.549161
0.549865
0.550819
0.551947
0.552465
0.551984
0.550767
0.549588
0.548608
0.547828
0.547186
0.546624
0.546103
0.545618
0.545199
0.544921
0.544914
0.545269
0.541831
0.535486
0.527845
0.524855
0.528575
0.538761
0.555658
0.576294
0.596071
0.612767
0.625448
0.638139
0.650966
0.663694
0.676122
0.688079
0.699423
0.710038
0.719829
0.728718
0.736647
0.743567
0.749444
0.75425
0.757966
0.760576
0.76207
0.762441
0.761685
0.759799
0.756785
0.752645
0.747384
0.741013
0.733546
0.725003
0.715412
0.704812
0.693251
0.680793
0.667515
0.653516
0.638908
0.62383
0.60844
0.592348
0.569201
0.537449
0.507273
0.481302
0.46091
0.445859
0.436104
0.431774
0.432859
0.439145
0.450389
0.466612
0.486298
0.506254
0.517816
0.523308
0.528427
0.533123
0.537306
0.54092
0.543941
0.54638
0.548276
0.5497
0.550746
0.551526
0.552161
0.55275
0.553324
0.553764
0.553787
0.553104
0.552208
0.551411
0.550925
0.550822
0.551146
0.551923
0.553165
0.554873
0.55701
0.559468
0.561892
0.563757
0.565256
0.56679
0.568394
0.570058
0.571683
0.573152
0.574358
0.575213
0.575656
0.582128
0.582243
0.582484
0.582866
0.583392
0.58402
0.584624
0.584906
0.584684
0.584085
0.583397
0.582768
0.582249
0.581843
0.581538
0.581329
0.581234
0.581298
0.581604
0.582281
0.583519
0.5856
0.586496
0.586412
0.58789
0.592716
0.601719
0.613447
0.625805
0.636936
0.647107
0.657939
0.669158
0.680534
0.691863
0.702967
0.713689
0.723898
0.733482
0.742348
0.750418
0.757632
0.76394
0.769302
0.773687
0.777073
0.779442
0.780781
0.781081
0.780337
0.778548
0.775714
0.771841
0.766937
0.761014
0.75409
0.746192
0.73735
0.727607
0.717015
0.705639
0.69356
0.680873
0.667691
0.654147
0.640397
0.626619
0.612845
0.593968
0.569796
0.542614
0.521188
0.50484
0.493938
0.489144
0.490538
0.49761
0.509455
0.526538
0.541168
0.550283
0.554509
0.558722
0.562812
0.566652
0.570147
0.573236
0.575886
0.578095
0.579885
0.5813
0.582405
0.583273
0.583977
0.584569
0.585057
0.585382
0.585435
0.585165
0.58475
0.584376
0.584188
0.58427
0.584672
0.58542
0.586521
0.587959
0.589682
0.591584
0.593473
0.595154
0.596653
0.598097
0.599526
0.600934
0.602265
0.603449
0.604411
0.60509
0.605441
0.615819
0.61592
0.616124
0.616428
0.616817
0.617245
0.617621
0.617816
0.617756
0.617491
0.617145
0.616816
0.616559
0.6164
0.616355
0.616441
0.61669
0.617155
0.617915
0.619085
0.620819
0.62331
0.626779
0.631422
0.636306
0.641868
0.648574
0.655552
0.662946
0.671316
0.68041
0.690044
0.700019
0.710148
0.720259
0.730193
0.739813
0.748998
0.757644
0.765661
0.772975
0.779524
0.785258
0.790135
0.794124
0.797198
0.799338
0.80053
0.800764
0.800035
0.798341
0.795683
0.792069
0.787507
0.782015
0.775611
0.768325
0.76019
0.751251
0.741562
0.73119
0.720213
0.708725
0.696835
0.684671
0.67238
0.660132
0.648122
0.636584
0.623064
0.606375
0.587692
0.570752
0.558674
0.553363
0.555005
0.562596
0.572424
0.580475
0.585577
0.588117
0.591088
0.594257
0.597447
0.600524
0.603394
0.60599
0.608273
0.610229
0.611867
0.613211
0.614301
0.615185
0.615905
0.616493
0.616955
0.61727
0.617407
0.617372
0.617251
0.617155
0.617181
0.617398
0.617852
0.618565
0.61954
0.620759
0.622176
0.623712
0.625261
0.626731
0.628106
0.629418
0.630681
0.631885
0.632996
0.633966
0.634747
0.635294
0.635577
0.649409
0.649495
0.649663
0.649906
0.650204
0.650521
0.650801
0.650982
0.651034
0.650979
0.650878
0.650792
0.65077
0.650844
0.651041
0.651391
0.651931
0.652716
0.653817
0.655327
0.657359
0.660041
0.663485
0.667744
0.672679
0.678133
0.683965
0.690352
0.697333
0.704971
0.713172
0.721807
0.730727
0.739782
0.748829
0.757733
0.766373
0.774638
0.782434
0.789677
0.796296
0.802231
0.807432
0.811858
0.815475
0.818257
0.820183
0.821238
0.821411
0.820698
0.819097
0.816609
0.813243
0.80901
0.803926
0.798015
0.791305
0.783833
0.775644
0.766793
0.757345
0.747376
0.736978
0.726253
0.715322
0.704321
0.693406
0.682754
0.672569
0.663081
0.654259
0.643823
0.633493
0.625102
0.620088
0.618813
0.62027
0.622502
0.623128
0.62391
0.625446
0.627469
0.629773
0.632193
0.634605
0.636915
0.639057
0.640987
0.642683
0.644142
0.645375
0.646405
0.647259
0.647965
0.648542
0.648999
0.649336
0.64955
0.649663
0.649728
0.649812
0.649982
0.650291
0.650773
0.651447
0.652315
0.653361
0.65455
0.655827
0.65713
0.658403
0.659623
0.660788
0.661895
0.662929
0.663867
0.664674
0.665317
0.665764
0.665994
0.682914
0.682987
0.683128
0.683328
0.683572
0.683833
0.684079
0.684278
0.684418
0.684512
0.684594
0.684706
0.684884
0.685163
0.685574
0.686149
0.686928
0.687961
0.689309
0.691046
0.693252
0.696008
0.699378
0.703378
0.707953
0.713029
0.718553
0.724558
0.731061
0.738062
0.745501
0.753284
0.761299
0.769425
0.777543
0.785539
0.793306
0.800748
0.807777
0.814317
0.820301
0.825673
0.830382
0.834389
0.837661
0.840171
0.841898
0.842826
0.842945
0.84225
0.840739
0.838414
0.835285
0.831362
0.826665
0.821217
0.815047
0.808193
0.8007
0.792622
0.78402
0.77497
0.765557
0.755878
0.746043
0.736177
0.726418
0.71692
0.707851
0.69939
0.691711
0.685042
0.679384
0.674405
0.670165
0.66678
0.663969
0.662076
0.661349
0.661482
0.662285
0.663571
0.665171
0.666947
0.668788
0.670605
0.672336
0.673934
0.675373
0.676643
0.677743
0.678684
0.679482
0.680153
0.68071
0.681165
0.681523
0.681796
0.682004
0.682185
0.682383
0.682646
0.683009
0.683501
0.684135
0.684912
0.685821
0.686835
0.687917
0.689027
0.690128
0.691196
0.692217
0.693181
0.694071
0.694867
0.695546
0.696081
0.696452
0.696642
0.716346
0.71641
0.716533
0.716708
0.716923
0.717161
0.717403
0.717633
0.717848
0.718056
0.718281
0.718552
0.718899
0.719352
0.719942
0.720703
0.721672
0.722892
0.724414
0.726295
0.728593
0.731362
0.73464
0.738436
0.742727
0.747478
0.752659
0.758266
0.764292
0.770716
0.777487
0.784531
0.791759
0.799075
0.806378
0.813572
0.820564
0.82727
0.833609
0.839513
0.84492
0.849776
0.854034
0.857656
0.86061
0.862868
0.864411
0.865223
0.865294
0.864618
0.863193
0.861024
0.858119
0.85449
0.850156
0.845141
0.839474
0.833193
0.826342
0.818972
0.811144
0.802928
0.794403
0.785659
0.776796
0.767925
0.759168
0.750656
0.742525
0.734916
0.72796
0.72177
0.716369
0.711691
0.707686
0.704314
0.701643
0.699759
0.698709
0.698382
0.698644
0.699358
0.700394
0.701637
0.702993
0.704382
0.705746
0.70704
0.708234
0.709313
0.71027
0.711107
0.711832
0.712454
0.712982
0.713427
0.713797
0.714106
0.714372
0.714623
0.714891
0.715207
0.715599
0.716086
0.716679
0.717379
0.718176
0.719051
0.71998
0.720934
0.721886
0.722814
0.723704
0.724539
0.725306
0.725986
0.72656
0.727011
0.727321
0.72748
0.749715
0.749773
0.749886
0.750048
0.750251
0.750484
0.750738
0.751004
0.751284
0.751584
0.751923
0.752322
0.752806
0.753403
0.754141
0.755049
0.756163
0.757519
0.759159
0.761126
0.763464
0.766208
0.769383
0.772998
0.777042
0.781496
0.786338
0.791554
0.797126
0.803022
0.809199
0.815593
0.822133
0.828737
0.835323
0.841807
0.84811
0.854157
0.859877
0.865206
0.870089
0.874476
0.878322
0.881592
0.884253
0.886281
0.887655
0.888362
0.888389
0.887733
0.886392
0.884371
0.881676
0.878322
0.874328
0.869715
0.864515
0.858763
0.852502
0.84578
0.838656
0.831194
0.823467
0.815558
0.807556
0.79956
0.791674
0.78401
0.776678
0.76979
0.763442
0.75771
0.752624
0.748173
0.74434
0.741118
0.73853
0.736607
0.735348
0.734692
0.734551
0.734822
0.735408
0.736215
0.737164
0.738186
0.739227
0.740245
0.74121
0.742104
0.742916
0.743643
0.744285
0.744848
0.745338
0.745763
0.746132
0.746458
0.746755
0.747045
0.74735
0.747694
0.748094
0.748566
0.749117
0.749748
0.750452
0.751214
0.752018
0.752843
0.753667
0.754472
0.755244
0.755968
0.756628
0.75721
0.757699
0.758081
0.758342
0.758476
0.783026
0.783081
0.78319
0.783347
0.783549
0.783788
0.78406
0.784363
0.784698
0.785074
0.785504
0.786006
0.786602
0.787314
0.788168
0.789191
0.790412
0.791863
0.793577
0.795588
0.797928
0.800622
0.803688
0.807131
0.810948
0.815124
0.819644
0.824488
0.829634
0.835049
0.840692
0.84651
0.852441
0.858417
0.864369
0.870224
0.875913
0.881371
0.886534
0.891346
0.895755
0.899716
0.903187
0.906135
0.90853
0.910347
0.911568
0.912178
0.912169
0.911533
0.910273
0.90839
0.905893
0.902796
0.899117
0.894878
0.890109
0.884843
0.879122
0.872991
0.866505
0.859724
0.852714
0.845549
0.838311
0.831084
0.823959
0.81703
0.810389
0.804123
0.798309
0.793005
0.788244
0.784036
0.780383
0.777286
0.774754
0.772791
0.771384
0.770489
0.770044
0.769973
0.770201
0.770653
0.771262
0.77197
0.77273
0.773502
0.774258
0.774978
0.775648
0.776262
0.776817
0.777315
0.777759
0.778155
0.778511
0.778837
0.779146
0.779452
0.779772
0.780122
0.780517
0.780967
0.781476
0.782045
0.782668
0.783337
0.784036
0.784751
0.785466
0.786164
0.786833
0.787459
0.788028
0.788527
0.788945
0.78927
0.789492
0.789605
0.816282
0.816337
0.816444
0.816602
0.816808
0.817059
0.817352
0.817689
0.818072
0.81851
0.819013
0.819597
0.82028
0.821083
0.822026
0.823134
0.824431
0.825943
0.827698
0.829722
0.832037
0.834664
0.837614
0.840892
0.844494
0.84841
0.852625
0.857121
0.861872
0.866848
0.872011
0.877314
0.882704
0.888123
0.893511
0.898806
0.903948
0.908879
0.913543
0.917889
0.92187
0.925445
0.928576
0.931231
0.933383
0.935009
0.936091
0.936615
0.936573
0.93596
0.934775
0.933022
0.93071
0.927852
0.924465
0.920571
0.916198
0.911379
0.906151
0.900558
0.89465
0.888482
0.882115
0.875615
0.869054
0.862506
0.856049
0.849763
0.843724
0.838004
0.832665
0.827756
0.82331
0.819345
0.815871
0.812891
0.810408
0.808419
0.806907
0.805837
0.805162
0.804826
0.804769
0.804932
0.80526
0.805703
0.80622
0.806776
0.807343
0.807901
0.808436
0.80894
0.809407
0.809835
0.810228
0.810588
0.810921
0.811234
0.811538
0.811844
0.812163
0.812507
0.812886
0.813307
0.813774
0.814286
0.81484
0.815428
0.816038
0.81666
0.817281
0.817887
0.818466
0.819006
0.819497
0.819926
0.820284
0.820561
0.820751
0.820847
0.849484
0.849539
0.849648
0.84981
0.850023
0.850287
0.850602
0.850968
0.851392
0.85188
0.852441
0.853089
0.85384
0.854711
0.85572
0.856887
0.858234
0.859781
0.861551
0.863563
0.865836
0.868383
0.871213
0.874328
0.877726
0.881396
0.885326
0.889497
0.893885
0.898461
0.90319
0.908031
0.912938
0.91786
0.922746
0.927541
0.932194
0.936653
0.940869
0.944796
0.948392
0.951618
0.954441
0.956831
0.958763
0.960215
0.961171
0.961619
0.961549
0.960958
0.959845
0.958214
0.956074
0.953437
0.95032
0.946743
0.942734
0.938323
0.933545
0.92844
0.923055
0.91744
0.911649
0.905743
0.899783
0.893836
0.887969
0.882248
0.87674
0.871503
0.86659
0.862044
0.857895
0.854164
0.850863
0.847998
0.845569
0.843571
0.841986
0.840789
0.839941
0.8394
0.839118
0.839047
0.839143
0.839363
0.839671
0.840037
0.840436
0.840847
0.841257
0.841654
0.842034
0.842393
0.84273
0.843047
0.843349
0.843641
0.843929
0.844222
0.844529
0.844857
0.845213
0.845602
0.846027
0.846487
0.846978
0.847495
0.848029
0.848571
0.84911
0.849635
0.850137
0.850604
0.851027
0.851396
0.851703
0.851941
0.852103
0.852185
0.88263
0.882686
0.882798
0.882965
0.883187
0.883465
0.883798
0.884191
0.884648
0.885175
0.885782
0.886479
0.887281
0.888201
0.889255
0.890461
0.891836
0.893397
0.895161
0.897144
0.89936
0.901819
0.904525
0.907482
0.910684
0.914123
0.917787
0.921656
0.92571
0.929921
0.934257
0.938682
0.943156
0.947633
0.95207
0.956419
0.960635
0.964671
0.968484
0.972034
0.975282
0.978194
0.980739
0.982889
0.984622
0.985917
0.98676
0.987139
0.987046
0.986477
0.985432
0.983915
0.981935
0.979502
0.976633
0.973349
0.969673
0.965633
0.961265
0.956603
0.951691
0.946573
0.9413
0.935923
0.9305
0.925086
0.919741
0.914522
0.909485
0.904679
0.90015
0.895935
0.892062
0.888553
0.88542
0.882668
0.8803
0.878309
0.87668
0.875391
0.874415
0.873715
0.873255
0.872996
0.8729
0.872934
0.873065
0.873267
0.873516
0.873795
0.874089
0.874387
0.874682
0.874971
0.875251
0.875523
0.875788
0.876051
0.876315
0.876587
0.876873
0.877178
0.877506
0.877862
0.878245
0.878656
0.879091
0.879545
0.880012
0.880484
0.880953
0.881408
0.881842
0.882246
0.882611
0.882928
0.883192
0.883396
0.883535
0.883606
0.915721
0.915778
0.915893
0.916066
0.916296
0.916586
0.916936
0.917351
0.917833
0.918391
0.919032
0.919765
0.920602
0.921556
0.922639
0.923866
0.925251
0.926809
0.928552
0.930493
0.932642
0.935006
0.937589
0.94039
0.943405
0.946626
0.950041
0.953632
0.957378
0.961256
0.965236
0.969285
0.973369
0.977448
0.981482
0.985432
0.989255
0.992911
0.996363
0.999574
1.00251
1.00514
1.00743
1.00936
1.01092
1.01207
1.01281
1.01313
1.01302
1.01247
1.01149
1.01008
1.00825
1.006
1.00336
1.00035
0.996974
0.993274
0.989277
0.985017
0.980531
0.975862
0.971053
0.966151
0.961206
0.956268
0.951388
0.946615
0.941997
0.937577
0.933395
0.929483
0.925867
0.922566
0.919593
0.916956
0.914654
0.912684
0.911032
0.909682
0.908611
0.90779
0.907191
0.90678
0.906529
0.906408
0.906389
0.906449
0.906568
0.906728
0.906916
0.907122
0.907337
0.907558
0.907781
0.908004
0.908229
0.908458
0.908694
0.908939
0.909198
0.909475
0.909773
0.910093
0.910436
0.910801
0.911184
0.911583
0.911991
0.912402
0.912808
0.913203
0.913578
0.913927
0.914241
0.914515
0.914742
0.914917
0.915036
0.915096
0.948754
0.948813
0.948931
0.949108
0.949346
0.949646
0.95001
0.950441
0.950944
0.951524
0.952189
0.952947
0.953807
0.954781
0.955879
0.957113
0.958494
0.960035
0.961745
0.963634
0.965709
0.967975
0.970433
0.973084
0.975921
0.978936
0.982118
0.985451
0.988915
0.992488
0.996145
0.999855
1.00359
1.00731
1.01098
1.01457
1.01804
1.02136
1.02448
1.02739
1.03004
1.03242
1.03448
1.03622
1.03761
1.03864
1.03929
1.03955
1.03943
1.0389
1.03798
1.03667
1.03497
1.0329
1.03047
1.0277
1.0246
1.02121
1.01755
1.01366
1.00956
1.00529
1.0009
0.996422
0.991906
0.987393
0.982927
0.978553
0.974311
0.970238
0.96637
0.962735
0.959355
0.956251
0.953432
0.950908
0.948678
0.94674
0.945083
0.943695
0.942556
0.941644
0.940937
0.940406
0.940029
0.939779
0.939633
0.939572
0.939577
0.939632
0.939726
0.939847
0.939988
0.940143
0.940309
0.940484
0.940667
0.940859
0.941062
0.941277
0.941506
0.941752
0.942017
0.942302
0.942605
0.942926
0.943263
0.943611
0.943966
0.944323
0.944675
0.945017
0.945341
0.945641
0.945912
0.946148
0.946343
0.946493
0.946595
0.946647
0.981728
0.981788
0.981909
0.982091
0.982335
0.982643
0.983017
0.98346
0.983977
0.984573
0.985253
0.986026
0.9869
0.987882
0.988983
0.990212
0.991579
0.993092
0.994759
0.996589
0.998584
1.00075
1.00309
1.00559
1.00826
1.01108
1.01404
1.01714
1.02034
1.02364
1.027
1.0304
1.03382
1.03721
1.04056
1.04383
1.04698
1.04999
1.05283
1.05546
1.05786
1.06
1.06186
1.06343
1.06467
1.06558
1.06615
1.06637
1.06623
1.06573
1.06486
1.06364
1.06207
1.06016
1.05792
1.05537
1.05253
1.04942
1.04607
1.0425
1.03875
1.03484
1.03083
1.02673
1.0226
1.01847
1.01438
1.01036
1.00645
1.0027
0.999112
0.99573
0.99257
0.989649
0.986978
0.984565
0.98241
0.980513
0.978866
0.977457
0.976273
0.975295
0.974505
0.97388
0.9734
0.973045
0.972794
0.972629
0.972536
0.972499
0.972508
0.972552
0.972623
0.972717
0.972829
0.972956
0.973096
0.97325
0.973417
0.973599
0.973797
0.974011
0.974242
0.974491
0.974756
0.975037
0.97533
0.975632
0.97594
0.976249
0.976553
0.976848
0.977127
0.977386
0.977619
0.977821
0.977989
0.978118
0.978205
0.978249
1.01464
1.0147
1.01483
1.01501
1.01526
1.01557
1.01595
1.01641
1.01693
1.01754
1.01823
1.01901
1.01988
1.02086
1.02196
1.02317
1.02452
1.02599
1.02761
1.02938
1.03129
1.03336
1.03557
1.03793
1.04044
1.04308
1.04584
1.04872
1.05168
1.05472
1.05781
1.06094
1.06406
1.06717
1.07022
1.0732
1.07607
1.0788
1.08137
1.08376
1.08593
1.08786
1.08954
1.09095
1.09206
1.09287
1.09337
1.09354
1.09339
1.09291
1.0921
1.09096
1.08951
1.08774
1.08568
1.08333
1.08072
1.07787
1.07479
1.07152
1.06809
1.06451
1.06083
1.05708
1.0533
1.04951
1.04575
1.04205
1.03845
1.03498
1.03165
1.0285
1.02555
1.0228
1.02027
1.01796
1.01589
1.01404
1.01241
1.011
1.00978
1.00876
1.00791
1.00721
1.00665
1.00621
1.00587
1.00562
1.00544
1.00532
1.00525
1.00523
1.00524
1.00527
1.00533
1.00541
1.00551
1.00563
1.00576
1.00591
1.00607
1.00625
1.00645
1.00666
1.00689
1.00713
1.00739
1.00765
1.00791
1.00818
1.00844
1.00869
1.00893
1.00916
1.00936
1.00953
1.00967
1.00978
1.00986
1.0099
1.04749
1.04756
1.04768
1.04787
1.04812
1.04844
1.04882
1.04928
1.04981
1.05042
1.05111
1.05189
1.05276
1.05373
1.05481
1.05601
1.05732
1.05875
1.06032
1.06201
1.06385
1.06581
1.06791
1.07014
1.07249
1.07496
1.07753
1.0802
1.08294
1.08575
1.0886
1.09147
1.09433
1.09717
1.09996
1.10267
1.10529
1.10777
1.11011
1.11227
1.11423
1.11598
1.1175
1.11876
1.11976
1.12048
1.12091
1.12105
1.12089
1.12042
1.11966
1.1186
1.11726
1.11562
1.11372
1.11156
1.10916
1.10654
1.10372
1.10072
1.09756
1.09429
1.09091
1.08747
1.084
1.08051
1.07706
1.07365
1.07033
1.06711
1.06402
1.06108
1.05831
1.05573
1.05333
1.05113
1.04913
1.04734
1.04574
1.04433
1.04311
1.04205
1.04115
1.0404
1.03977
1.03926
1.03885
1.03853
1.03828
1.03809
1.03796
1.03787
1.03782
1.03781
1.03782
1.03785
1.03791
1.03799
1.03808
1.0382
1.03833
1.03848
1.03864
1.03882
1.03901
1.03922
1.03944
1.03966
1.03989
1.04011
1.04034
1.04055
1.04076
1.04095
1.04112
1.04127
1.04139
1.04148
1.04155
1.04158
1.08029
1.08035
1.08047
1.08066
1.08091
1.08123
1.08162
1.08207
1.0826
1.08321
1.0839
1.08467
1.08554
1.0865
1.08756
1.08872
1.09
1.09139
1.09289
1.09452
1.09627
1.09813
1.10012
1.10221
1.10442
1.10673
1.10913
1.1116
1.11415
1.11674
1.11936
1.122
1.12463
1.12723
1.12978
1.13225
1.13463
1.13689
1.13901
1.14097
1.14275
1.14433
1.1457
1.14684
1.14773
1.14837
1.14874
1.14885
1.14868
1.14824
1.14752
1.14654
1.14529
1.14378
1.14202
1.14003
1.13782
1.13541
1.13282
1.13006
1.12717
1.12416
1.12106
1.1179
1.1147
1.1115
1.10831
1.10517
1.10209
1.09911
1.09624
1.0935
1.0909
1.08846
1.08619
1.0841
1.08218
1.08044
1.07888