/*--------------------------------*- C++ -*----------------------------------*\
| =========                 |                                                 |
| \\      /  F ield         | OpenFOAM: The Open Source CFD Toolbox           |
|  \\    /   O peration     | Version:  2406                                  |
|   \\  /    A nd           | Website:  www.openfoam.com                      |
|    \\/     M anipulation  |                                                 |
\*---------------------------------------------------------------------------*/
FoamFile
{
    version     2.0;
    format      ascii;
    arch        "LSB;label=32;scalar=64";
    class       volScalarField;
    location    "7.8";
    object      D;
}
// * * * * * * * * * * * * * * * * * * * * * * * * * * * * * * * * * * * * * //

dimensions      [0 2 -1 0 0 0 0];

internalField   nonuniform List<scalar> 
14400
(
6.99012e-05
6.98343e-05
6.97348e-05
6.96368e-05
6.95589e-05
6.95055e-05
6.94741e-05
6.9462e-05
6.947e-05
6.95043e-05
6.95749e-05
6.96913e-05
6.98531e-05
7.00339e-05
7.01628e-05
7.01303e-05
6.98678e-05
6.94578e-05
6.89865e-05
6.84875e-05
6.79551e-05
6.73708e-05
6.67215e-05
6.60095e-05
6.52541e-05
6.44868e-05
6.37428e-05
6.30538e-05
6.24445e-05
6.19327e-05
6.15328e-05
6.1261e-05
6.11439e-05
6.12342e-05
6.1656e-05
6.27716e-05
6.61953e-05
8.46174e-05
0.000138101
0.00013824
0.00013824
0.00013824
0.00013824
0.00013824
0.00013824
0.00013824
0.00013824
0.00013824
0.00013824
0.00013824
0.00013824
0.00013824
0.00013824
0.00013824
0.00013824
0.00013824
0.00013824
0.00013824
0.00013824
0.000135886
7.35279e-05
6.50851e-05
6.289e-05
6.21243e-05
6.1924e-05
6.20485e-05
6.24126e-05
6.29853e-05
6.37572e-05
6.47228e-05
6.58649e-05
6.71374e-05
6.84534e-05
6.96911e-05
7.07246e-05
7.1459e-05
7.18498e-05
7.1903e-05
7.16679e-05
7.12291e-05
7.06978e-05
7.02039e-05
6.98989e-05
6.99964e-05
7.09453e-05
7.44091e-05
9.15039e-05
0.00013798
0.000103472
7.46837e-05
6.97206e-05
6.80892e-05
6.7414e-05
6.71733e-05
6.71769e-05
6.73301e-05
6.7574e-05
6.78658e-05
6.81707e-05
6.84582e-05
6.87e-05
6.88687e-05
6.89387e-05
6.88911e-05
6.87198e-05
6.84354e-05
6.80603e-05
6.76233e-05
6.71548e-05
6.66855e-05
6.62467e-05
6.58705e-05
6.55928e-05
6.54593e-05
6.55402e-05
6.59689e-05
6.70686e-05
6.99361e-05
8.04437e-05
0.00013666
6.95841e-05
6.94559e-05
6.9274e-05
6.90999e-05
6.89621e-05
6.88669e-05
6.88114e-05
6.87921e-05
6.88095e-05
6.88699e-05
6.8985e-05
6.91679e-05
6.94248e-05
6.97343e-05
7.00091e-05
7.00625e-05
6.97089e-05
6.9167e-05
6.85934e-05
6.8033e-05
6.74749e-05
6.68936e-05
6.62702e-05
6.56016e-05
6.49005e-05
6.41918e-05
6.35051e-05
6.28683e-05
6.23047e-05
6.18322e-05
6.14668e-05
6.1227e-05
6.11426e-05
6.1273e-05
6.17574e-05
6.30259e-05
6.72727e-05
9.70337e-05
0.00013823
0.00013824
0.00013824
0.00013824
0.00013824
0.00013824
0.00013824
0.00013824
0.00013824
0.00013824
0.00013824
0.00013824
0.00013824
0.00013824
0.00013824
0.00013824
0.00013824
0.00013824
0.00013824
0.00013824
0.00013824
0.000137927
8.11586e-05
6.60689e-05
6.31245e-05
6.21985e-05
6.19318e-05
6.20113e-05
6.23332e-05
6.28582e-05
6.35713e-05
6.44627e-05
6.55132e-05
6.66796e-05
6.78851e-05
6.90228e-05
6.998e-05
7.06686e-05
7.10446e-05
7.11119e-05
7.09172e-05
7.05411e-05
7.00894e-05
6.96857e-05
6.94778e-05
6.96848e-05
7.08073e-05
7.49767e-05
9.9738e-05
0.000138203
0.000116284
7.56554e-05
6.98382e-05
6.79909e-05
6.72043e-05
6.68854e-05
6.68249e-05
6.69223e-05
6.71182e-05
6.73711e-05
6.76488e-05
6.79226e-05
6.81639e-05
6.83423e-05
6.84257e-05
6.83877e-05
6.8219e-05
6.79352e-05
6.75664e-05
6.71466e-05
6.67076e-05
6.62789e-05
6.58883e-05
6.5565e-05
6.5343e-05
6.52683e-05
6.54167e-05
6.59415e-05
6.72559e-05
7.11311e-05
9.15348e-05
0.000138127
6.9204e-05
6.8918e-05
6.85531e-05
6.82286e-05
6.79815e-05
6.78137e-05
6.77173e-05
6.76853e-05
6.77169e-05
6.78191e-05
6.80076e-05
6.8306e-05
6.87414e-05
6.93242e-05
6.9977e-05
7.03375e-05
6.96441e-05
6.87496e-05
6.79495e-05
6.72682e-05
6.66617e-05
6.60833e-05
6.55015e-05
6.49029e-05
6.42901e-05
6.36777e-05
6.30866e-05
6.25389e-05
6.20549e-05
6.16528e-05
6.1351e-05
6.11724e-05
6.11541e-05
6.13695e-05
6.19928e-05
6.35798e-05
6.91667e-05
0.000118974
0.00013824
0.00013824
0.00013824
0.00013824
0.00013824
0.00013824
0.00013824
0.00013824
0.00013824
0.00013824
0.00013824
0.00013824
0.00013824
0.00013824
0.00013824
0.00013824
0.00013824
0.00013824
0.00013824
0.00013824
0.00013824
0.000138236
0.000101667
6.79695e-05
6.35755e-05
6.23551e-05
6.19603e-05
6.19519e-05
6.21931e-05
6.26298e-05
6.32373e-05
6.39985e-05
6.48909e-05
6.58756e-05
6.689e-05
6.78508e-05
6.86684e-05
6.92697e-05
6.96156e-05
6.9708e-05
6.95878e-05
6.93269e-05
6.90198e-05
6.878e-05
6.87512e-05
6.91662e-05
7.06067e-05
7.58912e-05
0.000114707
0.000138239
0.000133083
7.81585e-05
7.03605e-05
6.79285e-05
6.68892e-05
6.64167e-05
6.62405e-05
6.62423e-05
6.63583e-05
6.65484e-05
6.67836e-05
6.70381e-05
6.72836e-05
6.74849e-05
6.75974e-05
6.75783e-05
6.74099e-05
6.71201e-05
6.6755e-05
6.63584e-05
6.59643e-05
6.55993e-05
6.52869e-05
6.50519e-05
6.49261e-05
6.4958e-05
6.52352e-05
6.59483e-05
6.766e-05
7.32484e-05
0.00011509
0.00013824
6.92882e-05
6.85888e-05
6.78682e-05
6.73063e-05
6.6909e-05
6.66494e-05
6.65032e-05
6.64551e-05
6.6501e-05
6.66495e-05
6.69243e-05
6.73697e-05
6.80632e-05
6.91321e-05
7.07458e-05
7.26861e-05
7.02692e-05
6.84783e-05
6.72675e-05
6.64025e-05
6.57254e-05
6.5143e-05
6.46026e-05
6.40779e-05
6.35605e-05
6.30549e-05
6.25727e-05
6.21297e-05
6.17429e-05
6.14305e-05
6.12138e-05
6.11223e-05
6.12066e-05
6.15706e-05
6.24827e-05
6.49308e-05
7.52168e-05
0.000137178
0.00013824
0.00013824
0.00013824
0.00013824
0.00013824
0.00013824
0.00013824
0.00013824
0.00013824
0.00013824
0.00013824
0.00013824
0.00013824
0.00013824
0.00013824
0.00013824
0.00013824
0.00013824
0.00013824
0.00013824
0.00013824
0.00013824
0.0001268
7.06109e-05
6.4369e-05
6.26547e-05
6.20455e-05
6.19003e-05
6.20252e-05
6.2343e-05
6.28155e-05
6.3417e-05
6.41215e-05
6.48941e-05
6.56862e-05
6.64375e-05
6.70847e-05
6.75751e-05
6.78801e-05
6.80019e-05
6.79738e-05
6.78552e-05
6.77273e-05
6.76946e-05
6.79068e-05
6.86429e-05
7.06706e-05
7.76472e-05
0.00013133
0.00013824
0.000138229
0.000102112
7.27488e-05
6.81871e-05
6.66434e-05
6.59325e-05
6.55991e-05
6.5482e-05
6.55049e-05
6.56263e-05
6.58193e-05
6.60613e-05
6.63255e-05
6.65716e-05
6.67371e-05
6.67496e-05
6.65681e-05
6.62506e-05
6.58707e-05
6.54859e-05
6.5132e-05
6.48322e-05
6.46054e-05
6.44729e-05
6.4467e-05
6.46446e-05
6.5121e-05
6.61759e-05
6.87302e-05
7.7899e-05
0.000136044
0.00013824
7.13969e-05
6.9048e-05
6.75332e-05
6.65862e-05
6.59861e-05
6.56149e-05
6.54116e-05
6.53445e-05
6.54038e-05
6.56005e-05
6.59714e-05
6.6597e-05
6.76645e-05
6.96726e-05
7.45698e-05
9.23539e-05
7.32614e-05
6.87139e-05
6.67574e-05
6.56262e-05
6.4849e-05
6.42455e-05
6.37322e-05
6.32678e-05
6.28337e-05
6.24251e-05
6.20463e-05
6.17072e-05
6.14217e-05
6.12084e-05
6.10922e-05
6.1113e-05
6.13447e-05
6.19583e-05
6.34932e-05
6.88477e-05
0.000116169
0.00013824
0.00013824
0.00013824
0.00013824
0.00013824
0.00013824
0.00013824
0.00013824
0.00013824
0.00013824
0.00013824
0.00013824
0.00013824
0.00013824
0.00013824
0.00013824
0.00013824
0.00013824
0.00013824
0.00013824
0.00013824
0.00013824
0.00013824
0.000138189
8.84984e-05
6.66669e-05
6.32889e-05
6.22569e-05
6.19007e-05
6.18714e-05
6.20472e-05
6.23706e-05
6.28061e-05
6.3324e-05
6.38926e-05
6.4475e-05
6.50295e-05
6.55147e-05
6.58976e-05
6.61613e-05
6.63104e-05
6.6372e-05
6.63943e-05
6.64478e-05
6.66359e-05
6.71372e-05
6.83797e-05
7.21584e-05
9.413e-05
0.000138174
0.00013824
0.00013824
0.00013361
7.6927e-05
6.90957e-05
6.66991e-05
6.56175e-05
6.50717e-05
6.48142e-05
6.47388e-05
6.47959e-05
6.49589e-05
6.52083e-05
6.55203e-05
6.58543e-05
6.61219e-05
6.61972e-05
6.59621e-05
6.5565e-05
6.51265e-05
6.47221e-05
6.43862e-05
6.41369e-05
6.39885e-05
6.39614e-05
6.40937e-05
6.4464e-05
6.52604e-05
6.7063e-05
7.28161e-05
0.000117073
0.00013824
0.00013824
8.70523e-05
7.19146e-05
6.797e-05
6.6289e-05
6.53802e-05
6.48577e-05
6.45822e-05
6.44912e-05
6.45652e-05
6.4819e-05
6.53108e-05
6.61841e-05
6.78801e-05
7.23812e-05
9.80688e-05
0.000137815
8.51244e-05
7.00904e-05
6.66275e-05
6.50864e-05
6.41563e-05
6.3501e-05
6.29903e-05
6.25637e-05
6.21917e-05
6.18618e-05
6.1572e-05
6.13278e-05
6.11413e-05
6.1032e-05
6.10317e-05
6.11971e-05
6.16458e-05
6.26991e-05
6.5783e-05
8.33555e-05
0.000138109
0.00013824
0.00013824
0.00013824
0.00013824
0.00013824
0.00013824
0.00013824
0.00013824
0.00013824
0.00013824
0.00013824
0.00013824
0.00013824
0.00013824
0.00013824
0.00013824
0.00013824
0.00013824
0.00013824
0.00013824
0.00013824
0.00013824
0.00013824
0.00013824
0.000129031
7.10068e-05
6.44964e-05
6.27009e-05
6.20142e-05
6.17795e-05
6.17911e-05
6.19596e-05
6.22357e-05
6.2585e-05
6.29779e-05
6.33857e-05
6.37798e-05
6.41344e-05
6.44309e-05
6.4662e-05
6.48353e-05
6.49748e-05
6.51227e-05
6.53461e-05
6.57591e-05
6.65975e-05
6.85354e-05
7.48578e-05
0.000124784
0.00013824
0.00013824
0.00013824
0.00013824
0.00011716
7.35777e-05
6.76524e-05
6.57215e-05
6.48212e-05
6.43759e-05
6.41886e-05
6.41868e-05
6.43399e-05
6.46329e-05
6.5051e-05
6.55721e-05
6.60715e-05
6.63362e-05
6.58975e-05
6.52879e-05
6.46931e-05
6.42079e-05
6.38508e-05
6.36281e-05
6.35472e-05
6.36314e-05
6.39357e-05
6.45887e-05
6.59713e-05
6.98339e-05
9.15326e-05
0.00013818
0.00013824
0.00013824
0.000137803
8.64796e-05
7.03878e-05
6.67624e-05
6.52632e-05
6.44879e-05
6.41038e-05
6.39781e-05
6.40738e-05
6.44128e-05
6.5097e-05
6.63878e-05
6.93793e-05
8.1083e-05
0.000137393
0.00013824
0.000126923
7.40639e-05
6.72388e-05
6.49366e-05
6.37374e-05
6.29759e-05
6.2433e-05
6.20167e-05
6.16832e-05
6.14119e-05
6.11961e-05
6.10378e-05
6.09486e-05
6.09525e-05
6.10943e-05
6.14659e-05
6.22827e-05
6.42452e-05
7.12797e-05
0.000133234
0.00013824
0.00013824
0.00013824
0.00013824
0.00013824
0.00013824
0.00013824
0.00013824
0.00013824
0.00013824
0.00013824
0.00013824
0.00013824
0.00013824
0.00013824
0.00013824
0.00013824
0.00013824
0.00013824
0.00013824
0.00013824
0.00013824
0.00013824
0.00013824
0.00013824
0.000138239
0.000104951
6.83366e-05
6.37146e-05
6.23488e-05
6.18098e-05
6.16237e-05
6.16304e-05
6.17559e-05
6.19577e-05
6.22059e-05
6.24765e-05
6.27491e-05
6.30075e-05
6.32424e-05
6.34531e-05
6.36507e-05
6.38598e-05
6.41233e-05
6.4516e-05
6.51863e-05
6.65193e-05
7.01882e-05
9.08433e-05
0.000138155
0.00013824
0.00013824
0.00013824
0.00013824
0.000138231
0.000100638
7.16473e-05
6.67667e-05
6.50762e-05
6.43158e-05
6.3969e-05
6.39052e-05
6.40789e-05
6.449e-05
6.51482e-05
6.61606e-05
6.7351e-05
6.87111e-05
6.70858e-05
6.58145e-05
6.47861e-05
6.40856e-05
6.36358e-05
6.34063e-05
6.33866e-05
6.36104e-05
6.41834e-05
6.53687e-05
6.8145e-05
7.89562e-05
0.000137268
0.00013824
0.00013824
0.00013824
0.00013824
0.000137374
8.09524e-05
6.92402e-05
6.60503e-05
6.4695e-05
6.41063e-05
6.39183e-05
6.40569e-05
6.45621e-05
6.56798e-05
6.80178e-05
7.58023e-05
0.000134187
0.00013824
0.00013824
0.000138235
0.000102564
7.04213e-05
6.55044e-05
6.37065e-05
6.27313e-05
6.21023e-05
6.16619e-05
6.13415e-05
6.11107e-05
6.09574e-05
6.08817e-05
6.08973e-05
6.10397e-05
6.13836e-05
6.21239e-05
6.38592e-05
6.98306e-05
0.000122331
0.00013824
0.00013824
0.00013824
0.00013824
0.00013824
0.00013824
0.00013824
0.00013824
0.00013824
0.00013824
0.00013824
0.00013824
0.00013824
0.00013824
0.00013824
0.00013824
0.00013824
0.00013824
0.00013824
0.00013824
0.00013824
0.00013824
0.00013824
0.00013824
0.00013824
0.00013824
0.00013824
0.000138055
8.22118e-05
6.60934e-05
6.30948e-05
6.2051e-05
6.16037e-05
6.14289e-05
6.14048e-05
6.14734e-05
6.16007e-05
6.17637e-05
6.19457e-05
6.21359e-05
6.23304e-05
6.25336e-05
6.27606e-05
6.30411e-05
6.34277e-05
6.40215e-05
6.50524e-05
6.72168e-05
7.41998e-05
0.000130367
0.00013824
0.00013824
0.00013824
0.00013824
0.00013824
0.00013824
0.000138207
9.55929e-05
7.11795e-05
6.64604e-05
6.49516e-05
6.42773e-05
6.41229e-05
6.43788e-05
6.51226e-05
6.64436e-05
6.96129e-05
7.39371e-05
8.72472e-05
7.31855e-05
6.88182e-05
6.59839e-05
6.46486e-05
6.39293e-05
6.36357e-05
6.36842e-05
6.41457e-05
6.5348e-05
6.82282e-05
7.71326e-05
0.000136027
0.00013824
0.00013824
0.00013824
0.00013824
0.00013824
0.00013824
0.000137233
8.26275e-05
6.98392e-05
6.60985e-05
6.49855e-05
6.46331e-05
6.48936e-05
6.58455e-05
6.86809e-05
7.59568e-05
0.000132846
0.00013824
0.00013824
0.00013824
0.00013824
0.000137935
8.25934e-05
6.76518e-05
6.43111e-05
6.28827e-05
6.20646e-05
6.15466e-05
6.12069e-05
6.09992e-05
6.09047e-05
6.09221e-05
6.10724e-05
6.14242e-05
6.2127e-05
6.37788e-05
6.93953e-05
0.000114399
0.00013824
0.00013824
0.00013824
0.00013824
0.00013824
0.00013824
0.00013824
0.00013824
0.00013824
0.00013824
0.00013824
0.00013824
0.00013824
0.00013824
0.00013824
0.00013824
0.00013824
0.00013824
0.00013824
0.00013824
0.00013824
0.00013824
0.00013824
0.00013824
0.00013824
0.00013824
0.00013824
0.00013824
0.00013824
0.000135713
7.27611e-05
6.48199e-05
6.27005e-05
6.18324e-05
6.14181e-05
6.12237e-05
6.11583e-05
6.1176e-05
6.12495e-05
6.13616e-05
6.15034e-05
6.16744e-05
6.18832e-05
6.21515e-05
6.25208e-05
6.30688e-05
6.39709e-05
6.57523e-05
7.10485e-05
0.000109809
0.000138239
0.00013824
0.00013824
0.00013824
0.00013824
0.00013824
0.00013824
0.00013824
0.000138213
0.000104027
7.23599e-05
6.76013e-05
6.57241e-05
6.53632e-05
6.58807e-05
6.80936e-05
7.23627e-05
9.67822e-05
0.000133275
0.000138116
0.000130973
8.99083e-05
7.14059e-05
6.7041e-05
6.5309e-05
6.48036e-05
6.49683e-05
6.60339e-05
7.00859e-05
8.46345e-05
0.00013674
0.00013824
0.00013824
0.00013824
0.00013824
0.00013824
0.00013824
0.00013824
0.00013824
0.000137871
9.86034e-05
7.21453e-05
6.88182e-05
6.75377e-05
6.84893e-05
7.14481e-05
8.89574e-05
0.00013594
0.00013824
0.00013824
0.00013824
0.00013824
0.00013824
0.00013824
0.00013652
7.57331e-05
6.65133e-05
6.37901e-05
6.24892e-05
6.17783e-05
6.13589e-05
6.11534e-05
6.11296e-05
6.12871e-05
6.16648e-05
6.24681e-05
6.40687e-05
6.9746e-05
0.000115108
0.00013824
0.00013824
0.00013824
0.00013824
0.00013824
0.00013824
0.00013824
0.00013824
0.00013824
0.00013824
0.00013824
0.00013824
0.00013824
0.00013824
0.00013824
0.00013824
0.00013824
0.00013824
0.00013824
0.00013824
0.00013824
0.00013824
0.00013824
0.00013824
0.00013824
0.00013824
0.00013824
0.00013824
0.00013824
0.00013824
0.00013824
0.000131014
7.11143e-05
6.44427e-05
6.25568e-05
6.1724e-05
6.12828e-05
6.10523e-05
6.09534e-05
6.09423e-05
6.09948e-05
6.11012e-05
6.12631e-05
6.14939e-05
6.18268e-05
6.23295e-05
6.31387e-05
6.46343e-05
6.85294e-05
8.97669e-05
0.000138179
0.00013824
0.00013824
0.00013824
0.00013824
0.00013824
0.00013824
0.00013824
0.00013824
0.00013824
0.000138237
0.000124469
8.27927e-05
7.16452e-05
7.05952e-05
7.20714e-05
8.75258e-05
0.000125808
0.000138225
0.00013824
0.00013824
0.00013824
0.000138177
0.00012057
7.95058e-05
7.09578e-05
6.9588e-05
7.01921e-05
7.37208e-05
0.00011046
0.000138057
0.00013824
0.00013824
0.00013824
0.00013824
0.00013824
0.00013824
0.00013824
0.00013824
0.00013824
0.00013824
0.00013823
0.000125806
9.67288e-05
8.2743e-05
9.28605e-05
0.000121071
0.000138165
0.00013824
0.00013824
0.00013824
0.00013824
0.00013824
0.00013824
0.00013824
0.00013824
0.000135993
7.68535e-05
6.72704e-05
6.39562e-05
6.2682e-05
6.20024e-05
6.1759e-05
6.18653e-05
6.23535e-05
6.32902e-05
6.59552e-05
7.14664e-05
0.000124491
0.00013824
0.00013824
0.00013824
0.00013824
0.00013824
0.00013824
0.00013824
0.00013824
0.00013824
0.00013824
0.00013824
0.00013824
0.00013824
0.00013824
0.00013824
0.00013824
0.00013824
0.00013824
0.00013824
0.00013824
0.00013824
0.00013824
0.00013824
0.00013824
0.00013824
0.00013824
0.00013824
0.00013824
0.00013824
0.00013824
0.00013824
0.00013824
0.00013824
0.000128877
7.10732e-05
6.46427e-05
6.26992e-05
6.17455e-05
6.12428e-05
6.09865e-05
6.08772e-05
6.08683e-05
6.09466e-05
6.11155e-05
6.13945e-05
6.18405e-05
6.25924e-05
6.39592e-05
6.70871e-05
7.97063e-05
0.000137707
0.00013824
0.00013824
0.00013824
0.00013824
0.00013824
0.00013824
0.00013824
0.00013824
0.00013824
0.00013824
0.00013824
0.00013824
0.000137965
0.000126733
0.000118366
0.000129283
0.000138141
0.00013824
0.00013824
0.00013824
0.00013824
0.00013824
0.00013824
0.00013824
0.000137679
0.000122863
0.00010935
0.00011715
0.000135048
0.000138239
0.00013824
0.00013824
0.00013824
0.00013824
0.00013824
0.00013824
0.00013824
0.00013824
0.00013824
0.00013824
0.00013824
0.00013824
0.00013824
0.000138224
0.00013793
0.000138204
0.00013824
0.00013824
0.00013824
0.00013824
0.00013824
0.00013824
0.00013824
0.00013824
0.00013824
0.00013824
0.00013824
0.000137378
9.14859e-05
6.96816e-05
6.57992e-05
6.38353e-05
6.34238e-05
6.39443e-05
6.60347e-05
6.92848e-05
9.05912e-05
0.000134919
0.00013824
0.00013824
0.00013824
0.00013824
0.00013824
0.00013824
0.00013824
0.00013824
0.00013824
0.00013824
0.00013824
0.00013824
0.00013824
0.00013824
0.00013824
0.00013824
0.00013824
0.00013824
0.00013824
0.00013824
0.00013824
0.00013824
0.00013824
0.00013824
0.00013824
0.00013824
0.00013824
0.00013824
0.00013824
0.00013824
0.00013824
0.00013824
0.00013824
0.00013824
0.00013824
0.000132213
7.34079e-05
6.60133e-05
6.31397e-05
6.19642e-05
6.14208e-05
6.11603e-05
6.10638e-05
6.11141e-05
6.13191e-05
6.17032e-05
6.23814e-05
6.37766e-05
6.71179e-05
7.85269e-05
0.000137238
0.00013824
0.00013824
0.00013824
0.00013824
0.00013824
0.00013824
0.00013824
0.00013824
0.00013824
0.00013824
0.00013824
0.00013824
0.00013824
0.00013824
0.00013824
0.00013824
0.00013824
0.00013824
0.00013824
0.00013824
0.00013824
0.00013824
0.00013824
0.00013824
0.00013824
0.00013824
0.00013824
0.000138239
0.00013824
0.00013824
0.00013824
0.00013824
0.00013824
0.00013824
0.00013824
0.00013824
0.00013824
0.00013824
0.00013824
0.00013824
0.00013824
0.00013824
0.00013824
0.00013824
0.00013824
0.00013824
0.00013824
0.00013824
0.00013824
0.00013824
0.00013824
0.00013824
0.00013824
0.00013824
0.00013824
0.00013824
0.00013824
0.00013824
0.00013824
0.000138213
0.000121298
8.51446e-05
7.06534e-05
6.95386e-05
7.21732e-05
9.25186e-05
0.000124509
0.000138216
0.00013824
0.00013824
0.00013824
0.00013824
0.00013824
0.00013824
0.00013824
0.00013824
0.00013824
0.00013824
0.00013824
0.00013824
0.00013824
0.00013824
0.00013824
0.00013824
0.00013824
0.00013824
0.00013824
0.00013824
0.00013824
0.00013824
0.00013824
0.00013824
0.00013824
0.00013824
0.00013824
0.00013824
0.00013824
0.00013824
0.00013824
0.00013824
0.00013824
0.00013824
0.00013824
0.00013824
0.00013824
0.000136724
8.80648e-05
6.83801e-05
6.40763e-05
6.27496e-05
6.21401e-05
6.18326e-05
6.18358e-05
6.21702e-05
6.28499e-05
6.41422e-05
6.85081e-05
8.69753e-05
0.000137638
0.00013824
0.00013824
0.00013824
0.00013824
0.00013824
0.00013824
0.00013824
0.00013824
0.00013824
0.00013824
0.00013824
0.00013824
0.00013824
0.00013824
0.00013824
0.00013824
0.00013824
0.00013824
0.00013824
0.00013824
0.00013824
0.00013824
0.00013824
0.00013824
0.00013824
0.00013824
0.00013824
0.00013824
0.00013824
0.00013824
0.00013824
0.00013824
0.00013824
0.00013824
0.00013824
0.00013824
0.00013824
0.00013824
0.00013824
0.00013824
0.00013824
0.00013824
0.00013824
0.00013824
0.00013824
0.00013824
0.00013824
0.00013824
0.00013824
0.00013824
0.00013824
0.00013824
0.00013824
0.00013824
0.00013824
0.00013824
0.00013824
0.00013824
0.00013824
0.00013824
0.00013824
0.00013824
0.000138146
0.000133468
0.00013019
0.000136075
0.000138222
0.00013824
0.00013824
0.00013824
0.00013824
0.00013824
0.00013824
0.00013824
0.00013824
0.00013824
0.00013824
0.00013824
0.00013824
0.00013824
0.00013824
0.00013824
0.00013824
0.00013824
0.00013824
0.00013824
0.00013824
0.00013824
0.00013824
0.00013824
0.00013824
0.00013824
0.00013824
0.00013824
0.00013824
0.00013824
0.00013824
0.00013824
0.00013824
0.00013824
0.00013824
0.00013824
0.00013824
0.00013824
0.00013824
0.00013824
0.00013824
0.000138199
0.000116818
7.28547e-05
6.77965e-05
6.55677e-05
6.41673e-05
6.39816e-05
6.50286e-05
6.73011e-05
7.10299e-05
0.000109882
0.000138171
0.00013824
0.00013824
0.00013824
0.00013824
0.00013824
0.00013824
0.00013824
0.00013824
0.00013824
0.00013824
0.00013824
0.00013824
0.00013824
0.00013824
0.00013824
0.00013824
0.00013824
0.00013824
0.00013824
0.00013824
0.00013824
0.00013824
0.00013824
0.00013824
0.00013824
0.00013824
0.00013824
0.00013824
0.00013824
0.00013824
0.00013824
0.00013824
0.00013824
0.00013824
0.00013824
0.00013824
0.00013824
0.00013824
0.00013824
0.00013824
0.00013824
0.00013824
0.00013824
0.00013824
0.00013824
0.00013824
0.00013824
0.00013824
0.00013824
0.00013824
0.00013824
0.00013824
0.00013824
0.00013824
0.00013824
0.00013824
0.00013824
0.00013824
0.00013824
0.00013824
0.00013824
0.00013824
0.00013824
0.00013824
0.00013824
0.00013824
0.00013824
0.00013824
0.00013824
0.00013824
0.00013824
0.00013824
0.00013824
0.00013824
0.00013824
0.00013824
0.00013824
0.00013824
0.00013824
0.00013824
0.00013824
0.00013824
0.00013824
0.00013824
0.00013824
0.00013824
0.00013824
0.00013824
0.00013824
0.00013824
0.00013824
0.00013824
0.00013824
0.00013824
0.00013824
0.00013824
0.00013824
0.00013824
0.00013824
0.00013824
0.00013824
0.00013824
0.00013824
0.00013824
0.00013824
0.00013824
0.00013824
0.00013824
0.00013824
0.00013824
0.000136606
0.000114238
8.7993e-05
7.42464e-05
7.25172e-05
8.05477e-05
0.000105239
0.000132836
0.00013824
0.00013824
0.00013824
0.00013824
0.00013824
0.00013824
0.00013824
0.00013824
0.00013824
0.00013824
0.00013824
0.00013824
0.00013824
0.00013824
0.00013824
0.00013824
0.00013824
0.00013824
0.00013824
0.00013824
0.00013824
0.00013824
0.00013824
0.00013824
0.00013824
0.00013824
0.00013824
0.00013824
0.00013824
0.00013824
0.00013824
0.00013824
0.00013824
0.00013824
0.00013824
0.00013824
0.00013824
0.00013824
0.00013824
0.00013824
0.00013824
0.00013824
0.00013824
0.00013824
0.00013824
0.00013824
0.00013824
0.00013824
0.00013824
0.00013824
0.00013824
0.00013824
0.00013824
0.00013824
0.00013824
0.00013824
0.00013824
0.00013824
0.00013824
0.00013824
0.00013824
0.00013824
0.00013824
0.00013824
0.00013824
0.00013824
0.00013824
0.00013824
0.00013824
0.00013824
0.00013824
0.00013824
0.00013824
0.00013824
0.00013824
0.00013824
0.00013824
0.00013824
0.00013824
0.00013824
0.00013824
0.00013824
0.00013824
0.00013824
0.00013824
0.00013824
0.00013824
0.00013824
0.00013824
0.00013824
0.00013824
0.00013824
0.00013824
0.00013824
0.00013824
0.00013824
0.00013824
0.00013824
0.00013824
0.00013824
0.00013824
0.00013824
0.00013824
0.00013824
0.00013824
0.00013824
0.00013824
0.00013824
0.00013824
0.00013824
0.00013824
0.00013824
0.00013824
0.00013824
0.000138192
0.00013713
0.000136298
0.000137993
0.000138239
0.00013824
0.00013824
0.00013824
0.00013824
0.00013824
0.00013824
0.00013824
0.00013824
0.00013824
0.00013824
0.00013824
0.00013824
0.00013824
0.00013824
0.00013824
0.00013824
0.00013824
0.00013824
0.00013824
0.00013824
0.00013824
0.00013824
0.00013824
0.00013824
0.00013824
0.00013824
0.00013824
0.00013824
0.00013824
0.00013824
0.00013824
0.00013824
0.00013824
0.00013824
0.00013824
0.00013824
0.00013824
0.00013824
0.00013824
0.00013824
0.00013824
0.00013824
0.00013824
0.00013824
0.00013824
0.00013824
0.00013824
0.00013824
0.00013824
0.00013824
0.00013824
0.00013824
0.00013824
0.00013824
0.00013824
0.00013824
0.00013824
0.00013824
0.00013824
0.00013824
0.00013824
0.00013824
0.00013824
0.00013824
0.00013824
0.00013824
0.00013824
0.00013824
0.00013824
0.00013824
0.00013824
0.00013824
0.00013824
0.00013824
0.00013824
0.00013824
0.00013824
0.00013824
0.00013824
0.00013824
0.00013824
0.00013824
0.00013824
0.00013824
0.00013824
0.00013824
0.00013824
0.00013824
0.00013824
0.00013824
0.00013824
0.00013824
0.00013824
0.00013824
0.00013824
0.00013824
0.00013824
0.00013824
0.00013824
0.00013824
0.00013824
0.00013824
0.00013824
0.00013824
0.00013824
0.00013824
0.00013824
0.00013824
0.00013824
0.00013824
0.00013824
0.00013824
0.00013824
0.00013824
0.00013824
0.00013824
0.00013824
0.00013824
0.00013824
0.00013824
0.00013824
0.00013824
0.00013824
0.00013824
0.00013824
0.00013824
0.00013824
0.00013824
0.00013824
0.00013824
0.00013824
0.00013824
0.00013824
0.00013824
0.00013824
0.00013824
0.00013824
0.00013824
0.00013824
0.00013824
0.00013824
0.00013824
0.00013824
0.00013824
0.00013824
0.00013824
0.00013824
0.00013824
0.00013824
0.00013824
0.00013824
0.00013824
0.00013824
0.00013824
0.00013824
0.00013824
0.00013824
0.00013824
0.00013824
0.00013824
0.00013824
0.00013824
0.00013824
0.00013824
0.00013824
0.00013824
0.00013824
0.00013824
0.00013824
0.00013824
0.00013824
0.00013824
0.00013824
0.00013824
0.00013824
0.00013824
0.00013824
0.00013824
0.00013824
0.00013824
0.00013824
0.00013824
0.00013824
0.00013824
0.00013824
0.00013824
0.00013824
0.00013824
0.00013824
0.00013824
0.00013824
0.00013824
0.00013824
0.00013824
0.00013824
0.00013824
0.00013824
0.00013824
0.00013824
0.00013824
0.00013824
0.00013824
0.00013824
0.00013824
0.00013824
0.00013824
0.00013824
0.00013824
0.00013824
0.00013824
0.00013824
0.00013824
0.00013824
0.00013824
0.00013824
0.00013824
0.00013824
0.00013824
0.00013824
0.00013824
0.00013824
0.00013824
0.00013824
0.00013824
0.00013824
0.00013824
0.00013824
0.00013824
0.00013824
0.00013824
0.00013824
0.00013824
0.00013824
0.00013824
0.00013824
0.00013824
0.00013824
0.00013824
0.00013824
0.00013824
0.00013824
0.00013824
0.00013824
0.00013824
0.00013824
0.00013824
0.00013824
0.00013824
0.00013824
0.00013824
0.00013824
0.00013824
0.00013824
0.00013824
0.00013824
0.00013824
0.00013824
0.00013824
0.00013824
0.00013824
0.00013824
0.00013824
0.00013824
0.00013824
0.00013824
0.00013824
0.00013824
0.00013824
0.00013824
0.00013824
0.00013824
0.00013824
0.00013824
0.00013824
0.00013824
0.00013824
0.00013824
0.00013824
0.00013824
0.00013824
0.00013824
0.00013824
0.00013824
0.00013824
0.00013824
0.00013824
0.00013824
0.00013824
0.00013824
0.00013824
0.00013824
0.00013824
0.00013824
0.00013824
0.00013824
0.00013824
0.00013824
0.00013824
0.00013824
0.00013824
0.00013824
0.00013824
0.00013824
0.00013824
0.00013824
0.00013824
0.00013824
0.00013824
0.00013824
0.00013824
0.00013824
0.00013824
0.00013824
0.00013824
0.00013824
0.00013824
0.00013824
0.00013824
0.00013824
0.00013824
0.00013824
0.00013824
0.00013824
0.00013824
0.00013824
0.00013824
0.00013824
0.00013824
0.00013824
0.00013824
0.00013824
0.00013824
0.00013824
0.00013824
0.00013824
0.00013824
0.00013824
0.00013824
0.00013824
0.00013824
0.00013824
0.00013824
0.00013824
0.00013824
0.00013824
0.00013824
0.00013824
0.00013824
0.00013824
0.00013824
0.00013824
0.00013824
0.00013824
0.00013824
0.00013824
0.00013824
0.00013824
0.00013824
0.00013824
0.00013824
0.00013824
0.00013824
0.00013824
0.00013824
0.00013824
0.00013824
0.00013824
0.00013824
0.00013824
0.00013824
0.00013824
0.00013824
0.00013824
0.00013824
0.00013824
0.00013824
0.00013824
0.00013824
0.00013824
0.00013824
0.00013824
0.00013824
0.00013824
0.00013824
0.00013824
0.00013824
0.00013824
0.00013824
0.00013824
0.00013824
0.00013824
0.00013824
0.00013824
0.00013824
0.00013824
0.00013824
0.00013824
0.00013824
0.00013824
0.00013824
0.00013824
0.00013824
0.00013824
0.00013824
0.00013824
0.00013824
0.00013824
0.00013824
0.00013824
0.00013824
0.00013824
0.00013824
0.00013824
0.00013824
0.00013824
0.00013824
0.00013824
0.00013824
0.00013824
0.00013824
0.00013824
0.00013824
0.00013824
0.00013824
0.00013824
0.00013824
0.00013824
0.00013824
0.00013824
0.00013824
0.00013824
0.00013824
0.00013824
0.00013824
0.00013824
0.00013824
0.00013824
0.00013824
0.00013824
0.00013824
0.00013824
0.00013824
0.00013824
0.00013824
0.00013824
0.00013824
0.00013824
0.00013824
0.00013824
0.00013824
0.00013824
0.00013824
0.00013824
0.00013824
0.00013824
0.00013824
0.00013824
0.00013824
0.00013824
0.00013824
0.00013824
0.00013824
0.00013824
0.00013824
0.00013824
0.00013824
0.00013824
0.00013824
0.00013824
0.00013824
0.00013824
0.00013824
0.00013824
0.00013824
0.00013824
0.00013824
0.00013824
0.00013824
0.00013824
0.00013824
0.00013824
0.00013824
0.00013824
0.00013824
0.00013824
0.00013824
0.00013824
0.00013824
0.00013824
0.00013824
0.00013824
0.00013824
0.00013824
0.00013824
0.00013824
0.00013824
0.00013824
0.00013824
0.00013824
0.00013824
0.00013824
0.00013824
0.00013824
0.00013824
0.00013824
0.00013824
0.00013824
0.00013824
0.00013824
0.00013824
0.00013824
0.00013824
0.00013824
0.00013824
0.00013824
0.00013824
0.00013824
0.00013824
0.00013824
0.00013824
0.00013824
0.00013824
0.00013824
0.00013824
0.00013824
0.00013824
0.00013824
0.00013824
0.00013824
0.00013824
0.00013824
0.00013824
0.00013824
0.00013824
0.00013824
0.00013824
0.00013824
0.00013824
0.00013824
0.00013824
0.00013824
0.00013824
0.00013824
0.00013824
0.00013824
0.00013824
0.00013824
0.00013824
0.00013824
0.00013824
0.00013824
0.00013824
0.00013824
0.00013824
0.00013824
0.00013824
0.00013824
0.00013824
0.00013824
0.00013824
0.00013824
0.00013824
0.00013824
0.00013824
0.00013824
0.00013824
0.00013824
0.00013824
0.00013824
0.00013824
0.00013824
0.00013824
0.00013824
0.00013824
0.00013824
0.00013824
0.00013824
0.00013824
0.00013824
0.00013824
0.00013824
0.00013824
0.00013824
0.00013824
0.00013824
0.00013824
0.00013824
0.00013824
0.00013824
0.00013824
0.00013824
0.00013824
0.00013824
0.00013824
0.00013824
0.00013824
0.00013824
0.00013824
0.00013824
0.00013824
0.00013824
0.00013824
0.00013824
0.00013824
0.00013824
0.00013824
0.00013824
0.00013824
0.00013824
0.00013824
0.00013824
0.00013824
0.00013824
0.00013824
0.00013824
0.00013824
0.00013824
0.00013824
0.00013824
0.00013824
0.00013824
0.00013824
0.00013824
0.00013824
0.00013824
0.00013824
0.00013824
0.00013824
0.00013824
0.00013824
0.00013824
0.00013824
0.00013824
0.00013824
0.00013824
0.00013824
0.00013824
0.00013824
0.00013824
0.00013824
0.00013824
0.00013824
0.00013824
0.00013824
0.00013824
0.00013824
0.00013824
0.00013824
0.00013824
0.00013824
0.00013824
0.00013824
0.00013824
0.00013824
0.00013824
0.00013824
0.00013824
0.00013824
0.00013824
0.00013824
0.00013824
0.00013824
0.00013824
0.00013824
0.00013824
0.00013824
0.00013824
0.00013824
0.00013824
0.00013824
0.00013824
0.00013824
0.00013824
0.00013824
0.00013824
0.00013824
0.00013824
0.00013824
0.00013824
0.00013824
0.00013824
0.00013824
0.00013824
0.00013824
0.00013824
0.00013824
0.00013824