/*--------------------------------*- C++ -*----------------------------------*\
| =========                 |                                                 |
| \\      /  F ield         | OpenFOAM: The Open Source CFD Toolbox           |
|  \\    /   O peration     | Version:  2406                                  |
|   \\  /    A nd           | Website:  www.openfoam.com                      |
|    \\/     M anipulation  |                                                 |
\*---------------------------------------------------------------------------*/
FoamFile
{
    version     2.0;
    format      ascii;
    arch        "LSB;label=32;scalar=64";
    class       volScalarField;
    location    "7.8";
    object      Da;
}
// * * * * * * * * * * * * * * * * * * * * * * * * * * * * * * * * * * * * * //

dimensions      [0 2 -1 0 0 0 0];

internalField   nonuniform List<scalar> 
14400
(
4.78062e-05
4.77768e-05
4.77329e-05
4.76898e-05
4.76556e-05
4.76321e-05
4.76184e-05
4.76131e-05
4.76166e-05
4.76317e-05
4.76628e-05
4.77141e-05
4.77854e-05
4.78652e-05
4.79221e-05
4.79079e-05
4.77922e-05
4.76114e-05
4.74035e-05
4.71832e-05
4.69481e-05
4.66898e-05
4.64024e-05
4.60871e-05
4.57523e-05
4.54121e-05
4.50821e-05
4.47764e-05
4.4506e-05
4.42789e-05
4.41013e-05
4.39805e-05
4.3928e-05
4.39673e-05
4.41529e-05
4.4644e-05
4.6148e-05
5.41903e-05
7.7935e-05
7.8e-05
7.8e-05
7.8e-05
7.8e-05
7.8e-05
7.8e-05
7.8e-05
7.8e-05
7.8e-05
7.8e-05
7.8e-05
7.8e-05
7.8e-05
7.8e-05
7.8e-05
7.8e-05
7.8e-05
7.8e-05
7.8e-05
7.8e-05
7.69192e-05
4.93495e-05
4.56591e-05
4.46963e-05
4.436e-05
4.42726e-05
4.43286e-05
4.44906e-05
4.47448e-05
4.50874e-05
4.55158e-05
4.60225e-05
4.6587e-05
4.71705e-05
4.77191e-05
4.81768e-05
4.85018e-05
4.86744e-05
4.86974e-05
4.85926e-05
4.83975e-05
4.81613e-05
4.79415e-05
4.78053e-05
4.78471e-05
4.82652e-05
4.97939e-05
5.73352e-05
7.78842e-05
6.26188e-05
4.99139e-05
4.77219e-05
4.70014e-05
4.67035e-05
4.65977e-05
4.65999e-05
4.66681e-05
4.67765e-05
4.6906e-05
4.70413e-05
4.71687e-05
4.72759e-05
4.73506e-05
4.73817e-05
4.73606e-05
4.72847e-05
4.71587e-05
4.69926e-05
4.6799e-05
4.65913e-05
4.63833e-05
4.61886e-05
4.60216e-05
4.58982e-05
4.58385e-05
4.58737e-05
4.60625e-05
4.65476e-05
4.78124e-05
5.24408e-05
7.72934e-05
4.76653e-05
4.76087e-05
4.75284e-05
4.74516e-05
4.73908e-05
4.73488e-05
4.73244e-05
4.73159e-05
4.73236e-05
4.73503e-05
4.74011e-05
4.74818e-05
4.75952e-05
4.77319e-05
4.78534e-05
4.78771e-05
4.77212e-05
4.7482e-05
4.72288e-05
4.69814e-05
4.67349e-05
4.64779e-05
4.6202e-05
4.59059e-05
4.55953e-05
4.52811e-05
4.49765e-05
4.4694e-05
4.44439e-05
4.42342e-05
4.40719e-05
4.39652e-05
4.39273e-05
4.39843e-05
4.41975e-05
4.47564e-05
4.66252e-05
5.96674e-05
7.79953e-05
7.8e-05
7.8e-05
7.8e-05
7.8e-05
7.8e-05
7.8e-05
7.8e-05
7.8e-05
7.8e-05
7.8e-05
7.8e-05
7.8e-05
7.8e-05
7.8e-05
7.8e-05
7.8e-05
7.8e-05
7.8e-05
7.8e-05
7.8e-05
7.78546e-05
5.26723e-05
4.60919e-05
4.47999e-05
4.43928e-05
4.4276e-05
4.43121e-05
4.44553e-05
4.46884e-05
4.50048e-05
4.54003e-05
4.58664e-05
4.63838e-05
4.69183e-05
4.74226e-05
4.78467e-05
4.81514e-05
4.83175e-05
4.83468e-05
4.82598e-05
4.80925e-05
4.78915e-05
4.77117e-05
4.76185e-05
4.77088e-05
4.82037e-05
5.00443e-05
6.09707e-05
7.79833e-05
6.82793e-05
5.03428e-05
4.77734e-05
4.69575e-05
4.66103e-05
4.64698e-05
4.64436e-05
4.64872e-05
4.65742e-05
4.66865e-05
4.68097e-05
4.6931e-05
4.70379e-05
4.7117e-05
4.71539e-05
4.71371e-05
4.70624e-05
4.69367e-05
4.67733e-05
4.65873e-05
4.63928e-05
4.62027e-05
4.60295e-05
4.5886e-05
4.57873e-05
4.57537e-05
4.58187e-05
4.60501e-05
4.66301e-05
4.83398e-05
5.7327e-05
7.79494e-05
4.74958e-05
4.73695e-05
4.72083e-05
4.70649e-05
4.69558e-05
4.68817e-05
4.68391e-05
4.6825e-05
4.6839e-05
4.68841e-05
4.69674e-05
4.70992e-05
4.72917e-05
4.75493e-05
4.78377e-05
4.7997e-05
4.7691e-05
4.72961e-05
4.69427e-05
4.66418e-05
4.63738e-05
4.61181e-05
4.58607e-05
4.55956e-05
4.53241e-05
4.50527e-05
4.47906e-05
4.45476e-05
4.43329e-05
4.41544e-05
4.40204e-05
4.39408e-05
4.39321e-05
4.40266e-05
4.4301e-05
4.5e-05
4.74614e-05
6.93792e-05
7.8e-05
7.8e-05
7.8e-05
7.8e-05
7.8e-05
7.8e-05
7.8e-05
7.8e-05
7.8e-05
7.8e-05
7.8e-05
7.8e-05
7.8e-05
7.8e-05
7.8e-05
7.8e-05
7.8e-05
7.8e-05
7.8e-05
7.8e-05
7.8e-05
7.79982e-05
6.17238e-05
4.69339e-05
4.49995e-05
4.4462e-05
4.42885e-05
4.42856e-05
4.4393e-05
4.4587e-05
4.48566e-05
4.51943e-05
4.55902e-05
4.60269e-05
4.64768e-05
4.69027e-05
4.72649e-05
4.75311e-05
4.76839e-05
4.77243e-05
4.76704e-05
4.75541e-05
4.74172e-05
4.731e-05
4.72962e-05
4.74786e-05
4.81141e-05
5.04478e-05
6.75829e-05
7.79997e-05
7.57079e-05
5.14457e-05
4.8003e-05
4.6929e-05
4.64701e-05
4.62617e-05
4.61842e-05
4.61854e-05
4.6237e-05
4.63214e-05
4.64257e-05
4.65385e-05
4.66472e-05
4.67364e-05
4.67862e-05
4.67777e-05
4.67032e-05
4.65748e-05
4.64132e-05
4.62375e-05
4.60629e-05
4.59011e-05
4.57626e-05
4.56583e-05
4.56022e-05
4.56158e-05
4.57378e-05
4.60525e-05
4.6808e-05
4.9275e-05
6.77353e-05
7.79998e-05
4.7531e-05
4.72221e-05
4.69038e-05
4.66555e-05
4.64799e-05
4.63652e-05
4.63006e-05
4.62794e-05
4.62997e-05
4.63654e-05
4.64868e-05
4.66836e-05
4.69901e-05
4.74625e-05
4.81752e-05
4.90303e-05
4.7965e-05
4.71742e-05
4.66395e-05
4.62573e-05
4.59581e-05
4.57007e-05
4.54616e-05
4.52293e-05
4.50002e-05
4.47761e-05
4.45624e-05
4.43659e-05
4.41943e-05
4.40556e-05
4.39592e-05
4.39182e-05
4.39548e-05
4.41148e-05
4.4516e-05
4.55901e-05
5.00661e-05
7.75036e-05
7.8e-05
7.8e-05
7.8e-05
7.8e-05
7.8e-05
7.8e-05
7.8e-05
7.8e-05
7.8e-05
7.8e-05
7.8e-05
7.8e-05
7.8e-05
7.8e-05
7.8e-05
7.8e-05
7.8e-05
7.8e-05
7.8e-05
7.8e-05
7.8e-05
7.8e-05
7.28644e-05
4.81003e-05
4.53493e-05
4.4594e-05
4.43258e-05
4.42623e-05
4.43183e-05
4.44596e-05
4.46693e-05
4.49362e-05
4.52487e-05
4.55914e-05
4.59426e-05
4.62756e-05
4.65623e-05
4.67794e-05
4.69142e-05
4.69677e-05
4.69547e-05
4.69015e-05
4.68441e-05
4.68287e-05
4.69216e-05
4.7246e-05
4.81409e-05
5.12211e-05
7.49314e-05
7.8e-05
7.7995e-05
6.20001e-05
4.90557e-05
4.70421e-05
4.63605e-05
4.60466e-05
4.58995e-05
4.5848e-05
4.58584e-05
4.59122e-05
4.59978e-05
4.6105e-05
4.62219e-05
4.63308e-05
4.6404e-05
4.64095e-05
4.63292e-05
4.61887e-05
4.60206e-05
4.58502e-05
4.56935e-05
4.55607e-05
4.54601e-05
4.54012e-05
4.53983e-05
4.54764e-05
4.56865e-05
4.6152e-05
4.72788e-05
5.13163e-05
7.70147e-05
7.8e-05
4.84579e-05
4.74226e-05
4.67538e-05
4.63355e-05
4.60703e-05
4.59064e-05
4.58165e-05
4.57869e-05
4.58131e-05
4.59e-05
4.60639e-05
4.63403e-05
4.6812e-05
4.7699e-05
4.98599e-05
5.76798e-05
4.92815e-05
4.7276e-05
4.64122e-05
4.59124e-05
4.5569e-05
4.53022e-05
4.50752e-05
4.48697e-05
4.46775e-05
4.44965e-05
4.43286e-05
4.41782e-05
4.40516e-05
4.39568e-05
4.39049e-05
4.39136e-05
4.40153e-05
4.42853e-05
4.49608e-05
4.73164e-05
6.81175e-05
7.8e-05
7.8e-05
7.8e-05
7.8e-05
7.8e-05
7.8e-05
7.8e-05
7.8e-05
7.8e-05
7.8e-05
7.8e-05
7.8e-05
7.8e-05
7.8e-05
7.8e-05
7.8e-05
7.8e-05
7.8e-05
7.8e-05
7.8e-05
7.8e-05
7.8e-05
7.8e-05
7.79759e-05
5.58823e-05
4.6357e-05
4.4873e-05
4.44186e-05
4.4262e-05
4.42497e-05
4.43281e-05
4.44718e-05
4.46651e-05
4.48948e-05
4.5147e-05
4.54052e-05
4.56509e-05
4.58659e-05
4.60354e-05
4.61519e-05
4.62176e-05
4.62444e-05
4.62537e-05
4.62767e-05
4.63591e-05
4.65799e-05
4.71282e-05
4.87955e-05
5.84752e-05
7.79704e-05
7.8e-05
7.8e-05
7.59357e-05
5.08982e-05
4.74422e-05
4.6384e-05
4.59063e-05
4.56652e-05
4.55516e-05
4.55184e-05
4.55438e-05
4.56159e-05
4.57263e-05
4.58643e-05
4.6012e-05
4.61302e-05
4.61635e-05
4.60595e-05
4.5884e-05
4.56901e-05
4.55111e-05
4.53625e-05
4.52521e-05
4.51863e-05
4.51741e-05
4.52323e-05
4.53955e-05
4.57469e-05
4.65425e-05
4.90811e-05
6.85966e-05
7.79999e-05
7.8e-05
5.53385e-05
4.86834e-05
4.69444e-05
4.62024e-05
4.58011e-05
4.55703e-05
4.54486e-05
4.54084e-05
4.54411e-05
4.55532e-05
4.57703e-05
4.6156e-05
4.69048e-05
4.88908e-05
6.02064e-05
7.7808e-05
5.44908e-05
4.78803e-05
4.63529e-05
4.56722e-05
4.52613e-05
4.49716e-05
4.47459e-05
4.45572e-05
4.43925e-05
4.42464e-05
4.4118e-05
4.40097e-05
4.39269e-05
4.38782e-05
4.38776e-05
4.39502e-05
4.41476e-05
4.4611e-05
4.5963e-05
5.3598e-05
7.79375e-05
7.8e-05
7.8e-05
7.8e-05
7.8e-05
7.8e-05
7.8e-05
7.8e-05
7.8e-05
7.8e-05
7.8e-05
7.8e-05
7.8e-05
7.8e-05
7.8e-05
7.8e-05
7.8e-05
7.8e-05
7.8e-05
7.8e-05
7.8e-05
7.8e-05
7.8e-05
7.8e-05
7.8e-05
7.38552e-05
4.82746e-05
4.54053e-05
4.46137e-05
4.43112e-05
4.42083e-05
4.42141e-05
4.42892e-05
4.44119e-05
4.45669e-05
4.47412e-05
4.4922e-05
4.50966e-05
4.52537e-05
4.53849e-05
4.5487e-05
4.55635e-05
4.56248e-05
4.56898e-05
4.57881e-05
4.59701e-05
4.634e-05
4.71954e-05
4.99865e-05
7.20264e-05
7.8e-05
7.8e-05
7.8e-05
7.79999e-05
6.86388e-05
4.94193e-05
4.68039e-05
4.59512e-05
4.55535e-05
4.53567e-05
4.5274e-05
4.52733e-05
4.5341e-05
4.54706e-05
4.56554e-05
4.58855e-05
4.61059e-05
4.62226e-05
4.60291e-05
4.57599e-05
4.54971e-05
4.52826e-05
4.51247e-05
4.50261e-05
4.49902e-05
4.50272e-05
4.51613e-05
4.54492e-05
4.60588e-05
4.77604e-05
5.72949e-05
7.79725e-05
7.8e-05
7.8e-05
7.78025e-05
5.50781e-05
4.80065e-05
4.64092e-05
4.57479e-05
4.54057e-05
4.5236e-05
4.51805e-05
4.52228e-05
4.53724e-05
4.56743e-05
4.62438e-05
4.75625e-05
5.27077e-05
7.76184e-05
7.8e-05
7.29636e-05
4.96342e-05
4.66211e-05
4.56044e-05
4.50747e-05
4.47382e-05
4.44983e-05
4.43143e-05
4.41667e-05
4.40466e-05
4.39509e-05
4.38807e-05
4.3841e-05
4.38424e-05
4.39046e-05
4.40684e-05
4.44284e-05
4.52927e-05
4.83868e-05
7.57132e-05
7.8e-05
7.8e-05
7.8e-05
7.8e-05
7.8e-05
7.8e-05
7.8e-05
7.8e-05
7.8e-05
7.8e-05
7.8e-05
7.8e-05
7.8e-05
7.8e-05
7.8e-05
7.8e-05
7.8e-05
7.8e-05
7.8e-05
7.8e-05
7.8e-05
7.8e-05
7.8e-05
7.8e-05
7.8e-05
7.79993e-05
6.31412e-05
4.70912e-05
4.50588e-05
4.44577e-05
4.42206e-05
4.41391e-05
4.41428e-05
4.41988e-05
4.42885e-05
4.43987e-05
4.45187e-05
4.46395e-05
4.47539e-05
4.48578e-05
4.4951e-05
4.50382e-05
4.51304e-05
4.52466e-05
4.54198e-05
4.57156e-05
4.63039e-05
4.79216e-05
5.7004e-05
7.79617e-05
7.8e-05
7.8e-05
7.8e-05
7.8e-05
7.79957e-05
6.13237e-05
4.85637e-05
4.64114e-05
4.5665e-05
4.53291e-05
4.51759e-05
4.51478e-05
4.52246e-05
4.54062e-05
4.56969e-05
4.61435e-05
4.66679e-05
4.72652e-05
4.65514e-05
4.59906e-05
4.55368e-05
4.52273e-05
4.50286e-05
4.49272e-05
4.49183e-05
4.50168e-05
4.52695e-05
4.57916e-05
4.70126e-05
5.17538e-05
7.75578e-05
7.8e-05
7.8e-05
7.8e-05
7.8e-05
7.76073e-05
5.26368e-05
4.74972e-05
4.60937e-05
4.5496e-05
4.52361e-05
4.5153e-05
4.52142e-05
4.54372e-05
4.59299e-05
4.69599e-05
5.03905e-05
7.61785e-05
7.8e-05
7.8e-05
7.79977e-05
6.21616e-05
4.80201e-05
4.58525e-05
4.50593e-05
4.46288e-05
4.43511e-05
4.41564e-05
4.40147e-05
4.39126e-05
4.38446e-05
4.3811e-05
4.38176e-05
4.38802e-05
4.40317e-05
4.43583e-05
4.51235e-05
4.77537e-05
7.08205e-05
7.8e-05
7.8e-05
7.8e-05
7.8e-05
7.8e-05
7.8e-05
7.8e-05
7.8e-05
7.8e-05
7.8e-05
7.8e-05
7.8e-05
7.8e-05
7.8e-05
7.8e-05
7.8e-05
7.8e-05
7.8e-05
7.8e-05
7.8e-05
7.8e-05
7.8e-05
7.8e-05
7.8e-05
7.8e-05
7.8e-05
7.8e-05
7.79127e-05
5.31052e-05
4.60983e-05
4.47844e-05
4.43257e-05
4.41292e-05
4.40527e-05
4.40427e-05
4.40735e-05
4.41302e-05
4.42026e-05
4.42832e-05
4.43674e-05
4.44535e-05
4.45432e-05
4.46435e-05
4.47673e-05
4.49379e-05
4.52e-05
4.56551e-05
4.66106e-05
4.96925e-05
7.44867e-05
7.8e-05
7.8e-05
7.8e-05
7.8e-05
7.8e-05
7.8e-05
7.79847e-05
5.90843e-05
4.83556e-05
4.6275e-05
4.56084e-05
4.5311e-05
4.52429e-05
4.53559e-05
4.5684e-05
4.62675e-05
4.76631e-05
4.9567e-05
5.53895e-05
4.92393e-05
4.73115e-05
4.6064e-05
4.54744e-05
4.51572e-05
4.50276e-05
4.50487e-05
4.5252e-05
4.5782e-05
4.70474e-05
5.09506e-05
7.69933e-05
7.8e-05
7.8e-05
7.8e-05
7.8e-05
7.8e-05
7.8e-05
7.75421e-05
5.33601e-05
4.77611e-05
4.61146e-05
4.56232e-05
4.54673e-05
4.55825e-05
4.60025e-05
4.72491e-05
5.04473e-05
7.55713e-05
7.8e-05
7.8e-05
7.8e-05
7.8e-05
7.78601e-05
5.33326e-05
4.67924e-05
4.53234e-05
4.46941e-05
4.43332e-05
4.41045e-05
4.39543e-05
4.38624e-05
4.38205e-05
4.3828e-05
4.38941e-05
4.4049e-05
4.43588e-05
4.50875e-05
4.75612e-05
6.72973e-05
7.8e-05
7.8e-05
7.8e-05
7.8e-05
7.8e-05
7.8e-05
7.8e-05
7.8e-05
7.8e-05
7.8e-05
7.8e-05
7.8e-05
7.8e-05
7.8e-05
7.8e-05
7.8e-05
7.8e-05
7.8e-05
7.8e-05
7.8e-05
7.8e-05
7.8e-05
7.8e-05
7.8e-05
7.8e-05
7.8e-05
7.8e-05
7.8e-05
7.8e-05
7.68291e-05
4.90144e-05
4.55413e-05
4.46107e-05
4.42289e-05
4.40469e-05
4.39618e-05
4.39334e-05
4.39416e-05
4.39744e-05
4.40241e-05
4.40868e-05
4.41625e-05
4.42547e-05
4.43732e-05
4.45362e-05
4.4778e-05
4.51761e-05
4.59621e-05
4.82972e-05
6.53592e-05
7.79996e-05
7.8e-05
7.8e-05
7.8e-05
7.8e-05
7.8e-05
7.8e-05
7.8e-05
7.79875e-05
6.28001e-05
4.88767e-05
4.67729e-05
4.59484e-05
4.57896e-05
4.60175e-05
4.69903e-05
4.88776e-05
5.95935e-05
7.57692e-05
7.79431e-05
7.47445e-05
5.6556e-05
4.84535e-05
4.65252e-05
4.5765e-05
4.55424e-05
4.56146e-05
4.60828e-05
4.78683e-05
5.42248e-05
7.73163e-05
7.8e-05
7.8e-05
7.8e-05
7.8e-05
7.8e-05
7.8e-05
7.8e-05
7.8e-05
7.78314e-05
6.03928e-05
4.87818e-05
4.7311e-05
4.67444e-05
4.71653e-05
4.84729e-05
5.6133e-05
7.6959e-05
7.8e-05
7.8e-05
7.8e-05
7.8e-05
7.8e-05
7.8e-05
7.72106e-05
5.03236e-05
4.62872e-05
4.50923e-05
4.45195e-05
4.42056e-05
4.40203e-05
4.39294e-05
4.39187e-05
4.39881e-05
4.41545e-05
4.45077e-05
4.52121e-05
4.77147e-05
6.76066e-05
7.79999e-05
7.8e-05
7.8e-05
7.8e-05
7.8e-05
7.8e-05
7.8e-05
7.8e-05
7.8e-05
7.8e-05
7.8e-05
7.8e-05
7.8e-05
7.8e-05
7.8e-05
7.8e-05
7.8e-05
7.8e-05
7.8e-05
7.8e-05
7.8e-05
7.8e-05
7.8e-05
7.8e-05
7.8e-05
7.8e-05
7.8e-05
7.8e-05
7.8e-05
7.8e-05
7.8e-05
7.46904e-05
4.83119e-05
4.53767e-05
4.45466e-05
4.41806e-05
4.39869e-05
4.38857e-05
4.38424e-05
4.38378e-05
4.38611e-05
4.39082e-05
4.39798e-05
4.40818e-05
4.42287e-05
4.44506e-05
4.48074e-05
4.54663e-05
4.71796e-05
5.64873e-05
7.79716e-05
7.8e-05
7.8e-05
7.8e-05
7.8e-05
7.8e-05
7.8e-05
7.8e-05
7.8e-05
7.8e-05
7.79985e-05
7.18591e-05
5.34154e-05
4.85596e-05
4.80977e-05
4.87469e-05
5.54983e-05
7.24529e-05
7.7993e-05
7.8e-05
7.8e-05
7.8e-05
7.7971e-05
7.01221e-05
5.19706e-05
4.8256e-05
4.76521e-05
4.79182e-05
4.94595e-05
6.56245e-05
7.79157e-05
7.8e-05
7.8e-05
7.8e-05
7.8e-05
7.8e-05
7.8e-05
7.8e-05
7.8e-05
7.8e-05
7.8e-05
7.79955e-05
7.24496e-05
5.95691e-05
5.33989e-05
5.78603e-05
7.03492e-05
7.79654e-05
7.8e-05
7.8e-05
7.8e-05
7.8e-05
7.8e-05
7.8e-05
7.8e-05
7.8e-05
7.69651e-05
5.07919e-05
4.66192e-05
4.51651e-05
4.46025e-05
4.43027e-05
4.41951e-05
4.42415e-05
4.44569e-05
4.48699e-05
4.60361e-05
4.84542e-05
7.17709e-05
7.8e-05
7.8e-05
7.8e-05
7.8e-05
7.8e-05
7.8e-05
7.8e-05
7.8e-05
7.8e-05
7.8e-05
7.8e-05
7.8e-05
7.8e-05
7.8e-05
7.8e-05
7.8e-05
7.8e-05
7.8e-05
7.8e-05
7.8e-05
7.8e-05
7.8e-05
7.8e-05
7.8e-05
7.8e-05
7.8e-05
7.8e-05
7.8e-05
7.8e-05
7.8e-05
7.8e-05
7.8e-05
7.8e-05
7.37245e-05
4.82907e-05
4.54597e-05
4.46084e-05
4.41899e-05
4.39688e-05
4.38561e-05
4.38081e-05
4.38043e-05
4.38389e-05
4.39136e-05
4.40369e-05
4.42338e-05
4.45654e-05
4.51669e-05
4.65392e-05
5.20478e-05
7.77537e-05
7.8e-05
7.8e-05
7.8e-05
7.8e-05
7.8e-05
7.8e-05
7.8e-05
7.8e-05
7.8e-05
7.8e-05
7.8e-05
7.8e-05
7.78734e-05
7.28525e-05
6.9142e-05
7.39847e-05
7.79545e-05
7.8e-05
7.8e-05
7.8e-05
7.8e-05
7.8e-05
7.8e-05
7.8e-05
7.77418e-05
7.11327e-05
6.51459e-05
6.85981e-05
7.65501e-05
7.79997e-05
7.8e-05
7.8e-05
7.8e-05
7.8e-05
7.8e-05
7.8e-05
7.8e-05
7.8e-05
7.8e-05
7.8e-05
7.8e-05
7.8e-05
7.8e-05
7.79927e-05
7.78578e-05
7.79834e-05
7.8e-05
7.8e-05
7.8e-05
7.8e-05
7.8e-05
7.8e-05
7.8e-05
7.8e-05
7.8e-05
7.8e-05
7.8e-05
7.75994e-05
5.71933e-05
4.76861e-05
4.59687e-05
4.51072e-05
4.49263e-05
4.51516e-05
4.60718e-05
4.75088e-05
5.67503e-05
7.64635e-05
7.8e-05
7.8e-05
7.8e-05
7.8e-05
7.8e-05
7.8e-05
7.8e-05
7.8e-05
7.8e-05
7.8e-05
7.8e-05
7.8e-05
7.8e-05
7.8e-05
7.8e-05
7.8e-05
7.8e-05
7.8e-05
7.8e-05
7.8e-05
7.8e-05
7.8e-05
7.8e-05
7.8e-05
7.8e-05
7.8e-05
7.8e-05
7.8e-05
7.8e-05
7.8e-05
7.8e-05
7.8e-05
7.8e-05
7.8e-05
7.8e-05
7.52244e-05
4.92692e-05
4.60589e-05
4.48028e-05
4.42855e-05
4.40467e-05
4.39319e-05
4.38893e-05
4.39117e-05
4.40023e-05
4.41722e-05
4.44714e-05
4.5086e-05
4.65509e-05
5.15172e-05
7.75347e-05
7.8e-05
7.8e-05
7.8e-05
7.8e-05
7.8e-05
7.8e-05
7.8e-05
7.8e-05
7.8e-05
7.8e-05
7.8e-05
7.8e-05
7.8e-05
7.8e-05
7.8e-05
7.8e-05
7.8e-05
7.8e-05
7.8e-05
7.8e-05
7.8e-05
7.8e-05
7.8e-05
7.8e-05
7.8e-05
7.8e-05
7.8e-05
7.79996e-05
7.8e-05
7.8e-05
7.8e-05
7.8e-05
7.8e-05
7.8e-05
7.8e-05
7.8e-05
7.8e-05
7.8e-05
7.8e-05
7.8e-05
7.8e-05
7.8e-05
7.8e-05
7.8e-05
7.8e-05
7.8e-05
7.8e-05
7.8e-05
7.8e-05
7.8e-05
7.8e-05
7.8e-05
7.8e-05
7.8e-05
7.8e-05
7.8e-05
7.8e-05
7.8e-05
7.8e-05
7.79873e-05
7.04125e-05
5.43818e-05
4.80965e-05
4.76151e-05
4.87302e-05
5.76162e-05
7.18192e-05
7.79886e-05
7.8e-05
7.8e-05
7.8e-05
7.8e-05
7.8e-05
7.8e-05
7.8e-05
7.8e-05
7.8e-05
7.8e-05
7.8e-05
7.8e-05
7.8e-05
7.8e-05
7.8e-05
7.8e-05
7.8e-05
7.8e-05
7.8e-05
7.8e-05
7.8e-05
7.8e-05
7.8e-05
7.8e-05
7.8e-05
7.8e-05
7.8e-05
7.8e-05
7.8e-05
7.8e-05
7.8e-05
7.8e-05
7.8e-05
7.8e-05
7.8e-05
7.8e-05
7.8e-05
7.72869e-05
5.56398e-05
4.71062e-05
4.52108e-05
4.46309e-05
4.43622e-05
4.42262e-05
4.42277e-05
4.43757e-05
4.46766e-05
4.52464e-05
4.71663e-05
5.52038e-05
7.7719e-05
7.8e-05
7.8e-05
7.8e-05
7.8e-05
7.8e-05
7.8e-05
7.8e-05
7.8e-05
7.8e-05
7.8e-05
7.8e-05
7.8e-05
7.8e-05
7.8e-05
7.8e-05
7.8e-05
7.8e-05
7.8e-05
7.8e-05
7.8e-05
7.8e-05
7.8e-05
7.8e-05
7.8e-05
7.8e-05
7.8e-05
7.8e-05
7.8e-05
7.8e-05
7.8e-05
7.8e-05
7.8e-05
7.8e-05
7.8e-05
7.8e-05
7.8e-05
7.8e-05
7.8e-05
7.8e-05
7.8e-05
7.8e-05
7.8e-05
7.8e-05
7.8e-05
7.8e-05
7.8e-05
7.8e-05
7.8e-05
7.8e-05
7.8e-05
7.8e-05
7.8e-05
7.8e-05
7.8e-05
7.8e-05
7.8e-05
7.8e-05
7.8e-05
7.8e-05
7.8e-05
7.8e-05
7.8e-05
7.79553e-05
7.58075e-05
7.43325e-05
7.69862e-05
7.79912e-05
7.8e-05
7.8e-05
7.8e-05
7.8e-05
7.8e-05
7.8e-05
7.8e-05
7.8e-05
7.8e-05
7.8e-05
7.8e-05
7.8e-05
7.8e-05
7.8e-05
7.8e-05
7.8e-05
7.8e-05
7.8e-05
7.8e-05
7.8e-05
7.8e-05
7.8e-05
7.8e-05
7.8e-05
7.8e-05
7.8e-05
7.8e-05
7.8e-05
7.8e-05
7.8e-05
7.8e-05
7.8e-05
7.8e-05
7.8e-05
7.8e-05
7.8e-05
7.8e-05
7.8e-05
7.8e-05
7.8e-05
7.79802e-05
6.83701e-05
4.90257e-05
4.68509e-05
4.58643e-05
4.5246e-05
4.51655e-05
4.56261e-05
4.66339e-05
4.8277e-05
6.53079e-05
7.79674e-05
7.8e-05
7.8e-05
7.8e-05
7.8e-05
7.8e-05
7.8e-05
7.8e-05
7.8e-05
7.8e-05
7.8e-05
7.8e-05
7.8e-05
7.8e-05
7.8e-05
7.8e-05
7.8e-05
7.8e-05
7.8e-05
7.8e-05
7.8e-05
7.8e-05
7.8e-05
7.8e-05
7.8e-05
7.8e-05
7.8e-05
7.8e-05
7.8e-05
7.8e-05
7.8e-05
7.8e-05
7.8e-05
7.8e-05
7.8e-05
7.8e-05
7.8e-05
7.8e-05
7.8e-05
7.8e-05
7.8e-05
7.8e-05
7.8e-05
7.8e-05
7.8e-05
7.8e-05
7.8e-05
7.8e-05
7.8e-05
7.8e-05
7.8e-05
7.8e-05
7.8e-05
7.8e-05
7.8e-05
7.8e-05
7.8e-05
7.8e-05
7.8e-05
7.8e-05
7.8e-05
7.8e-05
7.8e-05
7.8e-05
7.8e-05
7.8e-05
7.8e-05
7.8e-05
7.8e-05
7.8e-05
7.8e-05
7.8e-05
7.8e-05
7.8e-05
7.8e-05
7.8e-05
7.8e-05
7.8e-05
7.8e-05
7.8e-05
7.8e-05
7.8e-05
7.8e-05
7.8e-05
7.8e-05
7.8e-05
7.8e-05
7.8e-05
7.8e-05
7.8e-05
7.8e-05
7.8e-05
7.8e-05
7.8e-05
7.8e-05
7.8e-05
7.8e-05
7.8e-05
7.8e-05
7.8e-05
7.8e-05
7.8e-05
7.8e-05
7.8e-05
7.8e-05
7.8e-05
7.8e-05
7.8e-05
7.8e-05
7.8e-05
7.8e-05
7.723e-05
6.7243e-05
5.56233e-05
4.96093e-05
4.88722e-05
5.23565e-05
6.32637e-05
7.55359e-05
7.79998e-05
7.8e-05
7.8e-05
7.8e-05
7.8e-05
7.8e-05
7.8e-05
7.8e-05
7.8e-05
7.8e-05
7.8e-05
7.8e-05
7.8e-05
7.8e-05
7.8e-05
7.8e-05
7.8e-05
7.8e-05
7.8e-05
7.8e-05
7.8e-05
7.8e-05
7.8e-05
7.8e-05
7.8e-05
7.8e-05
7.8e-05
7.8e-05
7.8e-05
7.8e-05
7.8e-05
7.8e-05
7.8e-05
7.8e-05
7.8e-05
7.8e-05
7.8e-05
7.8e-05
7.8e-05
7.8e-05
7.8e-05
7.8e-05
7.8e-05
7.8e-05
7.8e-05
7.8e-05
7.8e-05
7.8e-05
7.8e-05
7.8e-05
7.8e-05
7.8e-05
7.8e-05
7.8e-05
7.8e-05
7.8e-05
7.8e-05
7.8e-05
7.8e-05
7.8e-05
7.8e-05
7.8e-05
7.8e-05
7.8e-05
7.8e-05
7.8e-05
7.8e-05
7.8e-05
7.8e-05
7.8e-05
7.8e-05
7.8e-05
7.8e-05
7.8e-05
7.8e-05
7.8e-05
7.8e-05
7.8e-05
7.8e-05
7.8e-05
7.8e-05
7.8e-05
7.8e-05
7.8e-05
7.8e-05
7.8e-05
7.8e-05
7.8e-05
7.8e-05
7.8e-05
7.8e-05
7.8e-05
7.8e-05
7.8e-05
7.8e-05
7.8e-05
7.8e-05
7.8e-05
7.8e-05
7.8e-05
7.8e-05
7.8e-05
7.8e-05
7.8e-05
7.8e-05
7.8e-05
7.8e-05
7.8e-05
7.8e-05
7.8e-05
7.8e-05
7.8e-05
7.8e-05
7.79999e-05
7.79773e-05
7.74752e-05
7.70896e-05
7.78828e-05
7.79994e-05
7.8e-05
7.8e-05
7.8e-05
7.8e-05
7.8e-05
7.8e-05
7.8e-05
7.8e-05
7.8e-05
7.8e-05
7.8e-05
7.8e-05
7.8e-05
7.8e-05
7.8e-05
7.8e-05
7.8e-05
7.8e-05
7.8e-05
7.8e-05
7.8e-05
7.8e-05
7.8e-05
7.8e-05
7.8e-05
7.8e-05
7.8e-05
7.8e-05
7.8e-05
7.8e-05
7.8e-05
7.8e-05
7.8e-05
7.8e-05
7.8e-05
7.8e-05
7.8e-05
7.8e-05
7.8e-05
7.8e-05
7.8e-05
7.8e-05
7.8e-05
7.8e-05
7.8e-05
7.8e-05
7.8e-05
7.8e-05
7.8e-05
7.8e-05
7.8e-05
7.8e-05
7.8e-05
7.8e-05
7.8e-05
7.8e-05
7.8e-05
7.8e-05
7.8e-05
7.8e-05
7.8e-05
7.8e-05
7.8e-05
7.8e-05
7.8e-05
7.8e-05
7.8e-05
7.8e-05
7.8e-05
7.8e-05
7.8e-05
7.8e-05
7.8e-05
7.8e-05
7.8e-05
7.8e-05
7.8e-05
7.8e-05
7.8e-05
7.8e-05
7.8e-05
7.8e-05
7.8e-05
7.8e-05
7.8e-05
7.8e-05
7.8e-05
7.8e-05
7.8e-05
7.8e-05
7.8e-05
7.8e-05
7.8e-05
7.8e-05
7.8e-05
7.8e-05
7.8e-05
7.8e-05
7.8e-05
7.8e-05
7.8e-05
7.8e-05
7.8e-05
7.8e-05
7.8e-05
7.8e-05
7.8e-05
7.8e-05
7.8e-05
7.8e-05
7.8e-05
7.8e-05
7.8e-05
7.8e-05
7.8e-05
7.8e-05
7.8e-05
7.8e-05
7.8e-05
7.8e-05
7.8e-05
7.8e-05
7.8e-05
7.8e-05
7.8e-05
7.8e-05
7.8e-05
7.8e-05
7.8e-05
7.8e-05
7.8e-05
7.8e-05
7.8e-05
7.8e-05
7.8e-05
7.8e-05
7.8e-05
7.8e-05
7.8e-05
7.8e-05
7.8e-05
7.8e-05
7.8e-05
7.8e-05
7.8e-05
7.8e-05
7.8e-05
7.8e-05
7.8e-05
7.8e-05
7.8e-05
7.8e-05
7.8e-05
7.8e-05
7.8e-05
7.8e-05
7.8e-05
7.8e-05
7.8e-05
7.8e-05
7.8e-05
7.8e-05
7.8e-05
7.8e-05
7.8e-05
7.8e-05
7.8e-05
7.8e-05
7.8e-05
7.8e-05
7.8e-05
7.8e-05
7.8e-05
7.8e-05
7.8e-05
7.8e-05
7.8e-05
7.8e-05
7.8e-05
7.8e-05
7.8e-05
7.8e-05
7.8e-05
7.8e-05
7.8e-05
7.8e-05
7.8e-05
7.8e-05
7.8e-05
7.8e-05
7.8e-05
7.8e-05
7.8e-05
7.8e-05
7.8e-05
7.8e-05
7.8e-05
7.8e-05
7.8e-05
7.8e-05
7.8e-05
7.8e-05
7.8e-05
7.8e-05
7.8e-05
7.8e-05
7.8e-05
7.8e-05
7.8e-05
7.8e-05
7.8e-05
7.8e-05
7.8e-05
7.8e-05
7.8e-05
7.8e-05
7.8e-05
7.8e-05
7.8e-05
7.8e-05
7.8e-05
7.8e-05
7.8e-05
7.8e-05
7.8e-05
7.8e-05
7.8e-05
7.8e-05
7.8e-05
7.8e-05
7.8e-05
7.8e-05
7.8e-05
7.8e-05
7.8e-05
7.8e-05
7.8e-05
7.8e-05
7.8e-05
7.8e-05
7.8e-05
7.8e-05
7.8e-05
7.8e-05
7.8e-05
7.8e-05
7.8e-05
7.8e-05
7.8e-05
7.8e-05
7.8e-05
7.8e-05
7.8e-05
7.8e-05
7.8e-05
7.8e-05
7.8e-05
7.8e-05
7.8e-05
7.8e-05
7.8e-05
7.8e-05
7.8e-05
7.8e-05
7.8e-05
7.8e-05
7.8e-05
7.8e-05
7.8e-05
7.8e-05
7.8e-05
7.8e-05
7.8e-05
7.8e-05
7.8e-05
7.8e-05
7.8e-05
7.8e-05
7.8e-05
7.8e-05
7.8e-05
7.8e-05
7.8e-05
7.8e-05
7.8e-05
7.8e-05
7.8e-05
7.8e-05
7.8e-05
7.8e-05
7.8e-05
7.8e-05
7.8e-05
7.8e-05
7.8e-05
7.8e-05
7.8e-05
7.8e-05
7.8e-05
7.8e-05
7.8e-05
7.8e-05
7.8e-05
7.8e-05
7.8e-05
7.8e-05
7.8e-05
7.8e-05
7.8e-05
7.8e-05
7.8e-05
7.8e-05
7.8e-05
7.8e-05
7.8e-05
7.8e-05
7.8e-05
7.8e-05
7.8e-05
7.8e-05
7.8e-05
7.8e-05
7.8e-05
7.8e-05
7.8e-05
7.8e-05
7.8e-05
7.8e-05
7.8e-05
7.8e-05
7.8e-05
7.8e-05
7.8e-05
7.8e-05
7.8e-05
7.8e-05
7.8e-05
7.8e-05
7.8e-05
7.8e-05
7.8e-05
7.8e-05
7.8e-05
7.8e-05
7.8e-05
7.8e-05
7.8e-05
7.8e-05
7.8e-05
7.8e-05
7.8e-05
7.8e-05
7.8e-05
7.8e-05
7.8e-05
7.8e-05
7.8e-05
7.8e-05
7.8e-05
7.8e-05
7.8e-05
7.8e-05
7.8e-05
7.8e-05
7.8e-05
7.8e-05
7.8e-05
7.8e-05
7.8e-05
7.8e-05
7.8e-05
7.8e-05
7.8e-05
7.8e-05
7.8e-05
7.8e-05
7.8e-05
7.8e-05
7.8e-05
7.8e-05
7.8e-05
7.8e-05
7.8e-05
7.8e-05
7.8e-05
7.8e-05
7.8e-05
7.8e-05
7.8e-05
7.8e-05
7.8e-05
7.8e-05
7.8e-05
7.8e-05
7.8e-05
7.8e-05
7.8e-05
7.8e-05
7.8e-05
7.8e-05
7.8e-05
7.8e-05
7.8e-05
7.8e-05
7.8e-05
7.8e-05
7.8e-05
7.8e-05
7.8e-05
7.8e-05
7.8e-05
7.8e-05
7.8e-05
7.8e-05
7.8e-05
7.8e-05
7.8e-05
7.8e-05
7.8e-05
7.8e-05
7.8e-05
7.8e-05
7.8e-05
7.8e-05
7.8e-05
7.8e-05
7.8e-05
7.8e-05
7.8e-05
7.8e-05
7.8e-05
7.8e-05
7.8e-05
7.8e-05
7.8e-05
7.8e-05
7.8e-05
7.8e-05
7.8e-05
7.8e-05
7.8e-05
7.8e-05
7.8e-05
7.8e-05
7.8e-05
7.8e-05
7.8e-05
7.8e-05
7.8e-05
7.8e-05
7.8e-05
7.8e-05
7.8e-05
7.8e-05
7.8e-05
7.8e-05
7.8e-05
7.8e-05
7.8e-05
7.8e-05
7.8e-05
7.8e-05
7.8e-05
7.8e-05
7.8e-05
7.8e-05
7.8e-05
7.8e-05
7.8e-05
7.8e-05
7.8e-05
7.8e-05
7.8e-05
7.8e-05
7.8e-05
7.8e-05
7.8e-05
7.8e-05
7.8e-05
7.8e-05
7.8e-05
7.8e-05
7.8e-05
7.8e-05
7.8e-05
7.8e-05
7.8e-05
7.8e-05
7.8e-05
7.8e-05
7.8e-05
7.8e-05
7.8e-05
7.8e-05
7.8e-05
7.8e-05
7.8e-05
7.8e-05
7.8e-05
7.8e-05
7.8e-05
7.8e-05
7.8e-05
7.8e-05
7.8e-05
7.8e-05
7.8e-05
7.8e-05
7.8e-05
7.8e-05
7.8e-05
7.8e-05
7.8e-05
7.8e-05
7.8e-05
7.8e-05
7.8e-05
7.8e-05
7.8e-05
7.8e-05
7.8e-05
7.8e-05
7.8e-05
7.8e-05
7.8e-05
7.8e-05
7.8e-05
7.8e-05
7.8e-05
7.8e-05
7.8e-05
7.8e-05
7.8e-05
7.8e-05
7.8e-05
7.8e-05
7.8e-05
7.8e-05
7.8e-05
7.8e-05
7.8e-05
7.8e-05
7.8e-05
7.8e-05
7.8e-05
7.8e-05
7.8e-05
7.8e-05
7.8e-05
7.8e-05
7.8e-05
7.8e-05
7.8e-05
7.8e-05
7.8e-05
7.8e-05
7.8e-05
7.8e-05
7.8e-05
7.8e-05
7.8e-05
7.8e-05
7.8e-05
7.8e-05
7.8e-05
7.8e-05
7.8e-05
7.8e-05
7.8e-05
7.8e-05
7.8e-05
7.8e-05
7.8e-05
7.8e-05
7.8e-05
7.8e-05
7.8e-05
7.8e-05
7.8e-05
7.8e-05
7.8e-05
7.8e-05
7.8e-05
7.8e-05
7.8e-05
7.8e-05
7.8e-05
7.8e-05
7.8e-05
7.8e-05
7.8e-05
7.8e-05
7.8e-05
7.8e-05
7.8e-05
7.8e-05
7.8e-05
7.8e-05
7.8e-05
7.8e-05
7.8e-05
7.8e-05
7.8e-05
7.8e-05
7.8e-05
7.8e-05
7.8e-05
7.8e-05
7.8e-05
7.8e-05
7.8e-05
7.8e-05
7.8e-05
7.8e-05
7.8e-05
7.8e-05
7.8e-05
7.8e-05
7.8e-05
7.8e-05
7.8e-05
7.8e-05
7.8e-05
7.8e-05
7.8e-05
7.8e-05
7.8e-05
7.8e-05
7.8e-05
7.8e-05
7.8e-05
7.8e-05
7.8e-05
7.8e-05
7.8e-05
7.8e-05
7.8e-05
7.8e-05
7.8e-05
7.8e-05
7.8e-05
7.8e-05
7.8e-05
7.8e-05
7.8e-05
7.8e-05
7.8e-05
7.8e-05
7.8e-05
7.8e-05
7.8e-05
7.8e-05
7.8e-05
7.8e-05
7.8e-05
7.8e-05
7.8e-05
7.8e-05
7.8e-05
7.8e-05
7.8e-05
7.8e-05
7.8e-05
7.8e-05
7.8e-05
7.8e-05
7.8e-05
7.8e-05
7.8e-05
7.8e-05
7.8e-05
7.8e-05
7.8e-05
7.8e-05
7.8e-05
7.8e-05
7.8e-05
7.8e-05
7.8e-05
7.8e-05
7.8e-05
7.8e-05
7.8e-05
7.8e-05
7.8e-05
7.8e-05
7.8e-05
7.8e-05
7.8e-05
7.8e-05
7.8e-05
7.8e-05
7.8e-05
7.8e-05
7.8e-05
7.8e-05
7.8e-05
7.8e-05
7.8e-05
7.8e-05
7.8e-05
7.8e-05
7.8e-05
7.8e-05
7.8e-05
7.8e-05
7.8e-05
7.8e-05
7.8e-05
7.8e-05
7.8e-05
7.8e-05
7.8e-05
7.8e-05
7.8e-05
7.8e-05
7.8e-05
7.8e-05
7.8e-05
7.8e-05
7.8e-05
7.8e-05
7.8e-05
7.8e-05
7.8e-05
7.8e-05
7.8e-05
7.8e-05
7.8e-05
7.8e-05
7.8e-05
7.8e-05
7.8e-05
7.8e-05
7.8e-05
7.8e-05
7.8e-05
7.8e-05
7.8e-05
7.8e-05
7.8e-05
7.8e-05
7.8e-05
7.8e-05
7.8e-05
7.8e-05
7.8e-05
7.8e-05
7.8e-05
7.8e-05
7.8e-05
7.8e-05
7.8e-05
7.8e-05
7.8e-05
7.8e-05
7.8e-05
7.8e-05
7.8e-05
7.8e-05
7.8e-05
7.8e-05
7.8e-05
7.8e-05
7.8e-05
7.8e-05
7.8e-05
7.8e-05
7.8e-05
7.8e-05
7.8e-05
7.8e-05
7.8e-05
7.8e-05
7.8e-05
7.8e-05
7.8e-05
7.8e-05
7.8e-05
7.8e-05
7.8e-05
7.8e-05
7.8e-05
7.8e-05
7.8e-05
7.8e-05
7.8e-05
7.8e-05
7.8e-05
7.8e-05
7.8e-05
7.8e-05
7.8e-05
7.8e-05
7.8e-05
7.8e-05
7.8e-05
7.8e-05
7.8e-05
7.8e-05
7.8e-05
7.8e-05
7.8e-05
7.8e-05
7.8e-05
7.8e-05
7.8e-05
7.8e-05
7.8e-05
7.8e-05
7.8e-05
7.8e-05
7.8e-05
7.8e-05
7.8e-05
7.8e-05
7.8e-05
7.8e-05
7.8e-05
7.8e-05
7.8e-05
7.8e-05
7.8e-05
7.8e-05
7.8e-05
7.8e-05
7.8e-05
7.8e-05
7.8e-05
7.8e-05
7.8e-05
7.8e-05
7.8e-05
7.8e-05
7.8e-05
7.8e-05
7.8e-05
7.8e-05
7.8e-05
7.8e-05
7.8e-05
7.8e-05
7.8e-05
7.8e-05
7.8e-05
7.8e-05
7.8e-05
7.8e-05
7.8e-05
7.8e-05
7.8e-05
7.8e-05
7.8e-05
7.8e-05
7.8e-05
7.8e-05
7.8e-05
7.8e-05
7.8e-05
7.8e-05
7.8e-05
7.8e-05
7.8e-05
7.8e-05
7.8e-05
7.8e-05
7.8e-05
7.8e-05
7.8e-05
7.8e-05
7.8e-05
7.8e-05
7.8e-05
7.8e-05
7.8e-05
7.8e-05
7.8e-05
7.8e-05
7.8e-05
7.8e-05
7.8e-05
7.8e-05
7.8e-05
7.8e-05
7.8e-05
7.8e-05
7.8e-05
7.8e-05
7.8e-05
7.8e-05
7.8e-05
7.8e-05
7.8e-05
7.8e-05
7.8e-05
7.8e-05
7.8e-05
7.8e-05
7.8e-05
7.8e-05
7.8e-05
7.8e-05
7.8e-05
7.8e-05
7.8e-05
7.8e-05
7.8e-05
7.8e-05
7.8e-05
7.8e-05
7.8e-05
7.8e-05
7.8e-05
7.8e-05
7.8e-05
7.8e-05
7.8e-05
7.8e-05
7.8e-05
7.8e-05
7.8e-05
7.8e-05
7.8e-05
7.8e-05
7.8e-05
7.8e-05
7.8e-05
7.8e-05
7.8e-05
7.8e-05
7.8e-05
7.8e-05
7.8e-05
7.8e-05
7.8e-05
7.8e-05
7.8e-05
7.8e-05
7.8e-05
7.8e-05
7.8e-05
7.8e-05
7.8e-05
7.8e-05
7.8e-05
7.8e-05
7.8e-05
7.8e-05
7.8e-05
7.8e-05
7.8e-05
7.8e-05
7.8e-05
7.8e-05
7.8e-05
7.8e-05
7.8e-05
7.8e-05
7.8e-05
7.8e-05
7.8e-05
7.8e-05
7.8e-05
7.8e-05
7.8e-05
7.8e-05
7.8e-05
7.8e-05
7.8e-05
7.8e-05
7.8e-05
7.8e-05
7.8e-05
7.8e-05
7.8e-05
7.8e-05
7.8e-05
7.8e-05
7.8e-05
7.8e-05
7.8e-05
7.8e-05
7.8e-05
7.8e-05
7.8e-05
7.8e-05
7.8e-05
7.8e-05
7.8e-05
7.8e-05
7.8e-05
7.8e-05
7.8e-05
7.8e-05
7.8e-05
7.8e-05
7.8e-05
7.8e-05
7.8e-05
7.8e-05
7.8e-05
7.8e-05
7.8e-05
7.8e-05
7.8e-05
7.8e-05
7.8e-05
7.8e-05
7.8e-05
7.8e-05
7.8e-05
7.8e-05
7.8e-05
7.8e-05
7.8e-05
7.8e-05
7.8e-05
7.8e-05
7.8e-05
7.8e-05
7.8e-05
7.8e-05
7.8e-05
7.8e-05
7.8e-05
7.8e-05
7.8e-05
7.8e-05
7.8e-05
7.8e-05
7.8e-05
7.8e-05
7.8e-05
7.8e-05
7.8e-05
7.8e-05
7.8e-05
7.8e-05
7.8e-05
7.8e-05
7.8e-05
7.8e-05
7.8e-05
7.8e-05
7.8e-05
7.8e-05
7.8e-05
7.8e-05
7.8e-05
7.8e-05
7.8e-05
7.8e-05
7.8e-05
7.8e-05
7.8e-05
7.8e-05
7.8e-05
7.8e-05
7.8e-05
7.8e-05
7.8e-05
7.8e-05
7.8e-05
7.8e-05
7.8e-05
7.8e-05
7.8e-05
7.8e-05
7.8e-05
7.8e-05
7.8e-05
7.8e-05
7.8e-05
7.8e-05
7.8e-05
7.8e-05
7.8e-05
7.8e-05
7.8e-05
7.8e-05
7.8e-05
7.8e-05
7.8e-05
7.8e-05
7.8e-05
7.8e-05
7.8e-05
7.8e-05
7.8e-05
7.8e-05
7.8e-05
7.8e-05
7.8e-05
7.8e-05
7.8e-05
7.8e-05
7.8e-05
7.8e-05
7.8e-05
7.8e-05
7.8e-05
7.8e-05
7.8e-05
7.8e-05
7.8e-05
7.8e-05
7.8e-05
7.8e-05
7.8e-05
7.8e-05
7.8e-05
7.8e-05
7.8e-05
7.8e-05
7.8e-05
7.8e-05
7.8e-05
7.8e-05
7.8e-05
7.8e-05
7.8e-05
7.8e-05
7.8e-05
7.8e-05
7.8e-05
7.8e-05
7.8e-05
7.8e-05
7.8e-05
7.8e-05
7.8e-05
7.8e-05
7.8e-05
7.8e-05
7.8e-05
7.8e-05
7.8e-05
7.8e-05
7.8e-05
7.8e-05
7.8e-05
7.8e-05
7.8e-05
7.8e-05
7.8e-05
7.8e-05
7.8e-05
7.8e-05
7.8e-05
7.8e-05
7.8e-05
7.8e-05
7.8e-05
7.8e-05
7.8e-05
7.8e-05
7.8e-05
7.8e-05
7.8e-05
7.8e-05
7.8e-05
7.8e-05
7.8e-05
7.8e-05
7.8e-05
7.8e-05
7.8e-05
7.8e-05
7.8e-05
7.8e-05
7.8e-05
7.8e-05
7.8e-05
7.8e-05
7.8e-05
7.8e-05
7.8e-05
7.8e-05
7.8e-05
7.8e-05
7.8e-05
7.8e-05
7.8e-05
7.8e-05
7.8e-05
7.8e-05
7.8e-05
7.8e-05
7.8e-05
7.8e-05
7.8e-05
7.8e-05
7.8e-05
7.8e-05
7.8e-05
7.8e-05
7.8e-05
7.8e-05
7.8e-05
7.8e-05
7.8e-05
7.8e-05
7.8e-05
7.8e-05
7.8e-05
7.8e-05
7.8e-05
7.8e-05
7.8e-05
7.8e-05
7.8e-05
7.8e-05
7.8e-05
7.8e-05
7.8e-05
7.8e-05
7.8e-05
7.8e-05
7.8e-05
7.8e-05
7.8e-05
7.8e-05
7.8e-05
7.8e-05
7.8e-05
7.8e-05
7.8e-05
7.8e-05
7.8e-05
7.8e-05
7.8e-05
7.8e-05
7.8e-05
7.8e-05
7.8e-05
7.8e-05
7.8e-05
7.8e-05
7.8e-05
7.8e-05
7.8e-05
7.8e-05
7.8e-05
7.8e-05
7.8e-05
7.8e-05
7.8e-05
7.8e-05
7.8e-05
7.8e-05
7.8e-05
7.8e-05
7.8e-05
7.8e-05
7.8e-05
7.8e-05
7.8e-05
7.8e-05
7.8e-05
7.8e-05
7.8e-05
7.8e-05
7.8e-05
7.8e-05
7.8e-05