/*--------------------------------*- C++ -*----------------------------------*\
| =========                 |                                                 |
| \\      /  F ield         | OpenFOAM: The Open Source CFD Toolbox           |
|  \\    /   O peration     | Version:  2406                                  |
|   \\  /    A nd           | Website:  www.openfoam.com                      |
|    \\/     M anipulation  |                                                 |
\*---------------------------------------------------------------------------*/
FoamFile
{
    version     2.0;
    format      ascii;
    arch        "LSB;label=32;scalar=64";
    class       volScalarField;
    location    "1.3";
    object      C;
}
// * * * * * * * * * * * * * * * * * * * * * * * * * * * * * * * * * * * * * //

dimensions      [1 -3 0 0 0 0 0];

internalField   nonuniform List<scalar> 
14400
(
2.87355
2.87094
2.86546
2.8565
2.84282
2.81643
2.78383
2.77149
2.7882
2.82459
2.85394
2.87043
2.88251
2.89139
2.89772
2.90184
2.90391
2.90393
2.90172
2.89693
2.88884
2.87613
2.85076
2.82013
2.81084
2.8312
2.87148
2.90431
2.92402
2.9398
2.95284
2.96385
2.97329
2.98144
2.98851
2.99464
2.99995
3.00453
3.00843
3.01171
3.0144
3.01655
3.01817
3.01928
3.01991
3.02006
3.01974
3.01895
3.0177
3.01598
3.01379
3.01113
3.00798
3.00433
3.00016
2.99545
2.99017
2.9843
2.97779
2.97059
2.96265
2.95389
2.94424
2.93356
2.92173
2.90855
2.89377
2.87705
2.85787
2.83549
2.80872
2.76649
2.71002
2.66544
2.64271
2.63773
2.65026
2.6844
2.73133
2.766
2.78578
2.80051
2.81159
2.81982
2.82571
2.82957
2.83161
2.83194
2.83059
2.82752
2.82263
2.81568
2.80631
2.79384
2.77711
2.74805
2.71132
2.69303
2.70297
2.7324
2.75561
2.76657
2.77237
2.77404
2.7719
2.76567
2.75429
2.73065
2.70067
2.69008
2.70774
2.74392
2.77259
2.78901
2.80121
2.81037
2.81716
2.822
2.8251
2.82663
2.87616
2.87381
2.86894
2.86122
2.85008
2.83475
2.81106
2.79823
2.81542
2.8425
2.86073
2.87483
2.8857
2.89393
2.89992
2.9039
2.90597
2.90614
2.90431
2.90021
2.89347
2.88347
2.86941
2.84746
2.83758
2.85857
2.88912
2.91052
2.92797
2.94252
2.95486
2.96543
2.97457
2.98252
2.98944
2.99546
3.00069
3.0052
3.00905
3.01229
3.01495
3.01707
3.01867
3.01977
3.02039
3.02053
3.0202
3.01941
3.01816
3.01645
3.01427
3.01162
3.00848
3.00484
3.0007
2.99601
2.99077
2.98493
2.97847
2.97133
2.96346
2.9548
2.94525
2.93472
2.92308
2.91015
2.89572
2.87949
2.86107
2.83989
2.81511
2.78517
2.74205
2.69909
2.68111
2.6763
2.68412
2.71644
2.75098
2.77353
2.79081
2.80417
2.81444
2.82216
2.82773
2.83139
2.83333
2.83362
2.8323
2.82935
2.82467
2.81811
2.80939
2.79811
2.78365
2.76516
2.73779
2.7193
2.72954
2.75043
2.76325
2.77174
2.77648
2.77785
2.776
2.7708
2.76186
2.74859
2.72719
2.71631
2.73413
2.76101
2.77912
2.79324
2.80424
2.81273
2.81913
2.82372
2.82669
2.82815
2.88112
2.87919
2.87528
2.86934
2.86145
2.85214
2.84339
2.83686
2.8472
2.85918
2.87154
2.88247
2.89154
2.89872
2.90413
2.90785
2.90993
2.91037
2.90914
2.90616
2.90135
2.89477
2.88701
2.88014
2.87624
2.8899
2.905
2.92052
2.93479
2.94748
2.95864
2.96844
2.97705
2.98462
2.99126
2.99708
3.00215
3.00653
3.01028
3.01344
3.01604
3.01811
3.01967
3.02074
3.02134
3.02146
3.02113
3.02034
3.01909
3.01738
3.01522
3.01259
3.00947
3.00587
3.00177
2.99714
2.99196
2.9862
2.97983
2.9728
2.96507
2.95658
2.94725
2.93699
2.9257
2.91325
2.89946
2.88414
2.86703
2.84787
2.8264
2.8026
2.77743
2.74888
2.7351
2.73064
2.73447
2.75335
2.77022
2.78613
2.79976
2.81093
2.81982
2.82666
2.83165
2.83495
2.83668
2.8369
2.83564
2.83289
2.82861
2.8227
2.81505
2.80553
2.79414
2.78125
2.76855
2.7571
2.76146
2.76808
2.77516
2.78066
2.78395
2.78489
2.78346
2.77967
2.77368
2.7661
2.75896
2.75401
2.76486
2.77709
2.78956
2.80059
2.80979
2.81718
2.82289
2.82706
2.82978
2.83113
2.88801
2.88654
2.88363
2.87942
2.87423
2.86881
2.86469
2.86417
2.86804
2.87531
2.88377
2.89198
2.89924
2.9053
2.91003
2.91344
2.91552
2.91628
2.91573
2.91392
2.91098
2.90726
2.90355
2.90145
2.90338
2.91005
2.92025
2.93176
2.9432
2.95395
2.96378
2.97264
2.98058
2.98765
2.99392
2.99944
3.00429
3.00849
3.0121
3.01515
3.01766
3.01966
3.02117
3.02219
3.02275
3.02286
3.02251
3.02171
3.02047
3.01878
3.01663
3.01403
3.01096
3.00741
3.00337
2.99881
2.99372
2.98807
2.98184
2.97497
2.96744
2.95919
2.95017
2.9403
2.9295
2.91768
2.90473
2.89056
2.87505
2.85817
2.84001
2.82102
2.80237
2.78626
2.77455
2.77008
2.77272
2.77988
2.79012
2.80101
2.81116
2.81997
2.82726
2.833
2.83726
2.84008
2.84154
2.84166
2.84047
2.83798
2.83417
2.82903
2.82256
2.81484
2.80612
2.79702
2.78889
2.78382
2.78279
2.78515
2.78866
2.79179
2.79378
2.7943
2.79326
2.79075
2.7871
2.78307
2.78016
2.78062
2.78516
2.7928
2.80145
2.80977
2.81714
2.82331
2.82821
2.83185
2.83425
2.83545
2.89638
2.89533
2.8933
2.89048
2.88723
2.88418
2.88227
2.88252
2.88534
2.89026
2.89625
2.90242
2.90817
2.91318
2.91727
2.92036
2.92243
2.92349
2.92358
2.92282
2.92141
2.91974
2.91847
2.91858
2.92115
2.92653
2.93418
2.94307
2.95231
2.96135
2.96988
2.97777
2.98497
2.99147
2.9973
3.00249
3.00706
3.01105
3.01449
3.01739
3.01979
3.0217
3.02313
3.02411
3.02463
3.0247
3.02434
3.02354
3.0223
3.02062
3.01851
3.01594
3.01292
3.00944
3.00547
3.00102
2.99604
2.99054
2.98447
2.97781
2.97053
2.96259
2.95393
2.94453
2.93431
2.92323
2.91124
2.89831
2.88444
2.86974
2.85445
2.83908
2.82456
2.8122
2.80327
2.79897
2.79927
2.80312
2.80936
2.81663
2.82389
2.83053
2.83623
2.84084
2.84429
2.84658
2.84772
2.84773
2.84661
2.84438
2.84106
2.83668
2.83133
2.82515
2.81847
2.81183
2.80608
2.8022
2.80065
2.80109
2.80252
2.80405
2.80507
2.80526
2.80452
2.80296
2.80089
2.7989
2.79791
2.79891
2.80225
2.80749
2.81366
2.81991
2.82569
2.8307
2.83478
2.83787
2.83993
2.84096
2.9058
2.90509
2.90375
2.90196
2.90003
2.89842
2.89767
2.89831
2.90054
2.90413
2.90855
2.91327
2.91784
2.92198
2.92549
2.9283
2.93035
2.93166
2.93228
2.93236
2.93209
2.93181
2.932
2.93326
2.93611
2.94073
2.94688
2.95402
2.96162
2.96924
2.97662
2.98359
2.99005
2.99597
3.00134
3.00615
3.01042
3.01416
3.0174
3.02015
3.02241
3.02421
3.02556
3.02647
3.02694
3.02699
3.0266
3.02579
3.02456
3.02291
3.02082
3.01831
3.01535
3.01194
3.00807
3.00373
2.9989
2.99356
2.9877
2.98128
2.97429
2.96669
2.95846
2.94956
2.93998
2.92969
2.91868
2.90699
2.89467
2.8819
2.86895
2.85629
2.8446
2.83469
2.82738
2.82323
2.82227
2.82397
2.82758
2.83225
2.83724
2.84204
2.8463
2.84982
2.85248
2.85423
2.85505
2.85492
2.85385
2.85187
2.849
2.84531
2.84091
2.83597
2.83078
2.82575
2.8214
2.81824
2.81651
2.81602
2.8163
2.81683
2.81719
2.81714
2.81662
2.81569
2.8146
2.81374
2.81366
2.81484
2.81744
2.82126
2.82579
2.83051
2.83501
2.83902
2.84235
2.84491
2.84664
2.84751
2.91592
2.91547
2.91464
2.91358
2.91253
2.91178
2.91168
2.91252
2.91438
2.91716
2.92056
2.92426
2.92795
2.93139
2.93444
2.93699
2.93901
2.9405
2.94154
2.94224
2.94277
2.94341
2.94448
2.94634
2.94928
2.95341
2.95859
2.96453
2.97089
2.97739
2.98378
2.98991
2.99568
3.00103
3.00592
3.01035
3.0143
3.01778
3.02081
3.02337
3.02549
3.02718
3.02844
3.02927
3.02969
3.02969
3.02929
3.02847
3.02725
3.02562
3.02357
3.02111
3.01822
3.0149
3.01115
3.00694
3.00226
2.99711
2.99147
2.98532
2.97864
2.97142
2.96364
2.95529
2.94636
2.93686
2.92682
2.91628
2.90537
2.89424
2.88317
2.87254
2.86283
2.85459
2.84832
2.84432
2.84261
2.84291
2.84474
2.84754
2.85079
2.85409
2.85711
2.85966
2.86159
2.86282
2.86331
2.86305
2.86201
2.86024
2.85776
2.85465
2.85103
2.84704
2.84293
2.83898
2.83554
2.83287
2.83111
2.83018
2.82983
2.82976
2.82971
2.82951
2.82912
2.82858
2.82806
2.82782
2.82816
2.82933
2.83143
2.83432
2.83773
2.84133
2.84483
2.84801
2.85069
2.85278
2.8542
2.85492
2.9265
2.92624
2.92577
2.9252
2.92471
2.9245
2.92477
2.92568
2.9273
2.92956
2.93228
2.93526
2.93829
2.94121
2.94387
2.94621
2.94819
2.94981
2.95114
2.95228
2.95336
2.95458
2.95616
2.95834
2.96128
2.96503
2.96953
2.9746
2.98004
2.98563
2.99119
2.99659
3.00173
3.00654
3.01097
3.01502
3.01865
3.02186
3.02466
3.02704
3.02901
3.03057
3.03173
3.03249
3.03285
3.03281
3.03238
3.03156
3.03035
3.02874
3.02674
3.02434
3.02153
3.01831
3.01467
3.0106
3.0061
3.00115
2.99575
2.98988
2.98354
2.97671
2.96939
2.96159
2.95331
2.94458
2.93544
2.92596
2.91627
2.90652
2.89695
2.88786
2.8796
2.87253
2.86697
2.86311
2.86095
2.86032
2.86092
2.86237
2.8643
2.8664
2.8684
2.8701
2.87139
2.87215
2.87234
2.87193
2.87092
2.86931
2.86716
2.86452
2.8615
2.85823
2.85491
2.85172
2.84889
2.84658
2.84489
2.84377
2.84309
2.84267
2.84237
2.84208
2.84176
2.84144
2.84124
2.84131
2.84182
2.84291
2.84461
2.84686
2.84947
2.85225
2.85498
2.85748
2.85963
2.86131
2.86247
2.86305
2.93734
2.93721
2.93698
2.93675
2.93662
2.93673
2.9372
2.93815
2.93959
2.94149
2.94374
2.94621
2.94876
2.95127
2.95363
2.95579
2.95771
2.95942
2.96094
2.96236
2.9638
2.96538
2.96726
2.96958
2.97245
2.9759
2.97989
2.98432
2.98904
2.9939
2.99876
3.00353
3.0081
3.01241
3.01642
3.0201
3.02341
3.02636
3.02893
3.03113
3.03294
3.03437
3.03542
3.0361
3.0364
3.03632
3.03587
3.03504
3.03384
3.03226
3.03031
3.02797
3.02524
3.02213
3.01862
3.0147
3.01038
3.00565
3.0005
2.99492
2.98892
2.98248
2.97563
2.96836
2.96071
2.9527
2.94439
2.93586
2.92722
2.91862
2.91025
2.90235
2.89517
2.88896
2.88393
2.88019
2.87776
2.87651
2.87625
2.87672
2.87765
2.87881
2.87997
2.88098
2.8817
2.88205
2.88197
2.88142
2.88041
2.87893
2.87703
2.87476
2.87221
2.86949
2.86674
2.8641
2.86171
2.85969
2.85809
2.85691
2.85607
2.85547
2.85503
2.85468
2.85439
2.85419
2.85415
2.85435
2.8549
2.85586
2.85726
2.85902
2.86106
2.86321
2.86535
2.86732
2.86902
2.87037
2.8713
2.87177
2.94832
2.94827
2.94821
2.94818
2.94828
2.94858
2.94917
2.95011
2.95142
2.95306
2.95498
2.95708
2.95927
2.96147
2.96359
2.9656
2.96746
2.9692
2.97084
2.97244
2.97409
2.97587
2.9779
2.98027
2.98304
2.98624
2.98983
2.99374
2.99789
3.00215
3.00644
3.01066
3.01473
3.01859
3.0222
3.02553
3.02855
3.03123
3.03358
3.03559
3.03724
3.03854
3.03949
3.04008
3.04032
3.0402
3.03973
3.0389
3.03771
3.03616
3.03426
3.03199
3.02935
3.02634
3.02297
3.01921
3.01508
3.01056
3.00567
3.00038
2.99472
2.98868
2.98228
2.97553
2.96846
2.96112
2.95356
2.94586
2.93812
2.93048
2.92309
2.91612
2.90978
2.90422
2.89959
2.89598
2.89337
2.8917
2.89084
2.89059
2.89078
2.8912
2.8917
2.89213
2.89239
2.89238
2.89206
2.89139
2.89036
2.88897
2.88727
2.88529
2.8831
2.88079
2.87846
2.87622
2.87416
2.87237
2.87089
2.86971
2.8688
2.86811
2.8676
2.86721
2.86693
2.86678
2.86681
2.86705
2.86756
2.86839
2.86952
2.87092
2.87252
2.8742
2.87587
2.87742
2.87877
2.87984
2.88058
2.88096
2.95934
2.95935
2.95939
2.9595
2.95973
2.96015
2.9608
2.96171
2.96291
2.96436
2.96603
2.96786
2.96978
2.97174
2.97367
2.97554
2.97735
2.97908
2.98078
2.98248
2.98423
2.98612
2.98821
2.99056
2.99321
2.99617
2.99943
3.00293
3.00661
3.01039
3.01419
3.01793
3.02156
3.02502
3.02827
3.03127
3.034
3.03644
3.03858
3.0404
3.0419
3.04307
3.04391
3.04442
3.0446
3.04444
3.04394
3.04311
3.04193
3.04042
3.03857
3.03637
3.03382
3.03093
3.02769
3.0241
3.02016
3.01586
3.01122
3.00623
3.0009
2.99524
2.98927
2.98301
2.97649
2.96976
2.96287
2.9559
2.94894
2.94209
2.93549
2.92928
2.92358
2.91854
2.91424
2.91074
2.90805
2.9061
2.90481
2.90404
2.90366
2.90353
2.9035
2.90346
2.90333
2.90303
2.9025
2.90171
2.90066
2.89934
2.89778
2.89601
2.8941
2.8921
2.89009
2.88815
2.88635
2.88474
2.88337
2.88223
2.88131
2.88059
2.88003
2.87962
2.87934
2.87921
2.87924
2.87947
2.87992
2.8806
2.88152
2.88263
2.88388
2.8852
2.88651
2.88773
2.88879
2.88964
2.89023
2.89054
2.97034
2.97039
2.9705
2.97069
2.97101
2.97148
2.97215
2.97303
2.97413
2.97544
2.97693
2.97855
2.98026
2.98202
2.9838
2.98556
2.98729
2.989
2.99071
2.99245
2.99425
2.99617
2.99826
3.00055
3.00306
3.00582
3.00879
3.01194
3.01524
3.0186
3.02198
3.02532
3.02857
3.03167
3.03458
3.03729
3.03975
3.04196
3.04389
3.04553
3.04688
3.04793
3.04867
3.04909
3.04921
3.04901
3.04849
3.04766
3.0465
3.04502
3.04322
3.04109
3.03864
3.03586
3.03276
3.02933
3.02558
3.02151
3.01711
3.01241
3.00741
3.00211
2.99655
2.99075
2.98474
2.97856
2.97227
2.96593
2.95963
2.95346
2.94751
2.94191
2.93674
2.93211
2.92809
2.92471
2.92197
2.91984
2.91825
2.91711
2.91631
2.91574
2.9153
2.91489
2.91445
2.91389
2.91319
2.9123
2.91122
2.90995
2.90849
2.90689
2.90518
2.90342
2.90165
2.89994
2.89834
2.89689
2.89561
2.89453
2.89363
2.8929
2.89233
2.8919
2.89161
2.89147
2.89148
2.89167
2.89204
2.89259
2.89332
2.8942
2.89518
2.89621
2.89724
2.8982
2.89903
2.8997
2.90017
2.90041
2.9813
2.98137
2.98152
2.98176
2.98212
2.98262
2.98329
2.98413
2.98515
2.98634
2.98768
2.98914
2.99069
2.9923
2.99394
2.9956
2.99726
2.99893
3.00062
3.00235
3.00415
3.00606
3.0081
3.0103
3.01268
3.01524
3.01796
3.02082
3.02378
3.0268
3.02982
3.03281
3.03571
3.03849
3.04111
3.04354
3.04576
3.04774
3.04948
3.05096
3.05216
3.05309
3.05373
3.05408
3.05414
3.0539
3.05336
3.05252
3.05138
3.04994
3.04819
3.04614
3.04378
3.04112
3.03816
3.03489
3.03133
3.02747
3.02332
3.01889
3.0142
3.00925
3.00408
2.9987
2.99314
2.98746
2.9817
2.97592
2.97019
2.96459
2.9592
2.95409
2.94937
2.94508
2.94129
2.93803
2.93528
2.93304
2.93124
2.92983
2.92872
2.92782
2.92706
2.92637
2.92567
2.92491
2.92406
2.92308
2.92198
2.92073
2.91936
2.91788
2.91633
2.91474
2.91316
2.91162
2.91018
2.90885
2.90767
2.90664
2.90577
2.90505
2.90447
2.90403
2.90373
2.90357
2.90355
2.90368
2.90397
2.9044
2.90497
2.90566
2.90643
2.90723
2.90803
2.90878
2.90944
2.90996
2.91033
2.91052
2.9922
2.99228
2.99244
2.99271
2.99309
2.9936
2.99425
2.99505
2.996
2.99709
2.99832
2.99965
3.00106
3.00254
3.00407
3.00563
3.00722
3.00883
3.01048
3.01218
3.01395
3.01581
3.01778
3.01988
3.02212
3.0245
3.02699
3.0296
3.03227
3.03499
3.0377
3.04038
3.04298
3.04547
3.04782
3.05
3.052
3.05378
3.05534
3.05665
3.05772
3.05853
3.05908
3.05936
3.05936
3.05908
3.05853
3.05769
3.05657
3.05516
3.05347
3.05149
3.04923
3.04669
3.04386
3.04075
3.03737
3.03372
3.02981
3.02564
3.02124
3.01662
3.0118
3.00681
3.00168
2.99645
2.99116
2.98587
2.98063
2.97551
2.97058
2.96591
2.96155
2.95756
2.95397
2.95082
2.9481
2.94579
2.94386
2.94225
2.94091
2.93977
2.93876
2.93784
2.93694
2.93602
2.93505
2.934
2.93287
2.93164
2.93032
2.92894
2.9275
2.92605
2.92461
2.92322
2.9219
2.92068
2.91957
2.9186
2.91776
2.91705
2.91648
2.91603
2.91571
2.91553
2.91547
2.91554
2.91574
2.91607
2.91651
2.91704
2.91763
2.91825
2.91888
2.91946
2.91997
2.92038
2.92067
2.92081
3.003
3.00309
3.00327
3.00355
3.00393
3.00443
3.00506
3.00582
3.0067
3.00771
3.00884
3.01006
3.01137
3.01274
3.01417
3.01564
3.01715
3.01869
3.02029
3.02193
3.02365
3.02544
3.02733
3.02932
3.03142
3.03363
3.03592
3.0383
3.04072
3.04317
3.04562
3.04802
3.05036
3.05259
3.0547
3.05666
3.05844
3.06004
3.06143
3.0626
3.06354
3.06424
3.0647
3.06491
3.06486
3.06455
3.06398
3.06314
3.06204
3.06067
3.05903
3.05713
3.05496
3.05253
3.04983
3.04688
3.04368
3.04023
3.03654
3.03263
3.02851
3.02419
3.0197
3.01507
3.01032
3.00549
3.00061
2.99575
2.99094
2.98625
2.98171
2.9774
2.97336
2.96962
2.96622
2.96318
2.9605
2.95816
2.95614
2.9544
2.95289
2.95157
2.95039
2.94929
2.94823
2.94719
2.94612
2.94501
2.94385
2.94263
2.94135
2.94004
2.9387
2.93735
2.93602
2.93474
2.93351
2.93238
2.93134
2.93042
2.92961
2.92892
2.92835
2.9279
2.92757
2.92735
2.92725
2.92727
2.9274
2.92763
2.92795
2.92835
2.9288
2.92928
2.92976
2.93021
2.9306
2.93092
2.93114
2.93126
3.01373
3.01381
3.01399
3.01427
3.01465
3.01514
3.01574
3.01645
3.01728
3.01822
3.01926
3.02039
3.0216
3.02288
3.02422
3.0256
3.02703
3.02851
3.03004
3.03162
3.03327
3.03498
3.03678
3.03865
3.04062
3.04266
3.04477
3.04694
3.04915
3.05137
3.05357
3.05573
3.05783
3.05984
3.06173
3.06348
3.06508
3.0665
3.06774
3.06877
3.06959
3.0702
3.07057
3.07071
3.07062
3.07028
3.06969
3.06886
3.06778
3.06644
3.06486
3.06303
3.06095
3.05863
3.05606
3.05326
3.05023
3.04697
3.0435
3.03982
3.03596
3.03193
3.02775
3.02344
3.01903
3.01456
3.01006
3.00558
3.00115
2.99681
2.99263
2.98863
2.98486
2.98134
2.97812
2.97519
2.97256
2.97021
2.96814
2.96631
2.96469
2.96324
2.96192
2.96069
2.95952
2.95837
2.95723
2.95607
2.95489
2.95367
2.95243
2.95117
2.9499
2.94863
2.94739
2.94619
2.94505
2.94398
2.943
2.94212
2.94134
2.94067
2.94011
2.93965
2.9393
2.93906
2.93892
2.93888
2.93894
2.93909
2.93932
2.93961
2.93994
2.9403
2.94067
2.94101
2.94131
2.94155
2.94172
2.94181
3.02436
3.02444
3.02462
3.02489
3.02526
3.02573
3.0263
3.02698
3.02775
3.02863
3.02959
3.03064
3.03177
3.03296
3.03422
3.03552
3.03688
3.03828
3.03974
3.04125
3.04281
3.04444
3.04614
3.0479
3.04973
3.05162
3.05357
3.05555
3.05756
3.05957
3.06156
3.06351
3.0654
3.0672
3.06889
3.07046
3.07189
3.07315
3.07425
3.07515
3.07587
3.07638
3.07667
3.07676
3.07661
3.07625
3.07565
3.07482
3.07376
3.07247
3.07094
3.06918
3.06719
3.06497
3.06253
3.05987
3.057
3.05393
3.05066
3.04721
3.04359
3.03982
3.03591
3.0319
3.02781
3.02367
3.0195
3.01535
3.01125
3.00724
3.00335
2.99963
2.99609
2.99278
2.98971
2.98689
2.98432
2.982
2.9799
2.97802
2.97632
2.97478
2.97336
2.97203
2.97077
2.96955
2.96835
2.96715
2.96595
2.96474
2.96353
2.9623
2.96109
2.95988
2.95871
2.95758
2.9565
2.95549
2.95456
2.95372
2.95297
2.95231
2.95175
2.95129
2.95093
2.95066
2.95048
2.9504
2.9504
2.95048
2.95062
2.95082
2.95106
2.95132
2.95159
2.95185
2.95207
2.95226
2.95239
2.95245
3.0349
3.03498
3.03516
3.03542
3.03577
3.03622
3.03676
3.03739
3.03812
3.03894
3.03984
3.04082
3.04187
3.04298
3.04416
3.04539
3.04667
3.048
3.04938
3.05081
3.05229
3.05383
3.05543
3.05708
3.05878
3.06053
3.06232
3.06414
3.06597
3.06779
3.06959
3.07135
3.07305
3.07466
3.07618
3.07758
3.07885
3.07997
3.08094
3.08173
3.08234
3.08277
3.08299
3.08302
3.08284
3.08245
3.08184
3.08102
3.07998
3.07872
3.07725
3.07556
3.07365
3.07154
3.06922
3.0667
3.06398
3.06108
3.058
3.05475
3.05136
3.04783
3.04419
3.04045
3.03664
3.03279
3.02892
3.02507
3.02126
3.01753
3.01391
3.01043
3.00711
3.00398
3.00105
2.99834
2.99584
2.99354
2.99145
2.98954
2.9878
2.98619
2.9847
2.98331
2.98198
2.98071
2.97946
2.97824
2.97703
2.97582
2.97462
2.97343
2.97226
2.97111
2.96999
2.96891
2.96789
2.96693
2.96604
2.96523
2.9645
2.96385
2.9633
2.96283
2.96245
2.96216
2.96195
2.96183
2.96178
2.96179
2.96187
2.962
2.96216
2.96234
2.96253
2.96271
2.96288
2.96302
2.96311
2.96316
3.04535
3.04543
3.0456
3.04585
3.04619
3.04661
3.04712
3.04772
3.0484
3.04916
3.05
3.05092
3.0519
3.05295
3.05405
3.0552
3.05641
3.05767
3.05897
3.06032
3.06172
3.06317
3.06466
3.0662
3.06779
3.0694
3.07105
3.07271
3.07438
3.07603
3.07766
3.07925
3.08078
3.08223
3.08359
3.08484
3.08596
3.08696
3.0878
3.08849
3.08901
3.08935
3.08951
3.08949
3.08927
3.08886
3.08824
3.08743
3.08641
3.08519
3.08377
3.08215
3.08033
3.07831
3.0761
3.07371
3.07114
3.0684
3.0655
3.06245
3.05927
3.05596
3.05256
3.04907
3.04552
3.04193
3.03833
3.03474
3.03119
3.02771
3.02433
3.02107
3.01794
3.01498
3.01218
3.00957
3.00714
3.00489
3.00282
3.0009
2.99913
2.99749
2.99596
2.99451
2.99314
2.99183
2.99056
2.98931
2.9881
2.9869
2.98571
2.98455
2.98341
2.9823
2.98122
2.98019
2.97921
2.97829
2.97743
2.97665
2.97594
2.97531
2.97476
2.97428
2.97389
2.97358
2.97335
2.97318
2.97309
2.97305
2.97307
2.97313
2.97323
2.97334
2.97347
2.9736
2.97372
2.97381
2.97388
2.97392
3.05572
3.0558
3.05596
3.0562
3.05652
3.05692
3.0574
3.05796
3.0586
3.05931
3.0601
3.06095
3.06187
3.06285
3.06388
3.06497
3.0661
3.06728
3.06851
3.06978
3.0711
3.07246
3.07385
3.07529
3.07675
3.07825
3.07976
3.08128
3.0828
3.0843
3.08578
3.08721
3.08858
3.08988
3.0911
3.09221
3.09321
3.09408
3.09482
3.09541
3.09585
3.09612
3.09622
3.09615
3.0959
3.09547
3.09485
3.09404
3.09305
3.09187
3.09049
3.08894
3.08719
3.08527
3.08317
3.08091
3.07847
3.07589
3.07315
3.07028
3.06729
3.0642
3.06101
3.05774
3.05443
3.05108
3.04772
3.04437
3.04106
3.0378
3.03463
3.03156
3.02861
3.0258
3.02313
3.02062
3.01826
3.01607
3.01402
3.01211
3.01034
3.00868
3.00712
3.00565
3.00425
3.00291
3.00162
3.00036
2.99914
2.99795
2.99678
2.99564
2.99453
2.99345
2.99241
2.99142
2.99047
2.98958
2.98875
2.98799
2.9873
2.98668
2.98613
2.98566
2.98525
2.98492
2.98466
2.98447
2.98433
2.98425
2.98422
2.98423
2.98427
2.98434
2.98441
2.9845
2.98457
2.98464
2.98468
2.98471
3.06601
3.06608
3.06623
3.06646
3.06676
3.06714
3.06759
3.06812
3.06872
3.06938
3.07012
3.07092
3.07178
3.07269
3.07366
3.07468
3.07575
3.07686
3.07801
3.0792
3.08043
3.0817
3.083
3.08433
3.08569
3.08707
3.08846
3.08985
3.09123
3.0926
3.09393
3.09523
3.09646
3.09763
3.09871
3.0997
3.10058
3.10134
3.10198
3.10249
3.10284
3.10305
3.1031
3.10299
3.10271
3.10226
3.10164
3.10084
3.09987
3.09872
3.0974
3.09591
3.09424
3.09241
3.09041
3.08826
3.08596
3.08352
3.08094
3.07824
3.07543
3.07252
3.06953
3.06647
3.06337
3.06024
3.05709
3.05396
3.05086
3.04781
3.04483
3.04193
3.03914
3.03647
3.03392
3.03151
3.02923
3.02709
3.02508
3.02319
3.02142
3.01976
3.01819
3.01671
3.01529
3.01394
3.01264
3.01138
3.01016
3.00898
3.00782
3.0067
3.00562
3.00457
3.00356
3.00259
3.00168
3.00081
3.00001
2.99927
2.99859
2.99798
2.99743
2.99695
2.99654
2.9962
2.99591
2.99569
2.99552
2.99541
2.99533
2.9953
2.9953
2.99532
2.99535
2.99539
2.99544
2.99548
2.9955
2.99552
3.07622
3.07629
3.07643
3.07665
3.07693
3.07729
3.07771
3.0782
3.07876
3.07939
3.08008
3.08082
3.08163
3.08248
3.08339
3.08435
3.08534
3.08638
3.08746
3.08858
3.08973
3.09091
3.09212
3.09336
3.09461
3.09588
3.09715
3.09842
3.09969
3.10092
3.10213
3.1033
3.10441
3.10545
3.10641
3.10729
3.10807
3.10873
3.10928
3.10971
3.10999
3.11014
3.11014
3.10999
3.10969
3.10923
3.1086
3.10782
3.10687
3.10576
3.10448
3.10305
3.10145
3.09971
3.09781
3.09577
3.09359
3.09128
3.08884
3.0863
3.08366
3.08092
3.07812
3.07525
3.07234
3.06941
3.06646
3.06352
3.06061
3.05774
3.05494
3.0522
3.04956
3.04702
3.04458
3.04226
3.04006
3.03798
3.03601
3.03415
3.0324
3.03075
3.02918
3.02769
3.02627
3.02492
3.02361
3.02236
3.02114
3.01997
3.01883
3.01773
3.01666
3.01564
3.01465
3.01372
3.01283
3.01199
3.0112
3.01048
3.00981
3.00921
3.00866
3.00818
3.00776
3.0074
3.0071
3.00686
3.00666
3.00651
3.00641
3.00634
3.0063
3.00628
3.00628
3.00629
3.00631
3.00632
3.00634
3.00635
3.08636
3.08643
3.08656
3.08676
3.08703
3.08736
3.08776
3.08822
3.08875
3.08933
3.08997
3.09067
3.09142
3.09222
3.09307
3.09396
3.0949
3.09587
3.09688
3.09792
3.09899
3.10009
3.10121
3.10236
3.10351
3.10468
3.10585
3.10701
3.10816
3.10928
3.11037
3.11142
3.11242
3.11335
3.11421
3.11498
3.11566
3.11624
3.11671
3.11706
3.11728
3.11738
3.11734
3.11715
3.11683
3.11635
3.11573
3.11495
3.11403
3.11295
3.11172
3.11034
3.10882
3.10715
3.10535
3.10341
3.10134
3.09916
3.09686
3.09446
3.09197
3.0894
3.08676
3.08407
3.08134
3.07858
3.07582
3.07306
3.07032
3.06762
3.06497
3.06238
3.05987
3.05745
3.05512
3.0529
3.05077
3.04875
3.04683
3.04501
3.04328
3.04165
3.04009
3.03861
3.03719
3.03584
3.03454
3.03329
3.03209
3.03092
3.0298
3.02872
3.02767
3.02667
3.02571
3.02479
3.02392
3.0231
3.02234
3.02163
3.02097
3.02037
3.01983
3.01935
3.01892
3.01855
3.01823
3.01797
3.01775
3.01758
3.01744
3.01734
3.01727
3.01722
3.0172
3.01718
3.01718
3.01718
3.01718
3.01718
3.09643
3.0965
3.09662
3.09681
3.09706
3.09737
3.09775
3.09818
3.09867
3.09921
3.09982
3.10047
3.10117
3.10192
3.10271
3.10354
3.10441
3.10532
3.10626
3.10723
3.10823
3.10925
3.11029
3.11134
3.11241
3.11348
3.11455
3.11561
3.11665
3.11767
3.11866
3.1196
3.12049
3.12132
3.12208
3.12276
3.12336
3.12385
3.12425
3.12453
3.1247
3.12475
3.12467
3.12446
3.12411
3.12363
3.12301
3.12224
3.12134
3.12029
3.11911
3.11779
3.11633
3.11474
3.11302
3.11118
3.10922
3.10715
3.10498
3.10271
3.10037
3.09794
3.09546
3.09293
3.09036
3.08777
3.08516
3.08257
3.07999
3.07744
3.07493
3.07249
3.0701
3.06779
3.06557
3.06343
3.06138
3.05942
3.05755
3.05577
3.05407
3.05246
3.05092
3.04946
3.04805
3.04671
3.04542
3.04418
3.04299
3.04184
3.04073
3.03966
3.03864
3.03765
3.03671
3.03582
3.03497
3.03417
3.03342
3.03272
3.03207
3.03148
3.03094
3.03046
3.03003
3.02965
3.02932
3.02903
3.0288
3.0286
3.02844
3.02832
3.02822
3.02815
3.0281
3.02806
3.02804
3.02802
3.02802
3.02801
3.10644
3.1065
3.10662
3.10679
3.10703
3.10732
3.10767
3.10807
3.10853
3.10904
3.1096
3.11021
3.11087
3.11156
3.1123
3.11308
3.11389
3.11474
3.11561
3.11651
3.11744
3.11838
3.11934
3.12032
3.1213
3.12228
3.12326
3.12422
3.12517
3.12609
3.12698
3.12783
3.12862
3.12936
3.13003
3.13063
3.13115
3.13157
3.1319
3.13212
3.13224
3.13224
3.13213
3.13189
3.13153
3.13104
3.13042
3.12967
3.12879
3.12778
3.12663
3.12536
3.12397
3.12245
3.12081
3.11906
3.1172
3.11524
3.11319
3.11105
3.10883
3.10655
3.10421
3.10182
3.0994
3.09696
3.09451
3.09206
3.08962
3.08721
3.08484
3.08252
3.08025
3.07805
3.07592
3.07386
3.07189
3.06999
3.06818
3.06644
3.06478
3.0632
3.06169
3.06024
3.05885
3.05752
3.05625
3.05502
3.05384
3.05271
3.05161
3.05057
3.04956
3.04859
3.04767
3.0468
3.04596
3.04518
3.04444
3.04376
3.04312
3.04253
3.042
3.04151
3.04108
3.04069
3.04035
3.04005
3.0398
3.03958
3.03941
3.03926
3.03914
3.03905
3.03898
3.03893
3.03889
3.03886
3.03885
3.03884
3.11639
3.11644
3.11655
3.11672
3.11694
3.11721
3.11754
3.11791
3.11834
3.11882
3.11934
3.11991
3.12052
3.12117
3.12186
3.12258
3.12334
3.12412
3.12493
3.12577
3.12663
3.1275
3.12839
3.12928
3.13018
3.13108
3.13197
3.13285
3.13371
3.13455
3.13534
3.1361
3.13681
3.13747
3.13806
3.13858
3.13902
3.13938
3.13965
3.13982
3.13989
3.13986
3.13971
3.13945
3.13908
3.13858
3.13797
3.13723
3.13637
3.13539
3.13429
3.13306
3.13173
3.13028
3.12872
3.12705
3.12529
3.12343
3.12148
3.11946
3.11737
3.11521
3.113
3.11075
3.10847
3.10616
3.10385
3.10153
3.09923
3.09695
3.0947
3.0925
3.09034
3.08824
3.0862
3.08422
3.08232
3.08049
3.07873
3.07704
3.07542
3.07387
3.07238
3.07096
3.06959
3.06828
3.06702
3.06581
3.06465
3.06353
3.06246
3.06143
3.06044
3.05949
3.05859
3.05773
3.05691
3.05614
3.05542
3.05474
3.05411
3.05353
3.053
3.05251
3.05208
3.05168
3.05133
3.05103
3.05076
3.05053
3.05034
3.05018
3.05004
3.04993
3.04985
3.04978
3.04973
3.04969
3.04967
3.04966
3.12628
3.12633
3.12643
3.12659
3.12679
3.12705
3.12735
3.1277
3.1281
3.12855
3.12903
3.12956
3.13013
3.13074
3.13138
3.13205
3.13275
3.13348
3.13423
3.13501
3.1358
3.13661
3.13742
3.13824
3.13907
3.13989
3.1407
3.1415
3.14228
3.14303
3.14375
3.14443
3.14506
3.14564
3.14616
3.14661
3.14699
3.14728
3.1475
3.14762
3.14765
3.14758
3.14741
3.14713
3.14674
3.14624
3.14563
3.14491
3.14407
3.14312
3.14205
3.14088
3.1396
3.13821
3.13673
3.13514
3.13346
3.1317
3.12986
3.12794
3.12596
3.12392
3.12183
3.11971
3.11755
3.11537
3.11318
3.111
3.10882
3.10666
3.10452
3.10242
3.10037
3.09836
3.09641
3.09451
3.09268
3.09091
3.0892
3.08756
3.08598
3.08447
3.08301
3.08162
3.08027
3.07899
3.07775
3.07656
3.07541
3.07431
3.07326
3.07224
3.07127
3.07034
3.06946
3.06861
3.06781
3.06706
3.06635
3.06568
3.06506
3.06448
3.06395
3.06347
3.06303
3.06263
3.06228
3.06196
3.06168
3.06144
3.06124
3.06106
3.06091
3.06079
3.06069
3.06061
3.06055
3.06051
3.06048
3.06047
3.13612
3.13617
3.13626
3.13641
3.1366
3.13684
3.13712
3.13745
3.13782
3.13823
3.13868
3.13918
3.1397
3.14027
3.14086
3.14149
3.14214
3.14281
3.14351
3.14422
3.14496
3.1457
3.14645
3.1472
3.14796
3.14871
3.14945
3.15017
3.15087
3.15155
3.15219
3.1528
3.15336
3.15387
3.15432
3.15471
3.15503
3.15527
3.15543
3.15552
3.15551
3.15541
3.15521
3.15491
3.15451
3.15401
3.15341
3.1527
3.15188
3.15096
3.14993
3.14881
3.14758
3.14625
3.14483
3.14332
3.14173
3.14005
3.1383
3.13649
3.13461
3.13268
3.1307
3.12869
3.12665
3.12459
3.12252
3.12045
3.11838
3.11633
3.11431
3.11231
3.11035
3.10843
3.10656
3.10474
3.10297
3.10126
3.09961
3.09802
3.09649
3.09501
3.09359
3.09222
3.0909
3.08964
3.08842
3.08725
3.08613
3.08505
3.08401
3.08302
3.08206
3.08115
3.08028
3.07946
3.07867
3.07793
3.07723
3.07657
3.07596
3.07539
3.07486
3.07438
3.07394
3.07354
3.07318
3.07286
3.07257
3.07232
3.0721
3.07192
3.07176
3.07162
3.07151
3.07143
3.07136
3.07131
3.07128
3.07126
3.14591
3.14595
3.14604
3.14618
3.14635
3.14658
3.14684
3.14714
3.14749
3.14787
3.1483
3.14875
3.14924
3.14976
3.15032
3.15089
3.1515
3.15212
3.15277
3.15343
3.1541
3.15478
3.15547
3.15616
3.15685
3.15753
3.1582
3.15886
3.15949
3.1601
3.16067
3.16121
3.16171
3.16215
3.16254
3.16287
3.16314
3.16333
3.16345
3.1635
3.16345
3.16333
3.16311
3.1628
3.16239
3.16189
3.16129
3.16059
3.1598
3.1589
3.15791
3.15683
3.15565
3.15438
3.15302
3.15159
3.15007
3.14848
3.14681
3.14509
3.14331
3.14148
3.13961
3.13771
3.13577
3.13382
3.13186
3.1299
3.12793
3.12599
3.12406
3.12215
3.12028
3.11845
3.11666
3.11491
3.11321
3.11156
3.10996
3.10842
3.10693
3.10549
3.10411
3.10277
3.10148
3.10024
3.09905
3.09791
3.0968
3.09574
3.09473
3.09375
3.09281
3.09192
3.09107
3.09025
3.08948
3.08875
3.08806
3.08742
3.08681
3.08625
3.08573
3.08525
3.08481
3.0844
3.08404
3.08371
3.08342
3.08316
3.08294
3.08274
3.08257
3.08243
3.08231
3.08222
3.08214
3.08209
3.08205
3.08204
3.15565
3.15569
3.15578
3.1559
3.15607
3.15627
3.15652
3.1568
3.15712
3.15748
3.15787
3.15829
3.15875
3.15923
3.15974
3.16028
3.16083
3.16141
3.162
3.16261
3.16323
3.16386
3.16449
3.16512
3.16575
3.16637
3.16698
3.16757
3.16814
3.16868
3.16919
3.16967
3.1701
3.17049
3.17083
3.1711
3.17132
3.17147
3.17155
3.17156
3.17149
3.17133
3.1711
3.17077
3.17036
3.16986
3.16927
3.16859
3.16781
3.16694
3.16599
3.16494
3.16381
3.1626
3.1613
3.15993
3.15848
3.15697
3.15539
3.15375
3.15206
3.15033
3.14855
3.14675
3.14491
3.14306
3.1412
3.13933
3.13747
3.13562
3.13378
3.13197
3.13018
3.12843
3.12671
3.12503
3.12339
3.1218
3.12026
3.11877
3.11732
3.11592
3.11457
3.11327
3.11201
3.1108
3.10964
3.10851
3.10743
3.10639
3.1054
3.10444
3.10352
3.10264
3.10181
3.10101
3.10025
3.09954
3.09886
3.09822
3.09762
3.09707
3.09655
3.09607
3.09563
3.09523
3.09486
3.09453
3.09424
3.09397
3.09374
3.09354
3.09336
3.09321
3.09309
3.09299
3.09291
3.09285
3.09281
3.09279
3.16535
3.16539
3.16547
3.16558
3.16574
3.16593
3.16616
3.16642
3.16672
3.16705
3.16741
3.1678
3.16822
3.16867
3.16914
3.16964
3.17015
3.17068
3.17123
3.17179
3.17236
3.17293
3.17351
3.17408
3.17465
3.17521
3.17576
3.1763
3.17681
3.17729
3.17775
3.17817
3.17854
3.17888
3.17916
3.1794
3.17957
3.17968
3.17972
3.1797
3.1796
3.17943
3.17917
3.17884
3.17842
3.17792
3.17734
3.17667
3.17591
3.17507
3.17415
3.17314
3.17206
3.17089
3.16965
3.16834
3.16696
3.16552
3.16402
3.16246
3.16086
3.15921
3.15752
3.15581
3.15407
3.15231
3.15054
3.14877
3.147
3.14523
3.14348
3.14175
3.14004
3.13836
3.13672
3.13511
3.13353
3.132
3.13051
3.12906
3.12766
3.1263
3.12499
3.12372
3.1225