/*--------------------------------*- C++ -*----------------------------------*\
| =========                 |                                                 |
| \\      /  F ield         | OpenFOAM: The Open Source CFD Toolbox           |
|  \\    /   O peration     | Version:  2406                                  |
|   \\  /    A nd           | Website:  www.openfoam.com                      |
|    \\/     M anipulation  |                                                 |
\*---------------------------------------------------------------------------*/
FoamFile
{
    version     2.0;
    format      ascii;
    arch        "LSB;label=32;scalar=64";
    class       volScalarField;
    location    "1.3";
    object      C_0_0;
}
// * * * * * * * * * * * * * * * * * * * * * * * * * * * * * * * * * * * * * //

dimensions      [1 -3 0 0 0 0 0];

internalField   nonuniform List<scalar> 
14400
(
2.89208
2.88951
2.88412
2.87531
2.86186
2.83618
2.80389
2.79145
2.80819
2.84418
2.87276
2.88898
2.90086
2.9096
2.91583
2.91989
2.92193
2.92195
2.91978
2.91507
2.90713
2.89464
2.86998
2.83959
2.83015
2.85048
2.89027
2.92223
2.94163
2.95714
2.96996
2.98079
2.99007
2.99808
3.00502
3.01105
3.01627
3.02076
3.02459
3.02781
3.03045
3.03256
3.03414
3.03523
3.03584
3.03598
3.03566
3.03488
3.03364
3.03194
3.02979
3.02716
3.02405
3.02045
3.01634
3.0117
3.0065
3.00072
2.9943
2.98721
2.97939
2.97077
2.96126
2.95074
2.93909
2.92611
2.91156
2.89508
2.87619
2.85414
2.82775
2.78657
2.73092
2.68652
2.66395
2.65905
2.67158
2.70569
2.75204
2.78581
2.80528
2.81979
2.8307
2.8388
2.84459
2.84839
2.8504
2.85072
2.84938
2.84636
2.84155
2.83471
2.82548
2.81321
2.79673
2.76839
2.73211
2.7138
2.72388
2.75305
2.77565
2.78643
2.79212
2.79377
2.79166
2.78553
2.77434
2.75132
2.72161
2.71089
2.72857
2.76432
2.79227
2.80845
2.82045
2.82947
2.83616
2.84091
2.84397
2.84547
2.89464
2.89233
2.88755
2.87995
2.86901
2.85398
2.83069
2.81804
2.83496
2.86157
2.87945
2.89332
2.90401
2.91211
2.918
2.92191
2.92395
2.92413
2.92232
2.91831
2.91168
2.90186
2.88809
2.86649
2.85674
2.87737
2.90739
2.92836
2.94551
2.95983
2.97195
2.98235
2.99133
2.99914
3.00594
3.01186
3.01699
3.02142
3.0252
3.02838
3.03099
3.03307
3.03464
3.03571
3.03631
3.03645
3.03612
3.03533
3.0341
3.03241
3.03025
3.02764
3.02454
3.02096
3.01687
3.01226
3.00709
3.00134
2.99497
2.98794
2.98019
2.97166
2.96226
2.95188
2.94042
2.92768
2.91347
2.89749
2.87935
2.85849
2.83409
2.80472
2.76235
2.72019
2.70258
2.69785
2.70549
2.73719
2.77114
2.79325
2.81025
2.8234
2.8335
2.8411
2.84658
2.85018
2.85208
2.85237
2.85107
2.84816
2.84356
2.8371
2.82852
2.81741
2.80318
2.78502
2.75814
2.73995
2.75005
2.77058
2.78316
2.79151
2.79617
2.79752
2.7957
2.79058
2.78178
2.76876
2.74774
2.73699
2.75453
2.78093
2.79871
2.81261
2.82344
2.83179
2.83809
2.84261
2.84553
2.84697
2.89952
2.89762
2.89377
2.88794
2.88018
2.87104
2.86246
2.85617
2.86619
2.87794
2.89008
2.90083
2.90975
2.91682
2.92214
2.9258
2.92784
2.92828
2.92708
2.92414
2.91942
2.91296
2.90535
2.89863
2.8949
2.90817
2.92297
2.93821
2.95223
2.9647
2.97567
2.98531
2.99377
3.00121
3.00773
3.01345
3.01843
3.02273
3.02641
3.02951
3.03207
3.0341
3.03562
3.03667
3.03725
3.03736
3.03703
3.03624
3.03501
3.03332
3.03119
3.02859
3.02552
3.02197
3.01793
3.01336
3.00826
3.00259
2.99631
2.98939
2.98178
2.97341
2.96422
2.95412
2.943
2.93074
2.91716
2.90207
2.88523
2.86636
2.84523
2.82181
2.79711
2.76933
2.75601
2.75163
2.75522
2.7735
2.79002
2.80566
2.81906
2.83005
2.8388
2.84553
2.85044
2.85368
2.85538
2.8556
2.85436
2.85165
2.84744
2.84162
2.83409
2.82472
2.81351
2.80083
2.78836
2.77724
2.78141
2.78791
2.79487
2.80028
2.80352
2.80444
2.80303
2.7993
2.79341
2.78595
2.77895
2.77418
2.78472
2.79672
2.809
2.81985
2.8289
2.83617
2.8418
2.8459
2.84858
2.8499
2.9063
2.90485
2.90199
2.89785
2.89274
2.88741
2.88335
2.88282
2.88663
2.89379
2.90211
2.91018
2.91733
2.92328
2.92794
2.93129
2.93334
2.93409
2.93355
2.93178
2.92889
2.92523
2.92158
2.91951
2.92137
2.92793
2.93795
2.94926
2.96051
2.97107
2.98073
2.98944
2.99724
3.00418
3.01034
3.01577
3.02053
3.02466
3.02821
3.0312
3.03366
3.03562
3.03709
3.0381
3.03864
3.03874
3.03839
3.0376
3.03637
3.0347
3.03258
3.03001
3.02698
3.02348
3.0195
3.01501
3.01
3.00443
2.99829
2.99153
2.98411
2.97599
2.9671
2.95737
2.94674
2.9351
2.92235
2.9084
2.89313
2.87651
2.85863
2.83995
2.8216
2.80575
2.79427
2.78989
2.79245
2.79952
2.80959
2.8203
2.83028
2.83895
2.84612
2.85177
2.85596
2.85873
2.86016
2.86028
2.85911
2.85666
2.85291
2.84785
2.84148
2.83388
2.8253
2.81635
2.80834
2.80334
2.80236
2.80469
2.80814
2.81122
2.81318
2.81369
2.81267
2.8102
2.8066
2.80263
2.79976
2.80019
2.80466
2.81218
2.82069
2.82889
2.83614
2.84221
2.84703
2.85061
2.85298
2.85415
2.91452
2.91349
2.91149
2.90872
2.90552
2.90252
2.90064
2.90088
2.90365
2.90849
2.91438
2.92045
2.9261
2.93103
2.93505
2.93809
2.94013
2.94117
2.94126
2.94052
2.93913
2.93749
2.93624
2.93634
2.93885
2.94413
2.95165
2.96038
2.96946
2.97834
2.98673
2.99448
3.00156
3.00795
3.01368
3.01877
3.02326
3.02718
3.03055
3.0334
3.03576
3.03763
3.03903
3.03998
3.04048
3.04055
3.04019
3.03939
3.03817
3.03651
3.03442
3.03189
3.02892
3.02548
3.02157
3.01718
3.01228
3.00686
3.00088
2.99432
2.98715
2.97933
2.97081
2.96154
2.95148
2.94057
2.92876
2.91603
2.90238
2.88791
2.87285
2.85773
2.84345
2.83129
2.82252
2.81829
2.81859
2.82238
2.82852
2.83567
2.84281
2.84935
2.85495
2.85948
2.86288
2.86513
2.86625
2.86626
2.86515
2.86296
2.85969
2.85538
2.85011
2.84403
2.83746
2.83092
2.82526
2.82144
2.81992
2.82036
2.82178
2.82329
2.82429
2.82448
2.82375
2.82221
2.82017
2.81821
2.81722
2.81819
2.82148
2.82664
2.83271
2.83886
2.84455
2.84948
2.8535
2.85653
2.85856
2.85958
2.92378
2.92308
2.92176
2.92001
2.91811
2.91652
2.91578
2.91641
2.9186
2.92213
2.92648
2.93112
2.93561
2.93968
2.94314
2.9459
2.94791
2.9492
2.94982
2.94989
2.94963
2.94935
2.94954
2.95077
2.95356
2.9581
2.96414
2.97116
2.97862
2.98611
2.99336
3.00021
3.00656
3.01237
3.01764
3.02237
3.02656
3.03024
3.03342
3.03611
3.03833
3.0401
3.04142
3.04231
3.04276
3.0428
3.04241
3.04161
3.0404
3.03876
3.0367
3.03422
3.0313
3.02794
3.02413
3.01985
3.01509
3.00983
3.00406
2.99773
2.99085
2.98336
2.97526
2.9665
2.95706
2.94693
2.93609
2.92458
2.91246
2.89988
2.88714
2.87468
2.86317
2.85343
2.84624
2.84217
2.84122
2.8429
2.84645
2.85104
2.85595
2.86067
2.86486
2.86832
2.87094
2.87266
2.87346
2.87333
2.87228
2.87033
2.86751
2.86387
2.85954
2.85468
2.84957
2.84462
2.84034
2.83724
2.83553
2.83506
2.83534
2.83585
2.83621
2.83617
2.83565
2.83473
2.83365
2.83281
2.83273
2.83388
2.83644
2.8402
2.84465
2.8493
2.85373
2.85767
2.86095
2.86346
2.86517
2.86602
2.93374
2.93329
2.93248
2.93144
2.9304
2.92966
2.92956
2.93038
2.93221
2.93494
2.93829
2.94193
2.94555
2.94894
2.95193
2.95444
2.95643
2.9579
2.95892
2.9596
2.96013
2.96075
2.9618
2.96363
2.96651
2.97056
2.97565
2.98148
2.98774
2.99412
3.0004
3.00642
3.01209
3.01734
3.02215
3.0265
3.03038
3.0338
3.03676
3.03928
3.04136
3.04302
3.04425
3.04506
3.04546
3.04546
3.04506
3.04425
3.04304
3.04143
3.03941
3.03698
3.03413
3.03086
3.02716
3.02301
3.0184
3.01333
3.00777
3.00171
2.99513
2.98802
2.98036
2.97213
2.96334
2.95399
2.9441
2.93373
2.92298
2.91203
2.90114
2.89068
2.88112
2.87302
2.86685
2.86292
2.86124
2.86153
2.86333
2.86608
2.86928
2.87252
2.8755
2.878
2.8799
2.88111
2.8816
2.88133
2.88031
2.87857
2.87613
2.87307
2.8695
2.86558
2.86153
2.85765
2.85425
2.85163
2.84991
2.84899
2.84865
2.84858
2.84853
2.84834
2.84795
2.84741
2.8469
2.84666
2.84699
2.84814
2.8502
2.85305
2.8564
2.85995
2.86339
2.86651
2.86916
2.87121
2.87261
2.87332
2.94414
2.94388
2.94341
2.94286
2.94238
2.94216
2.94243
2.94333
2.94492
2.94714
2.94981
2.95274
2.95573
2.95859
2.96121
2.96351
2.96545
2.96705
2.96836
2.96947
2.97053
2.97173
2.97329
2.97542
2.9783
2.98199
2.98641
2.99139
2.99673
3.00222
3.00769
3.01299
3.01804
3.02276
3.02712
3.03109
3.03466
3.03781
3.04056
3.04289
3.04482
3.04635
3.04748
3.04822
3.04857
3.04853
3.0481
3.04729
3.04609
3.0445
3.04253
3.04015
3.03738
3.03421
3.03062
3.02662
3.02218
3.01731
3.01198
3.0062
2.99995
2.99323
2.98602
2.97834
2.97018
2.96159
2.95259
2.94326
2.93371
2.92412
2.9147
2.90576
2.89763
2.89068
2.88521
2.88141
2.87928
2.87866
2.87925
2.88068
2.88258
2.88464
2.8866
2.88828
2.88954
2.89029
2.89048
2.89008
2.88908
2.8875
2.88537
2.88278
2.8798
2.87659
2.87332
2.87018
2.86739
2.86513
2.86346
2.86236
2.86169
2.86129
2.86099
2.8607
2.86038
2.86007
2.85987
2.85993
2.86043
2.8615
2.86318
2.86539
2.86796
2.87069
2.87338
2.87584
2.87795
2.87961
2.88074
2.88132
2.9548
2.95467
2.95444
2.95421
2.95408
2.95419
2.95466
2.95558
2.957
2.95887
2.96108
2.96351
2.96602
2.96848
2.9708
2.97293
2.97482
2.9765
2.97799
2.97939
2.98079
2.98235
2.98419
2.98647
2.98929
2.99268
2.9966
3.00095
3.00558
3.01035
3.01513
3.01981
3.0243
3.02854
3.03248
3.03609
3.03934
3.04224
3.04476
3.04691
3.04869
3.05009
3.05112
3.05177
3.05206
3.05198
3.05153
3.05071
3.04953
3.04797
3.04604
3.04373
3.04104
3.03797
3.03451
3.03065
3.0264
3.02173
3.01665
3.01116
3.00525
2.99891
2.99216
2.98501
2.97747
2.96958
2.9614
2.953
2.94449
2.93603
2.9278
2.92002
2.91296
2.90685
2.9019
2.89822
2.89582
2.89459
2.89433
2.89479
2.89571
2.89685
2.89799
2.89898
2.89969
2.90004
2.89996
2.89942
2.89842
2.89696
2.89509
2.89286
2.89035
2.88767
2.88496
2.88236
2.88001
2.87803
2.87646
2.87529
2.87446
2.87388
2.87344
2.8731
2.87281
2.87262
2.87257
2.87277
2.87331
2.87425
2.87562
2.87736
2.87936
2.88148
2.88358
2.88552
2.8872
2.88852
2.88944
2.8899
2.96559
2.96554
2.96548
2.96546
2.96555
2.96585
2.96643
2.96735
2.96863
2.97025
2.97213
2.9742
2.97636
2.97851
2.9806
2.98257
2.98441
2.98611
2.98772
2.9893
2.99091
2.99267
2.99466
2.99698
2.9997
3.00284
3.00637
3.01021
3.01428
3.01847
3.02268
3.02682
3.03082
3.03462
3.03816
3.04143
3.04439
3.04703
3.04933
3.0513
3.05292
3.05419
3.05512
3.0557
3.05592
3.0558
3.05533
3.0545
3.05333
3.0518
3.04992
3.04768
3.04508
3.04212
3.03879
3.03509
3.03102
3.02657
3.02174
3.01654
3.01096
3.00501
2.99871
2.99206
2.9851
2.97787
2.97043
2.96285
2.95523
2.94771
2.94043
2.93358
2.92733
2.92186
2.91731
2.91375
2.91119
2.90955
2.90869
2.90845
2.90863
2.90905
2.90954
2.90996
2.91021
2.9102
2.90989
2.90922
2.90821
2.90685
2.90517
2.90322
2.90106
2.89879
2.8965
2.89429
2.89227
2.89051
2.88904
2.88788
2.88699
2.88632
2.88581
2.88543
2.88515
2.88501
2.88503
2.88526
2.88577
2.88658
2.8877
2.88907
2.89064
2.8923
2.89394
2.89547
2.89679
2.89785
2.89858
2.89895
2.97642
2.97643
2.97647
2.97658
2.97681
2.97722
2.97786
2.97876
2.97993
2.98136
2.983
2.9848
2.98669
2.98861
2.99051
2.99235
2.99412
2.99583
2.99749
2.99916
3.00089
3.00274
3.00479
3.0071
3.0097
3.01261
3.01581
3.01925
3.02286
3.02657
3.0303
3.03398
3.03754
3.04094
3.04413
3.04708
3.04976
3.05215
3.05425
3.05603
3.0575
3.05865
3.05947
3.05996
3.06013
3.05997
3.05947
3.05865
3.05749
3.05599
3.05416
3.05199
3.04948
3.04663
3.04344
3.0399
3.03601
3.03178
3.02721
3.02229
3.01704
3.01147
3.00559
2.99943
2.99301
2.98638
2.9796
2.97273
2.96588
2.95914
2.95264
2.94652
2.94092
2.93596
2.93173
2.92828
2.92563
2.92371
2.92244
2.92169
2.92131
2.92118
2.92115
2.92111
2.92098
2.92068
2.92016
2.91938
2.91835
2.91705
2.91551
2.91377
2.91189
2.90992
2.90794
2.90603
2.90426
2.90268
2.90133
2.90021
2.89931
2.89859
2.89805
2.89764
2.89737
2.89723
2.89727
2.89749
2.89793
2.8986
2.8995
2.90059
2.90183
2.90312
2.90441
2.90561
2.90666
2.90749
2.90807
2.90837
2.98725
2.98729
2.9874
2.98759
2.9879
2.98836
2.98902
2.98989
2.99097
2.99225
2.99371
2.99531
2.99699
2.99872
3.00047
3.0022
3.0039
3.00558
3.00726
3.00896
3.01074
3.01262
3.01467
3.01692
3.01939
3.02209
3.02501
3.02811
3.03134
3.03465
3.03797
3.04125
3.04443
3.04747
3.05034
3.05299
3.05541
3.05757
3.05947
3.06108
3.0624
3.06342
3.06414
3.06456
3.06467
3.06447
3.06395
3.06312
3.06198
3.06052
3.05874
3.05664
3.05422
3.05149
3.04843
3.04505
3.04135
3.03734
3.03301
3.02838
3.02345
3.01823
3.01276
3.00704
3.00112
2.99504
2.98884
2.9826
2.9764
2.97032
2.96447
2.95896
2.95387
2.94932
2.94535
2.94203
2.93933
2.93723
2.93567
2.93454
2.93376
2.93319
2.93276
2.93236
2.93192
2.93137
2.93068
2.92981
2.92874
2.92749
2.92606
2.92448
2.9228
2.92106
2.91932
2.91764
2.91606
2.91463
2.91338
2.91231
2.91142
2.91071
2.91014
2.90972
2.90944
2.9093
2.90931
2.90949
2.90985
2.9104
2.91111
2.91198
2.91294
2.91396
2.91497
2.91591
2.91673
2.91739
2.91785
2.91808
2.99802
2.99809
2.99823
2.99847
2.99883
2.99932
2.99997
3.0008
3.0018
3.00297
3.00429
3.00573
3.00725
3.00883
3.01044
3.01207
3.0137
3.01534
3.017
3.0187
3.02047
3.02234
3.02435
3.02651
3.02885
3.03136
3.03403
3.03684
3.03975
3.04271
3.04568
3.04861
3.05146
3.05419
3.05676
3.05914
3.06132
3.06327
3.06497
3.06642
3.0676
3.0685
3.06912
3.06946
3.06951
3.06927
3.06874
3.06791
3.06678
3.06536
3.06363
3.06161
3.05928
3.05666
3.05374
3.05052
3.04701
3.0432
3.03912
3.03476
3.03013
3.02526
3.02016
3.01486
3.0094
3.0038
2.99813
2.99244
2.9868
2.98128
2.97597
2.97095
2.9663
2.96208
2.95835
2.95513
2.95243
2.95022
2.94846
2.94706
2.94597
2.94509
2.94434
2.94365
2.94296
2.94222
2.94138
2.94042
2.93932
2.9381
2.93675
2.93529
2.93376
2.9322
2.93064
2.92914
2.92771
2.92641
2.92524
2.92423
2.92337
2.92266
2.92209
2.92166
2.92137
2.9212
2.92119
2.92131
2.92159
2.92202
2.92258
2.92326
2.92401
2.9248
2.92559
2.92633
2.92697
2.92749
2.92785
2.92803
3.00873
3.00881
3.00898
3.00924
3.00961
3.01011
3.01075
3.01154
3.01247
3.01354
3.01475
3.01605
3.01744
3.0189
3.0204
3.02193
3.02349
3.02507
3.02669
3.02836
3.0301
3.03193
3.03387
3.03593
3.03813
3.04046
3.04291
3.04547
3.04809
3.05076
3.05343
3.05605
3.05861
3.06105
3.06336
3.0655
3.06745
3.0692
3.07073
3.07202
3.07306
3.07386
3.07439
3.07466
3.07465
3.07438
3.07382
3.07299
3.07189
3.0705
3.06883
3.06687
3.06464
3.06213
3.05934
3.05628
3.05295
3.04935
3.0455
3.0414
3.03706
3.03251
3.02777
3.02285
3.0178
3.01264
3.00744
3.00222
2.99707
2.99203
2.98718
2.98258
2.97828
2.97436
2.97083
2.96772
2.96505
2.96277
2.96087
2.95928
2.95796
2.95684
2.95585
2.95494
2.95406
2.95315
2.95219
2.95116
2.95004
2.94883
2.94754
2.94617
2.94476
2.94333
2.94192
2.94054
2.93924
2.93804
2.93696
2.936
2.93517
2.93447
2.93391
2.93347
2.93316
2.93297
2.93291
2.93298
2.93318
2.9335
2.93393
2.93445
2.93504
2.93565
2.93626
2.93683
2.93734
2.93774
2.93802
2.93817
3.01936
3.01945
3.01962
3.01989
3.02027
3.02076
3.02138
3.02212
3.023
3.02399
3.02509
3.02629
3.02758
3.02893
3.03033
3.03177
3.03325
3.03477
3.03634
3.03796
3.03964
3.0414
3.04326
3.04521
3.04727
3.04944
3.05169
3.05402
3.0564
3.05881
3.06121
3.06357
3.06586
3.06805
3.07012
3.07204
3.07379
3.07536
3.07672
3.07787
3.07879
3.07947
3.07992
3.08012
3.08006
3.07975
3.07918
3.07836
3.07727
3.07591
3.0743
3.07242
3.07028
3.06788
3.06522
3.06231
3.05916
3.05576
3.05213
3.04827
3.04421
3.03996
3.03554
3.03098
3.0263
3.02154
3.01674
3.01195
3.00722
3.0026
2.99813
2.99389
2.98991
2.98623
2.98288
2.97989
2.97725
2.97495
2.97296
2.97124
2.96976
2.96846
2.96729
2.96621
2.96517
2.96414
2.96309
2.96199
2.96085
2.95965
2.95839
2.9571
2.95578
2.95445
2.95314
2.95188
2.95068
2.94956
2.94854
2.94763
2.94683
2.94615
2.94559
2.94515
2.94482
2.94461
2.94451
2.94452
2.94465
2.94488
2.94519
2.94559
2.94603
2.9465
2.94697
2.94741
2.9478
2.94811
2.94833
2.94844
3.0299
3.02999
3.03017
3.03044
3.03081
3.03129
3.03188
3.03258
3.0334
3.03432
3.03534
3.03645
3.03764
3.0389
3.04021
3.04157
3.04298
3.04443
3.04593
3.04748
3.0491
3.05078
3.05254
3.05439
3.05632
3.05832
3.0604
3.06253
3.06469
3.06687
3.06903
3.07115
3.07321
3.07518
3.07704
3.07875
3.08032
3.08172
3.08292
3.08394
3.08474
3.08533
3.08569
3.08583
3.08573
3.08539
3.0848
3.08398
3.08291
3.0816
3.08003
3.07823
3.07618
3.07389
3.07136
3.06859
3.0656
3.06239
3.05897
3.05535
3.05155
3.04758
3.04346
3.03921
3.03487
3.03047
3.02604
3.02163
3.01726
3.013
3.00887
3.00494
3.00122
2.99777
2.99459
2.9917
2.98911
2.98681
2.98477
2.98297
2.98137
2.97994
2.97864
2.97743
2.97627
2.97514
2.97402
2.97288
2.97171
2.97052
2.96929
2.96805
2.9668
2.96555
2.96433
2.96315
2.96202
2.96098
2.96001
2.95914
2.95838
2.95772
2.95716
2.95671
2.95637
2.95613
2.95599
2.95595
2.95601
2.95616
2.95638
2.95667
2.957
2.95735
2.9577
2.95804
2.95834
2.95858
2.95874
2.95883
3.04036
3.04044
3.04062
3.04088
3.04125
3.04171
3.04227
3.04293
3.04369
3.04455
3.0455
3.04653
3.04764
3.04881
3.05004
3.05132
3.05266
3.05404
3.05546
3.05695
3.05848
3.06008
3.06175
3.06348
3.06528
3.06714
3.06904
3.07099
3.07296
3.07493
3.07689
3.0788
3.08065
3.08242
3.08408
3.08562
3.08702
3.08826
3.08933
3.09022
3.09091
3.09141
3.0917
3.09177
3.09163
3.09126
3.09067
3.08985
3.0888
3.08752
3.08601
3.08428
3.08231
3.08013
3.07772
3.0751
3.07227
3.06924
3.06602
3.06262
3.05905
3.05534
3.05149
3.04755
3.04351
3.03943
3.03533
3.03124
3.0272
3.02325
3.01943
3.01576
3.01228
3.00902
3.006
3.00322
3.00069
2.9984
2.99634
2.99449
2.99282
2.9913
2.9899
2.98859
2.98735
2.98614
2.98496
2.98378
2.9826
2.98141
2.98021
2.97901
2.97781
2.97663
2.97547
2.97436
2.9733
2.9723
2.97139
2.97056
2.96982
2.96917
2.96862
2.96816
2.96781
2.96754
2.96737
2.96729
2.96729
2.96736
2.9675
2.9677
2.96794
2.96819
2.96846
2.96871
2.96893
2.96911
2.96924
2.9693
3.05072
3.05081
3.05098
3.05123
3.05158
3.05202
3.05255
3.05317
3.05389
3.05469
3.05558
3.05654
3.05757
3.05867
3.05982
3.06103
3.06228
3.06359
3.06495
3.06635
3.06781
3.06932
3.07089
3.07251
3.07418
3.0759
3.07765
3.07944
3.08123
3.08302
3.08479
3.08651
3.08818
3.08976
3.09125
3.09262
3.09387
3.09497
3.09591
3.09668
3.09728
3.09769
3.09791
3.09793
3.09775
3.09736
3.09676
3.09594
3.09492
3.09367
3.09222
3.09055
3.08867
3.08659
3.0843
3.08181
3.07914
3.07628
3.07324
3.07005
3.0667
3.06323
3.05964
3.05596
3.05221
3.04841
3.0446
3.04081
3.03706
3.03338
3.02982
3.02639
3.02313
3.02004
3.01716
3.01449
3.01202
3.00977
3.00771
3.00583
3.00411
3.00253
3.00106
2.99969
2.99838
2.99712
2.9959
2.99469
2.9935
2.99232
2.99114
2.98996
2.98881
2.98767
2.98657
2.98551
2.9845
2.98356
2.98268
2.98188
2.98116
2.98053
2.97998
2.97952
2.97915
2.97886
2.97866
2.97853
2.97848
2.9785
2.97857
2.9787
2.97885
2.97903
2.97922
2.9794
2.97956
2.9797
2.97979
2.97984
3.061
3.06108
3.06125
3.06149
3.06182
3.06224
3.06274
3.06333
3.064
3.06475
3.06557
3.06647
3.06743
3.06846
3.06954
3.07068
3.07186
3.0731
3.07438
3.0757
3.07708
3.0785
3.07997
3.08148
3.08303
3.08462
3.08624
3.08787
3.0895
3.09113
3.09272
3.09428
3.09578
3.0972
3.09853
3.09976
3.10086
3.10183
3.10266
3.10333
3.10384
3.10417
3.10433
3.1043
3.10408
3.10367
3.10306
3.10225
3.10125
3.10004
3.09864
3.09704
3.09524
3.09325
3.09108
3.08872
3.08618
3.08348
3.08063
3.07762
3.07448
3.07123
3.06787
3.06444
3.06094
3.0574
3.05386
3.05032
3.04683
3.04341
3.04007
3.03686
3.03378
3.03086
3.02811
3.02554
3.02315
3.02093
3.01889
3.017
3.01526
3.01364
3.01214
3.01071
3.00936
3.00807
3.00682
3.00559
3.00439
3.00321
3.00205
3.0009
2.99978
2.99868
2.99762
2.99661
2.99564
2.99474
2.99389
2.99312
2.99242
2.9918
2.99126
2.99079
2.99041
2.9901
2.98987
2.98971
2.98961
2.98958
2.98959
2.98965
2.98975
2.98986
2.98999
2.99011
2.99023
2.99032
2.99039
2.99042
3.0712
3.07128
3.07143
3.07167
3.07198
3.07237
3.07285
3.0734
3.07402
3.07472
3.0755
3.07634
3.07724
3.0782
3.07921
3.08028
3.08139
3.08255
3.08376
3.08501
3.0863
3.08763
3.089
3.09041
3.09185
3.09332
3.0948
3.09629
3.09778
3.09926
3.1007
3.10211
3.10346
3.10473
3.10592
3.10701
3.10799
3.10884
3.10956
3.11014
3.11056
3.11083
3.11092
3.11085
3.1106
3.11017
3.10955
3.10876
3.10777
3.1066
3.10525
3.10371
3.102
3.1001
3.09803
3.0958
3.0934
3.09085
3.08815
3.08533
3.08238
3.07933
3.07619
3.07297
3.06971
3.06641
3.0631
3.0598
3.05654
3.05334
3.05021
3.04719
3.04428
3.04151
3.03889
3.03641
3.03409
3.03193
3.02991
3.02804
3.02629
3.02465
3.02312
3.02167
3.02029
3.01897
3.0177
3.01647
3.01526
3.01409
3.01294
3.01182
3.01072
3.00966
3.00864
3.00766
3.00673
3.00585
3.00503
3.00428
3.0036
3.00299
3.00245
3.00198
3.00159
3.00126
3.001
3.00081
3.00068
3.0006
3.00057
3.00058
3.00062
3.00068
3.00076
3.00084
3.00091
3.00097
3.00102
3.00104
3.08131
3.08139
3.08154
3.08176
3.08206
3.08243
3.08287
3.08339
3.08397
3.08463
3.08535
3.08614
3.08698
3.08788
3.08883
3.08983
3.09088
3.09197
3.0931
3.09427
3.09548
3.09672
3.098
3.09931
3.10064
3.10199
3.10335
3.10472
3.10608
3.10742
3.10873
3.10999
3.1112
3.11234
3.11341
3.11437
3.11524
3.11599
3.11661
3.1171
3.11745
3.11765
3.11769
3.11758
3.1173
3.11685
3.11624
3.11545
3.11449
3.11335
3.11205
3.11057
3.10893
3.10712
3.10515
3.10303
3.10076
3.09835
3.09581
3.09315
3.09039
3.08752
3.08458
3.08157
3.07851
3.07542
3.07233
3.06924
3.06619
3.06318
3.06025
3.0574
3.05465
3.05202
3.04951
3.04713
3.04489
3.04278
3.0408
3.03894
3.0372
3.03556
3.03402
3.03255
3.03116
3.02983
3.02855
3.02731
3.02611
3.02494
3.0238
3.0227
3.02163
3.0206
3.0196
3.01865
3.01775
3.0169
3.01611
3.01538
3.01471
3.01411
3.01357
3.0131
3.01269
3.01235
3.01207
3.01185
3.01169
3.01157
3.0115
3.01147
3.01147
3.01149
3.01152
3.01156
3.0116
3.01164
3.01167
3.01168
3.09136
3.09143
3.09157
3.09178
3.09206
3.0924
3.09282
3.09331
3.09386
3.09447
3.09514
3.09588
3.09667
3.09751
3.0984
3.09934
3.10032
3.10134
3.1024
3.10349
3.10462
3.10578
3.10697
3.10818
3.10941
3.11065
3.1119
3.11315
3.11439
3.1156
3.11679
3.11793
3.11902
3.12004
3.12098
3.12184
3.1226
3.12325
3.12379
3.1242
3.12448
3.12462
3.12462
3.12447
3.12416
3.1237
3.12309
3.12231
3.12137
3.12027
3.11901
3.1176
3.11603
3.1143
3.11243
3.11042
3.10827
3.10599
3.10359
3.10109
3.09848
3.09579
3.09303
3.0902
3.08734
3.08444
3.08154
3.07865
3.07578
3.07296
3.07019
3.0675
3.0649
3.06239
3.06
3.05771
3.05554
3.05349
3.05155
3.04973
3.048
3.04637
3.04483
3.04336
3.04197
3.04063
3.03935
3.03811
3.03691
3.03576
3.03464
3.03355
3.0325
3.03149
3.03052
3.0296
3.02872
3.0279
3.02713
3.02641
3.02575
3.02516
3.02462
3.02415
3.02374
3.02338
3.02309
3.02284
3.02265
3.0225
3.0224
3.02233
3.02229
3.02227
3.02227
3.02228
3.0223
3.02232
3.02233
3.02234
3.10133
3.10139
3.10153
3.10172
3.10199
3.10231
3.1027
3.10316
3.10367
3.10425
3.10488
3.10556
3.1063
3.10709
3.10792
3.10879
3.10971
3.11067
3.11166
3.11268
3.11373
3.11481
3.11591
3.11703
3.11817
3.11931
3.12046
3.1216
3.12272
3.12382
3.12489
3.12592
3.1269
3.12781
3.12865
3.12941
3.13007
3.13064
3.13109
3.13143
3.13165
3.13174
3.13169
3.13151
3.13119
3.13071
3.1301
3.12933
3.12841
3.12735
3.12614
3.12478
3.12327
3.12163
3.11985
3.11794
3.1159
3.11375
3.11148
3.10912
3.10666
3.10413
3.10153
3.09888
3.09619
3.09347
3.09075
3.08803
3.08533
3.08267
3.08007
3.07752
3.07505
3.07266
3.07037
3.06818
3.06608
3.06409
3.0622
3.06041
3.05871
3.0571
3.05556
3.05411
3.05271
3.05138
3.0501
3.04887
3.04768
3.04654
3.04543
3.04436
3.04333
3.04235
3.0414
3.0405
3.03964
3.03884
3.03808
3.03738
3.03674
3.03615
3.03561
3.03514
3.03472
3.03435
3.03404
3.03378
3.03356
3.03339
3.03326
3.03316
3.03309
3.03304
3.03301
3.033
3.033
3.03299
3.033
3.033
3.11123
3.1113
3.11142
3.1116
3.11185
3.11216
3.11252
3.11295
3.11343
3.11396
3.11455
3.11519
3.11588
3.11662
3.1174
3.11821
3.11907
3.11996
3.12088
3.12183
3.12281
3.12381
3.12483
3.12587
3.12691
3.12796
3.12901
3.13005
3.13107
3.13207
3.13304
3.13396
3.13484
3.13565
3.13639
3.13706
3.13764
3.13813
3.13851
3.13879
3.13895
3.13899
3.13891
3.13869
3.13835
3.13787
3.13725
3.1365
3.13561
3.13457
3.1334
3.1321
3.13066
3.12909
3.1274
3.12558
3.12365
3.12161
3.11947
3.11724
3.11493
3.11254
3.11009
3.1076
3.10507
3.10251
3.09995
3.09739
3.09485
3.09234
3.08987
3.08746
3.08511
3.08284
3.08065
3.07854
3.07652
3.07459
3.07275
3.071
3.06933
3.06774
3.06623
3.06478
3.0634
3.06208
3.0608
3.05958
3.05841
3.05728
3.05618
3.05513
3.05412
3.05316
3.05223
3.05135
3.05051
3.04972
3.04898
3.0483
3.04766
3.04708
3.04655
3.04607
3.04564
3.04527
3.04494
3.04467
3.04443
3.04424
3.04408
3.04396
3.04386
3.04379
3.04374
3.04371
3.04368
3.04367
3.04366
3.04366
3.12108
3.12113
3.12125
3.12142
3.12165
3.12194
3.12228
3.12268
3.12313
3.12363
3.12418
3.12478
3.12542
3.1261
3.12683
3.12759
3.12839
3.12922
3.13008
3.13096
3.13187
3.1328
3.13374
3.13469
3.13566
3.13662
3.13758
3.13852
3.13945
3.14036
3.14123
3.14206
3.14284
3.14356
3.14422
3.1448
3.1453
3.14572
3.14604
3.14625
3.14636
3.14636
3.14625
3.14601
3.14565
3.14516
3.14455
3.14381
3.14294
3.14193
3.14081
3.13955
3.13818
3.13668
3.13506
3.13334
3.13151
3.12957
3.12755
3.12544
3.12326
3.12101
3.1187
3.11635
3.11396
3.11156
3.10914
3.10673
3.10433
3.10196
3.09962
3.09734
3.0951
3.09293
3.09084
3.08881
3.08686
3.085
3.08321
3.0815
3.07987
3.07831
3.07682
3.07539
3.07402
3.07272
3.07146
3.07025
3.06909
3.06797
3.0669
3.06586
3.06487
3.06392
3.06302
3.06215
3.06133
3.06056
3.05983
3.05916
3.05853
3.05795
3.05742
3.05695
3.05652
3.05614
3.0558
3.05551
3.05526
3.05505
3.05487
3.05473
3.05461
3.05452
3.05445
3.0544
3.05436
3.05434
3.05432
3.05431
3.13086
3.13091
3.13102
3.13118
3.1314
3.13167
3.13199
3.13236
3.13278
3.13324
3.13376
3.13431
3.13491
3.13555
3.13623
3.13694
3.13768
3.13845
3.13925
3.14007
3.14091
3.14176
3.14263
3.14351
3.14439
3.14528
3.14615
3.14701
3.14785
3.14867
3.14945
3.1502
3.15089
3.15153
3.15211
3.15262
3.15305
3.1534
3.15366
3.15383
3.15389
3.15385
3.15371
3.15345
3.15307
3.15258
3.15197
3.15124
3.15039
3.14942
3.14834
3.14713
3.14581
3.14438
3.14284
3.1412
3.13946
3.13763
3.13571
3.13372
3.13165
3.12953
3.12735
3.12513
3.12288
3.12061
3.11833
3.11605
3.11379
3.11154
3.10933
3.10715
3.10503
3.10296
3.10095
3.099
3.09713
3.09532
3.09359
3.09193
3.09033
3.0888
3.08734
3.08594
3.08459
3.0833
3.08206
3.08087
3.07973
3.07863
3.07757
3.07655
3.07558
3.07465
3.07376
3.07291
3.07211
3.07135
3.07063
3.06997
3.06935
3.06878
3.06825
3.06777
3.06734
3.06695
3.06661
3.06631
3.06605
3.06582
3.06563
3.06547
3.06534
3.06523
3.06514
3.06508
3.06503
3.06499
3.06497
3.06496
3.14058
3.14064
3.14074
3.14089
3.14109
3.14134
3.14164
3.14198
3.14238
3.14281
3.14329
3.14381
3.14437
3.14496
3.14559
3.14625
3.14694
3.14765
3.14839
3.14915
3.14993
3.15072
3.15152
3.15232
3.15313
3.15394
3.15474
3.15552
3.15628
3.15702
3.15772
3.15838
3.159
3.15957
3.16007
3.16051
3.16088
3.16117
3.16138
3.1615
3.16152
3.16145
3.16128
3.161
3.16061
3.16012
3.15951
3.1588
3.15797
3.15703
3.15598
3.15482
3.15356
3.15219
3.15072
3.14916
3.14751
3.14577
3.14395
3.14206
3.14011
3.1381
3.13604
3.13395
3.13182
3.12968
3.12752
3.12537
3.12322
3.12109
3.11899
3.11692
3.1149
3.11292
3.111
3.10913
3.10732
3.10558
3.1039
3.10228
3.10073
3.09924
3.0978
3.09643
3.09511
3.09384
3.09262
3.09144
3.09032
3.08923
3.08819
3.0872
3.08624
3.08532
3.08445
3.08362
3.08283
3.08209
3.08139
3.08073
3.08012
3.07955
3.07903
3.07855
3.07812
3.07773
3.07738
3.07707
3.0768
3.07656
3.07635
3.07618
3.07603
3.07591
3.07582
3.07574
3.07568
3.07564
3.07561
3.0756
3.15026
3.15031
3.1504
3.15054
3.15073
3.15096
3.15124
3.15156
3.15193
3.15233
3.15278
3.15326
3.15378
3.15433
3.15491
3.15553
3.15617
3.15683
3.15751
3.15821
3.15893
3.15966
3.1604
3.16114
3.16187
3.16261
3.16333
3.16404
3.16473
3.16539
3.16602
3.16662
3.16716
3.16766
3.1681
3.16848
3.16879
3.16903
3.16919
3.16926
3.16925
3.16915
3.16895
3.16865
3.16826
3.16776
3.16716
3.16646
3.16565
3.16474
3.16373
3.16262
3.1614
3.1601
3.1587
3.15721
3.15563
3.15398
3.15226
3.15047
3.14862
3.14672
3.14477
3.14279
3.14078
3.13875
3.13671
3.13467
3.13263
3.13061
3.12862
3.12665
3.12472
3.12283
3.12098
3.11919
3.11745
3.11577
3.11414
3.11257
3.11106
3.10961
3.10821
3.10686
3.10557
3.10432
3.10312
3.10197
3.10086
3.0998
3.09878
3.0978
3.09686
3.09596
3.0951
3.09429
3.09352
3.09278
3.09209
3.09145
3.09084
3.09028
3.08977
3.08929
3.08886
3.08846
3.08811
3.08779
3.08751
3.08726
3.08705
3.08686
3.0867
3.08657
3.08647
3.08638
3.08631
3.08626
3.08623
3.08622
3.15989
3.15993
3.16002
3.16015
3.16033
3.16054
3.1608
3.1611
3.16144
3.16182
3.16223
3.16268
3.16316
3.16367
3.16421
3.16478
3.16537
3.16598
3.16662
3.16726
3.16792
3.16859
3.16927
3.16994
3.17062
3.17129
3.17195
3.17259
3.17321
3.1738
3.17437
3.17489
3.17537
3.17581
3.17619
3.17651
3.17677
3.17696
3.17707
3.17711
3.17707
3.17694
3.17672
3.17641
3.17601
3.17551
3.17492
3.17423
3.17344
3.17256
3.17158
3.17051
3.16935
3.1681
3.16676
3.16534
3.16384
3.16227
3.16063
3.15894
3.15718
3.15538
3.15354
3.15166
3.14975
3.14783
3.1459
3.14396
3.14203
3.14011
3.13821
3.13634
3.13449
3.13269
3.13092
3.1292
3.12753
3.1259
3.12433
3.12281
3.12134
3.11992
3.11856
3.11724
3.11598
3.11476
3.11358
3.11245
3.11137
3.11032
3.10932
3.10836
3.10744
3.10656
3.10572
3.10492
3.10416
3.10344
3.10276
3.10212
3.10153
3.10097
3.10046
3.09998
3.09955
3.09915
3.09879
3.09847
3.09819
3.09793
3.09771
3.09751
3.09735
3.09721
3.09709
3.097
3.09693
3.09687
3.09684
3.09682
3.16947
3.16951
3.16959
3.16972
3.16988
3.17008
3.17032
3.1706
3.17091
3.17126
3.17165
3.17206
3.17251
3.17298
3.17348
3.17401
3.17455
3.17512
3.1757
3.1763
3.17691
3.17752
3.17814
3.17876
3.17937
3.17998
3.18057
3.18115
3.18171
3.18224
3.18274
3.18321
3.18363
3.18401
3.18434
3.18461
3.18482
3.18496
3.18504
3.18504
3.18497
3.18482
3.18458
3.18426
3.18385
3.18335
3.18277
3.18209
3.18132
3.18047
3.17953
3.17849
3.17738
3.17618
3.1749
3.17355
3.17212
3.17063
3.16907
3.16746
3.16579
3.16408
3.16233
3.16055
3.15875
3.15692
3.15509
3.15325
3.15142
3.14959
3.14778
3.14599
3.14423
3.1425
3.14081
3.13916
3.13755
3.13598
3.13446
3.13299
3.13156
3.13019
3.12886
3.12757
3.12634
3.12514
3.124
3.12289
3.12182
3.1208
3.11982
3.11888
3.11797
3.11711
3.11628
3.1155
3.11475
3.11405
3.11338
3.11275
3.11216
3.11162
3.11111
3.11064
3.1102
3.10981
3.10945
3.10912
3.10883
3.10857
3.10834
3.10814
3.10797
3.10782
3.1077
3.1076
3.10752
3.10746
3.10742
3.1074
3.17901
3.17905
3.17912
3.17924
3.17939
3.17958
3.1798
3.18006
3.18035
3.18067
3.18103
3.18141
3.18183
3.18227
3.18273
3.18321
3.18372
3.18424
3.18477
3.18532
3.18588
3.18644
3.18701
3.18757
3.18813
3.18868
3.18922
3.18974
3.19024
3.19071
3.19116
3.19157
3.19194
3.19226
3.19254
3.19276
3.19293
3.19304
3.19308
3.19305
3.19295
3.19278
3.19252
3.19219
3.19178
3.19128
3.19071
3.19004
3.1893
3.18847
3.18756
3.18656
3.18549
3.18434
3.18312
3.18183
3.18047
3.17904
3.17756
3.17603
3.17445
3.17282
3.17116
3.16947
3.16776
3.16602
3.16428
3.16254
3.16079
3.15905
3.15733
3.15562
3.15394
3.15228
3.15066
3.14907
3.14752
3.14601
3.14455
3.14312
3.14174
3.1404
3.13911
3.13786
3.13665
3.13549
3.13436
3.13328