/*--------------------------------*- C++ -*----------------------------------*\
| =========                 |                                                 |
| \\      /  F ield         | OpenFOAM: The Open Source CFD Toolbox           |
|  \\    /   O peration     | Version:  2406                                  |
|   \\  /    A nd           | Website:  www.openfoam.com                      |
|    \\/     M anipulation  |                                                 |
\*---------------------------------------------------------------------------*/
FoamFile
{
    version     2.0;
    format      ascii;
    arch        "LSB;label=32;scalar=64";
    class       volScalarField;
    location    "3.25";
    object      C_0;
}
// * * * * * * * * * * * * * * * * * * * * * * * * * * * * * * * * * * * * * //

dimensions      [1 -3 0 0 0 0 0];

internalField   nonuniform List<scalar> 
14400
(
0.644145
0.629809
0.608164
0.587694
0.570912
0.559078
0.552936
0.552929
0.559267
0.571956
0.590788
0.615286
0.644509
0.676215
0.700062
0.709703
0.709894
0.699419
0.676784
0.651184
0.629929
0.614915
0.607096
0.607114
0.615457
0.632518
0.658613
0.693961
0.738619
0.792291
0.853669
0.917532
0.96334
0.993409
1.01966
1.0428
1.06323
1.08124
1.09708
1.11092
1.12293
1.1332
1.14185
1.14893
1.15452
1.15866
1.16139
1.16271
1.16266
1.16124
1.15843
1.15423
1.14862
1.14156
1.133
1.1229
1.11117
1.09774
1.0825
1.0653
1.04599
1.02436
1.00016
0.973047
0.942622
0.904539
0.84738
0.776611
0.711997
0.655862
0.60852
0.569836
0.539537
0.517319
0.502898
0.496026
0.496503
0.504173
0.518908
0.540582
0.568995
0.60369
0.64346
0.684406
0.712521
0.727233
0.736232
0.740094
0.738982
0.732765
0.720773
0.696246
0.661029
0.627441
0.598584
0.575511
0.558579
0.547769
0.542773
0.542988
0.547429
0.554552
0.561986
0.566217
0.562388
0.555384
0.548746
0.544866
0.545318
0.551117
0.562904
0.58103
0.605563
0.636194
0.671903
0.709511
0.736064
0.750112
0.758906
0.763186
0.656438
0.64531
0.623423
0.601811
0.584044
0.571496
0.564919
0.564757
0.571223
0.584306
0.603772
0.629106
0.659169
0.690624
0.710542
0.718357
0.718887
0.711485
0.691439
0.665329
0.643278
0.627552
0.619207
0.61891
0.627162
0.644361
0.670821
0.706761
0.752232
0.806983
0.869623
0.927986
0.96782
0.997029
1.02277
1.04552
1.06564
1.08342
1.09907
1.11277
1.12465
1.13483
1.1434
1.15043
1.15598
1.16008
1.16278
1.16409
1.16404
1.16262
1.15982
1.15565
1.15007
1.14305
1.13455
1.12452
1.11288
1.09956
1.08445
1.06742
1.04831
1.02694
1.00306
0.976361
0.946424
0.911415
0.85947
0.789795
0.724719
0.667853
0.619816
0.580548
0.549798
0.527269
0.512677
0.505775
0.506361
0.514274
0.529389
0.55159
0.580703
0.616325
0.657153
0.69543
0.719154
0.732848
0.741369
0.745069
0.744086
0.738351
0.727582
0.707913
0.675469
0.641006
0.611365
0.587757
0.57058
0.559833
0.555248
0.556291
0.5621
0.571291
0.581651
0.58922
0.582039
0.5721
0.563382
0.558125
0.557737
0.563111
0.574818
0.59317
0.618215
0.649608
0.686171
0.720715
0.742319
0.755155
0.763419
0.767467
0.676593
0.670619
0.65292
0.6296
0.6101
0.596226
0.588812
0.588348
0.595075
0.608926
0.629593
0.65647
0.68801
0.71435
0.727648
0.734185
0.735292
0.730965
0.717951
0.69318
0.669872
0.652795
0.643423
0.642507
0.650577
0.668039
0.695204
0.732254
0.77909
0.834984
0.896557
0.943544
0.976227
1.00412
1.02886
1.05086
1.0704
1.08772
1.10301
1.11643
1.12808
1.13808
1.1465
1.15341
1.15887
1.1629
1.16556
1.16684
1.16678
1.16537
1.1626
1.15847
1.15295
1.14602
1.13763
1.12774
1.11628
1.10316
1.08831
1.0716
1.0529
1.03203
1.00878
0.982911
0.954089
0.921945
0.879125
0.816372
0.750228
0.691889
0.642485
0.602064
0.570424
0.547277
0.532345
0.525384
0.526186
0.534581
0.55043
0.57361
0.603933
0.640846
0.68206
0.713381
0.731437
0.743633
0.751325
0.754727
0.753941
0.748972
0.739739
0.725748
0.701384
0.66728
0.636632
0.612083
0.594453
0.583813
0.579976
0.582512
0.590763
0.603467
0.617984
0.623605
0.618338
0.604227
0.591977
0.584259
0.582353
0.586951
0.598517
0.617281
0.643215
0.675535
0.711568
0.737713
0.7535
0.764769
0.772148
0.775795
0.702161
0.698747
0.689337
0.669359
0.648521
0.632999
0.624421
0.623512
0.630651
0.645601
0.667746
0.695721
0.724058
0.740639
0.749847
0.755445
0.757126
0.754917
0.749009
0.733426
0.709365
0.690494
0.679689
0.677878
0.685679
0.703507
0.731668
0.770289
0.818892
0.875413
0.924699
0.95955
0.988377
1.01436
1.03771
1.05865
1.07738
1.09406
1.10884
1.12184
1.13316
1.1429
1.1511
1.15785
1.16317
1.16711
1.1697
1.17095
1.17087
1.16947
1.16674
1.16268
1.15725
1.15045
1.14222
1.13253
1.12132
1.10851
1.09403
1.07779
1.05965
1.03949
1.01714
0.992408
0.965074
0.934887
0.900773
0.852561
0.787701
0.727891
0.676625
0.634542
0.601602
0.577545
0.562109
0.555064
0.556197
0.5653
0.582198
0.606705
0.638553
0.676593
0.712903
0.734466
0.748558
0.758923
0.765573
0.768571
0.767981
0.763855
0.756261
0.745361
0.730139
0.705073
0.673918
0.648111
0.629909
0.619388
0.616507
0.620861
0.632015
0.647745
0.657003
0.658046
0.6573
0.648431
0.633121
0.622479
0.618716
0.622314
0.633708
0.652984
0.680098
0.712817
0.739393
0.756177
0.768769
0.778274
0.784608
0.787769
0.73114
0.728997
0.725114
0.715289
0.697908
0.681204
0.671277
0.669744
0.677506
0.693806
0.717002
0.742129
0.758769
0.768198
0.775655
0.78062
0.782851
0.78239
0.779561
0.773919
0.759899
0.739992
0.727725
0.724843
0.73232
0.750564
0.779849
0.8202
0.86934
0.91514
0.949364
0.977364
1.00337
1.02724
1.04897
1.06866
1.0864
1.10229
1.11644
1.12893
1.13984
1.14924
1.15718
1.1637
1.16886
1.17268
1.17518
1.17637
1.17628
1.1749
1.17222
1.16824
1.16294
1.1563
1.14828
1.13884
1.12795
1.11553
1.10153
1.08586
1.06843
1.04914
1.02787
1.00451
0.978913
0.950978
0.920638
0.885587
0.836147
0.775754
0.722308
0.678141
0.643567
0.618338
0.602233
0.595088
0.596678
0.606711
0.624916
0.650894
0.684052
0.720748
0.743999
0.758009
0.769402
0.77793
0.783471
0.786003
0.785556
0.782205
0.776089
0.767464
0.756786
0.742499
0.720929
0.694693
0.676299
0.665885
0.664042
0.669817
0.682872
0.69112
0.693017
0.69328
0.693254
0.691669
0.683815
0.67126
0.666018
0.668525
0.679736
0.699115
0.726532
0.749307
0.76487
0.776964
0.787124
0.794951
0.800242
0.802904
0.762263
0.760984
0.758703
0.755916
0.748957
0.738469
0.727875
0.725572
0.734152
0.751295
0.768623
0.781948
0.790196
0.797714
0.803955
0.808529
0.811268
0.812231
0.811716
0.810258
0.807099
0.798328
0.786326
0.782697
0.789949
0.808533
0.838448
0.879395
0.916793
0.946843
0.972478
0.997172
1.0205
1.04224
1.06228
1.08061
1.09726
1.11227
1.1257
1.1376
1.14803
1.15704
1.16466
1.17093
1.17589
1.17956
1.18196
1.18309
1.18298
1.18162
1.179
1.17512
1.16997
1.16352
1.15575
1.14662
1.1361
1.12414
1.11069
1.09568
1.07907
1.06076
1.04071
1.01883
0.995093
0.969474
0.942035
0.912964
0.879055
0.833032
0.779012
0.732788
0.696502
0.669905
0.65295
0.645696
0.647909
0.659053
0.678727
0.70578
0.738728
0.760593
0.773217
0.784114
0.793113
0.799923
0.804379
0.806414
0.806035
0.80332
0.798426
0.791622
0.783328
0.77414
0.76317
0.747768
0.731597
0.721223
0.720425
0.72457
0.728697
0.729046
0.72879
0.728803
0.728998
0.729473
0.729424
0.725677
0.722081
0.723498
0.734555
0.751544
0.767876
0.779835
0.790171
0.799686
0.807811
0.814163
0.818503
0.820702
0.794664
0.793972
0.79279
0.791507
0.790698
0.788727
0.78584
0.786279
0.792519
0.801612
0.809522
0.815793
0.822318
0.828507
0.83392
0.838274
0.84146
0.843551
0.844813
0.84571
0.846905
0.848313
0.847195
0.848439
0.85618
0.874685
0.901317
0.92856
0.951924
0.9742
0.996532
1.01834
1.03923
1.05893
1.0773
1.09425
1.10976
1.12383
1.13649
1.14775
1.15765
1.16622
1.17348
1.17948
1.18421
1.18771
1.18999
1.19106
1.19093
1.18959
1.18704
1.18328
1.17829
1.17206
1.16457
1.15579
1.14569
1.13424
1.12139
1.10713
1.09139
1.07414
1.05536
1.03503
1.01315
0.989788
0.965066
0.939218
0.912611
0.882626
0.84388
0.79747
0.760288
0.732288
0.714221
0.706847
0.709917
0.722092
0.742731
0.767199
0.78463
0.794661
0.803867
0.812116
0.819012
0.824269
0.827707
0.829237
0.828851
0.826613
0.822672
0.817271
0.810764
0.803625
0.796447
0.78951
0.780824
0.773499
0.770298
0.769042
0.766478
0.764985
0.764294
0.764145
0.764462
0.765333
0.767031
0.769867
0.771513
0.775204
0.783118
0.792457
0.800167
0.808221
0.816292
0.823796
0.830273
0.835385
0.838906
0.840698
0.827757
0.82745
0.826977
0.826614
0.826746
0.82783
0.830246
0.833025
0.836352
0.839776
0.844209
0.849357
0.854777
0.860076
0.864944
0.869188
0.872746
0.875698
0.878276
0.880863
0.884002
0.888404
0.894979
0.902283
0.912724
0.928304
0.946194
0.963502
0.982106
1.0015
1.0211
1.04044
1.05915
1.07697
1.09373
1.10933
1.1237
1.13682
1.14867
1.15926
1.1686
1.1767
1.18359
1.18927
1.19377
1.19709
1.19924
1.20024
1.20008
1.19877
1.1963
1.19267
1.18786
1.18187
1.17468
1.16627
1.15663
1.14572
1.13353
1.12004
1.10522
1.08906
1.07157
1.05276
1.03269
1.01146
0.989222
0.966229
0.942835
0.919518
0.895451
0.865776
0.833053
0.804314
0.784937
0.777366
0.781395
0.792995
0.805584
0.816096
0.822318
0.828928
0.835474
0.841472
0.846549
0.850434
0.852943
0.853978
0.853517
0.85161
0.848378
0.844025
0.838831
0.833151
0.82739
0.821941
0.817122
0.812676
0.808123
0.804368
0.801759
0.80012
0.799255
0.79902
0.799371
0.800365
0.802155
0.804955
0.808951
0.813839
0.818736
0.824107
0.830167
0.836591
0.842981
0.848934
0.854098
0.858199
0.861037
0.862486
0.861157
0.861091
0.861055
0.861227
0.861839
0.863124
0.865198
0.867851
0.8708
0.874192
0.87818
0.882647
0.887359
0.892074
0.896591
0.900789
0.904638
0.908221
0.911727
0.915463
0.919837
0.925341
0.932498
0.941672
0.952969
0.965593
0.979647
0.995045
1.01149
1.0286
1.04595
1.06316
1.07994
1.09606
1.11133
1.12563
1.13889
1.15106
1.16211
1.17201
1.18078
1.1884
1.19489
1.20026
1.2045
1.20763
1.20965
1.21057
1.21039
1.20911
1.20672
1.20322
1.19861
1.19288
1.18601
1.178
1.16883
1.15849
1.14697
1.13427
1.12038
1.10531
1.08909
1.07176
1.0534
1.03414
1.01413
0.993641
0.972983
0.952576
0.932929
0.914513
0.894483
0.874994
0.859467
0.850852
0.84903
0.851191
0.853521
0.855604
0.859075
0.863261
0.867628
0.871747
0.87528
0.877973
0.879652
0.880216
0.879631
0.877929
0.875206
0.87162
0.867383
0.862757
0.858021
0.853431
0.849163
0.845204
0.84152
0.838413
0.83607
0.834483
0.833585
0.83331
0.833638
0.8346
0.836271
0.838731
0.842
0.845909
0.850166
0.8548
0.859804
0.864994
0.870107
0.87486
0.878988
0.882275
0.884556
0.885723
0.894623
0.894704
0.894925
0.895399
0.89626
0.897629
0.899557
0.901974
0.904788
0.908014
0.911671
0.91569
0.919939
0.924269
0.928559
0.932736
0.936798
0.940818
0.94495
0.949426
0.954541
0.960625
0.967991
0.976847
0.987214
0.998853
1.01167
1.02554
1.04023
1.05546
1.07092
1.08632
1.10141
1.11599
1.12989
1.14298
1.15518
1.16643
1.17668
1.18591
1.1941
1.20124
1.20732
1.21236
1.21634
1.21928
1.22116
1.222
1.2218
1.22055
1.21825
1.21489
1.21049
1.20502
1.19849
1.19088
1.1822
1.17244
1.1616
1.14969
1.13672
1.12272
1.10772
1.09179
1.07502
1.05755
1.03954
1.02122
1.00288
0.984874
0.9676
0.951493
0.937016
0.924551
0.913803
0.905294
0.899006
0.894909
0.893336
0.893588
0.895117
0.897411
0.900031
0.902609
0.90485
0.906527
0.907477
0.907601
0.90686
0.90527
0.902898
0.899864
0.896326
0.892473
0.888504
0.884601
0.880895
0.877454
0.87434
0.871694
0.869623
0.868159
0.86729
0.866996
0.867271
0.868128
0.869596
0.871697
0.874408
0.877628
0.881221
0.885121
0.889253
0.893474
0.897595
0.901409
0.904719
0.907356
0.909189
0.910128
0.928008
0.928174
0.928543
0.929183
0.930171
0.931576
0.933425
0.9357
0.938364
0.941403
0.944801
0.948505
0.952436
0.956504
0.960638
0.9648
0.968999
0.973302
0.977829
0.98275
0.988275
0.994625
1.00199
1.01051
1.02019
1.03093
1.04265
1.05521
1.06842
1.08208
1.09594
1.10979
1.1234
1.1366
1.14925
1.16122
1.17243
1.1828
1.19228
1.20085
1.20847
1.21512
1.22081
1.22551
1.22924
1.23197
1.23372
1.23448
1.23425
1.23303
1.23082
1.22762
1.22342
1.21823
1.21203
1.20484
1.19665
1.18747
1.1773
1.16617
1.1541
1.14111
1.12728
1.11266
1.09735
1.08149
1.06524
1.04881
1.03245
1.01644
1.0011
0.986775
0.973771
0.962333
0.95254
0.944473
0.93823
0.933859
0.931324
0.930296
0.930393
0.931235
0.932475
0.933809
0.934985
0.935806
0.936126
0.935852
0.934939
0.93339
0.931253
0.928611
0.925583
0.922305
0.918923
0.915572
0.912362
0.909377
0.906693
0.9044
0.902569
0.901239
0.900421
0.900114
0.90032
0.901043
0.90229
0.904055
0.906305
0.908973
0.911968
0.915212
0.918614
0.922054
0.925388
0.928461
0.931123
0.933243
0.934716
0.93547
0.961227
0.961441
0.961891
0.962618
0.963667
0.965078
0.966869
0.969037
0.971563
0.974433
0.977623
0.981094
0.984795
0.988674
0.992689
0.996825
1.0011
1.00556
1.01031
1.01547
1.02119
1.0276
1.03485
1.04301
1.05209
1.06204
1.07279
1.08421
1.09617
1.10849
1.12099
1.13348
1.14579
1.15777
1.16929
1.18023
1.1905
1.20005
1.2088
1.21673
1.2238
1.22998
1.23527
1.23965
1.24311
1.24565
1.24726
1.24795
1.2477
1.24651
1.2444
1.24134
1.23735
1.23243
1.22658
1.2198
1.21209
1.20348
1.19397
1.18359
1.17238
1.16036
1.14761
1.1342
1.12023
1.10583
1.09113
1.07634
1.06166
1.04733
1.0336
1.02073
1.00896
0.998461
0.989352
0.981707
0.97558
0.970973
0.967806
0.965877
0.964923
0.964662
0.964824
0.965165
0.965476
0.965587
0.96537
0.964741
0.963653
0.9621
0.960111
0.957746
0.955089
0.952241
0.94931
0.9464
0.943604
0.940999
0.938656
0.936642
0.935014
0.933807
0.933039
0.93272
0.932851
0.933434
0.934465
0.935927
0.937786
0.939989
0.942467
0.945144
0.947935
0.95074
0.953442
0.955924
0.958069
0.959775
0.96096
0.961567
0.994232
0.994471
0.994962
0.99573
0.996801
0.998199
0.999936
1.00201
1.00442
1.00714
1.01016
1.01345
1.01698
1.02071
1.02462
1.02871
1.033
1.03754
1.04238
1.04764
1.05339
1.05975
1.0668
1.07459
1.08312
1.09236
1.10225
1.11269
1.12356
1.13473
1.14604
1.15736
1.16852
1.17941
1.1899
1.1999
1.20931
1.21808
1.22615
1.23347
1.24001
1.24574
1.25065
1.25471
1.25792
1.26026
1.26174
1.26234
1.26207
1.26093
1.2589
1.256
1.25222
1.24757
1.24205
1.23567
1.22844
1.22038
1.21151
1.20186
1.19145
1.18035
1.16861
1.15632
1.14355
1.13044
1.11712
1.10376
1.09052
1.07761
1.06524
1.0536
1.04287
1.0332
1.0247
1.01742
1.01141
1.00664
1.00305
1.00048
0.998759
0.997665
0.996994
0.996551
0.996165
0.995694
0.995027
0.994088
0.992832
0.991246
0.989346
0.987172
0.984785
0.98226
0.979677
0.977116
0.974654
0.972358
0.970288
0.9685
0.967038
0.965935
0.96521
0.964874
0.964931
0.965379
0.966208
0.967401
0.968924
0.970731
0.972766
0.974962
0.977244
0.979526
0.981718
0.983724
0.985454
0.986829
0.987783
0.988271
1.027
1.02725
1.02776
1.02854
1.02961
1.03098
1.03266
1.03466
1.03696
1.03956
1.04243
1.04557
1.04895
1.05256
1.05637
1.0604
1.06467
1.0692
1.07405
1.07929
1.08499
1.09122
1.09801
1.10542
1.11344
1.12203
1.13116
1.14073
1.15066
1.16082
1.1711
1.18138
1.19153
1.20144
1.21101
1.22014
1.22877
1.23682
1.24424
1.25099
1.25703
1.26232
1.26686
1.27062
1.27358
1.27574
1.27709
1.27762
1.27733
1.27622
1.27428
1.27153
1.26796
1.26357
1.25838
1.2524
1.24563
1.2381
1.22984
1.22087
1.21123
1.20098
1.19017
1.17889
1.16722
1.15527
1.14316
1.13104
1.11905
1.10737
1.09614
1.08555
1.07572
1.06678
1.05881
1.05188
1.046
1.04114
1.03726
1.03425
1.03196
1.03025
1.02894
1.02788
1.02694
1.026
1.02496
1.02375
1.02234
1.02071
1.01885
1.01681
1.01462
1.01234
1.01002
1.00773
1.00554
1.00349
1.00164
1.00003
0.998704
0.997684
0.996991
0.996635
0.996619
0.996941
0.997589
0.998543
0.999776
1.00125
1.0029
1.00469
1.00655
1.0084
1.01018
1.0118
1.01319
1.0143
1.01507
1.01546
1.05951
1.05977
1.06028
1.06106
1.06211
1.06345
1.06508
1.067
1.06921
1.07169
1.07444
1.07745
1.08071
1.08419
1.08791
1.09186
1.09606
1.10054
1.10534
1.1105
1.11607
1.1221
1.12862
1.13564
1.14317
1.15118
1.15962
1.16842
1.17751
1.18679
1.19616
1.20552
1.21477
1.22381
1.23255
1.2409
1.2488
1.25619
1.26301
1.26922
1.27479
1.27967
1.28385
1.28732
1.29005
1.29203
1.29325
1.29371
1.29341
1.29233
1.29049
1.28788
1.28451
1.28038
1.27551
1.2699
1.26358
1.25655
1.24886
1.24054
1.23162
1.22216
1.21221
1.20185
1.19117
1.18025
1.16922
1.15819
1.14729
1.13665
1.12642
1.11673
1.10768
1.09938
1.0919
1.08528
1.07955
1.07467
1.07061
1.06729
1.0646
1.06242
1.06062
1.05909
1.05772
1.0564
1.05505
1.05362
1.05207
1.05038
1.04855
1.0466
1.04455
1.04245
1.04033
1.03826
1.03627
1.03442
1.03275
1.03128
1.03006
1.02911
1.02843
1.02806
1.02797
1.02818
1.02866
1.02941
1.03039
1.03157
1.03291
1.03436
1.03586
1.03736
1.03879
1.0401
1.04122
1.04212
1.04273
1.04305
1.09178
1.09203
1.09253
1.0933
1.09433
1.09563
1.09721
1.09905
1.10117
1.10356
1.1062
1.10909
1.11223
1.1156
1.11921
1.12306
1.12717
1.13156
1.13625
1.14129
1.14669
1.15249
1.15871
1.16536
1.17243
1.17989
1.18771
1.19583
1.20417
1.21267
1.22124
1.22978
1.23823
1.24648
1.25447
1.26211
1.26935
1.27613
1.28239
1.2881
1.29322
1.29772
1.30157
1.30476
1.30726
1.30907
1.31018
1.31057
1.31025
1.30921
1.30746
1.30499
1.30182
1.29794
1.29337
1.28812
1.28222
1.27568
1.26853
1.26081
1.25255
1.24382
1.23466
1.22514
1.21534
1.20536
1.19527
1.1852
1.17525
1.16554
1.15617
1.14726
1.1389
1.13117
1.12412
1.11781
1.11223
1.10738
1.10323
1.0997
1.09672
1.0942
1.09205
1.09016
1.08844
1.08682
1.08523
1.08361
1.08194
1.0802
1.07837
1.07648
1.07453
1.07256
1.07061
1.0687
1.06688
1.06518
1.06364
1.06229
1.06115
1.06025
1.05959
1.05918
1.05903
1.05913
1.05947
1.06004
1.0608
1.06174
1.06281
1.06397
1.06518
1.06638
1.06753
1.06858
1.06949
1.0702
1.0707
1.07095
1.12379
1.12403
1.12453
1.12528
1.12628
1.12754
1.12906
1.13084
1.13287
1.13516
1.1377
1.14048
1.14351
1.14677
1.15027
1.15401
1.15801
1.16228
1.16684
1.17171
1.17691
1.18247
1.18838
1.19466
1.2013
1.20825
1.2155
1.223
1.23068
1.23848
1.24633
1.25415
1.26187
1.26942
1.27673
1.28373
1.29036
1.29658
1.30233
1.30757
1.31228
1.31641
1.31995
1.32287
1.32517
1.32682
1.32781
1.32815
1.32781
1.32681
1.32515
1.32281
1.31982
1.31618
1.3119
1.307
1.30149
1.29541
1.28877
1.28161
1.27397
1.26591
1.25746
1.24871
1.23971
1.23055
1.22132
1.21209
1.20298
1.19407
1.18546
1.17724
1.16948
1.16226
1.15562
1.14959
1.14419
1.13941
1.13521
1.13156
1.12839
1.12563
1.1232
1.12104
1.11907
1.11721
1.11542
1.11366
1.11189
1.1101
1.10827
1.10641
1.10454
1.10267
1.10083
1.09905
1.09736
1.09578
1.09435
1.09309
1.09201
1.09114
1.09048
1.09005
1.08984
1.08985
1.09006
1.09047
1.09105
1.09177
1.09261
1.09353
1.09449
1.09545
1.09637
1.09721
1.09793
1.09851
1.0989
1.09911
1.15555
1.15579
1.15627
1.157
1.15797
1.15918
1.16065
1.16236
1.16432
1.16652
1.16896
1.17164
1.17455
1.1777
1.18108
1.1847
1.18857
1.1927
1.1971
1.20179
1.20678
1.21208
1.21769
1.22361
1.22983
1.23632
1.24305
1.24999
1.25707
1.26424
1.27144
1.27862
1.28569
1.2926
1.2993
1.30571
1.31179
1.31749
1.32277
1.32758
1.3319
1.3357
1.33894
1.34162
1.34372
1.34522
1.34611
1.34639
1.34604
1.34508
1.34349
1.34129
1.33848
1.33507
1.33106
1.32648
1.32135
1.31569
1.30952
1.30289
1.29582
1.28837
1.28058
1.27252
1.26424
1.25583
1.24735
1.23888
1.2305
1.2223
1.21436
1.20675
1.19954
1.19277
1.1865
1.18075
1.17553
1.17084
1.16665
1.16293
1.15964
1.15672
1.1541
1.15174
1.14957
1.14754
1.1456
1.14372
1.14187
1.14003
1.13819
1.13636
1.13454
1.13274
1.13099
1.12931
1.12772
1.12624
1.12489
1.12369
1.12266
1.12182
1.12116
1.1207
1.12043
1.12035
1.12046
1.12073
1.12115
1.12169
1.12234
1.12306
1.12381
1.12457
1.12529
1.12596
1.12653
1.12699
1.1273
1.12746
1.18707
1.18731
1.18777
1.18847
1.18941
1.19058
1.19199
1.19364
1.19552
1.19764
1.19998
1.20256
1.20536
1.20839
1.21165
1.21515
1.21888
1.22285
1.22708
1.23158
1.23634
1.24138
1.24669
1.25227
1.25809
1.26415
1.27041
1.27682
1.28336
1.28997
1.29659
1.30318
1.30967
1.31601
1.32214
1.32802
1.3336
1.33883
1.34367
1.34809
1.35205
1.35553
1.35851
1.36096
1.36287
1.36423
1.36502
1.36525
1.36489
1.36396
1.36246
1.36038
1.35774
1.35454
1.3508
1.34652
1.34174
1.33647
1.33075
1.32459
1.31805
1.31116
1.30397
1.29654
1.28892
1.28117
1.27336
1.26556
1.25785
1.25028
1.24293
1.23587
1.22914
1.22279
1.21686
1.21138
1.20635
1.20176
1.19762
1.19388
1.19052
1.18749
1.18475
1.18225
1.17993
1.17777
1.17572
1.17374
1.17183
1.16995
1.16811
1.16629
1.16451
1.16277
1.16109
1.15949
1.15797
1.15656
1.15527
1.15413
1.15313
1.1523
1.15164
1.15115
1.15083
1.15068
1.15068
1.15084
1.15112
1.15151
1.152
1.15254
1.15312
1.15371
1.15428
1.1548
1.15525
1.15561
1.15586
1.15598
1.21836
1.21859
1.21904
1.21971
1.22062
1.22175
1.2231
1.22468
1.22649
1.22852
1.23078
1.23325
1.23594
1.23886
1.24199
1.24535
1.24893
1.25275
1.2568
1.26109
1.26563
1.27041
1.27542
1.28067
1.28613
1.29178
1.29759
1.30354
1.30959
1.31568
1.32178
1.32783
1.3338
1.33962
1.34525
1.35064
1.35576
1.36055
1.36499
1.36904
1.37268
1.37587
1.37859
1.38083
1.38257
1.3838
1.3845
1.38468
1.38432
1.38343
1.382
1.38004
1.37756
1.37456
1.37106
1.36707
1.36262
1.35772
1.3524
1.34669
1.34063
1.33426
1.32761
1.32075
1.31371
1.30657
1.29937
1.29217
1.28504
1.27804
1.27123
1.26465
1.25836
1.25239
1.24678
1.24155
1.23671
1.23225
1.22818
1.22446
1.22107
1.21798
1.21516
1.21256
1.21015
1.20789
1.20575
1.20371
1.20175
1.19984
1.19799
1.19619
1.19444
1.19275
1.19112
1.18957
1.18811
1.18676
1.18552
1.18441
1.18344
1.18262
1.18195
1.18143
1.18106
1.18084
1.18077
1.18082
1.18098
1.18125
1.18159
1.18199
1.18242
1.18287
1.18331
1.18371
1.18406
1.18434
1.18453
1.18463
1.24943
1.24964
1.25008
1.25073
1.2516
1.25268
1.25398
1.2555
1.25724
1.25919
1.26135
1.26372
1.26631
1.2691
1.27211
1.27533
1.27876
1.28241
1.28628
1.29037
1.29467
1.29919
1.30392
1.30885
1.31396
1.31924
1.32465
1.33017
1.33576
1.34139
1.34701
1.35258
1.35807
1.36341
1.36858
1.37354
1.37823
1.38263
1.3867
1.39042
1.39375
1.39667
1.39916
1.40121
1.40279
1.4039
1.40452
1.40465
1.40428
1.40342
1.40207
1.40022
1.39789
1.39508
1.39181
1.38809
1.38393
1.37938
1.37443
1.36914
1.36352
1.35762
1.35147
1.34513
1.33863
1.33202
1.32536
1.31871
1.31211
1.30561
1.29928
1.29314
1.28725
1.28164
1.27633
1.27134
1.26669
1.26237
1.25838
1.2547
1.25132
1.24821
1.24534
1.24269
1.24021
1.23789
1.23569
1.23361
1.23161
1.22968
1.22783
1.22604
1.22431
1.22265
1.22107
1.21956
1.21815
1.21684
1.21564
1.21456
1.21361
1.21279
1.2121
1.21156
1.21115
1.21087
1.21072
1.21068
1.21074
1.2109
1.21112
1.2114
1.21172
1.21204
1.21237
1.21267
1.21294
1.21315
1.2133
1.21337
1.28027
1.28048
1.2809
1.28152
1.28236
1.2834
1.28465
1.2861
1.28777
1.28963
1.29171
1.29398
1.29646
1.29913
1.30201
1.30509
1.30837
1.31186
1.31554
1.31942
1.3235
1.32777
1.33223
1.33686
1.34164
1.34656
1.3516
1.35672
1.3619
1.3671
1.37229
1.37743
1.38247
1.38739
1.39214
1.39669
1.401
1.40504
1.40877
1.41218
1.41523
1.41791
1.42018
1.42205
1.42348
1.42447
1.42502
1.42511
1.42474
1.42391
1.42263
1.42088
1.41869
1.41606
1.413
1.40953
1.40566
1.40142
1.39683
1.39191
1.3867
1.38123
1.37554
1.36966
1.36364
1.35753
1.35136
1.34519
1.33907
1.33303
1.32713
1.32139
1.31586
1.31057
1.30554
1.30079
1.29633
1.29215
1.28826
1.28465
1.2813
1.2782
1.27532
1.27263
1.27012
1.26776
1.26553
1.26341
1.26139
1.25946
1.2576
1.25582
1.25412
1.25248
1.25093
1.24946
1.24809
1.24681
1.24564
1.24458
1.24364
1.24282
1.24212
1.24155
1.2411
1.24077
1.24055
1.24044
1.24042
1.24048
1.2406
1.24078
1.24099
1.24122
1.24145
1.24168
1.24187
1.24203
1.24214
1.24219
1.31091
1.31111
1.31151
1.31211
1.31291
1.31391
1.31511
1.3165
1.31809
1.31988
1.32186
1.32404
1.32641
1.32897
1.33172
1.33466
1.33778
1.3411
1.3446
1.34828
1.35214
1.35617
1.36036
1.3647
1.36918
1.37377
1.37846
1.38322
1.38802
1.39283
1.39762
1.40236
1.407
1.41153
1.4159
1.42008
1.42404
1.42775
1.43117
1.4343
1.43709
1.43954
1.44162
1.44331
1.44461
1.4455
1.44598
1.44603
1.44566
1.44486
1.44364
1.442
1.43994
1.43747
1.43461
1.43137
1.42777
1.42382
1.41954
1.41497
1.41014
1.40506
1.39978
1.39433
1.38875
1.38308
1.37736
1.37164
1.36594
1.36032
1.3548
1.34944
1.34424
1.33925
1.33448
1.32995
1.32567
1.32165
1.31787
1.31434
1.31104
1.30796
1.30509
1.3024
1.29987
1.2975
1.29525
1.29312
1.29109
1.28915
1.2873
1.28553
1.28385
1.28224
1.28071
1.27927
1.27792
1.27667
1.27552
1.27448
1.27354
1.27272
1.27201
1.27142
1.27094
1.27056
1.27029
1.27011
1.27001
1.26999
1.27003
1.27012
1.27025
1.2704
1.27055
1.2707
1.27084
1.27095
1.27103
1.27107
1.34135
1.34154
1.34193
1.3425
1.34326
1.34422
1.34537
1.3467
1.34822
1.34993
1.35183
1.3539
1.35617
1.35861
1.36123
1.36403
1.367
1.37015
1.37347
1.37696
1.3806
1.3844
1.38834
1.39241
1.3966
1.40089
1.40525
1.40967
1.41412
1.41858
1.423
1.42737
1.43166
1.43583
1.43985
1.44369
1.44733
1.45073
1.45388
1.45674
1.4593
1.46154
1.46343
1.46497
1.46615
1.46695
1.46736
1.46738
1.467
1.46624
1.46508
1.46352
1.46159
1.45928
1.4566
1.45358
1.45021
1.44653
1.44256
1.43831
1.43381
1.4291
1.42419
1.41913
1.41395
1.40869
1.40337
1.39804
1.39274
1.38749
1.38234
1.3773
1.37242
1.36771
1.36319
1.35887
1.35477
1.35089
1.34723
1.34379
1.34056
1.33753
1.33468
1.332
1.32948
1.3271
1.32485
1.32272
1.32069
1.31876
1.31692
1.31516
1.31349
1.31191
1.31041
1.30899
1.30767
1.30643
1.3053
1.30427
1.30334
1.30251
1.30179
1.30118
1.30066
1.30025
1.29993
1.29969
1.29953
1.29944
1.29941
1.29943
1.29948
1.29956
1.29965
1.29975
1.29983
1.29991
1.29996
1.29999
1.3716
1.37178
1.37215
1.3727
1.37343
1.37434
1.37544
1.37671
1.37816
1.3798
1.3816
1.38359
1.38574
1.38807
1.39056
1.39323
1.39605
1.39904
1.40218
1.40548
1.40891
1.41249
1.41619
1.42001
1.42392
1.42792
1.43199
1.43609
1.44022
1.44435
1.44844
1.45248
1.45643
1.46027
1.46398
1.46751
1.47085
1.47398
1.47687
1.47949
1.48183
1.48388
1.4856
1.487
1.48806
1.48877
1.48913
1.48912
1.48874
1.488
1.4869
1.48544
1.48362
1.48145
1.47894
1.47611
1.47298
1.46955
1.46584
1.46189
1.4577
1.45332
1.44876
1.44406
1.43924
1.43434
1.42939
1.42443
1.41948
1.41458
1.40975
1.40502
1.40042
1.39597
1.39168
1.38757
1.38365
1.37992
1.37638
1.37304
1.36988
1.3669
1.3641
1.36145
1.35895
1.35658
1.35434
1.35222
1.3502
1.34828
1.34645
1.34471
1.34306
1.34149
1.34001
1.33862
1.33731
1.3361
1.33498
1.33396
1.33303
1.3322
1.33147
1.33083
1.33029
1.32984
1.32948
1.32919
1.32898
1.32884
1.32875
1.3287
1.32869
1.32871
1.32875
1.3288
1.32884
1.32889
1.32892
1.32893
1.40166
1.40184
1.40219
1.40271
1.40341
1.40428
1.40533
1.40654
1.40793
1.40948
1.41121
1.4131
1.41515
1.41736
1.41973
1.42226
1.42494
1.42777
1.43074
1.43385
1.43709
1.44045
1.44393
1.4475
1.45116
1.45489
1.45868
1.4625
1.46633
1.47015
1.47394
1.47767
1.48132
1.48486
1.48827
1.49152
1.49459
1.49747
1.50011
1.50252
1.50466
1.50653
1.5081
1.50937
1.51033
1.51096
1.51126
1.51122
1.51085
1.51014
1.50909
1.5077
1.50599
1.50396
1.50161
1.49896
1.49603
1.49283
1.48938
1.48569
1.4818
1.47772
1.47347
1.46909
1.46461
1.46005
1.45543
1.4508
1.44617
1.44158
1.43706
1.43261
1.42828
1.42407
1.42
1.41608
1.41233
1.40875
1.40534
1.40209
1.39902
1.39611
1.39336
1.39075
1.38828
1.38594
1.38372
1.38161
1.37961
1.3777
1.37589
1.37417
1.37254
1.37099
1.36953
1.36816
1.36687
1.36567
1.36456
1.36354
1.36262
1.36179
1.36104
1.36039
1.35983
1.35935
1.35895
1.35862
1.35837
1.35817
1.35803
1.35793
1.35788
1.35785
1.35784
1.35784
1.35786
1.35787
1.35789
1.35789
1.43155
1.43172
1.43205
1.43255
1.43322
1.43405
1.43504
1.4362
1.43752
1.43901
1.44065
1.44244
1.44439
1.44649
1.44875
1.45114
1.45368
1.45636
1.45916
1.46209
1.46514
1.4683
1.47156
1.47491
1.47833
1.48181
1.48534
1.48889
1.49244
1.49598
1.49949
1.50294
1.50631
1.50957
1.51272
1.51571
1.51854
1.52117
1.5236
1.52581
1.52777
1.52947
1.53091
1.53206
1.53292
1.53347
1.53373
1.53367
1.53329
1.53261
1.53161
1.5303
1.52868
1.52677
1.52458
1.5221
1.51936
1.51637
1.51315
1.50971
1.50608
1.50227
1.49832
1.49424
1.49006
1.4858
1.48149
1.47716
1.47283
1.46853
1.46428
1.4601
1.45601
1.45202
1.44816
1.44443
1.44084
1.43741
1.43412
1.43098
1.428
1.42516
1.42247
1.41991
1.41748
1.41517
1.41298
1.4109
1.40892
1.40703
1.40524
1.40354
1.40193
1.4004
1.39896
1.39761
1.39634
1.39515
1.39405
1.39304
1.39212
1.39128
1.39053
1.38987
1.38928
1.38878
1.38835
1.38799
1.38769
1.38746
1.38727
1.38713
1.38703
1.38696
1.38691
1.38689
1.38687
1.38686
1.38686
1.38686
1.46127
1.46143
1.46175
1.46222
1.46286
1.46365
1.4646
1.4657
1.46696
1.46837
1.46993
1.47163
1.47348
1.47548
1.47761
1.47988
1.48228
1.48481
1.48746
1.49022
1.49309
1.49605
1.49911
1.50224
1.50544
1.50869
1.51197
1.51527
1.51857
1.52185
1.5251
1.52829
1.5314
1.53442
1.53731
1.54007
1.54267
1.54509
1.54732
1.54934
1.55113
1.55269
1.55399
1.55503
1.5558
1.5563
1.5565
1.55642
1.55605
1.55539
1.55444
1.5532
1.55168
1.54988
1.54782
1.5455
1.54293
1.54014
1.53713
1.53392
1.53053
1.52698
1.52329
1.51948
1.51558
1.5116
1.50757
1.50352
1.49947
1.49543
1.49143
1.48749
1.48363
1.47986
1.47619
1.47264
1.46921
1.46591
1.46275
1.45972
1.45683
1.45407
1.45144
1.44894
1.44656
1.44429
1.44213
1.44008
1.43813
1.43627
1.4345
1.43283
1.43124
1.42973
1.42831
1.42697
1.42572
1.42455
1.42346
1.42245
1.42153
1.42069
1.41993
1.41926
1.41866
1.41813
1.41767
1.41729
1.41696
1.41669
1.41647
1.41629
1.41615
1.41605
1.41597
1.41591
1.41587
1.41585
1.41583
1.41583
1.49083
1.49098
1.49129
1.49174
1.49234
1.4931
1.494
1.49505
1.49624
1.49758
1.49906
1.50068
1.50243
1.50432
1.50634
1.50849
1.51076
1.51314
1.51564
1.51824
1.52093
1.52372
1.52658
1.52951
1.5325
1.53552
1.53858
1.54165
1.54472
1.54776
1.55077
1.55372
1.55659
1.55938
1.56205
1.56458
1.56698
1.5692
1.57125
1.5731
1.57474
1.57615
1.57734
1.57828
1.57897
1.5794
1.57957
1.57947
1.5791
1.57846
1.57755
1.57638
1.57494
1.57325
1.57132
1.56914
1.56674
1.56413
1.56131
1.55831
1.55515
1.55183
1.54838
1.54482
1.54117
1.53745
1.53368
1.52989
1.52608
1.52229
1.51852
1.51481
1.51116
1.50758
1.5041
1.50072
1.49744
1.49428
1.49124
1.48832
1.48553
1.48285
1.48029
1.47785
1.47552
1.4733
1.47118
1.46917
1.46724
1.46542
1.46368
1.46203
1.46046
1.45897
1.45757
1.45625
1.45501
1.45386
1.45278
1.45178
1.45086
1.45002
1.44926
1.44857
1.44796
1.44741
1.44693
1.44652
1.44617
1.44587
1.44561
1.44541
1.44524
1.44511
1.445
1.44492
1.44487
1.44482
1.4448
1.44479
1.52024
1.52039
1.52067
1.5211
1.52168
1.52239
1.52325
1.52425
1.52538
1.52665
1.52805
1.52959
1.53125
1.53304
1.53495
1.53698
1.53912
1.54136
1.54371
1.54616
1.54869
1.5513
1.55398
1.55672
1.55951
1.56234
1.56518
1.56804
1.57088
1.57371
1.57649
1.57922
1.58188
1.58445
1.58691
1.58925
1.59145
1.59349
1.59537
1.59706
1.59856
1.59985
1.60093
1.60178
1.60239
1.60277
1.6029
1.60278
1.60242
1.6018
1.60093
1.59982
1.59847
1.59687
1.59505
1.59301
1.59076
1.58831
1.58568
1.58287
1.57991
1.57681
1.57358
1.57025
1.56684
1.56335
1.55982
1.55626
1.55268
1.54912
1.54557
1.54206
1.53861
1.53522
1.53191
1.52869
1.52556
1.52254