/*--------------------------------*- C++ -*----------------------------------*\
| =========                 |                                                 |
| \\      /  F ield         | OpenFOAM: The Open Source CFD Toolbox           |
|  \\    /   O peration     | Version:  2406                                  |
|   \\  /    A nd           | Website:  www.openfoam.com                      |
|    \\/     M anipulation  |                                                 |
\*---------------------------------------------------------------------------*/
FoamFile
{
    version     2.0;
    format      ascii;
    arch        "LSB;label=32;scalar=64";
    class       volScalarField;
    location    "3.25";
    object      C_0_0;
}
// * * * * * * * * * * * * * * * * * * * * * * * * * * * * * * * * * * * * * //

dimensions      [1 -3 0 0 0 0 0];

internalField   nonuniform List<scalar> 
14400
(
0.645947
0.631602
0.609889
0.589343
0.572496
0.560614
0.554446
0.554435
0.560793
0.573524
0.592418
0.616994
0.646302
0.678089
0.70194
0.711556
0.711761
0.701352
0.678723
0.653028
0.631682
0.616597
0.608732
0.608727
0.617071
0.634158
0.660303
0.695724
0.740476
0.794259
0.855734
0.919477
0.965108
0.995118
1.02134
1.04446
1.06487
1.08287
1.09869
1.11252
1.12451
1.13478
1.14341
1.15049
1.15608
1.16021
1.16293
1.16425
1.1642
1.16277
1.15996
1.15577
1.15015
1.14309
1.13454
1.12444
1.11272
1.0993
1.08406
1.06688
1.04758
1.02597
1.00178
0.974685
0.944284
0.906359
0.849362
0.778502
0.713771
0.657522
0.61008
0.571312
0.540948
0.518685
0.504237
0.497357
0.497845
0.505543
0.520326
0.542066
0.57056
0.605349
0.645207
0.686126
0.714154
0.728835
0.737821
0.741676
0.74056
0.734345
0.722375
0.697889
0.662643
0.628978
0.600049
0.57692
0.559954
0.54913
0.544142
0.544386
0.548879
0.556071
0.563587
0.56788
0.563987
0.5569
0.550189
0.546255
0.546674
0.552461
0.564258
0.582414
0.606996
0.637694
0.673472
0.711095
0.737596
0.751615
0.760401
0.764678
0.658198
0.647099
0.62518
0.60349
0.585655
0.573057
0.566452
0.566287
0.572774
0.5859
0.605431
0.630846
0.660993
0.692497
0.712385
0.720193
0.720735
0.713374
0.693387
0.667198
0.645055
0.629258
0.620865
0.620545
0.628799
0.646024
0.672536
0.708548
0.754113
0.808971
0.871716
0.929894
0.969551
0.998734
1.02445
1.04718
1.06728
1.08504
1.10068
1.11436
1.12624
1.13641
1.14497
1.15199
1.15753
1.16163
1.16432
1.16563
1.16557
1.16415
1.16136
1.15718
1.1516
1.14458
1.13609
1.12606
1.11443
1.10111
1.08601
1.06899
1.0499
1.02854
1.00468
0.977996
0.948082
0.913183
0.861422
0.791721
0.726528
0.669543
0.621402
0.582049
0.551234
0.528659
0.51404
0.507129
0.507726
0.515669
0.530832
0.553099
0.582294
0.61801
0.65893
0.697134
0.720765
0.734443
0.742953
0.746646
0.745659
0.739924
0.729158
0.709545
0.67712
0.642568
0.61285
0.589185
0.571973
0.561212
0.556635
0.557707
0.563566
0.572829
0.583274
0.590891
0.583661
0.573634
0.564842
0.559532
0.559111
0.564474
0.576191
0.594573
0.619669
0.651132
0.687778
0.722287
0.743824
0.756652
0.76491
0.768955
0.678313
0.672357
0.654711
0.631332
0.611761
0.597832
0.590389
0.589922
0.596671
0.61057
0.63131
0.658276
0.689895
0.716177
0.729443
0.735992
0.737111
0.732798
0.719861
0.695096
0.671694
0.654544
0.645127
0.644187
0.652259
0.669749
0.696967
0.734091
0.781017
0.836992
0.898566
0.94537
0.977952
1.00582
1.03054
1.05251
1.07204
1.08934
1.10462
1.11802
1.12966
1.13965
1.14806
1.15497
1.16041
1.16445
1.16709
1.16838
1.16831
1.1669
1.16413
1.16
1.15448
1.14755
1.13917
1.12928
1.11782
1.10472
1.08987
1.07317
1.05448
1.03362
1.0104
0.984539
0.955738
0.923618
0.880983
0.818407
0.752105
0.693635
0.644122
0.603615
0.571908
0.548715
0.533755
0.526786
0.527599
0.536024
0.551922
0.575169
0.605574
0.642573
0.683829
0.71503
0.733034
0.745219
0.752901
0.756296
0.755506
0.750534
0.741302
0.727332
0.703022
0.668871
0.638155
0.613549
0.595883
0.585229
0.581399
0.583963
0.592259
0.605026
0.619594
0.625186
0.619946
0.605781
0.593466
0.585701
0.583764
0.58835
0.599926
0.618721
0.644705
0.677086
0.713156
0.739238
0.754995
0.766258
0.773632
0.777277
0.703845
0.700424
0.691062
0.671158
0.650254
0.634669
0.626062
0.625149
0.632312
0.647311
0.66954
0.697597
0.725852
0.742381
0.751609
0.757222
0.758917
0.756721
0.75084
0.735344
0.711235
0.692303
0.681461
0.679624
0.687427
0.705285
0.733505
0.772202
0.820907
0.877506
0.926587
0.96129
0.990089
1.01605
1.03938
1.0603
1.07901
1.09567
1.11044
1.12343
1.13474
1.14446
1.15266
1.1594
1.16472
1.16865
1.17123
1.17248
1.1724
1.17099
1.16827
1.1642
1.15878
1.15198
1.14376
1.13407
1.12286
1.11006
1.09559
1.07935
1.06123
1.04108
1.01874
0.994026
0.96671
0.936543
0.902516
0.854495
0.789614
0.729705
0.678336
0.636167
0.60316
0.579056
0.563591
0.556537
0.55768
0.566814
0.583763
0.608338
0.640268
0.678397
0.71459
0.736056
0.750139
0.760496
0.767138
0.770129
0.769534
0.765405
0.757809
0.746907
0.731731
0.706723
0.675497
0.649632
0.631393
0.620858
0.617983
0.622365
0.63355
0.649331
0.658548
0.659559
0.658842
0.650012
0.634649
0.623973
0.620179
0.623766
0.635171
0.654479
0.681644
0.714425
0.740934
0.757664
0.770251
0.779752
0.786083
0.789243
0.732797
0.730649
0.726755
0.716996
0.699705
0.682939
0.672995
0.671455
0.679246
0.695584
0.718861
0.74389
0.760465
0.769914
0.777389
0.782369
0.784614
0.784165
0.781346
0.775774
0.761835
0.741872
0.729593
0.726673
0.734148
0.752426
0.781778
0.822198
0.87144
0.917035
0.9511
0.97908
1.00506
1.02891
1.05063
1.07029
1.08802
1.1039
1.11803
1.13051
1.14141
1.1508
1.15873
1.16525
1.1704
1.17421
1.17671
1.1779
1.1778
1.17642
1.17374
1.16976
1.16446
1.15782
1.14981
1.14038
1.12948
1.11707
1.10308
1.08741
1.07
1.05072
1.02947
1.00611
0.980534
0.952616
0.922296
0.887386
0.838151
0.777669
0.724113
0.679864
0.645222
0.619945
0.60381
0.596655
0.598254
0.608316
0.626575
0.652612
0.685814
0.722448
0.745586
0.759583
0.770969
0.779489
0.785024
0.787549
0.787097
0.783742
0.777622
0.768992
0.758307
0.744074
0.722556
0.696272
0.677847
0.667424
0.665581
0.671386
0.684435
0.692645
0.694499
0.694765
0.694733
0.693189
0.685369
0.672821
0.667544
0.670045
0.681262
0.700668
0.728122
0.750838
0.76634
0.778434
0.788592
0.796417
0.801706
0.804368
0.763898
0.762615
0.760329
0.757536
0.750648
0.740225
0.729675
0.727344
0.735971
0.753093
0.770352
0.78361
0.791872
0.799408
0.805664
0.810253
0.813003
0.813977
0.813471
0.812021
0.80894
0.800235
0.78832
0.784611
0.79186
0.810479
0.840474
0.881415
0.918665
0.948566
0.974187
0.998865
1.02218
1.0439
1.06392
1.08224
1.09887
1.11387
1.12729
1.13918
1.1496
1.15859
1.16621
1.17247
1.17743
1.18109
1.18348
1.18462
1.1845
1.18313
1.18052
1.17664
1.17149
1.16504
1.15727
1.14815
1.13763
1.12567
1.11223
1.09723
1.08063
1.06233
1.04229
1.02043
0.996698
0.971092
0.943668
0.91461
0.880858
0.835037
0.780914
0.73463
0.698274
0.671632
0.654646
0.647379
0.649596
0.660766
0.680499
0.707582
0.740444
0.762203
0.774784
0.785673
0.794665
0.801468
0.805918
0.807947
0.807563
0.804842
0.799943
0.793134
0.784833
0.775636
0.764711
0.74934
0.733201
0.722831
0.722009
0.726102
0.730196
0.730505
0.730253
0.730267
0.730459
0.730927
0.730914
0.727197
0.723649
0.725086
0.736133
0.753083
0.769378
0.781287
0.791625
0.801141
0.809266
0.815616
0.819956
0.822154
0.796281
0.795586
0.7944
0.793112
0.792299
0.790379
0.787528
0.787983
0.79422
0.803284
0.811148
0.817435
0.823977
0.83018
0.835607
0.839973
0.84317
0.84527
0.84654
0.847443
0.848644
0.850114
0.849059
0.85036
0.85815
0.876658
0.903213
0.930361
0.953631
0.975897
0.998216
1.02001
1.04089
1.06058
1.07893
1.09586
1.11136
1.12542
1.13806
1.14932
1.15921
1.16777
1.17503
1.18101
1.18574
1.18924
1.19151
1.19258
1.19244
1.1911
1.18855
1.18479
1.17981
1.17358
1.16609
1.15731
1.14721
1.13576
1.12293
1.10867
1.09294
1.0757
1.05693
1.0366
1.01474
0.991387
0.966675
0.940837
0.914238
0.8844
0.845804
0.799435
0.762182
0.73415
0.716051
0.708662
0.711727
0.723902
0.744616
0.768911
0.786242
0.79622
0.805419
0.813661
0.82055
0.825801
0.829233
0.830757
0.830365
0.828122
0.824175
0.818767
0.812253
0.805106
0.797918
0.790999
0.782336
0.775018
0.7718
0.770502
0.767921
0.766431
0.765742
0.765593
0.765907
0.766773
0.768465
0.771314
0.772998
0.776702
0.784603
0.793913
0.8016
0.809659
0.817733
0.825238
0.831715
0.836827
0.840347
0.842139
0.829357
0.829048
0.828573
0.828206
0.828333
0.829411
0.831826
0.834629
0.837941
0.841372
0.845822
0.850984
0.856418
0.861729
0.866609
0.870864
0.874432
0.877392
0.879976
0.882568
0.885712
0.890115
0.896697
0.904076
0.914539
0.930084
0.947905
0.965189
0.983786
1.00317
1.02277
1.04209
1.06078
1.07859
1.09534
1.11093
1.12529
1.13839
1.15023
1.16081
1.17014
1.17824
1.18512
1.1908
1.19529
1.19861
1.20076
1.20175
1.20159
1.20028
1.1978
1.19417
1.18937
1.18338
1.17619
1.16779
1.15814
1.14724
1.13506
1.12157
1.10675
1.09061
1.07312
1.05433
1.03427
1.01304
0.99081
0.967824
0.944436
0.921122
0.897142
0.867577
0.834993
0.806299
0.786877
0.779297
0.783312
0.794812
0.807278
0.817675
0.823866
0.830471
0.83701
0.843001
0.848073
0.851951
0.854455
0.855484
0.855018
0.853104
0.849867
0.845507
0.840306
0.834618
0.828848
0.823389
0.818555
0.814103
0.809548
0.805799
0.803192
0.801555
0.80069
0.800454
0.800803
0.801793
0.803579
0.806373
0.81036
0.815245
0.820143
0.825523
0.831588
0.838016
0.844408
0.850363
0.855528
0.859628
0.862466
0.863916
0.862743
0.862676
0.862638
0.862807
0.863416
0.864698
0.86677
0.869424
0.872381
0.875782
0.879781
0.884259
0.888983
0.893709
0.898236
0.902443
0.906301
0.90989
0.913402
0.917143
0.921519
0.927025
0.934182
0.943349
0.954638
0.967258
0.981313
0.996708
1.01315
1.03025
1.04759
1.06479
1.08156
1.09766
1.11292
1.12722
1.14047
1.15263
1.16366
1.17356
1.18232
1.18993
1.19642
1.20178
1.20601
1.20914
1.21116
1.21207
1.21189
1.2106
1.20822
1.20472
1.20011
1.19438
1.18751
1.1795
1.17034
1.16
1.14849
1.13579
1.12191
1.10684
1.09063
1.07331
1.05496
1.0357
1.0157
0.995213
0.974559
0.954153
0.934505
0.916101
0.896154
0.876729
0.86122
0.852583
0.85073
0.852827
0.855064
0.857141
0.860606
0.864786
0.869148
0.873262
0.876789
0.879476
0.88115
0.881708
0.881117
0.87941
0.876682
0.873089
0.868846
0.864212
0.859468
0.85487
0.850593
0.846628
0.842942
0.839836
0.837493
0.835907
0.835008
0.834732
0.835058
0.836017
0.837684
0.84014
0.843404
0.847311
0.85157
0.856207
0.861214
0.866407
0.871523
0.876276
0.880405
0.883693
0.885974
0.887141
0.896194
0.896274
0.896495
0.896967
0.897827
0.899195
0.901123
0.903542
0.906361
0.909594
0.91326
0.917289
0.921546
0.925886
0.930184
0.934369
0.938438
0.942464
0.946601
0.951081
0.956198
0.962282
0.969648
0.9785
0.988863
1.0005
1.01331
1.02718
1.04186
1.05708
1.07253
1.08793
1.10301
1.11758
1.13147
1.14455
1.15675
1.16798
1.17823
1.18745
1.19563
1.20276
1.20884
1.21387
1.21785
1.22078
1.22266
1.2235
1.22329
1.22204
1.21974
1.21638
1.21198
1.20651
1.19998
1.19238
1.1837
1.17394
1.16311
1.1512
1.13823
1.12424
1.10924
1.09332
1.07656
1.05909
1.04108
1.02277
1.00443
0.986427
0.969151
0.953039
0.938548
0.926081
0.915355
0.906835
0.900526
0.89643
0.894857
0.895107
0.896631
0.89892
0.901535
0.904109
0.906345
0.908016
0.90896
0.909079
0.908333
0.906737
0.90436
0.90132
0.897776
0.893917
0.889941
0.88603
0.882318
0.878873
0.875756
0.873109
0.871037
0.869572
0.868702
0.868407
0.868679
0.869534
0.871
0.873098
0.875805
0.879024
0.882618
0.88652
0.890654
0.894876
0.898998
0.902813
0.906125
0.908762
0.910595
0.911534
0.929566
0.929732
0.930101
0.930739
0.931728
0.933132
0.934983
0.93726
0.939928
0.942973
0.946377
0.950089
0.954028
0.958104
0.962245
0.966413
0.970618
0.974926
0.979457
0.984382
0.989909
0.996259
1.00363
1.01214
1.02181
1.03256
1.04427
1.05682
1.07003
1.08368
1.09754
1.11138
1.12498
1.13818
1.15082
1.16278
1.17397
1.18434
1.19381
1.20237
1.20999
1.21664
1.22232
1.22702
1.23073
1.23346
1.23521
1.23597
1.23574
1.23452
1.23231
1.2291
1.2249
1.21971
1.21352
1.20633
1.19814
1.18896
1.1788
1.16767
1.1556
1.14262
1.12879
1.11417
1.09887
1.08302
1.06677
1.05034
1.03398
1.01797
1.00263
0.9883
0.975289
0.963847
0.95405
0.94598
0.939736
0.935364
0.932828
0.931797
0.93189
0.932728
0.933963
0.935293
0.936465
0.937281
0.937596
0.937316
0.936398
0.934845
0.932702
0.930055
0.927021
0.923737
0.920349
0.916992
0.913777
0.910788
0.908101
0.905806
0.903974
0.902642
0.901822
0.901514
0.901718
0.902439
0.903684
0.905447
0.907695
0.910361
0.913357
0.916601
0.920004
0.923446
0.926781
0.929855
0.932517
0.934637
0.93611
0.936865
0.962772
0.962986
0.963436
0.964162
0.965212
0.966623
0.968416
0.970586
0.973117
0.975991
0.979187
0.982664
0.986371
0.990256
0.994278
0.998419
1.0027
1.00717
1.01192
1.01708
1.0228
1.02922
1.03646
1.04462
1.0537
1.06365
1.07439
1.08581
1.09776
1.11008
1.12257
1.13505
1.14736
1.15933
1.17084
1.18177
1.19204
1.20157
1.21032
1.21824
1.2253
1.23149
1.23677
1.24114
1.2446
1.24714
1.24875
1.24942
1.24917
1.24799
1.24587
1.24281
1.23883
1.2339
1.22805
1.22127
1.21357
1.20496
1.19546
1.18508
1.17387
1.16186
1.14911
1.1357
1.12174
1.10733
1.09264
1.07785
1.06317
1.04884
1.03511
1.02224
1.01046
0.99996
0.990847
0.9832
0.977071
0.972462
0.969293
0.967362
0.966404
0.966139
0.966297
0.966634
0.96694
0.967047
0.966826
0.966192
0.965099
0.963541
0.961547
0.959177
0.956515
0.953662
0.950726
0.947811
0.94501
0.942401
0.940055
0.938039
0.936409
0.9352
0.934431
0.934109
0.934239
0.934821
0.935849
0.937309
0.939167
0.941369
0.943847
0.946524
0.949316
0.952121
0.954824
0.957307
0.959452
0.961159
0.962344
0.962951
0.995765
0.996003
0.996495
0.997262
0.998334
0.999733
1.00147
1.00355
1.00596
1.00869
1.01171
1.01501
1.01854
1.02227
1.02619
1.03029
1.03458
1.03912
1.04397
1.04922
1.05498
1.06134
1.06839
1.07618
1.0847
1.09394
1.10383
1.11427
1.12513
1.1363
1.14761
1.15891
1.17007
1.18095
1.19143
1.20142
1.21083
1.2196
1.22766
1.23497
1.2415
1.24723
1.25213
1.25619
1.25939
1.26174
1.26321
1.26381
1.26354
1.26239
1.26036
1.25746
1.25368
1.24903
1.24351
1.23714
1.22991
1.22185
1.21298
1.20333
1.19293
1.18183
1.1701
1.1578
1.14504
1.13193
1.11862
1.10525
1.09201
1.07911
1.06673
1.05509
1.04436
1.03469
1.02618
1.0189
1.01289
1.00812
1.00452
1.00195
1.00022
0.999127
0.998453
0.998006
0.997616
0.99714
0.996469
0.995525
0.994265
0.992674
0.990769
0.988591
0.9862
0.983669
0.981081
0.978517
0.97605
0.97375
0.971678
0.969887
0.968423
0.967318
0.966591
0.966253
0.966308
0.966755
0.967583
0.968773
0.970295
0.972102
0.974137
0.976332
0.978614
0.980897
0.983089
0.985095
0.986826
0.988201
0.989155
0.989644
1.02852
1.02877
1.02928
1.03006
1.03113
1.0325
1.03419
1.03619
1.03849
1.04109
1.04397
1.04711
1.0505
1.0541
1.05792
1.06196
1.06623
1.07076
1.07562
1.08086
1.08656
1.09278
1.09958
1.10699
1.115
1.1236
1.13272
1.14229
1.15221
1.16237
1.17264
1.18291
1.19306
1.20296
1.21253
1.22166
1.23028
1.23832
1.24574
1.25248
1.25851
1.2638
1.26833
1.27209
1.27505
1.2772
1.27855
1.27908
1.27879
1.27767
1.27574
1.27298
1.26941
1.26502
1.25983
1.25385
1.24708
1.23956
1.23129
1.22233
1.21269
1.20244
1.19164
1.18036
1.16869
1.15674
1.14464
1.13252
1.12053
1.10884
1.09762
1.08702
1.07719
1.06825
1.06028
1.05334
1.04746
1.0426
1.03872
1.0357
1.03341
1.03169
1.03038
1.02932
1.02838
1.02743
1.02638
1.02518
1.02376
1.02212
1.02026
1.01822
1.01602
1.01373
1.01141
1.00912
1.00692
1.00487
1.00302
1.00141
1.00008
0.999057
0.998362
0.998004
0.997987
0.998307
0.998953
0.999906
1.00114
1.00261
1.00426
1.00605
1.00791
1.00976
1.01154
1.01316
1.01456
1.01566
1.01643
1.01682
1.06102
1.06127
1.06179
1.06256
1.06362
1.06496
1.06659
1.06851
1.07072
1.07321
1.07597
1.07898
1.08224
1.08572
1.08944
1.0934
1.0976
1.10208
1.10688
1.11205
1.11762
1.12365
1.13017
1.13719
1.14472
1.15272
1.16116
1.16996
1.17904
1.18832
1.19769
1.20704
1.21629
1.22532
1.23405
1.2424
1.2503
1.25768
1.2645
1.2707
1.27626
1.28114
1.28532
1.28878
1.2915
1.29348
1.2947
1.29516
1.29485
1.29378
1.29193
1.28932
1.28595
1.28182
1.27695
1.27134
1.26502
1.258
1.25031
1.24199
1.23307
1.22361
1.21366
1.20331
1.19262
1.18171
1.17068
1.15965
1.14874
1.13811
1.12788
1.11818
1.10914
1.10083
1.09335
1.08673
1.08099
1.07612
1.07205
1.06873
1.06603
1.06385
1.06205
1.06052
1.05914
1.05781
1.05646
1.05503
1.05348
1.05178
1.04995
1.04799
1.04594
1.04383
1.04172
1.03964
1.03765
1.0358
1.03412
1.03265
1.03143
1.03047
1.0298
1.02941
1.02933
1.02953
1.03002
1.03076
1.03174
1.03292
1.03426
1.03571
1.03721
1.03871
1.04014
1.04145
1.04257
1.04347
1.04408
1.0444
1.09327
1.09352
1.09403
1.09479
1.09583
1.09713
1.0987
1.10055
1.10267
1.10506
1.10771
1.1106
1.11374
1.11711
1.12073
1.12458
1.1287
1.13309
1.13778
1.14282
1.14822
1.15402
1.16024
1.16689
1.17396
1.18142
1.18923
1.19734
1.20569
1.21418
1.22274
1.23129
1.23973
1.24798
1.25596
1.2636
1.27083
1.2776
1.28386
1.28957
1.29468
1.29917
1.30302
1.3062
1.3087
1.31051
1.31161
1.31201
1.31169
1.31065
1.30889
1.30642
1.30325
1.29937
1.2948
1.28955
1.28365
1.27711
1.26996
1.26224
1.25399
1.24526
1.2361
1.22658
1.21679
1.2068
1.19672
1.18664
1.17669
1.16698
1.15761
1.1487
1.14034
1.1326
1.12556
1.11924
1.11366
1.10881
1.10465
1.10112
1.09814
1.09562
1.09346
1.09157
1.08985
1.08822
1.08663
1.08501
1.08334
1.08159
1.07976
1.07786
1.07591
1.07394
1.07198
1.07007
1.06824
1.06654
1.065
1.06365
1.06251
1.0616
1.06094
1.06053
1.06038
1.06048
1.06082
1.06138
1.06215
1.06308
1.06415
1.06531
1.06652
1.06772
1.06887
1.06992
1.07082
1.07154
1.07204
1.07229
1.12527
1.12551
1.12601
1.12676
1.12776
1.12902
1.13054
1.13232
1.13436
1.13665
1.13919
1.14198
1.14501
1.14827
1.15177
1.15551
1.15951
1.16378
1.16835
1.17322
1.17842
1.18398
1.1899
1.19617
1.2028
1.20976
1.21701
1.2245
1.23218
1.23997
1.24782
1.25564
1.26335
1.2709
1.2782
1.2852
1.29183
1.29804
1.30378
1.30902
1.31372
1.31785
1.32139
1.32431
1.3266
1.32825
1.32924
1.32957
1.32924
1.32823
1.32657
1.32423
1.32124
1.3176
1.31332
1.30842
1.30291
1.29683
1.29019
1.28303
1.27539
1.26733
1.25889
1.25013
1.24114
1.23198
1.22274
1.21352
1.20441
1.1955
1.18689
1.17866
1.17091
1.16368
1.15704
1.15101
1.14561
1.14082
1.13662
1.13297
1.12979
1.12703
1.1246
1.12244
1.12046
1.1186
1.11681
1.11505
1.11327
1.11147
1.10964
1.10778
1.1059
1.10403
1.10219
1.10041
1.09871
1.09713
1.0957
1.09443
1.09335
1.09248
1.09182
1.09139
1.09118
1.09118
1.09139
1.0918
1.09238
1.0931
1.09394
1.09486
1.09582
1.09678
1.0977
1.09854
1.09926
1.09983
1.10023
1.10043
1.15702
1.15726
1.15774
1.15847
1.15944
1.16065
1.16212
1.16383
1.16579
1.168
1.17044
1.17312
1.17603
1.17918
1.18257
1.18619
1.19006
1.19419
1.1986
1.20329
1.20827
1.21357
1.21918
1.2251
1.23132
1.23781
1.24454
1.25147
1.25855
1.26572
1.27292
1.28009
1.28716
1.29407
1.30075
1.30716
1.31324
1.31894
1.32421
1.32902
1.33333
1.33713
1.34037
1.34305
1.34514
1.34664
1.34753
1.3478
1.34745
1.34649
1.3449
1.3427
1.33989
1.33647
1.33247
1.32789
1.32276
1.31709
1.31093
1.30429
1.29723
1.28978
1.28199
1.27393
1.26565
1.25724
1.24876
1.24029
1.23191
1.22371
1.21577
1.20816
1.20094
1.19418
1.18791
1.18215
1.17693
1.17224
1.16805
1.16433
1.16103
1.1581
1.15549
1.15312
1.15095
1.14891
1.14697
1.14509
1.14323
1.14139
1.13955
1.13771
1.13589
1.13409
1.13234
1.13066
1.12906
1.12758
1.12622
1.12503
1.124
1.12315
1.12249
1.12202
1.12176
1.12168
1.12178
1.12205
1.12247
1.12301
1.12366
1.12437
1.12513
1.12588
1.12661
1.12728
1.12785
1.1283
1.12862
1.12878
1.18853
1.18876
1.18923
1.18993
1.19087
1.19204
1.19345
1.1951
1.19698
1.1991
1.20145
1.20402
1.20683
1.20986
1.21312
1.21662
1.22035
1.22433
1.22856
1.23305
1.23782
1.24285
1.24816
1.25374
1.25956
1.26562
1.27187
1.27829
1.28483
1.29143
1.29805
1.30463
1.31112
1.31745
1.32359
1.32946
1.33503
1.34026
1.3451
1.34951
1.35347
1.35695
1.35992
1.36237
1.36428
1.36563
1.36643
1.36665
1.36629
1.36536
1.36386
1.36178
1.35913
1.35593
1.35219
1.34792
1.34313
1.33787
1.33214
1.32599
1.31945
1.31256
1.30537
1.29794
1.29031
1.28257
1.27476
1.26696
1.25924
1.25168
1.24433
1.23726
1.23053
1.22418
1.21825
1.21277
1.20773
1.20315
1.199
1.19526
1.1919
1.18887
1.18612
1.18361
1.1813
1.17913
1.17708
1.1751
1.17318
1.1713
1.16945
1.16764
1.16585
1.16411
1.16243
1.16082
1.1593
1.15789
1.1566
1.15545
1.15446
1.15362
1.15296
1.15247
1.15214
1.15199
1.152
1.15215
1.15243
1.15282
1.1533
1.15385
1.15443
1.15502
1.15558
1.1561
1.15656
1.15691
1.15716
1.15729
1.2198
1.22003
1.22048
1.22115
1.22206
1.22319
1.22454
1.22613
1.22794
1.22997
1.23222
1.2347
1.23739
1.24031
1.24345
1.24681
1.25039
1.25421
1.25826
1.26255
1.26709
1.27186
1.27688
1.28212
1.28758
1.29323
1.29905
1.30499
1.31103
1.31713
1.32322
1.32927
1.33523
1.34105
1.34667
1.35206
1.35718
1.36197
1.36641
1.37045
1.37409
1.37727
1.37999
1.38223
1.38397
1.38519
1.3859
1.38607
1.38571
1.38481
1.38338
1.38142
1.37894
1.37594
1.37244
1.36845
1.364
1.3591
1.35378
1.34807
1.34201
1.33564
1.329
1.32213
1.3151
1.30795
1.30075
1.29355
1.28642
1.27942
1.2726
1.26603
1.25973
1.25377
1.24816
1.24293
1.23808
1.23362
1.22954
1.22582
1.22243
1.21934
1.21652
1.21391
1.2115
1.20924
1.2071
1.20506
1.20309
1.20118
1.19933
1.19752
1.19577
1.19407
1.19244
1.19089
1.18943
1.18807
1.18684
1.18573
1.18475
1.18393
1.18326
1.18273
1.18237
1.18215
1.18207
1.18212
1.18228
1.18254
1.18289
1.18329
1.18372
1.18417
1.1846
1.185
1.18535
1.18563
1.18582
1.18592
1.25085
1.25107
1.2515
1.25215
1.25302
1.25411
1.25541
1.25693
1.25867
1.26062
1.26278
1.26515
1.26774
1.27054
1.27355
1.27677
1.2802
1.28385
1.28772
1.29181
1.29611
1.30063
1.30536
1.31029
1.3154
1.32067
1.32608
1.3316
1.33719
1.34282
1.34844
1.35401
1.35949
1.36483
1.37
1.37495
1.37964
1.38403
1.3881
1.39182
1.39515
1.39806
1.40055
1.40259
1.40417
1.40528
1.4059
1.40602
1.40566
1.4048
1.40344
1.40159
1.39926
1.39645
1.39317
1.38945
1.3853
1.38074
1.3758
1.37051
1.36489
1.35899
1.35284
1.34649
1.33999
1.33339
1.32673
1.32008
1.31348
1.30698
1.30064
1.29451
1.28861
1.283
1.27768
1.2727
1.26804
1.26372
1.25973
1.25605
1.25267
1.24956
1.24669
1.24403
1.24155
1.23922
1.23703
1.23494
1.23294
1.23101
1.22915
1.22736
1.22563
1.22397
1.22238
1.22087
1.21946
1.21814
1.21694
1.21586
1.21491
1.21408
1.2134
1.21285
1.21244
1.21216
1.21201
1.21197
1.21203
1.21218
1.21241
1.21269
1.213
1.21333
1.21365
1.21396
1.21422
1.21443
1.21458
1.21466
1.28168
1.28189
1.28231
1.28294
1.28377
1.28481
1.28606
1.28752
1.28918
1.29105
1.29312
1.2954
1.29788
1.30056
1.30343
1.30651
1.3098
1.31328
1.31696
1.32084
1.32492
1.3292
1.33365
1.33828
1.34306
1.34798
1.35302
1.35814
1.36331
1.36851
1.3737
1.37883
1.38388
1.38879
1.39354
1.39808
1.40239
1.40643
1.41016
1.41356
1.41661
1.41928
1.42156
1.42342
1.42485
1.42584
1.42639
1.42647
1.4261
1.42527
1.42399
1.42224
1.42005
1.41742
1.41436
1.41089
1.40702
1.40278
1.39818
1.39326
1.38805
1.38258
1.37689
1.37101
1.36499
1.35888
1.35272
1.34655
1.34042
1.33438
1.32848
1.32274
1.31721
1.31192
1.30689
1.30213
1.29767
1.29349
1.2896
1.28599
1.28264
1.27953
1.27664
1.27396
1.27144
1.26908
1.26685
1.26473
1.26271
1.26077
1.25891
1.25713
1.25542
1.25379
1.25223
1.25076
1.24938
1.2481
1.24693
1.24587
1.24492
1.2441
1.2434
1.24283
1.24238
1.24205
1.24183
1.24172
1.2417
1.24175
1.24188
1.24205
1.24227
1.2425
1.24273
1.24295
1.24314
1.2433
1.24341
1.24347
1.31231
1.31251
1.31291
1.31351
1.31431
1.31531
1.31651
1.3179
1.31949
1.32128
1.32327
1.32544
1.32781
1.33037
1.33312
1.33606
1.33919
1.3425
1.346
1.34969
1.35354
1.35757
1.36177
1.36611
1.37058
1.37517
1.37986
1.38462
1.38941
1.39422
1.39901
1.40375
1.40839
1.41292
1.41728
1.42146
1.42542
1.42912
1.43255
1.43567
1.43846
1.4409
1.44298
1.44467
1.44597
1.44686
1.44733
1.44738
1.44701
1.44621
1.44499
1.44334
1.44128
1.43882
1.43596
1.43271
1.42911
1.42516
1.42088
1.41631
1.41148
1.4064
1.40112
1.39567
1.39009
1.38442
1.3787
1.37297
1.36728
1.36165
1.35614
1.35077
1.34558
1.34058
1.33581
1.33128
1.327
1.32297
1.3192
1.31566
1.31236
1.30928
1.30641
1.30371
1.30118
1.2988
1.29655
1.29442
1.29239
1.29045
1.2886
1.28683
1.28514
1.28353
1.282
1.28056
1.27921
1.27795
1.2768
1.27576
1.27482
1.274
1.27329
1.27269
1.27221
1.27183
1.27155
1.27137
1.27128
1.27126
1.2713
1.27139
1.27151
1.27166
1.27181
1.27197
1.2721
1.27221
1.27229
1.27233
1.34273
1.34293
1.34331
1.34388
1.34465
1.3456
1.34675
1.34809
1.34961
1.35132
1.35321
1.35529
1.35755
1.36
1.36262
1.36542
1.3684
1.37154
1.37486
1.37835
1.38199
1.38579
1.38973
1.3938
1.39799
1.40227
1.40664
1.41105
1.4155
1.41995
1.42438
1.42875
1.43303
1.4372
1.44122
1.44506
1.44869
1.45209
1.45524
1.4581
1.46065
1.46289
1.46478
1.46632
1.46749
1.46829
1.4687
1.46872
1.46834
1.46757
1.46641
1.46486
1.46292
1.46061
1.45793
1.4549
1.45154
1.44786
1.44388
1.43963
1.43514
1.43042
1.42552
1.42046
1.41528
1.41001
1.4047
1.39937
1.39406
1.38881
1.38366
1.37862
1.37374
1.36902
1.3645
1.36018
1.35608
1.3522
1.34854
1.3451
1.34187
1.33883
1.33598
1.3333
1.33078
1.3284
1.32615
1.32401
1.32198
1.32005
1.3182
1.31645
1.31477
1.31318
1.31168
1.31026
1.30894
1.3077
1.30657
1.30553
1.3046
1.30378
1.30305
1.30244
1.30192
1.3015
1.30118
1.30094
1.30079
1.3007
1.30067
1.30068
1.30073
1.30081
1.3009
1.301
1.30108
1.30116
1.30121
1.30124
1.37297
1.37315
1.37352
1.37407
1.3748
1.37571
1.37681
1.37808
1.37954
1.38117
1.38298
1.38496
1.38712
1.38944
1.39194
1.3946
1.39743
1.40041
1.40356
1.40685
1.41029
1.41386
1.41756
1.42138
1.42529
1.42929
1.43336
1.43746
1.44159
1.44571
1.4498
1.45384
1.45779
1.46163
1.46533
1.46886
1.4722
1.47533
1.47821
1.48083
1.48317
1.48521
1.48694
1.48834
1.48939
1.4901
1.49045
1.49044
1.49007
1.48933
1.48822
1.48676
1.48493
1.48277
1.48026
1.47743
1.47429
1.47086
1.46716
1.4632
1.45902
1.45463
1.45007
1.44537
1.44055
1.43565
1.4307
1.42574
1.42079
1.41588
1.41105
1.40633
1.40173
1.39727
1.39298
1.38887
1.38495
1.38121
1.37768
1.37433
1.37117
1.36819
1.36538
1.36273
1.36023
1.35787
1.35562
1.3535
1.35147
1.34955
1.34772
1.34598
1.34433
1.34276
1.34127
1.33988
1.33857
1.33736
1.33624
1.33521
1.33428
1.33345
1.33272
1.33208
1.33154
1.33109
1.33072
1.33044
1.33023
1.33008
1.32999
1.32994
1.32993
1.32995
1.32999
1.33004
1.33008
1.33012
1.33015
1.33017
1.40302
1.40319
1.40354
1.40407
1.40476
1.40564
1.40668
1.4079
1.40929
1.41084
1.41256
1.41445
1.41651
1.41872
1.42109
1.42362
1.4263
1.42913
1.4321
1.43521
1.43845
1.44181
1.44528
1.44886
1.45252
1.45625
1.46003
1.46385
1.46768
1.4715
1.47528
1.47901
1.48266
1.4862
1.48961
1.49286
1.49593
1.4988
1.50144
1.50385
1.50599
1.50785
1.50942
1.51069
1.51164
1.51227
1.51257
1.51253
1.51216
1.51145
1.51039
1.50901
1.5073
1.50526
1.50291
1.50027
1.49734
1.49413
1.49068
1.48699
1.4831
1.47901
1.47477
1.47039
1.46591
1.46134
1.45673
1.4521
1.44747
1.44288
1.43835
1.4339
1.42957
1.42535
1.42128
1.41737
1.41361
1.41003
1.40662
1.40337
1.4003
1.39739
1.39463
1.39202
1.38955
1.38721
1.38498
1.38287
1.38087
1.37896
1.37715
1.37543
1.37379
1.37224
1.37078
1.3694
1.36812
1.36692
1.36581
1.36479
1.36386
1.36303
1.36228
1.36163
1.36106
1.36058
1.36018
1.35986
1.3596
1.3594
1.35926
1.35916
1.3591
1.35907
1.35907
1.35907
1.35909
1.3591
1.35911
1.35912
1.43289
1.43306
1.43339
1.43389
1.43456
1.43539
1.43639
1.43754
1.43887
1.44035
1.44199
1.44378
1.44574
1.44784
1.45009
1.45249
1.45502
1.4577
1.4605
1.46344
1.46649
1.46965
1.4729
1.47625
1.47967
1.48315
1.48667
1.49022
1.49378
1.49732
1.50082
1.50427
1.50764
1.5109
1.51404
1.51703
1.51986
1.52249
1.52492
1.52712
1.52908
1.53078
1.53221
1.53336
1.53422
1.53478
1.53503
1.53496
1.53459
1.5339
1.5329
1.53159
1.52998
1.52807
1.52587
1.52339
1.52065
1.51766
1.51443
1.511
1.50736
1.50356
1.4996
1.49552
1.49134
1.48708
1.48277
1.47844
1.47411
1.46981
1.46556
1.46137
1.45728
1.4533
1.44943
1.4457
1.44211
1.43867
1.43539
1.43225
1.42926
1.42642
1.42373
1.42117
1.41874
1.41643
1.41423
1.41215
1.41017
1.40828
1.40649
1.40479
1.40317
1.40164
1.4002
1.39884
1.39757
1.39638
1.39528
1.39427
1.39335
1.39251
1.39176
1.39109
1.39051
1.39
1.38957
1.38921
1.38891
1.38867
1.38849
1.38835
1.38825
1.38818
1.38813
1.3881
1.38809
1.38808
1.38808
1.38808
1.4626
1.46275
1.46307
1.46355
1.46418
1.46498
1.46593
1.46703
1.46829
1.46969
1.47125
1.47296
1.47481
1.47681
1.47894
1.48121
1.48361
1.48614
1.48878
1.49155
1.49441
1.49738
1.50044
1.50357
1.50676
1.51001
1.51329
1.51659
1.51989
1.52317
1.52642
1.5296
1.53271
1.53573
1.53862
1.54138
1.54397
1.54639
1.54862
1.55064
1.55243
1.55398
1.55529
1.55632
1.55709
1.55758
1.55779
1.55771
1.55733
1.55667
1.55572
1.55448
1.55296
1.55116
1.54909
1.54677
1.54421
1.54141
1.5384
1.53519
1.5318
1.52825
1.52456
1.52075
1.51685
1.51287
1.50884
1.50479
1.50073
1.49669
1.4927
1.48875
1.48489
1.48112
1.47745
1.47389
1.47047
1.46717
1.464
1.46097
1.45808
1.45532
1.45269
1.45018
1.4478
1.44553
1.44337
1.44132
1.43936
1.43751
1.43574
1.43406
1.43247
1.43096
1.42954
1.4282
1.42694
1.42577
1.42468
1.42367
1.42275
1.42191
1.42115
1.42047
1.41987
1.41934
1.41888
1.41849
1.41817
1.41789
1.41767
1.41749
1.41736
1.41725
1.41717
1.41712
1.41708
1.41705
1.41704
1.41703
1.49214
1.49229
1.4926
1.49305
1.49365
1.49441
1.49531
1.49636
1.49755
1.49889
1.50037
1.50199
1.50375
1.50564
1.50766
1.5098
1.51207
1.51445
1.51695
1.51955
1.52224
1.52503
1.52789
1.53082
1.5338
1.53683
1.53989
1.54296
1.54602
1.54906
1.55207
1.55502
1.55789
1.56067
1.56334
1.56588
1.56827
1.57049
1.57253
1.57438
1.57602
1.57744
1.57862
1.57956
1.58025
1.58068
1.58084
1.58074
1.58037
1.57973
1.57882
1.57764
1.57621
1.57452
1.57258
1.57041
1.568
1.56539
1.56257
1.55957
1.5564
1.55309
1.54964
1.54608
1.54243
1.53871
1.53494
1.53114
1.52733
1.52354
1.51977
1.51606
1.51241
1.50883
1.50535
1.50196
1.49869
1.49553
1.49248
1.48956
1.48676
1.48408
1.48152
1.47908
1.47675
1.47453
1.47241
1.47039
1.46847
1.46664
1.4649
1.46324
1.46168
1.46019
1.45879
1.45746
1.45622
1.45506
1.45398
1.45298
1.45206
1.45122
1.45046
1.44977
1.44916
1.44861
1.44813
1.44772
1.44736
1.44706
1.44681
1.4466
1.44643
1.4463
1.4462
1.44612
1.44606
1.44602
1.44599
1.44598
1.52154
1.52168
1.52197
1.5224
1.52297
1.52369
1.52455
1.52554
1.52668
1.52795
1.52935
1.53089
1.53255
1.53434
1.53625
1.53827
1.54041
1.54266
1.54501
1.54745
1.54999
1.5526
1.55528
1.55802
1.5608
1.56363
1.56647
1.56933
1.57217
1.57499
1.57778
1.58051
1.58316
1.58573
1.58819
1.59052
1.59272
1.59477
1.59664
1.59833
1.59983
1.60112
1.6022
1.60304
1.60366
1.60403
1.60416
1.60404
1.60367
1.60305
1.60219
1.60107
1.59972
1.59812
1.5963
1.59426
1.59201
1.58956
1.58692
1.58412
1.58115
1.57805
1.57483
1.57149
1.56808
1.56459
1.56106
1.5575
1.55392
1.55035
1.54681
1.5433
1.53984
1.53646
1.53315
1.52992