/*--------------------------------*- C++ -*----------------------------------*\
| =========                 |                                                 |
| \\      /  F ield         | OpenFOAM: The Open Source CFD Toolbox           |
|  \\    /   O peration     | Version:  2406                                  |
|   \\  /    A nd           | Website:  www.openfoam.com                      |
|    \\/     M anipulation  |                                                 |
\*---------------------------------------------------------------------------*/
FoamFile
{
    version     2.0;
    format      ascii;
    arch        "LSB;label=32;scalar=64";
    class       volScalarField;
    location    "7.2";
    object      C_0;
}
// * * * * * * * * * * * * * * * * * * * * * * * * * * * * * * * * * * * * * //

dimensions      [1 -3 0 0 0 0 0];

internalField   nonuniform List<scalar> 
14400
(
0.236734
0.235593
0.233609
0.231219
0.228867
0.226932
0.225693
0.225327
0.225903
0.227384
0.229624
0.232356
0.235184
0.237587
0.238955
0.238721
0.236625
0.233061
0.228709
0.224273
0.220368
0.217501
0.216086
0.216469
0.218953
0.223818
0.231339
0.241794
0.255473
0.272687
0.293769
0.31907
0.34895
0.383744
0.423685
0.468672
0.517108
0.555309
0.580724
0.601202
0.618878
0.634011
0.646801
0.657403
0.665938
0.672496
0.677145
0.679935
0.680895
0.680042
0.677373
0.672872
0.666508
0.658232
0.647973
0.635643
0.621121
0.604257
0.584856
0.562666
0.53339
0.491221
0.442532
0.397799
0.358287
0.323955
0.294494
0.269524
0.248661
0.23154
0.217828
0.207224
0.199457
0.194294
0.191533
0.191014
0.192616
0.196262
0.201905
0.209522
0.219095
0.230587
0.243908
0.258863
0.275045
0.291499
0.305146
0.311833
0.310869
0.302923
0.291623
0.279949
0.268882
0.258893
0.25023
0.243004
0.237224
0.232825
0.229675
0.227593
0.226362
0.225757
0.225575
0.225676
0.226024
0.226703
0.227894
0.229845
0.232825
0.237093
0.242883
0.250383
0.259728
0.270988
0.284146
0.299064
0.315387
0.332237
0.346853
0.354543
0.244245
0.242795
0.240349
0.237481
0.234716
0.232469
0.231035
0.230594
0.231219
0.232874
0.235417
0.238581
0.241961
0.24499
0.24693
0.246949
0.244464
0.240214
0.235146
0.230081
0.22567
0.222419
0.220731
0.220938
0.223332
0.228186
0.235767
0.246348
0.260219
0.277686
0.299083
0.324762
0.355078
0.390357
0.430783
0.476059
0.523928
0.559881
0.58386
0.604004
0.621421
0.636353
0.648989
0.659472
0.667914
0.674404
0.679005
0.681764
0.68271
0.681857
0.679204
0.674735
0.668421
0.660213
0.650046
0.637833
0.623463
0.606794
0.587643
0.565779
0.538329
0.498068
0.4492
0.404061
0.364078
0.329281
0.29939
0.274035
0.252832
0.235419
0.22146
0.210653
0.202732
0.197461
0.194644
0.194124
0.195784
0.199547
0.205371
0.213234
0.223122
0.235001
0.248787
0.264293
0.281122
0.298305
0.312144
0.318339
0.318116
0.310576
0.298907
0.286746
0.275229
0.264869
0.255924
0.248506
0.242624
0.238208
0.235118
0.233158
0.232088
0.231647
0.231588
0.231735
0.232035
0.232589
0.233621
0.235419
0.238284
0.242502
0.248318
0.255929
0.265473
0.277019
0.290552
0.305933
0.322807
0.340253
0.354516
0.360824
0.25979
0.257586
0.254096
0.250203
0.246578
0.243694
0.241864
0.241271
0.24199
0.24399
0.247135
0.251167
0.25568
0.260052
0.263345
0.264138
0.260582
0.254747
0.248152
0.241802
0.236376
0.232361
0.230128
0.229983
0.232198
0.237027
0.244726
0.255561
0.269812
0.287786
0.309812
0.336238
0.367416
0.40366
0.445109
0.491142
0.53638
0.567775
0.590061
0.609534
0.626447
0.640993
0.653329
0.663579
0.671844
0.678201
0.682707
0.685406
0.686323
0.685472
0.68285
0.678445
0.672227
0.664154
0.654164
0.642182
0.628106
0.611812
0.593143
0.5719
0.547056
0.510751
0.462482
0.416681
0.375761
0.34003
0.309279
0.283155
0.261278
0.243283
0.228833
0.217628
0.209401
0.203923
0.201001
0.200484
0.202261
0.206261
0.212444
0.220796
0.231306
0.243948
0.258646
0.27521
0.293202
0.311451
0.325006
0.33049
0.331107
0.325568
0.313484
0.300404
0.288018
0.276936
0.267439
0.259648
0.253572
0.249135
0.246186
0.244499
0.243788
0.243717
0.243944
0.244196
0.244379
0.244645
0.245313
0.246764
0.249372
0.253468
0.259323
0.267146
0.277078
0.289185
0.303443
0.319687
0.337474
0.355487
0.367971
0.372568
0.284401
0.280626
0.27527
0.269694
0.26472
0.26086
0.258429
0.257606
0.258459
0.260963
0.264995
0.270316
0.27655
0.283084
0.288846
0.291654
0.285577
0.276904
0.267878
0.259586
0.252657
0.247514
0.244476
0.24381
0.245756
0.250548
0.258422
0.269633
0.284454
0.303185
0.326147
0.353679
0.386112
0.423708
0.466475
0.513199
0.552059
0.577974
0.599056
0.617625
0.63384
0.647843
0.659754
0.669673
0.677683
0.683848
0.688218
0.690829
0.691705
0.690856
0.688281
0.683967
0.677889
0.670009
0.660276
0.648623
0.634966
0.619205
0.601219
0.580871
0.55802
0.52742
0.482803
0.435885
0.393507
0.35638
0.324351
0.297083
0.2742
0.255339
0.240163
0.22837
0.219698
0.21392
0.210852
0.210349
0.212309
0.216665
0.223385
0.23246
0.243888
0.257649
0.273676
0.291764
0.311354
0.330572
0.342252
0.347151
0.3484
0.345766
0.335089
0.320963
0.307399
0.295294
0.285003
0.276675
0.27033
0.265893
0.263202
0.261995
0.261916
0.262518
0.263283
0.26374
0.263687
0.263405
0.263408
0.264244
0.266396
0.27026
0.276142
0.28426
0.294753
0.307676
0.322975
0.340419
0.359309
0.376635
0.385313
0.38868
0.319207
0.312454
0.304191
0.296224
0.289413
0.284249
0.281023
0.279893
0.280917
0.284068
0.289234
0.296195
0.304618
0.313943
0.322841
0.325507
0.318808
0.30647
0.294318
0.283563
0.274721
0.26813
0.26405
0.262703
0.264298
0.269039
0.277147
0.288859
0.304439
0.324175
0.348376
0.377355
0.41139
0.450584
0.49435
0.53837
0.56878
0.59084
0.610564
0.628069
0.643445
0.656784
0.66817
0.677676
0.685365
0.691289
0.695487
0.697988
0.698812
0.697966
0.69545
0.691253
0.685353
0.677719
0.668308
0.657067
0.643931
0.628823
0.611657
0.59234
0.570774
0.545598
0.508674
0.461407
0.417423
0.378556
0.344876
0.316106
0.291895
0.271888
0.255754
0.243191
0.23394
0.227781
0.224534
0.224064
0.226276
0.231111
0.238543
0.248568
0.261191
0.276399
0.29412
0.314121
0.335592
0.353939
0.362741
0.367412
0.369216
0.368328
0.36225
0.348261
0.333536
0.320201
0.308906
0.299899
0.293229
0.288841
0.286569
0.286121
0.28706
0.288796
0.290527
0.291387
0.290861
0.289595
0.288473
0.288315
0.289738
0.293215
0.299084
0.307565
0.318773
0.332734
0.349315
0.368094
0.387592
0.400205
0.405519
0.408157
0.359036
0.35203
0.340612
0.329844
0.320845
0.314115
0.309936
0.308438
0.309663
0.313579
0.320069
0.328872
0.339586
0.351275
0.35905
0.35918
0.355324
0.342251
0.327228
0.313826
0.302805
0.294513
0.289186
0.287017
0.288185
0.292872
0.301275
0.313616
0.330143
0.35113
0.376862
0.407606
0.443544
0.484514
0.528667
0.56263
0.585761
0.606
0.624291
0.640641
0.655088
0.667679
0.678466
0.687496
0.694814
0.700456
0.704453
0.706825
0.707587
0.706747
0.704301
0.700242
0.694551
0.687205
0.67817
0.667406
0.654866
0.640498
0.624247
0.606059
0.585893
0.563737
0.535304
0.492956
0.447671
0.406863
0.371211
0.3406
0.314744
0.293316
0.275993
0.262481
0.252523
0.245903
0.242451
0.242038
0.244576
0.250014
0.258331
0.269528
0.283606
0.300542
0.32022
0.342213
0.364791
0.379114
0.386065
0.390542
0.39272
0.392737
0.390678
0.381895
0.366558
0.351906
0.339443
0.329651
0.322613
0.318335
0.316689
0.31735
0.319811
0.323365
0.326787
0.328494
0.326969
0.324006
0.321086
0.31944
0.319789
0.32268
0.328478
0.337375
0.34942
0.364581
0.382501
0.402077
0.417177
0.424214
0.428214
0.430272
0.395578
0.392741
0.383095
0.370257
0.359069
0.350641
0.345418
0.343522
0.344974
0.349738
0.357679
0.36829
0.380641
0.391089
0.393583
0.392551
0.39065
0.382882
0.366399
0.350524
0.3372
0.327017
0.320274
0.317163
0.317846
0.322482
0.331249
0.344349
0.362012
0.384484
0.412008
0.44474
0.482609
0.524436
0.560217
0.584516
0.604606
0.62311
0.639957
0.655117
0.668586
0.680379
0.690518
0.699029
0.705938
0.711269
0.715042
0.717271
0.717966
0.717132
0.714766
0.710861
0.705405
0.698379
0.68976
0.679521
0.66763
0.654057
0.638773
0.621756
0.603001
0.582532
0.560174
0.528622
0.484154
0.441626
0.403783
0.371018
0.343206
0.320082
0.301343
0.286701
0.275904
0.268746
0.265063
0.264733
0.267675
0.273843
0.283219
0.2958
0.311574
0.330475
0.352275
0.376071
0.396035
0.405566
0.41171
0.415969
0.418385
0.419082
0.418265
0.415229
0.405565
0.390381
0.376769
0.366198
0.358754
0.354645
0.353857
0.35601
0.360504
0.366736
0.372698
0.376115
0.372604
0.367157
0.361594
0.357956
0.356842
0.358928
0.364596
0.373964
0.386881
0.403231
0.421728
0.437254
0.445351
0.449752
0.452849
0.454446
0.429612
0.429378
0.425988
0.416379
0.403883
0.393842
0.387622
0.38535
0.387039
0.392645
0.402081
0.413863
0.424497
0.428287
0.427785
0.426771
0.425133
0.422256
0.411254
0.393778
0.378212
0.366027
0.357741
0.353597
0.353757
0.358362
0.367566
0.381555
0.400533
0.424683
0.454185
0.488848
0.527564
0.563035
0.58759
0.60689
0.625035
0.641875
0.657311
0.671284
0.683761
0.694732
0.704197
0.712163
0.71864
0.723641
0.727175
0.729251
0.729875
0.729048
0.726769
0.723032
0.717829
0.711147
0.702972
0.693287
0.682077
0.669328
0.655031
0.63919
0.621822
0.602971
0.582708
0.559938
0.526516
0.48316
0.443032
0.40785
0.377794
0.352711
0.33233
0.316376
0.304607
0.296828
0.292884
0.292662
0.296087
0.303112
0.313719
0.327893
0.345577
0.366573
0.390241
0.413784
0.426768
0.433742
0.439241
0.443239
0.44577
0.446942
0.446931
0.445986
0.442895
0.434332
0.420508
0.40961
0.401706
0.397774
0.398074
0.402031
0.408557
0.417692
0.42308
0.424777
0.423338
0.418026
0.409516
0.403855
0.400927
0.402014
0.407513
0.41743
0.430949
0.447742
0.461294
0.469054
0.473209
0.476594
0.478983
0.480218
0.463878
0.463833
0.463809
0.461056
0.453871
0.443104
0.436386
0.433869
0.435744
0.441805
0.452229
0.460148
0.463536
0.463094
0.462495
0.461616
0.460367
0.458708
0.454724
0.442648
0.425927
0.411854
0.401996
0.396779
0.396416
0.401025
0.410743
0.425734
0.446178
0.472072
0.503527
0.539032
0.57175
0.595127
0.613137
0.630417
0.64677
0.662045
0.676129
0.688945
0.700443
0.710592
0.719375
0.726785
0.732819
0.737478
0.740766
0.742684
0.743235
0.742417
0.74023
0.73667
0.731731
0.725408
0.717692
0.708578
0.698062
0.686145
0.672834
0.65815
0.642127
0.624823
0.606319
0.586721
0.56369
0.530108
0.48904
0.451507
0.419019
0.391763
0.369537
0.352091
0.33921
0.330721
0.326484
0.326391
0.330373
0.33838
0.350378
0.366335
0.386099
0.409188
0.433835
0.449713
0.457283
0.463372
0.468272
0.471975
0.474515
0.475984
0.47653
0.47636
0.475744
0.473783
0.467865
0.459011
0.450726
0.446968
0.448434
0.454065
0.459871
0.463531
0.464881
0.464917
0.4656
0.464659
0.461456
0.456015
0.451269
0.451419
0.456656
0.467042
0.479552
0.48928
0.495195
0.498675
0.501837
0.504433
0.506271
0.507224
0.49819
0.498263
0.49847
0.498953
0.498086
0.494529
0.490078
0.487681
0.489579
0.494064
0.497899
0.499327
0.498589
0.498035
0.497486
0.49683
0.49601
0.495021
0.493925
0.489997
0.479362
0.464458
0.453278
0.447074
0.446262
0.45094
0.461229
0.477257
0.499242
0.526445
0.558728
0.586408
0.607049
0.623396
0.639411
0.654869
0.669584
0.683405
0.696214
0.707924
0.718474
0.727818
0.735927
0.742783
0.748372
0.752688
0.755726
0.757485
0.757962
0.757156
0.755064
0.751686
0.747019
0.74106
0.733811
0.725272
0.71545
0.704356
0.692011
0.678448
0.663714
0.647876
0.631024
0.613274
0.594771
0.572462
0.540547
0.50209
0.467279
0.437786
0.413572
0.394472
0.380335
0.371043
0.366472
0.366522
0.371127
0.380226
0.393724
0.411574
0.433349
0.45741
0.474478
0.482819
0.488949
0.49419
0.498502
0.501873
0.504331
0.505949
0.506844
0.507181
0.507167
0.507052
0.506825
0.504191
0.500942
0.498908
0.499086
0.500463
0.501404
0.500496
0.499964
0.500084
0.500859
0.502339
0.504002
0.503813
0.503499
0.504711
0.508767
0.514543
0.520055
0.523347
0.525964
0.52861
0.531032
0.533029
0.534446
0.535182
0.532429
0.532557
0.532855
0.533406
0.534333
0.535542
0.535122
0.53466
0.535208
0.535946
0.535057
0.534085
0.533436
0.532971
0.532584
0.532209
0.53182
0.531442
0.531153
0.531095
0.528853
0.522023
0.511011
0.504417
0.503434
0.508278
0.519134
0.535882
0.559045
0.584994
0.606534
0.623135
0.637541
0.651994
0.66624
0.680065
0.693293
0.705776
0.717397
0.728065
0.73771
0.746279
0.753734
0.760047
0.765198
0.769175
0.771966
0.773567
0.773972
0.773179
0.771185
0.767991
0.763597
0.758004
0.751219
0.743249
0.734108
0.723818
0.712407
0.699917
0.686404
0.671943
0.656628
0.640578
0.623938
0.606884
0.58653
0.558132
0.522475
0.491163
0.464998
0.444132
0.428598
0.418421
0.413475
0.41366
0.41893
0.429198
0.444128
0.463706
0.486237
0.502458
0.510789
0.51642
0.521502
0.525938
0.529672
0.532684
0.534988
0.536636
0.537717
0.538353
0.538692
0.538902
0.539149
0.539608
0.539909
0.539427
0.538438
0.536855
0.535485
0.534678
0.534373
0.534598
0.535372
0.536718
0.538651
0.54132
0.544235
0.546648
0.549155
0.551116
0.552697
0.554619
0.556701
0.558769
0.560652
0.562203
0.563304
0.563875
0.566541
0.566681
0.566984
0.567485
0.568215
0.569147
0.570164
0.570809
0.570578
0.569834
0.569111
0.568516
0.568098
0.56783
0.567672
0.5676
0.56762
0.567774
0.56815
0.568893
0.570221
0.570988
0.56909
0.566769
0.566488
0.571626
0.582869
0.598526
0.615225
0.630528
0.642929
0.65527
0.667982
0.680798
0.693489
0.70586
0.717746
0.729008
0.739533
0.749229
0.758021
0.765853
0.772682
0.778472
0.7832
0.786846
0.789397
0.790844
0.791181
0.790402
0.788507
0.785496
0.781372
0.776141
0.769811
0.762397
0.753917
0.7444
0.733881
0.722408
0.710043
0.696863
0.682967
0.668471
0.653521
0.638284
0.622962
0.605716
0.582104
0.551404
0.524038
0.50149
0.484467
0.473393
0.468044
0.468303
0.474185
0.485665
0.501309
0.521193
0.534456
0.541442
0.546102
0.550571
0.554701
0.558388
0.561565
0.564202
0.5663
0.567891
0.569036
0.56982
0.570345
0.570717
0.571025
0.571306
0.571432
0.571206
0.57051
0.569619
0.568834
0.568357
0.568253
0.568564
0.569312
0.57051
0.572156
0.574226
0.576533
0.578831
0.580747
0.582433
0.584047
0.585733
0.587452
0.589113
0.590606
0.591827
0.592691
0.593139
0.600512
0.600644
0.600916
0.601335
0.601895
0.602549
0.603185
0.603595
0.603615
0.603357
0.603037
0.602769
0.60261
0.602578
0.602672
0.602899
0.603286
0.603883
0.604779
0.606104
0.608038
0.610819
0.6147
0.617739
0.621373
0.627519
0.636346
0.646514
0.656184
0.665703
0.676082
0.687032
0.69832
0.709727
0.721058
0.73214
0.742823
0.752979
0.762499
0.771295
0.779293
0.786432
0.792667
0.79796
0.802282
0.805612
0.807933
0.809233
0.809504
0.808742
0.806945
0.804115
0.800255
0.795376
0.789488
0.782609
0.774764
0.765984
0.756309
0.745791
0.734495
0.7225
0.709904
0.69682
0.683389
0.66977
0.656152
0.642757
0.629092
0.610921
0.588998
0.565917
0.547774
0.536117
0.53039
0.530503
0.536489
0.548904
0.561629
0.570483
0.574829
0.578128
0.581606
0.585061
0.588344
0.591347
0.593999
0.59626
0.598119
0.599591
0.600715
0.601547
0.602152
0.602596
0.602927
0.603159
0.603241
0.603106
0.602744
0.602279
0.601874
0.601662
0.601719
0.602091
0.602801
0.603855
0.605236
0.606895
0.608715
0.610548
0.612247
0.613821
0.615327
0.616812
0.618262
0.619625
0.62083
0.621807
0.622495
0.622851
0.63435
0.634467
0.6347
0.635044
0.635481
0.635969
0.636432
0.636773
0.636929
0.636943
0.636911
0.636912
0.636997
0.637199
0.637539
0.638041
0.638741
0.639694
0.64098
0.642707
0.645008
0.648039
0.651944
0.656788
0.662544
0.668773
0.675392
0.682587
0.690615
0.699328
0.708661
0.718457
0.728539
0.738733
0.748876
0.758818
0.768426
0.777584
0.78619
0.79416
0.801422
0.807916
0.813595
0.818419
0.822358
0.825387
0.827489
0.82865
0.828861
0.828117
0.826417
0.823762
0.820159
0.815618
0.810155
0.803789
0.796546
0.788462
0.77958
0.769953
0.759647
0.74874
0.737327
0.725518
0.713444
0.701254
0.68912
0.67724
0.665836
0.655163
0.642928
0.629154
0.615618
0.604782
0.598823
0.598236
0.601439
0.605839
0.609548
0.61071
0.612415
0.614634
0.617132
0.619723
0.622266
0.624658
0.626824
0.628719
0.630324
0.63164
0.632687
0.6335
0.63412
0.634587
0.63493
0.635161
0.635267
0.635234
0.635081
0.634878
0.634721
0.634698
0.634871
0.635281
0.635948
0.636873
0.638039
0.639401
0.640885
0.6424
0.643872
0.645278
0.646626
0.647925
0.64916
0.650295
0.651283
0.652077
0.652632
0.652918
0.668072
0.668173
0.668372
0.668659
0.669017
0.669413
0.669802
0.670134
0.670385
0.670575
0.670752
0.670969
0.671268
0.671683
0.672244
0.672984
0.673942
0.675171
0.67674
0.678734
0.681249
0.684385
0.688222
0.69279
0.698047
0.703844
0.710126
0.716943
0.724361
0.73233
0.74078
0.749596
0.758646
0.767791
0.776895
0.78583
0.79448
0.80274
0.810517
0.817733
0.824318
0.830215
0.835377
0.839763
0.843343
0.84609
0.847986
0.849017
0.849172
0.848448
0.846842
0.844357
0.841001
0.836785
0.831725
0.825844
0.81917
0.811739
0.803596
0.794795
0.785399
0.775486
0.765145
0.754482
0.743615
0.732682
0.721835
0.711246
0.701103
0.69161
0.682974
0.675398
0.667685
0.660445
0.655176
0.652391
0.651119
0.649472
0.648521
0.648632
0.649488
0.650863
0.652564
0.654432
0.656341
0.658194
0.659919
0.661469
0.662818
0.663957
0.664894
0.665647
0.666241
0.6667
0.667045
0.667288
0.667431
0.667483
0.667467
0.66743
0.667434
0.667537
0.667786
0.668213
0.668835
0.669651
0.670646
0.671786
0.673022
0.674297
0.675562
0.676793
0.677976
0.679103
0.680157
0.681111
0.681931
0.682584
0.683038
0.683271
0.701693
0.701782
0.701955
0.702205
0.702515
0.702865
0.703227
0.703576
0.703903
0.70422
0.704555
0.704944
0.705421
0.70602
0.706771
0.707708
0.708872
0.710309
0.712077
0.71424
0.716869
0.720029
0.723769
0.728104
0.73301
0.738429
0.744325
0.750699
0.757554
0.764852
0.772531
0.780501
0.788658
0.796889
0.805082
0.813128
0.820924
0.828378
0.835407
0.841936
0.847903
0.853251
0.857934
0.861914
0.865159
0.867644
0.869348
0.870258
0.870364
0.86966
0.868146
0.865824
0.862702
0.858794
0.854116
0.848692
0.84255
0.835729
0.828271
0.82023
0.811668
0.802659
0.793287
0.783649
0.773853
0.764023
0.754292
0.744805
0.735719
0.72719
0.719368
0.712375
0.706241
0.701026
0.696514
0.692636
0.689563
0.687464
0.68623
0.685809
0.686042
0.686765
0.687828
0.6891
0.690472
0.691858
0.693189
0.69442
0.69552
0.696476
0.697285
0.697954
0.698497
0.698928
0.699263
0.699513
0.699688
0.6998
0.699874
0.699943
0.700048
0.70023
0.700523
0.700952
0.701527
0.70225
0.703107
0.704075
0.705119
0.706202
0.707289
0.708354
0.709381
0.710353
0.711254
0.712061
0.712747
0.71329
0.713665
0.713857
0.735226
0.735306
0.735463
0.735689
0.735975
0.736305
0.736664
0.737041
0.737432
0.737846
0.738303
0.73883
0.739454
0.740204
0.741111
0.742207
0.743528
0.745116
0.747017
0.749281
0.751958
0.755095
0.75872
0.762846
0.767461
0.772536
0.778046
0.783975
0.790304
0.796994
0.803991
0.81122
0.818596
0.826026
0.833417
0.840674
0.84771
0.854442
0.860796
0.866703
0.872105
0.87695
0.881194
0.8848
0.887736
0.889978
0.891505
0.892304
0.892365
0.891683
0.890257
0.88809
0.885191
0.881573
0.877253
0.872256
0.866611
0.860354
0.853528
0.846185
0.838384
0.830195
0.821695
0.812973
0.804127
0.795265
0.786503
0.777965
0.769777
0.762063
0.754935
0.748479
0.74274
0.737734
0.733405
0.729736
0.726781
0.72459
0.723128
0.722333
0.722105
0.722327
0.722883
0.723668
0.724591
0.725575
0.72656
0.727501
0.728368
0.729142
0.729814
0.730386
0.730863
0.731253
0.731567
0.731814
0.732006
0.732156
0.732285
0.732418
0.732584
0.732812
0.733126
0.733543
0.734072
0.734714
0.735459
0.736288
0.737179
0.738103
0.739036
0.739954
0.74084
0.741676
0.742446
0.74313
0.743708
0.744162
0.744475
0.744635
0.768678
0.768753
0.7689
0.769115
0.769389
0.769715
0.770085
0.770492
0.770937
0.771429
0.771983
0.772619
0.77336
0.774233
0.775263
0.776481
0.777918
0.77961
0.781593
0.783907
0.786589
0.78967
0.793171
0.7971
0.801451
0.806207
0.811348
0.816851
0.822692
0.828831
0.835218
0.841792
0.848479
0.855203
0.861884
0.868442
0.874799
0.880885
0.88663
0.891975
0.896865
0.901251
0.905093
0.908355
0.911007
0.913025
0.914391
0.915088
0.91511
0.91445
0.913108
0.911088
0.908399
0.905053
0.901069
0.896469
0.891284
0.885548
0.879303
0.872599
0.86549
0.858041
0.850324
0.84242
0.834416
0.826406
0.818491
0.810775
0.803362
0.796351
0.789829
0.783867
0.778506
0.773765
0.769637
0.766121
0.763235
0.760988
0.759356
0.758291
0.757719
0.757554
0.757709
0.758099
0.758648
0.759291
0.759975
0.760657
0.761309
0.761909
0.762445
0.762914
0.763316
0.763654
0.763936
0.76417
0.764365
0.764534
0.764693
0.764861
0.765059
0.765308
0.765624
0.766021
0.766505
0.767075
0.767725
0.76844
0.769205
0.769997
0.770797
0.771587
0.772348
0.773066
0.773723
0.774305
0.774794
0.775176
0.775438
0.775572
0.802056
0.802128
0.80227
0.80248
0.802752
0.803083
0.803467
0.803904
0.804396
0.80495
0.80558
0.806302
0.807135
0.808103
0.809227
0.810535
0.812053
0.813811
0.815839
0.818166
0.820821
0.823825
0.827194
0.830933
0.835037
0.839494
0.844286
0.849391
0.854781
0.860419
0.86626
0.872249
0.878326
0.884424
0.890475
0.89641
0.902162
0.907667
0.912865
0.917702
0.922127
0.926097
0.929572
0.93252
0.934912
0.936726
0.937943
0.938549
0.938536
0.937899
0.936638
0.934756
0.932263
0.929171
0.925499
0.921268
0.916508
0.911251
0.905539
0.899416
0.892935
0.886155
0.879142
0.871968
0.86471
0.857452
0.85028
0.843282
0.836544
0.830148
0.824165
0.818653
0.813651
0.809183
0.805256
0.801877
0.799049
0.796771
0.795019
0.793755
0.792925
0.792463
0.7923
0.792371
0.792611
0.792966
0.79339
0.793845
0.794301
0.794739
0.795144
0.795509
0.795831
0.796112
0.796354
0.796565
0.79675
0.796922
0.797092
0.797274
0.797483
0.797736
0.798043
0.798413
0.798851
0.799357
0.799925
0.800544
0.801202
0.801882
0.802569
0.803247
0.803901
0.804515
0.805077
0.805572
0.805986
0.806309
0.80653
0.806643
0.835361
0.835432
0.835573
0.835783
0.836058
0.836396
0.836797
0.837261
0.837791
0.838396
0.839085
0.839873
0.840777
0.841815
0.843009
0.844379
0.845949
0.847743
0.849785
0.852098
0.854703
0.857616
0.860847
0.8644
0.868269
0.872446
0.876912
0.881646
0.886622
0.891804
0.897152
0.902619
0.908151
0.913691
0.919181
0.92456
0.929771
0.934756
0.939462
0.94384
0.947845
0.951437
0.954579
0.957241
0.959396
0.961023
0.962105
0.962629
0.962586
0.961972
0.960787
0.959036
0.956726
0.95387
0.950487
0.946597
0.942227
0.937411
0.932184
0.926591
0.920679
0.914502
0.908121
0.901599
0.895005
0.888413
0.881895
0.875528
0.869384
0.863532
0.85803
0.852928
0.848263
0.844059
0.840329
0.837081
0.834315
0.832026
0.830193
0.828786
0.827762
0.827071
0.826659
0.826472
0.826459
0.826573
0.826775
0.82703
0.827312
0.827601
0.827882
0.828146
0.828389
0.828608
0.828805
0.828984
0.82915
0.829312
0.829478
0.829658
0.829865
0.830109
0.830397
0.830737
0.831131
0.831578
0.832073
0.83261
0.833176
0.833761
0.834351
0.834932
0.835492
0.836018
0.836497
0.836918
0.837271
0.837544
0.837731
0.837826
0.868595
0.868666
0.868808
0.869019
0.869299
0.869647
0.870064
0.870551
0.871113
0.871756
0.872491
0.873329
0.874284
0.875373
0.876613
0.878022
0.87962
0.881426
0.88346
0.885738
0.888277
0.891089
0.894179
0.897549
0.901195
0.905107
0.909269
0.913661
0.918256
0.923024
0.927927
0.932924
0.937968
0.94301
0.947998
0.95288
0.957605
0.962123
0.966387
0.970352
0.973977
0.977226
0.980066
0.982468
0.984408
0.985866
0.986826
0.987275
0.987207
0.986616
0.985504
0.983874
0.981734
0.979098
0.975981
0.972405
0.968394
0.96398
0.959197
0.954084
0.948687
0.943055
0.93724
0.931302
0.9253
0.919297
0.91336
0.907551
0.901934
0.896564
0.891494
0.886767
0.882414
0.87846
0.87492
0.871802
0.869105
0.866824
0.864943
0.863435
0.862267
0.861401
0.860792
0.860399
0.860179
0.860093
0.860106
0.860189
0.860317
0.860472
0.860638
0.860806
0.860969
0.861125
0.861273
0.861415
0.861555
0.861697
0.861848
0.862017
0.862211
0.862437
0.8627
0.863007
0.863357
0.863749
0.864181
0.864645
0.865133
0.865635
0.866141
0.866639
0.867118
0.867567
0.867976
0.868334
0.868634
0.868866
0.869024
0.869104
0.901758
0.90183
0.901973
0.902188
0.902473
0.90283
0.903261
0.903767
0.904353
0.905026
0.905793
0.906667
0.907657
0.90878
0.910048
0.911477
0.913083
0.914882
0.916889
0.919118
0.921579
0.924282
0.92723
0.930423
0.933856
0.937519
0.941397
0.945471
0.949718
0.954108
0.958608
0.963181
0.967787
0.972381
0.97692
0.981357
0.985646
0.989745
0.99361
0.997202
1.00048
1.00342
1.00599
1.00816
1.0099
1.01121
1.01206
1.01244
1.01235
1.01178
1.01074
1.00922
1.00724
1.00481
1.00193
0.998646
0.994965
0.990918
0.986538
0.981862
0.976931
0.971789
0.966484
0.961067
0.955594
0.950118
0.944696
0.939384
0.934235
0.929298
0.924617
0.92023
0.916166
0.912448
0.90909
0.9061
0.90348
0.901224
0.899318
0.897742
0.896471
0.895472
0.894711
0.894154
0.893765
0.893513
0.893367
0.893302
0.893295
0.89333
0.893391
0.89347
0.893557
0.893651
0.893748
0.893849
0.893956
0.894072
0.894202
0.894351
0.894524
0.894726
0.894962
0.895232
0.89554
0.895882
0.896256
0.896656
0.897075
0.897505
0.897938
0.898364
0.898773
0.899156
0.899504
0.899809
0.900064
0.900261
0.900395
0.900463
0.93485
0.934922
0.935067
0.935285
0.935575
0.93594
0.936381
0.936902
0.937506
0.9382
0.93899
0.939887
0.9409
0.94204
0.943321
0.944755
0.946354
0.94813
0.950097
0.952265
0.954641
0.95723
0.960036
0.963057
0.966286
0.969715
0.973329
0.97711
0.981036
0.985081
0.989216
0.993406
0.997617
1.00181
1.00594
1.00998
1.01388
1.0176
1.02111
1.02436
1.02734
1.03
1.03231
1.03427
1.03584
1.037
1.03775
1.03808
1.03797
1.03742
1.03644
1.03503
1.0332
1.03095
1.02831
1.02528
1.0219
1.01819
1.01418
1.0099
1.00539
1.00069
0.995839
0.990891
0.98589
0.980884
0.975923
0.971054
0.966324
0.961775
0.957446
0.95337
0.949572
0.946075
0.942891
0.940029
0.937491
0.935273
0.933363
0.931746
0.930401
0.929304
0.928426
0.92774
0.927215
0.926826
0.926548
0.926356
0.926233
0.926161
0.926128
0.926124
0.92614
0.926173
0.926219
0.926277
0.926348
0.926434
0.926537
0.926661
0.926808
0.926983
0.927187
0.927422
0.927688
0.927983
0.928304
0.928647
0.929006
0.929374
0.929743
0.930106
0.930454
0.93078
0.931076
0.931335
0.931551
0.931718
0.931832
0.93189
0.967868
0.967942
0.968088
0.968308
0.968603
0.968974
0.969423
0.969954
0.97057
0.971277
0.972081
0.972991
0.974014
0.975161
0.976442
0.977867
0.979446
0.981189
0.983105
0.985203
0.987488
0.989962
0.992628
0.995482
0.998518
1.00173
1.00509
1.0086
1.01223
1.01597
1.01977
1.02361
1.02747
1.03129
1.03507
1.03874
1.04229
1.04567
1.04885
1.05181
1.0545
1.05691
1.059
1.06076
1.06217
1.06321
1.06388
1.06415
1.06402
1.0635
1.06258
1.06127
1.05957
1.05749
1.05506
1.05227
1.04917
1.04576
1.04208
1.03816
1.03403
1.02973
1.02529
1.02077
1.01619
1.01161
1.00706
1.00258
0.998231
0.994033
0.990022
0.98623
0.982679
0.979388
0.976371
0.973635
0.971183
0.969012
0.967115
0.965478
0.964085
0.962917
0.96195
0.961163
0.96053
0.96003
0.95964
0.959342
0.959118
0.958954
0.958836
0.958757
0.958707
0.958682
0.958677
0.958693
0.958726
0.958779
0.958851
0.958946
0.959065
0.95921
0.959382
0.959581
0.959807
0.960058
0.960332
0.960623
0.960928
0.961241
0.961554
0.961862
0.962158
0.962434
0.962685
0.962905
0.963087
0.963229
0.963325
0.963374
1.00081
1.00089
1.00104
1.00126
1.00156
1.00193
1.00238
1.00292
1.00354
1.00426
1.00507
1.00598
1.00701
1.00815
1.00942
1.01082
1.01237
1.01407
1.01593
1.01795
1.02014
1.0225
1.02503
1.02772
1.03058
1.03358
1.03672
1.03997
1.04334
1.04678
1.05028
1.05381
1.05734
1.06084
1.06428
1.06763
1.07086
1.07394
1.07683
1.07951
1.08195
1.08413
1.08602
1.08761
1.08888
1.08981
1.09039
1.09061
1.09048
1.08998
1.08911
1.08789
1.08632
1.0844
1.08215
1.07959
1.07673
1.0736
1.07023
1.06663
1.06285
1.05891
1.05484
1.05069
1.0465
1.04229
1.03811
1.034
1.02998
1.0261
1.02238
1.01885
1.01552
1.01243
1.00957
1.00696
1.00459
1.00248
1.00061
0.998965
0.997545
0.996327
0.995296
0.994431
0.993713
0.993122
0.992642
0.992254
0.991944
0.991699
0.991507
0.991359
0.991249
0.991169
0.991117
0.991089
0.991084
0.991103
0.991143
0.991208
0.991296
0.99141
0.991549
0.991713
0.991901
0.992111
0.992341
0.992586
0.992843
0.993106
0.993371
0.993631
0.99388
0.994114
0.994326
0.994511
0.994665
0.994784
0.994866
0.994907
1.03369
1.03376
1.03391
1.03413
1.03443
1.03481
1.03526
1.0358
1.03643
1.03714
1.03795
1.03886
1.03988
1.04101
1.04226
1.04364
1.04515
1.0468
1.0486
1.05054
1.05263
1.05488
1.05727
1.05981
1.06249
1.06529
1.06822
1.07124
1.07436
1.07753
1.08076
1.084
1.08724
1.09044
1.09359
1.09665
1.09959
1.10239
1.10502
1.10745
1.10967
1.11164
1.11335
1.11478
1.11592
1.11675
1.11726
1.11744
1.11729
1.11682
1.11601
1.11487
1.11341
1.11163
1.10956
1.1072
1.10457
1.1017
1.09859
1.09529
1.09182
1.0882
1.08448
1.08067
1.07682
1.07295
1.0691
1.06531
1.0616
1.05801
1.05455
1.05126
1.04814
1.04523
1.04252
1.04003
1.03776
1.0357
1.03386
1.03223
1.0308
1.02955
1.02847
1.02755
1.02677
1.02611
1.02555
1.02509
1.02471
1.02439
1.02413
1.02393
1.02376
1.02363
1.02353
1.02346
1.02342
1.0234
1.02341
1.02344
1.0235
1.02358
1.02369
1.02382
1.02397
1.02414
1.02433
1.02454
1.02475
1.02497
1.02519
1.02541
1.02562
1.02581
1.02599
1.02615
1.02628
1.02638
1.02645
1.02648
1.06648
1.06656
1.06671
1.06693
1.06723
1.0676
1.06806
1.06859
1.06922
1.06993
1.07073
1.07163
1.07264
1.07375
1.07497
1.07632
1.07779
1.07938
1.08111
1.08297
1.08497
1.0871
1.08936
1.09175
1.09427
1.09689
1.09961
1.10243
1.10531
1.10825
1.11122
1.1142
1.11717
1.12011
1.12299
1.12578
1.12846
1.13101
1.1334
1.13562
1.13762
1.13941
1.14096
1.14225
1.14327
1.144
1.14445
1.1446
1.14444
1.14399
1.14323
1.14216
1.14081
1.13917
1.13725
1.13508
1.13266
1.13001
1.12716
1.12413
1.12094
1.11761
1.11419
1.11069
1.10715
1.10359
1.10004
1.09654
1.09311
1.08978
1.08656
1.08349
1.08057
1.07782
1.07526
1.07288
1.0707
1.06871
1.06692
1.0653
1.06387
1.06261
1.0615
1.06053
1.0597
1.05898
1.05837
1.05784
1.0574
1.05703
1.05671
1.05645
1.05623
1.05606
1.05592
1.05581
1.05573
1.05568
1.05566
1.05566
1.05568
1.05574
1.05581
1.05591
1.05602
1.05616
1.05631
1.05648
1.05665
1.05683
1.05702
1.0572
1.05737
1.05753
1.05768
1.05781
1.05792
1.058
1.05806
1.05809
1.09921
1.09928
1.09943
1.09965
1.09995
1.10032
1.10077
1.1013
1.10192
1.10262
1.10342
1.1043
1.10529
1.10638
1.10757
1.10888
1.1103
1.11183
1.11349
1.11527
1.11717
1.11919
1.12133
1.12358
1.12593
1.12839
1.13093
1.13354
1.13621
1.13892
1.14166
1.14441
1.14714
1.14983
1.15246
1.15502
1.15747
1.15979
1.16197
1.16398
1.1658
1.16742
1.16882
1.16998
1.1709
1.17155
1.17194
1.17206
1.1719
1.17146
1.17074
1.16976
1.1685
1.16698
1.16521
1.1632
1.16097
1.15853
1.15591
1.15312
1.15018
1.14713
1.14398
1.14076
1.13749
1.13421
1.13094
1.1277
1.12452
1.12143
1.11843
1.11556
1.11282
1.11023
1.1078
1.10554
1.10345
1.10153
1.09978
1.0982
1.09678
1.09551
1.09438
1.09339
1.09251
1.09175
1.09109
1.09052
1.09002
1.0896
1.08924