/*--------------------------------*- C++ -*----------------------------------*\
| =========                 |                                                 |
| \\      /  F ield         | OpenFOAM: The Open Source CFD Toolbox           |
|  \\    /   O peration     | Version:  2406                                  |
|   \\  /    A nd           | Website:  www.openfoam.com                      |
|    \\/     M anipulation  |                                                 |
\*---------------------------------------------------------------------------*/
FoamFile
{
    version     2.0;
    format      ascii;
    arch        "LSB;label=32;scalar=64";
    class       volScalarField;
    location    "2.3";
    object      C_0;
}
// * * * * * * * * * * * * * * * * * * * * * * * * * * * * * * * * * * * * * //

dimensions      [1 -3 0 0 0 0 0];

internalField   nonuniform List<scalar> 
14400
(
1.231
1.22368
1.20591
1.17218
1.13453
1.10614
1.08995
1.08731
1.09872
1.12382
1.16143
1.20857
1.25057
1.27554
1.29027
1.29896
1.30199
1.2992
1.28991
1.26936
1.23421
1.19864
1.17427
1.164
1.16926
1.19064
1.22794
1.28004
1.34396
1.40502
1.44706
1.47671
1.50243
1.52489
1.54461
1.56197
1.57725
1.59067
1.6024
1.61257
1.62129
1.62865
1.63471
1.63954
1.64316
1.64562
1.64694
1.64713
1.64621
1.64417
1.64102
1.63673
1.63129
1.62467
1.61684
1.60775
1.59734
1.58554
1.57228
1.55744
1.5409
1.5225
1.50204
1.47929
1.45393
1.42554
1.39362
1.35724
1.30162
1.22367
1.14958
1.08647
1.03639
0.999924
0.977228
0.968235
0.972767
0.990537
1.02108
1.06352
1.11564
1.16929
1.20578
1.22669
1.24185
1.25213
1.25807
1.25995
1.2579
1.25183
1.24147
1.22626
1.20342
1.16413
1.11656
1.07746
1.05004
1.03533
1.03349
1.04383
1.06477
1.09273
1.1148
1.12075
1.11466
1.09242
1.06413
1.04282
1.03212
1.03362
1.04806
1.07528
1.11427
1.1618
1.20107
1.22408
1.23976
1.25085
1.25798
1.26146
1.23831
1.23198
1.2187
1.19202
1.15497
1.12559
1.10851
1.10555
1.1173
1.1433
1.18181
1.2281
1.26245
1.28258
1.29631
1.30464
1.30779
1.30569
1.2979
1.28304
1.25473
1.21916
1.19374
1.18259
1.1876
1.20937
1.24764
1.30081
1.36461
1.4166
1.4519
1.48065
1.50568
1.52763
1.54698
1.56405
1.57911
1.59236
1.60396
1.61402
1.62266
1.62995
1.63595
1.64073
1.64432
1.64676
1.64806
1.64825
1.64732
1.64529
1.64215
1.63788
1.63247
1.62588
1.6181
1.60906
1.59872
1.58701
1.57385
1.55914
1.54275
1.52455
1.50434
1.4819
1.45694
1.42909
1.39785
1.36253
1.31563
1.24606
1.16997
1.10541
1.05435
1.01725
0.994214
0.985167
0.989927
1.0082
1.03953
1.08313
1.13666
1.18386
1.21289
1.23243
1.24673
1.25648
1.26211
1.26389
1.26191
1.25612
1.24631
1.23211
1.21285
1.18122
1.13605
1.0962
1.06812
1.05317
1.05179
1.06308
1.08537
1.11243
1.1281
1.13199
1.1279
1.11205
1.08469
1.06201
1.05034
1.05137
1.06601
1.09385
1.13357
1.17858
1.21018
1.22968
1.24433
1.25483
1.26161
1.26494
1.25195
1.24701
1.23715
1.22152
1.19463
1.16374
1.14489
1.14127
1.15372
1.18151
1.22139
1.25631
1.27897
1.29561
1.30774
1.31548
1.31887
1.31788
1.31239
1.30228
1.28575
1.25867
1.23193
1.21905
1.22358
1.24609
1.2862
1.34041
1.39291
1.43122
1.46156
1.48832
1.51199
1.53298
1.55161
1.56814
1.58279
1.59571
1.60704
1.6169
1.62537
1.63252
1.63842
1.64312
1.64664
1.64903
1.6503
1.65047
1.64954
1.64752
1.6444
1.64017
1.63481
1.6283
1.62061
1.61168
1.60148
1.58993
1.57698
1.56251
1.54643
1.5286
1.50887
1.48703
1.46285
1.43602
1.40615
1.37275
1.33486
1.28149
1.2083
1.14254
1.09003
1.05178
1.02811
1.01896
1.02415
1.04335
1.07583
1.12046
1.1706
1.20449
1.22633
1.24341
1.25616
1.26493
1.27002
1.27159
1.26973
1.26442
1.25556
1.24299
1.2265
1.20549
1.17316
1.13266
1.10358
1.08805
1.08763
1.10036
1.12408
1.14146
1.14879
1.15121
1.14851
1.14091
1.12325
1.09914
1.08601
1.08603
1.1012
1.12995
1.17019
1.20235
1.2234
1.2401
1.25306
1.26252
1.2687
1.27176
1.27053
1.26695
1.25999
1.25025
1.23682
1.21686
1.19685
1.1925
1.20573
1.23462
1.26257
1.2831
1.29949
1.31314
1.32358
1.33066
1.33432
1.33457
1.33149
1.32533
1.31674
1.30376
1.28584
1.27131
1.27551
1.29874
1.34034
1.3837
1.41903
1.44805
1.47479
1.49908
1.52099
1.54068
1.55834
1.57412
1.58818
1.60064
1.6116
1.62116
1.62939
1.63635
1.6421
1.64667
1.6501
1.65242
1.65364
1.65379
1.65286
1.65085
1.64777
1.64359
1.63831
1.63191
1.62434
1.61558
1.60557
1.59427
1.5816
1.5675
1.55185
1.53457
1.5155
1.49451
1.4714
1.44598
1.418
1.3872
1.35339
1.31566
1.26342
1.1971
1.14299
1.10319
1.07869
1.0694
1.07514
1.09561
1.12907
1.1735
1.2061
1.22695
1.24452
1.25873
1.26955
1.27708
1.28144
1.28273
1.281
1.27626
1.26852
1.25779
1.24414
1.22789
1.20909
1.18256
1.15424
1.13758
1.13886
1.15149
1.16415
1.17027
1.17423
1.17555
1.17387
1.16954
1.16308
1.15004
1.13701
1.13525
1.15148
1.17932
1.20556
1.22422
1.24048
1.25426
1.26528
1.27349
1.27892
1.28163
1.29269
1.29025
1.28563
1.27944
1.27272
1.26552
1.25646
1.25443
1.26543
1.28234
1.29658
1.31002
1.32276
1.33386
1.34279
1.34925
1.35317
1.35458
1.35366
1.35082
1.34679
1.34281
1.33817
1.33371
1.33947
1.36153
1.39084
1.41765
1.44259
1.46714
1.49049
1.51222
1.5322
1.55042
1.56694
1.58183
1.59518
1.60707
1.61757
1.62675
1.63468
1.6414
1.64694
1.65136
1.65467
1.6569
1.65807
1.65818
1.65724
1.65526
1.65222
1.64812
1.64294
1.63667
1.62927
1.62072
1.61096
1.59997
1.58768
1.57402
1.55892
1.5423
1.52406
1.50409
1.48228
1.4585
1.43265
1.40468
1.37461
1.34275
1.30867
1.26391
1.21135
1.17037
1.14522
1.13577
1.1418
1.16342
1.19431
1.21996
1.2369
1.25242
1.26608
1.27743
1.28622
1.2924
1.29594
1.29689
1.29526
1.29111
1.28448
1.2755
1.2644
1.25161
1.23794
1.22418
1.20776
1.19486
1.19298
1.1965
1.19827
1.20052
1.20233
1.20287
1.20188
1.19962
1.19691
1.19469
1.19071
1.19203
1.20439
1.22037
1.23386
1.24736
1.26006
1.27118
1.2803
1.28723
1.29187
1.2942
1.3173
1.31573
1.31284
1.30914
1.30547
1.30298
1.30301
1.30486
1.3108
1.31807
1.3274
1.33762
1.34767
1.35678
1.36444
1.3704
1.37454
1.37693
1.37777
1.37749
1.37679
1.37671
1.37873
1.38418
1.39312
1.40878
1.42625
1.44578
1.46654
1.48745
1.50779
1.52711
1.54517
1.56187
1.57717
1.59108
1.60363
1.61488
1.62485
1.63361
1.64118
1.64761
1.65292
1.65715
1.66032
1.66245
1.66355
1.66362
1.66268
1.66072
1.65773
1.65372
1.64867
1.64255
1.63536
1.62705
1.6176
1.60697
1.59511
1.58198
1.56751
1.55166
1.53435
1.51552
1.49512
1.47309
1.44944
1.42423
1.39763
1.37004
1.34211
1.31439
1.28159
1.24877
1.22465
1.21505
1.21945
1.23212
1.2464
1.25706
1.26849
1.27973
1.28997
1.29867
1.30552
1.31034
1.31305
1.31361
1.31206
1.30842
1.30279
1.29534
1.28633
1.27621
1.26563
1.2555
1.24688
1.23977
1.23462
1.23163
1.2309
1.23122
1.23169
1.23173
1.23116
1.23016
1.22929
1.22946
1.23186
1.23645
1.24302
1.25121
1.261
1.27129
1.28121
1.29009
1.29753
1.30326
1.30714
1.30909
1.34348
1.34254
1.34085
1.33882
1.33703
1.33618
1.33699
1.33972
1.34399
1.34997
1.35733
1.36541
1.37352
1.38112
1.38781
1.39336
1.39767
1.40081
1.40299
1.40459
1.40617
1.40852
1.41258
1.41928
1.42913
1.44141
1.45612
1.47268
1.49033
1.50833
1.52611
1.54326
1.55951
1.57471
1.58878
1.60168
1.6134
1.62395
1.63336
1.64164
1.64882
1.65493
1.65998
1.66401
1.66702
1.66903
1.67005
1.67008
1.66913
1.6672
1.66428
1.66037
1.65545
1.64952
1.64255
1.63453
1.62541
1.61519
1.60382
1.59127
1.5775
1.56247
1.54616
1.52853
1.50958
1.48931
1.46779
1.44516
1.42165
1.39767
1.37381
1.35088
1.3299
1.3099
1.29284
1.28311
1.28122
1.28289
1.28656
1.29278
1.30027
1.30804
1.31538
1.32177
1.32684
1.33039
1.33229
1.33247
1.33093
1.32772
1.32293
1.31673
1.30939
1.30127
1.29288
1.28483
1.27769
1.27179
1.26715
1.26409
1.26248
1.26178
1.26147
1.26121
1.26087
1.26056
1.26064
1.26163
1.26406
1.26808
1.27341
1.28003
1.28762
1.29561
1.30338
1.31045
1.31645
1.32113
1.32432
1.32594
1.37059
1.37008
1.36922
1.36827
1.36763
1.36775
1.36901
1.37159
1.37544
1.3805
1.38654
1.39315
1.39989
1.40638
1.41233
1.41754
1.42197
1.42566
1.4288
1.43169
1.43478
1.43862
1.4438
1.45086
1.46005
1.4712
1.48415
1.4985
1.51376
1.52943
1.54506
1.5603
1.5749
1.58869
1.60157
1.61346
1.62433
1.63417
1.64298
1.65077
1.65753
1.6633
1.66808
1.67188
1.67472
1.6766
1.67753
1.67752
1.67656
1.67466
1.67182
1.66802
1.66326
1.65753
1.65081
1.64308
1.63434
1.62456
1.61371
1.60177
1.58873
1.57457
1.55928
1.54286
1.52534
1.50677
1.48726
1.46696
1.44615
1.42518
1.40457
1.38495
1.36704
1.35155
1.33922
1.33019
1.3247
1.32288
1.32399
1.32723
1.33175
1.3368
1.34176
1.34617
1.34969
1.3521
1.35324
1.35304
1.35148
1.3486
1.34447
1.33927
1.33321
1.32659
1.3198
1.31323
1.30728
1.30219
1.2981
1.29511
1.29314
1.29193
1.29122
1.29077
1.29053
1.29057
1.29108
1.29236
1.29466
1.29808
1.30252
1.30787
1.31386
1.32013
1.32626
1.33189
1.3367
1.34049
1.34309
1.34441
1.39821
1.39799
1.39766
1.3974
1.39748
1.39816
1.3997
1.4022
1.40568
1.41006
1.41517
1.42075
1.42651
1.43219
1.43757
1.44252
1.447
1.45106
1.45485
1.4586
1.46265
1.46736
1.47314
1.4803
1.489
1.4992
1.51076
1.5234
1.5368
1.55057
1.56439
1.57798
1.5911
1.60359
1.61534
1.62626
1.6363
1.64543
1.65364
1.66091
1.66725
1.67266
1.67715
1.68071
1.68337
1.68511
1.68596
1.6859
1.68493
1.68307
1.6803
1.67663
1.67203
1.66651
1.66006
1.65267
1.64431
1.63499
1.62468
1.61338
1.60109
1.5878
1.57353
1.5583
1.54216
1.52519
1.5075
1.48929
1.47079
1.45234
1.43435
1.41731
1.40175
1.38819
1.37706
1.3686
1.36291
1.35994
1.35928
1.36041
1.36271
1.36563
1.36868
1.37146
1.37366
1.37507
1.37553
1.37497
1.37336
1.37071
1.3671
1.36267
1.35759
1.3521
1.34648
1.34102
1.33599
1.33159
1.32794
1.3251
1.32303
1.32161
1.32068
1.32013
1.31992
1.32009
1.32076
1.32207
1.32415
1.32706
1.33073
1.33505
1.33983
1.34479
1.34965
1.35413
1.35798
1.36103
1.36313
1.3642
1.42605
1.42602
1.42603
1.4262
1.42671
1.42774
1.42942
1.43184
1.43502
1.43889
1.44333
1.44817
1.45322
1.45829
1.46323
1.46796
1.47245
1.47673
1.48093
1.48522
1.48984
1.49504
1.5011
1.5082
1.51645
1.52585
1.53628
1.54756
1.55944
1.57166
1.58397
1.59611
1.60792
1.61923
1.62993
1.63993
1.64917
1.65761
1.66522
1.67199
1.6779
1.68295
1.68714
1.69046
1.69293
1.69453
1.69528
1.69518
1.69421
1.69239
1.6897
1.68615
1.68173
1.67644
1.67026
1.6632
1.65525
1.6464
1.63664
1.62599
1.61444
1.60202
1.58874
1.57465
1.5598
1.54431
1.52828
1.5119
1.49539
1.47903
1.46317
1.44818
1.43446
1.42238
1.41225
1.40423
1.3984
1.39467
1.3928
1.3924
1.39306
1.39434
1.39587
1.39732
1.39842
1.39898
1.39885
1.39796
1.39626
1.39377
1.39055
1.38671
1.38237
1.37774
1.373
1.36839
1.36408
1.36024
1.35697
1.35432
1.35228
1.35078
1.34976
1.34915
1.34893
1.34912
1.34978
1.351
1.35282
1.35526
1.35829
1.36179
1.36561
1.36956
1.37342
1.37699
1.38007
1.38251
1.3842
1.38507
1.45391
1.454
1.45422
1.45467
1.45544
1.45665
1.45839
1.46073
1.46366
1.46714
1.47109
1.47539
1.4799
1.48451
1.48912
1.49365
1.49809
1.50249
1.50692
1.51151
1.51644
1.52188
1.52801
1.53494
1.54277
1.55146
1.56096
1.57111
1.58175
1.59268
1.60369
1.6146
1.62524
1.63549
1.64522
1.65436
1.66284
1.67062
1.67765
1.68392
1.6894
1.69409
1.69798
1.70107
1.70335
1.70481
1.70547
1.70531
1.70434
1.70256
1.69996
1.69654
1.69231
1.68724
1.68135
1.67463
1.66708
1.65871
1.64951
1.63949
1.62868
1.61709
1.60476
1.59174
1.57811
1.56395
1.54941
1.53463
1.51983
1.50523
1.49112
1.47779
1.46554
1.45464
1.44531
1.43768
1.43178
1.42756
1.42484
1.42334
1.42277
1.42281
1.42315
1.42353
1.42373
1.42358
1.42294
1.42175
1.41996
1.41757
1.41464
1.41123
1.40746
1.40347
1.39941
1.39544
1.39171
1.38833
1.38539
1.38293
1.38097
1.37949
1.37843
1.37779
1.37753
1.37768
1.37826
1.37932
1.38086
1.38289
1.38537
1.38819
1.39126
1.39441
1.39749
1.40033
1.40279
1.40475
1.4061
1.4068
1.48169
1.48185
1.4822
1.4828
1.48372
1.48503
1.48678
1.48902
1.49174
1.49492
1.49849
1.50238
1.5065
1.51075
1.51507
1.51942
1.52379
1.52821
1.53274
1.53747
1.54253
1.54804
1.5541
1.56081
1.5682
1.57627
1.58497
1.59418
1.60378
1.61361
1.62351
1.63334
1.64296
1.65225
1.66111
1.66945
1.67722
1.68437
1.69085
1.69663
1.7017
1.70604
1.70964
1.71248
1.71457
1.7159
1.71646
1.71626
1.71529
1.71355
1.71104
1.70776
1.7037
1.69887
1.69327
1.68689
1.67975
1.67184
1.66318
1.65379
1.64368
1.63289
1.62146
1.60945
1.59693
1.58399
1.57077
1.5574
1.54405
1.53094
1.51829
1.50632
1.49527
1.48533
1.47667
1.46938
1.4635
1.45896
1.45564
1.45336
1.45188
1.45096
1.45038
1.44992
1.44939
1.44865
1.44759
1.44613
1.44424
1.44192
1.43919
1.43611
1.43277
1.42927
1.42572
1.42225
1.41897
1.41597
1.41331
1.41105
1.4092
1.40775
1.4067
1.40603
1.40572
1.4058
1.40627
1.40714
1.40842
1.41008
1.41209
1.41437
1.41682
1.41934
1.42179
1.42405
1.42602
1.42758
1.42866
1.42922
1.5093
1.5095
1.50993
1.51062
1.51161
1.51296
1.51469
1.51682
1.51937
1.52231
1.52559
1.52915
1.53295
1.53691
1.541
1.54517
1.54944
1.55382
1.55835
1.56311
1.56818
1.57363
1.57954
1.58598
1.59296
1.60047
1.60846
1.61686
1.62557
1.63446
1.64341
1.6523
1.66101
1.66944
1.6775
1.68512
1.69223
1.69878
1.70474
1.71006
1.71473
1.71873
1.72204
1.72465
1.72656
1.72775
1.72823
1.72798
1.72701
1.72532
1.72289
1.71975
1.71587
1.71127
1.70595
1.69992
1.69317
1.68573
1.6776
1.6688
1.65937
1.64934
1.63875
1.62767
1.61616
1.60433
1.59227
1.58013
1.56805
1.5562
1.54477
1.53393
1.52387
1.51474
1.50665
1.49968
1.49386
1.48913
1.48542
1.48257
1.48042
1.47879
1.47749
1.47637
1.47526
1.47405
1.47263
1.47095
1.46897
1.46668
1.46409
1.46126
1.45824
1.45511
1.45196
1.44888
1.44596
1.44326
1.44085
1.43876
1.43702
1.43563
1.43459
1.43389
1.43354
1.43353
1.43387
1.43456
1.43559
1.43693
1.43854
1.44036
1.44232
1.44433
1.44628
1.44808
1.44964
1.45089
1.45175
1.4522
1.53671
1.53694
1.5374
1.53813
1.53915
1.5405
1.54218
1.54422
1.54662
1.54935
1.55239
1.5557
1.55923
1.56295
1.56683
1.57084
1.57498
1.57927
1.58374
1.58845
1.59343
1.59876
1.60447
1.61061
1.61718
1.62417
1.63155
1.63924
1.64717
1.65525
1.66337
1.67143
1.67934
1.687
1.69434
1.70129
1.70779
1.71379
1.71925
1.72414
1.72843
1.73211
1.73514
1.73753
1.73926
1.74032
1.74071
1.74042
1.73945
1.7378
1.73547
1.73246
1.72877
1.7244
1.71936
1.71365
1.70729
1.70029
1.69267
1.68445
1.67566
1.66634
1.65653
1.64631
1.63572
1.62488
1.61386
1.6028
1.59181
1.58105
1.57065
1.56077
1.55155
1.5431
1.53551
1.52885
1.52312
1.5183
1.51432
1.51107
1.50844
1.50628
1.50444
1.5028
1.50124
1.49964
1.49794
1.49607
1.494
1.49172
1.48924
1.48659
1.48381
1.48097
1.47813
1.47536
1.47272
1.47027
1.46806
1.46612
1.46448
1.46315
1.46212
1.46141
1.46101
1.46092
1.46113
1.46164
1.46244
1.4635
1.46477
1.46622
1.46778
1.46937
1.47092
1.47235
1.47359
1.47458
1.47526
1.47562
1.56389
1.56413
1.56461
1.56535
1.56637
1.56769
1.56932
1.57126
1.57352
1.57608
1.57892
1.58201
1.58533
1.58884
1.59252
1.59636
1.60037
1.60454
1.6089
1.6135
1.61835
1.6235
1.62898
1.6348
1.64098
1.6475
1.65431
1.66138
1.66864
1.676
1.68339
1.69072
1.69791
1.70488
1.71157
1.71791
1.72385
1.72934
1.73434
1.73882
1.74276
1.74612
1.74889
1.75106
1.75262
1.75356
1.75387
1.75354
1.75257
1.75097
1.74873
1.74585
1.74234
1.73819
1.73342
1.72804
1.72206
1.71548
1.70835
1.70067
1.69248
1.68382
1.67474
1.6653
1.65555
1.64559
1.6355
1.62539
1.61535
1.60553
1.59602
1.58696
1.57845
1.57059
1.56345
1.55708
1.55147
1.54663
1.54248
1.53897
1.53599
1.53343
1.53119
1.52916
1.52724
1.52535
1.52341
1.52139
1.51924
1.51697
1.51456
1.51204
1.50945
1.50683
1.50423
1.5017
1.49928
1.49704
1.495
1.49319
1.49164
1.49036
1.48935
1.48862
1.48817
1.48799
1.48809
1.48844
1.48903
1.48984
1.49084
1.49197
1.4932
1.49445
1.49567
1.4968
1.49778
1.49856
1.49911
1.49939
1.59083
1.59107
1.59156
1.59229
1.5933
1.59458
1.59614
1.59799
1.60012
1.60253
1.6052
1.60811
1.61123
1.61455
1.61806
1.62173
1.62558
1.62961
1.63384
1.63828
1.64296
1.64791
1.65313
1.65864
1.66445
1.67052
1.67683
1.68334
1.68999
1.69672
1.70346
1.71014
1.71669
1.72305
1.72915
1.73494
1.74036
1.74538
1.74995
1.75405
1.75765
1.76072
1.76324
1.76521
1.76661
1.76743
1.76766
1.76729
1.76634
1.76478
1.76263
1.75988
1.75654
1.75261
1.74811
1.74303
1.73741
1.73124
1.72456
1.71739
1.70977
1.70173
1.69332
1.68459
1.6756
1.66644
1.65717
1.64789
1.63869
1.62968
1.62094
1.61259
1.60471
1.59737
1.59063
1.58453
1.57907
1.57425
1.57002
1.56633
1.56311
1.56027
1.55773
1.55541
1.55322
1.55109
1.54898
1.54683
1.54462
1.54234
1.53999
1.53757
1.53513
1.53267
1.53026
1.52791
1.52568
1.5236
1.5217
1.52
1.51853
1.51729
1.5163
1.51555
1.51506
1.5148
1.51478
1.51499
1.51541
1.51601
1.51676
1.51764
1.51859
1.51956
1.52052
1.5214
1.52217
1.52279
1.52322
1.52344
1.61753
1.61777
1.61825
1.61897
1.61994
1.62118
1.62267
1.62443
1.62645
1.62873
1.63124
1.63398
1.63693
1.64008
1.64341
1.64693
1.65062
1.65449
1.65856
1.66283
1.66732
1.67204
1.677
1.6822
1.68764
1.6933
1.69915
1.70515
1.71126
1.71743
1.72359
1.72969
1.73567
1.74147
1.74704
1.75232
1.75727
1.76186
1.76604
1.76978
1.77306
1.77586
1.77815
1.77993
1.78118
1.78188
1.78204
1.78164
1.78069
1.77918
1.77712
1.7745
1.77132
1.76761
1.76335
1.75858
1.75329
1.74751
1.74126
1.73458
1.72748
1.72
1.7122
1.70413
1.69583
1.68738
1.67885
1.67031
1.66184
1.65354
1.64549
1.63776
1.63042
1.62354
1.61717
1.61133
1.60603
1.60127
1.59702
1.59323
1.58985
1.58682
1.58406
1.58152
1.57912
1.57682
1.57457
1.57233
1.57007
1.56779
1.56547
1.56314
1.5608
1.55848
1.55621
1.55402
1.55193
1.54998
1.54819
1.54659
1.54518
1.54398
1.543
1.54224
1.5417
1.54137
1.54125
1.54133
1.5416
1.54202
1.54257
1.54323
1.54395
1.5447
1.54544
1.54612
1.54672
1.5472
1.54753
1.5477
1.644
1.64423
1.64469
1.64539
1.64633
1.64751
1.64894
1.65061
1.65253
1.65468
1.65705
1.65964
1.66244
1.66542
1.66859
1.67195
1.67547
1.67918
1.68307
1.68716
1.69144
1.69592
1.70062
1.70552
1.71061
1.71588
1.72131
1.72685
1.73248
1.73814
1.74379
1.74937
1.75483
1.76013
1.76521
1.77004
1.77456
1.77874
1.78256
1.78597
1.78896
1.7915
1.79358
1.79518
1.79628
1.79688
1.79698
1.79655
1.79561
1.79415
1.79216
1.78967
1.78665
1.78314
1.77913
1.77463
1.76967
1.76425
1.75841
1.75217
1.74555
1.73861
1.73137
1.72389
1.71621
1.7084
1.70053
1.69265
1.68484
1.67717
1.66971
1.66252
1.65567
1.64921
1.64318
1.63759
1.63246
1.62779
1.62355
1.61972
1.61624
1.61308
1.61018
1.60748
1.60494
1.60251
1.60015
1.59784
1.59554
1.59326
1.59098
1.58871
1.58646
1.58424
1.58209
1.58001
1.57804
1.5762
1.57451
1.57297
1.57162
1.57045
1.56948
1.5687
1.56812
1.56773
1.56753
1.5675
1.56762
1.56789
1.56827
1.56875
1.56928
1.56985
1.57041
1.57093
1.57139
1.57176
1.57201
1.57214
1.67023
1.67046
1.6709
1.67158
1.67248
1.67361
1.67497
1.67655
1.67837
1.6804
1.68265
1.6851
1.68775
1.69058
1.6936
1.69679
1.70015
1.70369
1.7074
1.71128
1.71535
1.7196
1.72403
1.72864
1.7334
1.73832
1.74335
1.74848
1.75366
1.75887
1.76405
1.76916
1.77416
1.779
1.78364
1.78805
1.79218
1.796
1.79948
1.80259
1.80531
1.80761
1.80949
1.81092
1.81189
1.81239
1.81243
1.81198
1.81104
1.80963
1.80773
1.80535
1.80249
1.79916
1.79538
1.79115
1.78649
1.78142
1.77595
1.77013
1.76396
1.7575
1.75078
1.74384
1.73673
1.7295
1.72221
1.71492
1.70769
1.70058
1.69365
1.68695
1.68054
1.67446
1.66873
1.66339
1.65844
1.65387
1.64968
1.64584
1.64232
1.63908
1.63608
1.63328
1.63064
1.62812
1.62569
1.62333
1.62101
1.61873
1.61647
1.61425
1.61207
1.60994
1.60788
1.6059
1.60403
1.60227
1.60065
1.59918
1.59787
1.59673
1.59576
1.59497
1.59435
1.59391
1.59363
1.5935
1.59351
1.59365
1.59389
1.59421
1.59459
1.595
1.59541
1.5958
1.59614
1.59642
1.59662
1.59672
1.69624
1.69646
1.69689
1.69753
1.69839
1.69947
1.70076
1.70227
1.70399
1.70591
1.70804
1.71036
1.71287
1.71556
1.71842
1.72145
1.72465
1.72801
1.73154
1.73523
1.73909
1.7431
1.74727
1.7516
1.75605
1.76063
1.7653
1.77004
1.77483
1.77962
1.78437
1.78906
1.79364
1.79807
1.80232
1.80634
1.81011
1.81359
1.81676
1.81959
1.82206
1.82415
1.82584
1.82711
1.82796
1.82838
1.82836
1.82788
1.82696
1.82559
1.82377
1.8215
1.81879
1.81565
1.81208
1.8081
1.80373
1.79897
1.79386
1.78842
1.78268
1.77666
1.77041
1.76396
1.75736
1.75066
1.7439
1.73713
1.73042
1.72381
1.71735
1.71109
1.70508
1.69934
1.69391
1.6888
1.68402
1.67958
1.67546
1.67165
1.66812
1.66485
1.66179
1.65893
1.65622
1.65364
1.65117
1.64877
1.64644
1.64416
1.64194
1.63976
1.63764
1.63558
1.63359
1.63169
1.62989
1.62821
1.62665
1.62523
1.62396
1.62283
1.62187
1.62106
1.62041
1.61992
1.61957
1.61936
1.61927
1.6193
1.61942
1.61961
1.61986
1.62014
1.62043
1.62072
1.62097
1.62117
1.62131
1.62139
1.72204
1.72224
1.72265
1.72327
1.72409
1.72511
1.72634
1.72777
1.7294
1.73122
1.73324
1.73543
1.73781
1.74036
1.74307
1.74595
1.74899
1.75218
1.75552
1.75902
1.76266
1.76645
1.77037
1.77442
1.77858
1.78284
1.78718
1.79157
1.79598
1.8004
1.80477
1.80907
1.81327
1.81732
1.82121
1.82488
1.82833
1.8315
1.83439
1.83696
1.8392
1.84108
1.8426
1.84373
1.84447
1.84481
1.84473
1.84424
1.84333
1.842
1.84026
1.8381
1.83553
1.83256
1.82919
1.82545
1.82134
1.81689
1.8121
1.80702
1.80166
1.79605
1.79023
1.78423
1.7781
1.77187
1.76558
1.7593
1.75305
1.74689
1.74086
1.73499
1.72934
1.72391
1.71875
1.71387
1.70927
1.70496
1.70093
1.69717
1.69367
1.69039
1.68731
1.68442
1.68168
1.67906
1.67656
1.67415
1.67182
1.66955
1.66735
1.66521
1.66314
1.66114
1.65921
1.65738
1.65564
1.65402
1.65251
1.65113
1.64989
1.64878
1.64782
1.647
1.64632
1.64578
1.64538
1.64509
1.64492
1.64486
1.64488
1.64496
1.6451
1.64528
1.64547
1.64566
1.64583
1.64598
1.64608
1.64613
1.74763
1.74782
1.74821
1.7488
1.74958
1.75055
1.75172
1.75307
1.75462
1.75634
1.75825
1.76033
1.76258
1.76499
1.76756
1.77029
1.77316
1.77619
1.77935
1.78265
1.78609
1.78965
1.79333
1.79712
1.80101
1.80497
1.809
1.81307
1.81715
1.82121
1.82524
1.82919
1.83304
1.83675
1.8403
1.84366
1.84681
1.8497
1.85233
1.85466
1.85669
1.85839
1.85975
1.86075
1.86138
1.86164
1.86152
1.86101
1.86012
1.85883
1.85716
1.8551
1.85267
1.84986
1.84668
1.84316
1.8393
1.83512
1.83065
1.82589
1.82088
1.81565
1.81023
1.80464
1.79893
1.79313
1.78728
1.78142
1.77559
1.76984
1.76419
1.75869
1.75336
1.74823
1.74333
1.73866
1.73424
1.73006
1.72614
1.72245
1.71898
1.71572
1.71265
1.70975
1.707
1.70437
1.70186
1.69945
1.69712
1.69487
1.6927
1.6906
1.68857
1.68662
1.68475
1.68297
1.68128
1.67971
1.67824
1.6769
1.67568
1.67458
1.67362
1.67279
1.67209
1.67151
1.67106
1.67071
1.67047
1.67033
1.67026
1.67026
1.67031
1.6704
1.67051
1.67062
1.67073
1.67082
1.67089
1.67093
1.77302
1.77321
1.77358
1.77413
1.77487
1.7758
1.7769
1.77819
1.77965
1.78128
1.78309
1.78505
1.78718
1.78947
1.7919
1.79448
1.7972
1.80005
1.80304
1.80615
1.80939
1.81274
1.81619
1.81973
1.82336
1.82705
1.83079
1.83455
1.83832
1.84207
1.84577
1.8494
1.85294
1.85634
1.85959
1.86266
1.86553
1.86817
1.87056
1.87268
1.87451
1.87604
1.87725
1.87813
1.87867
1.87886
1.8787
1.87818
1.8773
1.87605
1.87445
1.87249
1.87017
1.86752
1.86452
1.86121
1.85758
1.85366
1.84947
1.84502
1.84034
1.83545
1.83038
1.82517
1.81984
1.81443
1.80898
1.80351
1.79806
1.79268
1.78738
1.78221
1.77718
1.77232
1.76766
1.7632
1.75895
1.75492
1.7511
1.74749
1.74409
1.74087
1.73782
1.73493
1.73219
1.72957
1.72706
1.72466
1.72235
1.72012
1.71798
1.71591
1.71392
1.71201
1.71019
1.70846
1.70682
1.70528
1.70386
1.70254
1.70134
1.70026
1.69929
1.69845
1.69773
1.69712
1.69662
1.69623
1.69593
1.69572
1.69558
1.6955
1.69548
1.69549
1.69553
1.69559
1.69565
1.6957
1.69574
1.69576
1.79823
1.79841
1.79876
1.79928
1.79999
1.80086
1.80191
1.80312
1.80451
1.80605
1.80776
1.80962
1.81163
1.81379
1.81609
1.81853
1.82109
1.82379
1.8266
1.82954
1.83258
1.83572
1.83895
1.84226
1.84564
1.84908
1.85254
1.85603
1.85951
1.86297
1.86638
1.86972
1.87296
1.87608
1.87906
1.88187
1.88448
1.88688
1.88906
1.89098
1.89263
1.894
1.89508
1.89585
1.8963
1.89643
1.89623
1.8957
1.89483
1.89363
1.89209
1.89022
1.88803
1.88551
1.88269
1.87956
1.87616
1.87247
1.86854
1.86437
1.85999
1.85542
1.85069
1.84582
1.84084
1.83579
1.83069
1.82558
1.82048
1.81543
1.81045
1.80558
1.80083
1.79623
1.79179
1.78752
1.78345
1.77956
1.77586
1.77234
1.769
1.76584
1.76283
1.75998
1.75725
1.75465
1.75217
1.74978
1.74749
1.74529
1.74317
1.74114
1.73919
1.73732
1.73554
1.73385
1.73225
1.73075
1.72935
1.72806
1.72688
1.72581
1.72485
1.724
1.72326
1.72262
1.72209
1.72165
1.7213
1.72103
1.72083
1.7207
1.72061
1.72057
1.72055
1.72055
1.72057
1.72058
1.7206
1.72061
1.82326
1.82343
1.82376
1.82426
1.82493
1.82575
1.82674
1.82789
1.8292
1.83066
1.83227
1.83403
1.83593
1.83797
1.84014
1.84244
1.84486
1.8474
1.85005
1.85281
1.85566
1.85861
1.86163
1.86472
1.86787
1.87106
1.87428
1.87751
1.88073
1.88392
1.88707
1.89013
1.89311
1.89597
1.89869
1.90126
1.90364
1.90583
1.9078
1.90954
1.91103
1.91226
1.91321
1.91388
1.91426
1.91433
1.9141
1.91356
1.91271
1.91154
1.91007
1.90828
1.9062
1.90382
1.90115
1.89821
1.895
1.89154
1.88785
1.88394
1.87984
1.87556
1.87113
1.86657
1.86192
1.85719
1.85242
1.84763
1.84284
1.8381
1.83342
1.82882
1.82433
1.81996
1.81574
1.81167
1.80775
1.804
1.80042
1.79701
1.79375
1.79065
1.7877
1.78488
1.78219
1.77962
1.77716
1.77481
1.77254
1.77037
1.76829
1.76629
1.76438
1.76255
1.7608
1.75915
1.75759
1.75612
1.75475
1.75348
1.75231
1.75125
1.75029
1.74943
1.74868
1.74802
1.74746
1.74698
1.74659
1.74628
1.74603
1.74584
1.7457
1.74561
1.74554
1.7455
1.74548
1.74547
1.74547
1.74547
1.84813
1.84828
1.8486
1.84907
1.8497
1.85048
1.85142
1.85251
1.85374
1.85512
1.85664
1.8583
1.8601
1.86202
1.86406
1.86623
1.86851
1.8709
1.87339
1.87598
1.87866
1.88141
1.88424
1.88713
1.89006
1.89303
1.89601
1.899
1.90198
1.90492
1.90782
1.91064
1.91337
1.91599
1.91849
1.92083
1.92301
1.925
1.92678
1.92835
1.92969
1.93079
1.93163
1.93221
1.93251
1.93254
1.93228
1.93173
1.93089
1.92976
1.92835
1.92665
1.92467
1.92241
1.91989
1.91711
1.91409
1.91084
1.90737
1.9037
1.89985
1.89584
1.89169
1.88743
1.88307
1.87864
1.87416
1.86966
1.86517
1.86071
1.8563
1.85196
1.84771
1.84356
1.83954
1.83565
1.83189
1.82829
1.82483
1.82151
1.81834
1.81532
1.81242
1.80966
1.80701
1.80448
1.80206
1.79973
1.79751
1.79537
1.79332
1.79135
1.78948
1.78768
1.78597
1.78435
1.78282
1.78139
1.78004
1.77879
1.77764
1.77658
1.77562
1.77476
1.774
1.77332
1.77273
1.77223
1.7718
1.77145
1.77116
1.77093
1.77075
1.77061
1.77051
1.77044
1.77039
1.77035
1.77033
1.77032
1.87283
1.87298
1.87328
1.87372
1.87432
1.87506
1.87594
1.87697
1.87814
1.87944
1.88087
1.88244
1.88413
1.88594
1.88787
1.88991
1.89205
1.8943
1.89664
1.89907
1.90157
1.90415
1.90679
1.90948
1.91221
1.91497
1.91774
1.92051
1.92326
1.92598
1.92864
1.93124
1.93375
1.93615
1.93843
1.94057
1.94255
1.94436
1.94598
1.9474
1.9486
1.94958
1.95032
1.95081
1.95105
1.95102
1.95074
1.95019
1.94936
1.94827
1.94691
1.94529
1.94341
1.94127
1.93888
1.93626
1.93342
1.93035
1.92709
1.92365
1.92003
1.91627
1.91238
1.90837
1.90428
1.90013
1.89592
1.8917
1.88747
1.88327
1.87911
1.875
1.87097
1.86704
1.8632
1.85949
1.85589
1.85242
1.84908
1.84587
1.8428
1.83985
1.83702
1.83431
1.83172
1.82923
1.82685
1.82457
1.82238
1.82028
1.81826
1.81633
1.81449
1.81273
1.81106
1.80947
1.80797
1.80656
1.80524
1.80401
1.80287
1.80182
1.80086
1.8
1.79922
1.79853
1.79793
1.7974
1.79694
1.79656
1.79624
1.79597
1.79575
1.79558
1.79545
1.79535
1.79527
1.79522
1.79519
1.79517
1.89739
1.89753
1.89781
1.89823
1.89879
1.89949
1.90032
1.90129
1.90239
1.90362
1.90497
1.90645
1.90804
1.90975
1.91156
1.91348
1.91549
1.9176
1.9198
1.92207
1.92442
1.92683
1.92929
1.9318
1.93434
1.9369
1.93947
1.94203
1.94457
1.94708
1.94953
1.95192
1.95422
1.95642
1.95851
1.96046
1.96227
1.96391
1.96538
1.96666
1.96773
1.9686
1.96924
1.96966
1.96984
1.96978
1.96947
1.96891
1.96811
1.96705
1.96574
1.96419
1.9624
1.96037
1.95812
1.95564
1.95295
1.95007
1.947
1.94376
1.94036
1.93683
1.93317
1.92941
1.92557
1.92166
1.91771
1.91373
1.90975
1.90579
1.90186
1.89797
1.89415
1.89041
1.88676
1.8832
1.87976
1.87642
1.8732
1.8701
1.86712
1.86425
1.8615
1.85885
1.85632
1.85388
1.85155
1.84931
1.84716
1.84509
1.84312
1.84123
1.83942
1.8377
1.83606
1.8345
1.83303
1.83164
1.83034
1.82913
1.828
1.82696
1.82601
1.82515
1.82436
1.82366
1.82304
1.82249
1.82202
1.8216
1.82125
1.82096
1.82071
1.82052
1.82035
1.82023
1.82013
1.82007
1.82002
1.82
1.9218
1.92193
1.9222
1.9226
1.92313
1.92378
1.92457
1.92548
1.92652
1.92768
1.92895
1.93034
1.93184
1.93344
1.93515
1.93695
1.93884
1.94082
1.94288
1.94501
1.9472
1.94945
1.95174
1.95408
1.95644
1.95882
1.9612
1.96357
1.96592
1.96823
1.97049
1.97269
1.9748
1.97682
1.97872
1.98051
1.98215
1.98364
1.98497
1.98612
1.98708
1.98784
1.9884
1.98875
1.98887
1.98878
1.98845
1.98789
1.9871
1.98607
1.98482
1.98334
1.98163
1.9797
1.97757
1.97522
1.97269
1.96997
1.96707
1.96402
1.96083
1.9575
1.95406
1.95053
1.94691
1.94324
1.93952
1.93577
1.93202
1.92827
1.92455
1.92088
1.91725
1.91369
1.91021
1.90681
1.90351
1.90031
1.89721
1.89421
1.89133
1.88854
1.88586
1.88329
1.88081
1.87843
1.87615
1.87395
1.87185
1.86983
1.86789
1.86604
1.86427
1.86258
1.86097
1.85944
1.858
1.85664
1.85536
1.85416
1.85305
1.85202
1.85108
1.85021
1.84942
1.84871
1.84808
1.84752
1.84702
1.84659
1.84622
1.8459
1.84563
1.84541
1.84523
1.84508
1.84497
1.84489
1.84484
1.84481
1.94608
1.94621
1.94646
1.94683
1.94733
1.94795
1.94869
1.94955
1.95053
1.95162
1.95281
1.95412
1.95553
1.95704
1.95864
1.96033
1.9621
1.96396
1.96588
1.96787
1.96992
1.97202
1.97416
1.97633
1.97853
1.98073
1.98294
1.98513
1.9873
1.98943
1.99151
1.99353
1.99547
1.99732
1.99906
2.00069
2.00218
2.00353
2.00473
2.00576
2.00662
2.00729
2.00777
2.00806
2.00813
2.008
2.00766
2.0071
2.00632
2.00533
2.00412
2.0027
2.00108
1.99925
1.99722
1.995
1.99261
1.99004
1.98731
1.98443
1.98142
1.97829
1.97505
1.97172
1.96832
1.96486
1.96135
1.95782
1.95427
1.95073
1.94721
1.94373
1.94028
1.9369
1.93358
1.93033
1.92717
1.92409
1.92111
1.91822
1.91543
1.91273
1.91013
1.90762
1.90521
1.90289
1.90066
1.89851
1.89645
1.89447
1.89258
1.89076
1.88903
1.88737
1.8858
1.8843
1.88289
1.88155
1.88029
1.87911
1.87802
1.877
1.87606
1.87519
1.87441
1.87369
1.87305
1.87247
1.87196
1.87151
1.87112
1.87079
1.8705
1.87026
1.87006
1.8699
1.86977
1.86968
1.86962
1.8696
1.97023
1.97035
1.97059
1.97094
1.97141
1.972
1.97269
1.9735
1.97442
1.97544
1.97657
1.9778
1.97912
1.98054
1.98204
1.98362
1.98529
1.98702
1.98882
1.99068
1.9926
1.99455
1.99654
1.99856
2.0006
2.00265
2.00469
2.00672
2.00872
2.01069
2.0126
2.01446
2.01623
2.01793
2.01952
2.021
2.02236
2.02358
2.02466
2.02558
2.02634
2.02693
2.02734
2.02757
2.0276
2.02744
2.02708
2.02652
2.02576
2.0248
2.02364
2.02228
2.02073
2.01899
2.01706
2.01496
2.01269
2.01027
2.00769
2.00498
2.00214
1.99919
1.99613
1.993
1.98979
1.98652
1.98321
1.97987
1.97652
1.97317
1.96984
1.96653
1.96326
1.96003
1.95687
1.95376
1.95073
1.94778
1.94491
1.94213
1.93943
1.93682
1.9343
1.93186
1.92952
1.92725
1.92508
1.92298