/*--------------------------------*- C++ -*----------------------------------*\
| =========                 |                                                 |
| \\      /  F ield         | OpenFOAM: The Open Source CFD Toolbox           |
|  \\    /   O peration     | Version:  2406                                  |
|   \\  /    A nd           | Website:  www.openfoam.com                      |
|    \\/     M anipulation  |                                                 |
\*---------------------------------------------------------------------------*/
FoamFile
{
    version     2.0;
    format      ascii;
    arch        "LSB;label=32;scalar=64";
    class       volScalarField;
    location    "9.85";
    object      C;
}
// * * * * * * * * * * * * * * * * * * * * * * * * * * * * * * * * * * * * * //

dimensions      [1 -3 0 0 0 0 0];

internalField   nonuniform List<scalar> 
14400
(
0.211866
0.211153
0.209885
0.208315
0.20671
0.205303
0.20427
0.203721
0.203694
0.20416
0.205016
0.206086
0.207119
0.207798
0.207787
0.206799
0.204736
0.201781
0.198283
0.194628
0.191168
0.188204
0.185981
0.184713
0.184594
0.185828
0.188636
0.193277
0.200044
0.209254
0.221232
0.236302
0.254783
0.276988
0.303212
0.333689
0.368486
0.407156
0.447334
0.477148
0.496876
0.513534
0.52761
0.539296
0.548736
0.55604
0.561291
0.564547
0.565848
0.565214
0.562647
0.558133
0.551641
0.543118
0.532492
0.519664
0.504505
0.486848
0.465944
0.434688
0.393538
0.354711
0.320032
0.28978
0.263838
0.241948
0.223802
0.209066
0.197384
0.188379
0.181672
0.176918
0.173838
0.172221
0.171921
0.172841
0.174922
0.178138
0.182487
0.187985
0.194654
0.202509
0.211525
0.221593
0.232436
0.243446
0.253192
0.258719
0.257869
0.252771
0.245863
0.23861
0.231661
0.225363
0.219904
0.215363
0.211745
0.208999
0.207031
0.205717
0.204918
0.204489
0.204309
0.204298
0.204438
0.204784
0.205452
0.2066
0.208409
0.211066
0.214744
0.219596
0.225743
0.233253
0.242121
0.25224
0.263344
0.274907
0.285827
0.292866
0.216479
0.21559
0.214044
0.212169
0.210287
0.208663
0.20749
0.206883
0.206885
0.207466
0.208521
0.209865
0.211226
0.212247
0.212502
0.211584
0.209295
0.205939
0.20199
0.197913
0.194099
0.190856
0.188433
0.187038
0.186864
0.188111
0.190998
0.195779
0.202742
0.212195
0.224457
0.23985
0.258692
0.281301
0.307977
0.338968
0.374345
0.413526
0.452522
0.480505
0.499705
0.516114
0.530001
0.541542
0.550871
0.558093
0.563285
0.566503
0.567783
0.567146
0.564594
0.560112
0.553671
0.545221
0.534693
0.521994
0.507003
0.489561
0.469304
0.439617
0.399234
0.359996
0.324768
0.294002
0.267592
0.245276
0.22674
0.211647
0.199644
0.190362
0.183429
0.178504
0.175305
0.173618
0.173292
0.174229
0.176371
0.179694
0.1842
0.189911
0.196859
0.205066
0.214519
0.22512
0.236607
0.248371
0.258664
0.264092
0.263821
0.258491
0.251084
0.24336
0.236001
0.22936
0.223628
0.218886
0.215139
0.21233
0.21036
0.209091
0.208367
0.20802
0.207902
0.207914
0.208031
0.208316
0.20891
0.209996
0.211779
0.21446
0.218227
0.223239
0.229619
0.237438
0.246696
0.257288
0.268953
0.281127
0.292481
0.299115
0.226214
0.224911
0.222738
0.220202
0.217735
0.21566
0.214197
0.213471
0.213529
0.21434
0.215797
0.217704
0.219758
0.221524
0.22241
0.221702
0.218857
0.214582
0.209658
0.2047
0.200155
0.196347
0.193518
0.191869
0.191585
0.192856
0.195896
0.200951
0.208293
0.218218
0.231035
0.247059
0.26661
0.290009
0.31756
0.349509
0.38591
0.425957
0.462065
0.48677
0.505287
0.521217
0.534739
0.545999
0.555114
0.562176
0.567253
0.570395
0.571637
0.570994
0.56847
0.564051
0.55771
0.549402
0.539065
0.526617
0.511953
0.494941
0.475418
0.448805
0.410768
0.370564
0.33426
0.302502
0.275183
0.252031
0.232727
0.216932
0.204296
0.194463
0.187077
0.181803
0.178358
0.176524
0.176143
0.177114
0.179379
0.182919
0.187746
0.193893
0.201406
0.210322
0.220642
0.232278
0.244975
0.258079
0.269113
0.274298
0.274826
0.26976
0.261617
0.253035
0.244889
0.237583
0.231323
0.226194
0.2222
0.219279
0.217319
0.216161
0.215608
0.215447
0.215474
0.215538
0.215599
0.215746
0.216169
0.21711
0.21882
0.221534
0.225462
0.230775
0.2376
0.246013
0.256017
0.267512
0.280237
0.293563
0.305311
0.310584
0.242079
0.239957
0.236658
0.233009
0.229598
0.226812
0.224894
0.22398
0.224116
0.225274
0.227342
0.230118
0.233276
0.236306
0.238405
0.238301
0.23424
0.228288
0.22174
0.215385
0.209713
0.205041
0.201597
0.199562
0.199106
0.200406
0.203662
0.209102
0.216984
0.227585
0.241203
0.258147
0.278735
0.303286
0.332092
0.365339
0.402857
0.442974
0.474487
0.495782
0.513456
0.528727
0.541738
0.552601
0.561412
0.568244
0.573155
0.576189
0.577374
0.576723
0.57424
0.569913
0.563716
0.555612
0.545549
0.533456
0.51925
0.502826
0.484061
0.461002
0.426961
0.386093
0.348513
0.315398
0.286773
0.262404
0.241977
0.225156
0.211596
0.200952
0.192886
0.187079
0.183253
0.181185
0.180713
0.181733
0.184188
0.188066
0.193389
0.200206
0.208578
0.21856
0.23016
0.243289
0.257644
0.272344
0.283683
0.2886
0.289844
0.28649
0.277694
0.267945
0.25869
0.25044
0.243428
0.237753
0.233422
0.230371
0.22847
0.227528
0.227296
0.227481
0.227777
0.227941
0.22789
0.22777
0.227871
0.228532
0.230077
0.232794
0.236919
0.242638
0.250084
0.259332
0.270383
0.283122
0.297216
0.311726
0.322602
0.326289
0.26554
0.261797
0.256623
0.251294
0.246528
0.24275
0.240207
0.239031
0.239266
0.240879
0.243761
0.247713
0.252411
0.257319
0.261492
0.262952
0.256327
0.247654
0.238743
0.230458
0.223261
0.217433
0.213162
0.210604
0.209903
0.211217
0.214726
0.220639
0.229192
0.240647
0.255288
0.273418
0.295349
0.321392
0.351811
0.386695
0.425418
0.462899
0.488498
0.507385
0.524027
0.538499
0.550883
0.561256
0.569687
0.576232
0.580936
0.583833
0.584945
0.584286
0.581855
0.577643
0.571629
0.563782
0.55406
0.542409
0.528765
0.513052
0.495185
0.47494
0.44646
0.406579
0.367714
0.332921
0.302618
0.27667
0.254788
0.236642
0.221892
0.210202
0.201251
0.194735
0.190391
0.187999
0.187399
0.188483
0.1912
0.195543
0.201547
0.209273
0.218798
0.230185
0.243449
0.258486
0.274883
0.291144
0.301515
0.306301
0.308158
0.307015
0.29928
0.288387
0.277829
0.268419
0.260473
0.254127
0.249404
0.246244
0.244505
0.243957
0.244281
0.24507
0.245853
0.2462
0.245925
0.245314
0.244838
0.244994
0.246212
0.248842
0.253151
0.259339
0.267539
0.277817
0.29016
0.304405
0.320011
0.334981
0.342737
0.345418
0.298034
0.291233
0.283237
0.275617
0.269092
0.26405
0.260718
0.259211
0.259562
0.261733
0.265612
0.271003
0.277598
0.284838
0.291402
0.292023
0.284801
0.272839
0.261006
0.250355
0.241295
0.234044
0.228747
0.225524
0.224493
0.225787
0.229565
0.236014
0.245349
0.257815
0.273685
0.293249
0.316808
0.344643
0.376957
0.413622
0.452941
0.483291
0.503695
0.521223
0.536768
0.550359
0.562039
0.571855
0.579848
0.58606
0.590523
0.59326
0.59429
0.59362
0.591251
0.587174
0.581375
0.573828
0.564501
0.553356
0.540349
0.525431
0.508559
0.489707
0.466881
0.432468
0.392166
0.355365
0.323038
0.295171
0.271522
0.251775
0.235595
0.222655
0.212642
0.205271
0.200293
0.197502
0.196742
0.197912
0.200966
0.205905
0.212769
0.22163
0.232572
0.245663
0.260916
0.278194
0.296883
0.313431
0.32199
0.326887
0.32934
0.329474
0.325433
0.314511
0.302711
0.292011
0.282985
0.27587
0.270727
0.267518
0.266098
0.266206
0.267442
0.269254
0.270904
0.271609
0.270875
0.269374
0.267912
0.26722
0.267864
0.270258
0.274697
0.281382
0.290433
0.301886
0.31569
0.33158
0.348489
0.360473
0.365063
0.36722
0.333632
0.327266
0.316414
0.306209
0.297657
0.291143
0.286888
0.284994
0.285483
0.288301
0.293318
0.300307
0.3089
0.318146
0.323373
0.321786
0.316649
0.303311
0.288618
0.275403
0.264245
0.255355
0.248852
0.244828
0.243377
0.24461
0.248662
0.2557
0.265919
0.279548
0.296844
0.318079
0.343522
0.373388
0.407724
0.445778
0.48033
0.503006
0.520879
0.537043
0.551462
0.564131
0.575061
0.584274
0.591791
0.597638
0.601834
0.604396
0.605334
0.604653
0.602354
0.598429
0.592868
0.585652
0.57676
0.566166
0.553842
0.539764
0.523912
0.506283
0.486854
0.460161
0.421444
0.382938
0.348379
0.318296
0.29259
0.270983
0.253154
0.238779
0.227556
0.219214
0.213517
0.210275
0.209343
0.210632
0.214099
0.219753
0.227639
0.237833
0.250419
0.265461
0.282936
0.302555
0.323027
0.337558
0.344928
0.349916
0.352841
0.353821
0.352948
0.346145
0.333645
0.321637
0.311423
0.30346
0.297884
0.29471
0.293815
0.29492
0.297551
0.301021
0.304193
0.305677
0.303938
0.300888
0.297835
0.295828
0.295578
0.297548
0.302035
0.309224
0.319197
0.331899
0.347154
0.364287
0.37936
0.386184
0.389485
0.39118
0.366986
0.364547
0.35508
0.342938
0.332408
0.324325
0.319066
0.316749
0.317406
0.320948
0.32719
0.335742
0.34588
0.354296
0.355139
0.352948
0.349258
0.33848
0.321616
0.305882
0.292503
0.281811
0.273945
0.268995
0.26704
0.268172
0.272507
0.280191
0.291401
0.306347
0.325263
0.348397
0.375948
0.407962
0.443949
0.480722
0.505707
0.52346
0.539773
0.554607
0.567906
0.579641
0.589801
0.598387
0.605406
0.610867
0.614781
0.617155
0.617996
0.617305
0.615082
0.611321
0.606015
0.599153
0.590721
0.580705
0.569091
0.555871
0.541042
0.524616
0.506617
0.486172
0.455635
0.415981
0.379028
0.346469
0.318441
0.294733
0.275044
0.259063
0.246495
0.23708
0.230599
0.226873
0.225773
0.227218
0.231174
0.237655
0.246708
0.258408
0.272833
0.290028
0.309907
0.331877
0.352231
0.363187
0.370002
0.375009
0.378288
0.37996
0.380194
0.378337
0.370106
0.357468
0.346094
0.337267
0.331249
0.3282
0.328047
0.330535
0.335094
0.341044
0.346563
0.349739
0.345907
0.340492
0.335099
0.331241
0.32976
0.331114
0.335561
0.34325
0.354201
0.368094
0.384397
0.400823
0.409297
0.412954
0.415515
0.416833
0.399754
0.399378
0.395654
0.385139
0.373351
0.363757
0.357492
0.354734
0.355603
0.359924
0.367393
0.377055
0.386761
0.389385
0.387821
0.385476
0.382174
0.375932
0.359922
0.342079
0.326472
0.313857
0.304493
0.298505
0.295972
0.296974
0.301611
0.31001
0.322325
0.338743
0.359469
0.38471
0.414556
0.448692
0.4852
0.511602
0.529242
0.545296
0.560147
0.573707
0.585914
0.596725
0.606114
0.614067
0.620578
0.625644
0.629267
0.631448
0.632189
0.631489
0.629347
0.625758
0.620719
0.614224
0.606266
0.596841
0.585947
0.573586
0.559771
0.544523
0.527877
0.509882
0.487695
0.453851
0.415167
0.380079
0.349543
0.323524
0.30178
0.28402
0.269968
0.25938
0.252049
0.247811
0.24655
0.248194
0.252716
0.260132
0.270491
0.283856
0.300283
0.31976
0.342023
0.365662
0.382025
0.390402
0.39688
0.401831
0.405342
0.407536
0.408582
0.408708
0.406454
0.398672
0.386918
0.377449
0.370997
0.368157
0.368913
0.373113
0.379827
0.388608
0.394742
0.396482
0.39449
0.387623
0.379609
0.373524
0.370592
0.371203
0.375532
0.383674
0.395636
0.410227
0.425725
0.434477
0.438007
0.440812
0.442786
0.443805
0.432897
0.432741
0.432501
0.428688
0.419729
0.409225
0.402177
0.398952
0.400104
0.405136
0.41343
0.421633
0.424564
0.423099
0.421283
0.418962
0.416006
0.412334
0.40276
0.384186
0.366557
0.351952
0.340976
0.333854
0.330682
0.331537
0.336512
0.345708
0.359249
0.37729
0.399964
0.427432
0.459494
0.494439
0.520847
0.538382
0.553826
0.568336
0.58181
0.59416
0.605318
0.615232
0.623864
0.63119
0.637194
0.641864
0.645195
0.647182
0.647823
0.647116
0.645057
0.641646
0.63688
0.630757
0.623279
0.614447
0.604268
0.592756
0.579931
0.565826
0.550486
0.533974
0.51637
0.492549
0.456415
0.419418
0.386371
0.357892
0.333912
0.314203
0.29852
0.286644
0.278389
0.273605
0.272186
0.27407
0.279235
0.287699
0.299502
0.314686
0.333248
0.355036
0.379292
0.400923
0.411843
0.419217
0.425285
0.430092
0.433713
0.436262
0.437891
0.438805
0.439267
0.437775
0.432291
0.423458
0.416814
0.414336
0.415916
0.42175
0.429191
0.433857
0.435876
0.435975
0.436399
0.434357
0.429453
0.421861
0.417802
0.417734
0.421864
0.430134
0.442738
0.454422
0.461789
0.464764
0.467364
0.4695
0.471013
0.471796
0.466197
0.466178
0.466208
0.466426
0.464044
0.458781
0.452144
0.448426
0.449937
0.454905
0.459043
0.460587
0.458838
0.457115
0.455249
0.453083
0.450516
0.447503
0.443508
0.431745
0.413024
0.396492
0.383842
0.375538
0.371689
0.372396
0.377762
0.387848
0.402725
0.422504
0.447095
0.476567
0.509376
0.534255
0.551021
0.565503
0.579344
0.592412
0.604597
0.615806
0.625966
0.635019
0.64292
0.649636
0.655143
0.659423
0.662466
0.664263
0.664806
0.664093
0.662121
0.658889
0.654396
0.648647
0.641645
0.633399
0.623923
0.613238
0.601372
0.588365
0.574268
0.559149
0.543092
0.52609
0.501332
0.464616
0.429375
0.398385
0.372034
0.350209
0.332735
0.319444
0.310175
0.304796
0.303215
0.305377
0.311263
0.320888
0.334277
0.351426
0.372195
0.396039
0.420603
0.434912
0.442673
0.449339
0.454951
0.459537
0.463157
0.465906
0.467915
0.469353
0.470437
0.471432
0.471646
0.469351
0.466478
0.465014
0.466403
0.468935
0.470969
0.470929
0.470477
0.470647
0.471423
0.472875
0.473216
0.471621
0.46957
0.469294
0.4731
0.479901
0.486492
0.491081
0.493121
0.495228
0.497186
0.498811
0.499969
0.500569
0.499517
0.499566
0.499712
0.500053
0.500741
0.500583
0.498746
0.497211
0.497127
0.497685
0.496915
0.494792
0.492979
0.491272
0.489516
0.487604
0.485474
0.483112
0.48056
0.476267
0.464775
0.44749
0.433363
0.423979
0.419462
0.420028
0.425866
0.436937
0.453182
0.474729
0.500564
0.530306
0.552175
0.567186
0.580391
0.593262
0.605635
0.617372
0.628359
0.638501
0.647722
0.655958
0.66316
0.66929
0.674318
0.678221
0.680984
0.682595
0.683045
0.682329
0.680445
0.677391
0.67317
0.667789
0.661254
0.653581
0.644788
0.634901
0.623954
0.611992
0.599072
0.585262
0.570644
0.555311
0.539007
0.514422
0.478682
0.445448
0.416729
0.392659
0.37323
0.358385
0.348002
0.341967
0.34021
0.342686
0.349366
0.360254
0.375355
0.394581
0.417505
0.442496
0.459479
0.46772
0.474539
0.480514
0.485644
0.489948
0.493473
0.496292
0.498509
0.500257
0.501696
0.503011
0.504391
0.505997
0.506626
0.506655
0.506842
0.506304
0.50517
0.504552
0.504388
0.504714
0.505548
0.506931
0.508899
0.511425
0.512791
0.514233
0.516792
0.519745
0.521377
0.522674
0.524229
0.525842
0.527342
0.52859
0.529481
0.529944
0.532788
0.532856
0.53302
0.533325
0.53382
0.534501
0.535278
0.53533
0.534232
0.532302
0.530383
0.528624
0.527014
0.525479
0.52394
0.522343
0.520662
0.518913
0.517161
0.51553
0.512184
0.50335
0.489102
0.47932
0.474228
0.474641
0.481081
0.493212
0.510463
0.533282
0.55654
0.574351
0.586757
0.59844
0.610093
0.621521
0.632562
0.643082
0.652965
0.662118
0.670462
0.677931
0.684473
0.690046
0.694617
0.698159
0.700655
0.702089
0.702451
0.701734
0.699937
0.69706
0.693106
0.688083
0.682003
0.674883
0.666747
0.657623
0.647551
0.636579
0.624766
0.612182
0.598911
0.585049
0.570703
0.555437
0.532339
0.498913
0.468415
0.44213
0.420603
0.404087
0.392488
0.385722
0.383767
0.386586
0.394111
0.406318
0.423167
0.44434
0.468203
0.485903
0.494814
0.501328
0.507249
0.512534
0.517162
0.521139
0.524494
0.527279
0.529571
0.531468
0.53308
0.534523
0.535892
0.537215
0.538337
0.538984
0.538846
0.538397
0.53794
0.537718
0.537812
0.53827
0.539125
0.540398
0.542093
0.544181
0.546553
0.54883
0.550454
0.551604
0.55276
0.553982
0.555279
0.556569
0.557749
0.558726
0.559421
0.559782
0.565989
0.566052
0.566188
0.566408
0.566712
0.567051
0.567288
0.56711
0.566324
0.56508
0.56369
0.562306
0.560974
0.559688
0.558423
0.557165
0.555917
0.554717
0.553642
0.552818
0.552436
0.551401
0.54681
0.540284
0.535057
0.535331
0.542507
0.55551
0.571601
0.586893
0.599748
0.609434
0.61946
0.629725
0.64002
0.650166
0.660011
0.669427
0.678302
0.686545
0.694077
0.700831
0.706755
0.711804
0.715944
0.719145
0.721387
0.722654
0.722934
0.72222
0.720511
0.717805
0.71411
0.709434
0.703792
0.697202
0.689692
0.681294
0.672048
0.662007
0.651229
0.639789
0.62777
0.61527
0.602402
0.5893
0.575684
0.555288
0.526596
0.498889
0.475255
0.457087
0.444217
0.43662
0.43443
0.437628
0.446
0.459425
0.477746
0.499616
0.515757
0.524331
0.53007
0.535527
0.540596
0.54521
0.549332
0.552953
0.556083
0.558758
0.56103
0.562964
0.564634
0.56611
0.56744
0.568626
0.569594
0.570231
0.570475
0.570495
0.570475
0.570569
0.570869
0.571431
0.572284
0.573443
0.574894
0.576588
0.578418
0.58018
0.581671
0.582918
0.584079
0.585215
0.586336
0.587405
0.588361
0.589142
0.589695
0.589981
0.599128
0.599175
0.59927
0.599408
0.599569
0.599703
0.599713
0.599461
0.598872
0.598004
0.596992
0.595936
0.59489
0.593876
0.592901
0.591976
0.591125
0.590397
0.58987
0.589663
0.589937
0.590911
0.592697
0.592739
0.593038
0.595755
0.601721
0.610114
0.619199
0.627041
0.634732
0.643109
0.651926
0.660981
0.670096
0.679111
0.68789
0.696312
0.704272
0.711683
0.718468
0.724562
0.729912
0.734473
0.738208
0.74109
0.743095
0.744205
0.744411
0.743703
0.742079
0.739541
0.736095
0.731752
0.726527
0.720443
0.713525
0.705811
0.697342
0.68817
0.678357
0.667975
0.657109
0.645858
0.634336
0.622676
0.611035
0.599471
0.583035
0.561485
0.536721
0.517579
0.503538
0.494958
0.492483
0.496134
0.505197
0.519115
0.53725
0.549654
0.556425
0.560989
0.565606
0.570115
0.574398
0.578378
0.582005
0.585256
0.588129
0.590642
0.592826
0.594723
0.596381
0.597842
0.599133
0.600255
0.60118
0.601872
0.602329
0.602634
0.602896
0.603215
0.603666
0.604299
0.605139
0.606195
0.60745
0.608861
0.610348
0.611803
0.61313
0.614321
0.615421
0.616462
0.617446
0.618354
0.619147
0.619787
0.620236
0.620467
0.63222
0.632251
0.632309
0.632384
0.632454
0.632478
0.632399
0.63215
0.631699
0.631072
0.630337
0.629555
0.628774
0.628024
0.627328
0.626712
0.62621
0.625875
0.62578
0.626026
0.626738
0.628068
0.630171
0.633215
0.637078
0.641231
0.645664
0.650423
0.655782
0.662018
0.668913
0.676345
0.684153
0.692178
0.70027
0.708294
0.716126
0.723657
0.730792
0.737447
0.743549
0.749037
0.753857
0.757966
0.761327
0.763912
0.765696
0.766663
0.7668
0.766101
0.764562
0.762185
0.758978
0.754951
0.750123
0.744515
0.738156
0.731083
0.723338
0.714974
0.706052
0.696645
0.686834
0.676718
0.666408
0.656033
0.645746
0.635728
0.626204
0.614808
0.600348
0.584077
0.569564
0.559936
0.557108
0.561199
0.570133
0.579781
0.58726
0.591022
0.594112
0.597593
0.601251
0.604927
0.608504
0.611898
0.615053
0.617936
0.620536
0.622854
0.624908
0.626722
0.628325
0.629743
0.630993
0.632081
0.633001
0.633747
0.634335
0.634816
0.635258
0.635728
0.636282
0.636958
0.637778
0.638747
0.639852
0.641058
0.642312
0.643552
0.644725
0.645813
0.646824
0.647765
0.648634
0.649416
0.650088
0.650622
0.650994
0.651184
0.665282
0.665299
0.66533
0.665365
0.665383
0.665358
0.665255
0.66504
0.6647
0.66425
0.663728
0.663174
0.662626
0.662117
0.661676
0.661334
0.661129
0.661113
0.661351
0.661922
0.662922
0.664451
0.6666
0.669422
0.672849
0.676704
0.680909
0.685517
0.690632
0.696334
0.702556
0.709205
0.716163
0.723306
0.730513
0.737668
0.744662
0.7514
0.757793
0.763764
0.769246
0.774179
0.778514
0.782207
0.785223
0.787533
0.789115
0.78995
0.790027
0.789338
0.787882
0.78566
0.782679
0.778953
0.774498
0.769338
0.763502
0.757026
0.749954
0.742336
0.734234
0.725717
0.716865
0.707772
0.698544
0.689302
0.680188
0.671366
0.663027
0.655391
0.648443
0.63991
0.631527
0.62514
0.622061
0.622379
0.62477
0.627048
0.627709
0.62923
0.63141
0.63402
0.636878
0.639839
0.642793
0.645657
0.648372
0.650901
0.653223
0.655331
0.65723
0.658933
0.660455
0.661812
0.663017
0.664076
0.664995
0.665779
0.666448
0.667038
0.667592
0.668158
0.668776
0.669474
0.670269
0.671165
0.672152
0.673205
0.67429
0.675368
0.676406
0.677383
0.678296
0.67914
0.679908
0.680589
0.681166
0.681619
0.681932
0.682092
0.698325
0.698334
0.698349
0.698361
0.698357
0.698317
0.698222
0.698055
0.697811
0.697502
0.69715
0.696786
0.696441
0.696144
0.695925
0.695818
0.69586
0.696098
0.696587
0.69739
0.698576
0.700214
0.702355
0.705023
0.708185
0.711771
0.71574
0.720103
0.724895
0.730131
0.735774
0.741755
0.747987
0.754372
0.760809
0.767201
0.773456
0.779486
0.785214
0.79057
0.79549
0.79992
0.803812
0.807125
0.809825
0.811884
0.81328
0.813995
0.814019
0.813344
0.811967
0.809892
0.807127
0.803683
0.799579
0.794837
0.789488
0.783566
0.777114
0.770183
0.76283
0.755123
0.747138
0.738961
0.730693
0.722444
0.714339
0.706521
0.699143
0.69237
0.686358
0.681301
0.677184
0.673682
0.670762
0.668384
0.666558
0.665743
0.665875
0.666778
0.668276
0.6702
0.672402
0.674759
0.677172
0.679565
0.681878
0.684073
0.686124
0.688017
0.68975
0.691324
0.692749
0.694033
0.695185
0.696213
0.697123
0.697926
0.698641
0.699294
0.699915
0.700537
0.701189
0.701892
0.702659
0.703492
0.704385
0.705321
0.706276
0.707225
0.708145
0.709019
0.709836
0.71059
0.71127
0.711867
0.712367
0.712757
0.713024
0.713161
0.731359
0.731364
0.731372
0.731375
0.731365
0.731331
0.73126
0.731146
0.730988
0.730795
0.730585
0.73038
0.730207
0.730091
0.730062
0.730152
0.730395
0.730832
0.731508
0.732474
0.73378
0.735472
0.737585
0.740131
0.743097
0.746453
0.750176
0.754262
0.758712
0.76352
0.768652
0.774055
0.779659
0.785384
0.79115
0.796873
0.802473
0.807875
0.813009
0.817811
0.822225
0.826199
0.829688
0.832655
0.835067
0.836898
0.838125
0.838733
0.83871
0.83805
0.836751
0.834816
0.832253
0.829073
0.825296
0.820944
0.816046
0.810635
0.804755
0.798452
0.791782
0.784808
0.777601
0.770243
0.762823
0.75544
0.748205
0.741235
0.734655
0.72859
0.723153
0.718436
0.71444
0.711072
0.708264
0.706001
0.704353
0.703447
0.703269
0.703732
0.704716
0.706101
0.70777
0.709622
0.711572
0.713551
0.715503
0.71739
0.719183
0.720864
0.722426
0.723865
0.725184
0.726386
0.727478
0.728466
0.729357
0.730163
0.730897
0.731581
0.732236
0.732886
0.733551
0.734246
0.734982
0.735759
0.736575
0.737416
0.738268
0.739112
0.739931
0.740711
0.741441
0.742112
0.742715
0.743241
0.743678
0.744016
0.744248
0.744365
0.764387
0.764391
0.764398
0.764402
0.764398
0.76438
0.764342
0.764281
0.7642
0.764106
0.764014
0.763943
0.763914
0.763952
0.764082
0.764332
0.764736
0.765326
0.766141
0.767219
0.768598
0.77031
0.772381
0.774819
0.777619
0.780768
0.78425
0.788055
0.792173
0.796585
0.801261
0.806154
0.811208
0.816357
0.821534
0.826667
0.831688
0.836531
0.841135
0.845442
0.8494
0.852962
0.856088
0.858741
0.860892
0.862515
0.863589
0.864101
0.864038
0.863395
0.862171
0.860368
0.857994
0.855062
0.851589
0.847597
0.843115
0.838175
0.832818
0.827087
0.821037
0.814724
0.808216
0.801586
0.794915
0.788289
0.781804
0.775559
0.769652
0.764181
0.759228
0.75485
0.751062
0.747838
0.74515
0.742998
0.741409
0.740421
0.740024
0.740163
0.740757
0.741717
0.742955
0.744388
0.745944
0.747562
0.749194
0.7508
0.752352
0.753831
0.755225
0.756527
0.757735
0.75885
0.759875
0.760815
0.761677
0.762469
0.763204
0.763897
0.764563
0.76522
0.765882
0.76656
0.767262
0.76799
0.768739
0.769502
0.770268
0.771023
0.771755
0.772453
0.773105
0.773703
0.774239
0.774703
0.775087
0.775383
0.775585
0.775688
0.797411
0.797416
0.797426
0.797437
0.797446
0.797451
0.797447
0.797437
0.797423
0.797415
0.797423
0.797463
0.797556
0.79772
0.79798
0.798361
0.79889
0.799596
0.80051
0.801662
0.803081
0.804791
0.806809
0.809144
0.811793
0.81475
0.818001
0.821536
0.825338
0.829387
0.833652
0.838092
0.842661
0.847303
0.85196
0.856573
0.861081
0.865428
0.869558
0.873421
0.87697
0.880161
0.882959
0.885329
0.887244
0.88868
0.889617
0.890043
0.889947
0.889322
0.888169
0.886491
0.884294
0.881591
0.8784
0.874741
0.870642
0.866133
0.861253
0.856043
0.850553
0.844836
0.838954
0.832971
0.82696
0.820998
0.815165
0.809543
0.804215
0.799254
0.794726
0.790675
0.787122
0.784066
0.781502
0.779431
0.777863
0.776806
0.776244
0.776138
0.776431
0.777056
0.777945
0.779031
0.780254
0.781561
0.78291
0.784263
0.785595
0.786884
0.788116
0.789283
0.790379
0.791404
0.792358
0.793244
0.794066
0.794833
0.795554
0.796238
0.796899
0.797548
0.798196
0.798851
0.799518
0.800198
0.800889
0.801585
0.802277
0.802958
0.803615
0.80424
0.804823
0.805357
0.805833
0.806245
0.806584
0.806845
0.807022
0.807112
0.83043
0.830438
0.830453
0.830474
0.830499
0.830528
0.83056
0.830596
0.830643
0.830706
0.830798
0.830932
0.831124
0.831393
0.831758
0.832241
0.832867
0.833658
0.834641
0.835839
0.837273
0.838963
0.840921
0.843154
0.845661
0.848436
0.85147
0.854749
0.858257
0.861972
0.865866
0.869903
0.874041
0.878234
0.882432
0.886583
0.890636
0.894541
0.898249
0.901715
0.904896
0.907755
0.910258
0.912373
0.914075
0.915342
0.916158
0.916508
0.916383
0.915778
0.914693
0.913131
0.911099
0.90861
0.905678
0.902326
0.898577
0.894463
0.890017
0.88528
0.880296
0.875115
0.869791
0.864384
0.858958
0.853578
0.848314
0.843235
0.838409
0.833895
0.829747
0.826002
0.822684
0.819802
0.81736
0.815361
0.813807
0.812694
0.812007
0.811714
0.811773
0.812132
0.812738
0.813537
0.814479
0.81552
0.816621
0.817749
0.81888
0.819993
0.821072
0.822109
0.823095
0.824029
0.824908
0.825735
0.826512
0.827244
0.827939
0.828604
0.829247
0.829878
0.830504
0.83113
0.83176
0.832395
0.833034
0.83367
0.8343
0.834915
0.835507
0.836068
0.836591
0.837068
0.837493
0.837859
0.83816
0.838391
0.838547
0.838626
0.86344
0.863452
0.863474
0.863506
0.863549
0.863602
0.863667
0.863746
0.863845
0.86397
0.864132
0.864343
0.864616
0.864969
0.865417
0.86598
0.866677
0.86753
0.868557
0.869778
0.871211
0.872868
0.874759
0.87689
0.87926
0.881864
0.884692
0.887733
0.890969
0.89438
0.897938
0.901612
0.905366
0.909159
0.912949
0.916691
0.920339
0.92385
0.927182
0.930293
0.933146
0.935706
0.937943
0.939829
0.941341
0.942457
0.943164
0.943447
0.943298
0.942715
0.941695
0.940241
0.938363
0.93607
0.933378
0.930306
0.926879
0.923124
0.919073
0.914763
0.910236
0.905536
0.900712
0.895817
0.890908
0.886041
0.881278
0.876675
0.872289
0.868172
0.864365
0.860903
0.85781
0.855098
0.852776
0.850846
0.849309
0.848157
0.847375
0.846939
0.846814
0.846961
0.847337
0.847899
0.848605
0.849418
0.850303
0.851233
0.852183
0.853134
0.854072
0.854984
0.855865
0.856708
0.857511
0.858275
0.859001
0.859693
0.860354
0.86099
0.861608
0.862213
0.862811
0.863405
0.863998
0.86459
0.865179
0.865764
0.866337
0.866895
0.867429
0.867935
0.868404
0.868832
0.869212
0.869538
0.869805
0.87001
0.870149
0.870219
0.89644
0.896455
0.896484
0.896529
0.896589
0.896665
0.896759
0.896876
0.89702
0.897197
0.897418
0.897691
0.89803
0.898448
0.898961
0.899584
0.900334
0.901227
0.902279
0.903507
0.904923
0.906537
0.908358
0.910387
0.912625
0.915066
0.917703
0.920521
0.923507
0.926639
0.929893
0.933241
0.936652
0.940089
0.943515
0.946892
0.95018
0.95334
0.956335
0.959129
0.961687
0.963981
0.96598
0.967661
0.969001
0.969983
0.970592
0.970817
0.97065
0.970087
0.969129
0.967777
0.966041
0.963929
0.961457
0.958642
0.955508
0.95208
0.948388
0.944465
0.940348
0.93608
0.931703
0.927265
0.922815
0.918403
0.91408
0.909898
0.905902
0.902136
0.898637
0.895436
0.892554
0.890005
0.887799
0.885939
0.884425
0.883249
0.882399
0.881853
0.881584
0.881562
0.881751
0.882117
0.882625
0.883243
0.883942
0.884697
0.885486
0.88629
0.887096
0.887892
0.888671
0.889426
0.890154
0.890854
0.891526
0.892171
0.892793
0.893395
0.893981
0.894555
0.895121
0.895681
0.896236
0.896786
0.897331
0.897867
0.898391
0.898897
0.899381
0.899837
0.90026
0.900643
0.900984
0.901275
0.901514
0.901697
0.90182
0.901882
0.929424
0.929443
0.92948
0.929536
0.929612
0.929709
0.92983
0.929979
0.930161
0.930382
0.930649
0.930973
0.931364
0.931834
0.932395
0.933061
0.933846
0.934764
0.935827
0.937047
0.938436
0.940001
0.941747
0.943676
0.945787
0.948074
0.95053
0.953143
0.955898
0.958776
0.961754
0.964809
0.967911
0.971029
0.974131
0.977182
0.980148
0.982995
0.985689
0.988199
0.990495
0.992549
0.994335
0.995832
0.99702
0.997882
0.998405
0.998579
0.998397
0.997855
0.996955
0.995699
0.994093
0.992148
0.989878
0.987299
0.984432
0.981301
0.977933
0.974359
0.970613
0.966732
0.962756
0.958725
0.954683
0.950674
0.946744
0.942933
0.939284
0.935833
0.932613
0.929649
0.926963
0.924569
0.922476
0.920687
0.919203
0.918017
0.917118
0.916489
0.916108
0.915951
0.915988
0.916192
0.916534
0.916987
0.917525
0.918127
0.918772
0.919444
0.92013
0.920818
0.921501
0.922171
0.922825
0.923461
0.924077
0.924674
0.925253
0.925816
0.926367
0.926906
0.927437
0.927961
0.928478
0.928989
0.929491
0.929983
0.930461
0.930922
0.931361
0.931773
0.932154
0.932499
0.932804
0.933065
0.933279
0.933442
0.933552
0.933608
0.962391
0.962412
0.962456
0.962523
0.962613
0.962729
0.962874
0.96305
0.963264
0.963519
0.963825
0.964189
0.964619
0.965128
0.965724
0.96642
0.967226
0.968155
0.969216
0.97042
0.971774
0.973283
0.974953
0.976783
0.978772
0.980914
0.983202
0.985624
0.988166
0.990811
0.99354
0.996329
0.999153
1.00199
1.0048
1.00756
1.01023
1.0128
1.01523
1.01748
1.01954
1.02138
1.02298
1.02431
1.02536
1.02612
1.02657
1.0267
1.0265
1.02598
1.02514
1.02397
1.02248
1.02069
1.01861
1.01624
1.01362
1.01076
1.00768
1.00443
1.00101
0.997481
0.993862
0.990195
0.986518
0.982869
0.979286
0.975808
0.972469
0.9693
0.966332
0.963586
0.961081
0.958832
0.956847
0.955131
0.953682
0.952498
0.951567
0.950877
0.950409
0.950144
0.950059
0.95013
0.950333
0.950645
0.951045
0.951513
0.952031
0.952585
0.953162
0.95375
0.954342
0.954932
0.955514
0.956087
0.956646
0.957194
0.957728
0.958251
0.958763
0.959266
0.959761
0.960248
0.960728
0.961199
0.961662
0.962113
0.96255
0.962969
0.963367
0.963739
0.964083
0.964394
0.964668
0.964903
0.965094
0.96524
0.965339
0.965388
0.995335
0.99536
0.99541
0.995486
0.995588
0.99572
0.995885
0.996084
0.996323
0.996607
0.996943
0.997337
0.997797
0.998333
0.998953
0.999667
1.00048
1.00141
1.00246
1.00364
1.00495
1.00641
1.008
1.00973
1.0116
1.01361
1.01574
1.01798
1.02033
1.02276
1.02527
1.02781
1.03039
1.03296
1.03551
1.03801
1.04043
1.04275
1.04494
1.04697
1.04882
1.05046
1.05189
1.05308
1.054
1.05467
1.05505
1.05514
1.05494
1.05444
1.05364
1.05256
1.05118
1.04953
1.04762
1.04545
1.04304
1.04043
1.03762
1.03465
1.03153
1.02831
1.02502
1.02168
1.01832
1.015
1.01173
1.00854
1.00548
1.00257
0.999827
0.99728
0.994944
0.992831
0.990951
0.989306
0.987898
0.986724
0.985775
0.985041
0.984508
0.984158
0.983974
0.983936
0.984023
0.984216
0.984497
0.984849
0.985255
0.985703
0.986181
0.986678
0.987187
0.987701
0.988214
0.988725
0.989229
0.989726
0.990215
0.990696
0.991168
0.991634
0.992091
0.992542
0.992985
0.993419
0.993844
0.994257
0.994655
0.995037
0.995398
0.995735
0.996046
0.996326
0.996573
0.996784
0.996955
0.997086
0.997174
0.997219
1.02826
1.02828
1.02834
1.02842
1.02853
1.02868
1.02886
1.02908
1.02934
1.02964
1.03
1.03042
1.0309
1.03145
1.03209
1.03281
1.03363
1.03455
1.03558
1.03673
1.038
1.03939
1.0409
1.04254
1.0443
1.04618
1.04816
1.05024
1.05241
1.05465
1.05694
1.05927
1.06162
1.06397
1.06628
1.06855
1.07074
1.07283
1.0748
1.07663
1.07829
1.07976
1.08104
1.08209
1.08291
1.08349
1.08381
1.08387