/*--------------------------------*- C++ -*----------------------------------*\
| =========                 |                                                 |
| \\      /  F ield         | OpenFOAM: The Open Source CFD Toolbox           |
|  \\    /   O peration     | Version:  2406                                  |
|   \\  /    A nd           | Website:  www.openfoam.com                      |
|    \\/     M anipulation  |                                                 |
\*---------------------------------------------------------------------------*/
FoamFile
{
    version     2.0;
    format      ascii;
    arch        "LSB;label=32;scalar=64";
    class       volScalarField;
    location    "9.85";
    object      Da;
}
// * * * * * * * * * * * * * * * * * * * * * * * * * * * * * * * * * * * * * //

dimensions      [0 2 -1 0 0 0 0];

internalField   nonuniform List<scalar> 
14400
(
5.25946e-05
5.26064e-05
5.26358e-05
5.26843e-05
5.27449e-05
5.28055e-05
5.28537e-05
5.28804e-05
5.28831e-05
5.28665e-05
5.28418e-05
5.28248e-05
5.28308e-05
5.28676e-05
5.29265e-05
5.29814e-05
5.30096e-05
5.30277e-05
5.30466e-05
5.30535e-05
5.30179e-05
5.29022e-05
5.26697e-05
5.22894e-05
5.17417e-05
5.10236e-05
5.01568e-05
4.91957e-05
4.82242e-05
4.73276e-05
4.65622e-05
4.59486e-05
4.54852e-05
4.51654e-05
4.49916e-05
4.49911e-05
4.52584e-05
4.61401e-05
4.95418e-05
7.64691e-05
7.8e-05
7.8e-05
7.8e-05
7.8e-05
7.8e-05
7.8e-05
7.8e-05
7.8e-05
7.8e-05
7.8e-05
7.8e-05
7.8e-05
7.8e-05
7.8e-05
7.8e-05
7.8e-05
7.8e-05
7.8e-05
7.48307e-05
4.90075e-05
4.61707e-05
4.54739e-05
4.53237e-05
4.54453e-05
4.57722e-05
4.62988e-05
4.70444e-05
4.80293e-05
4.92415e-05
5.06019e-05
5.1973e-05
5.32188e-05
5.42537e-05
5.50416e-05
5.55732e-05
5.5852e-05
5.58887e-05
5.56987e-05
5.53034e-05
5.47344e-05
5.40397e-05
5.32901e-05
5.25838e-05
5.20535e-05
5.19075e-05
5.26778e-05
5.71047e-05
7.74053e-05
6.03365e-05
5.22578e-05
5.06131e-05
5.01716e-05
5.01487e-05
5.03327e-05
5.06289e-05
5.09794e-05
5.13425e-05
5.1688e-05
5.19945e-05
5.22484e-05
5.24413e-05
5.25669e-05
5.26201e-05
5.25958e-05
5.24908e-05
5.23047e-05
5.20392e-05
5.16976e-05
5.12857e-05
5.08144e-05
5.0303e-05
4.97804e-05
4.92838e-05
4.88553e-05
4.85414e-05
4.84007e-05
4.85374e-05
4.92392e-05
5.19629e-05
7.26716e-05
5.20954e-05
5.20765e-05
5.20623e-05
5.20683e-05
5.20945e-05
5.21309e-05
5.21655e-05
5.21892e-05
5.21991e-05
5.22001e-05
5.2204e-05
5.22278e-05
5.22884e-05
5.23923e-05
5.25197e-05
5.26116e-05
5.26067e-05
5.25684e-05
5.25379e-05
5.251e-05
5.24528e-05
5.23262e-05
5.20919e-05
5.17191e-05
5.11899e-05
5.05046e-05
4.96888e-05
4.87977e-05
4.79076e-05
4.70906e-05
4.63927e-05
4.58317e-05
4.54082e-05
4.51201e-05
4.49753e-05
4.50109e-05
4.53535e-05
4.65446e-05
5.23225e-05
7.77496e-05
7.8e-05
7.8e-05
7.8e-05
7.8e-05
7.8e-05
7.8e-05
7.8e-05
7.8e-05
7.8e-05
7.8e-05
7.8e-05
7.8e-05
7.8e-05
7.8e-05
7.8e-05
7.8e-05
7.8e-05
7.8e-05
7.70788e-05
5.03511e-05
4.646e-05
4.55517e-05
4.53326e-05
4.54147e-05
4.57057e-05
4.61897e-05
4.68795e-05
4.77925e-05
4.89217e-05
5.0204e-05
5.1518e-05
5.27321e-05
5.37533e-05
5.45361e-05
5.50657e-05
5.53431e-05
5.5378e-05
5.5186e-05
5.47902e-05
5.42255e-05
5.35439e-05
5.28207e-05
5.21571e-05
5.16884e-05
5.16414e-05
5.27108e-05
5.93816e-05
7.78645e-05
6.48795e-05
5.24851e-05
5.04461e-05
4.98892e-05
4.97868e-05
4.99011e-05
5.01342e-05
5.04293e-05
5.07478e-05
5.10612e-05
5.13495e-05
5.15983e-05
5.1796e-05
5.19322e-05
5.19951e-05
5.19744e-05
5.1865e-05
5.16699e-05
5.13973e-05
5.10568e-05
5.0659e-05
5.02175e-05
4.97518e-05
4.92884e-05
4.88601e-05
4.85038e-05
4.82631e-05
4.82004e-05
4.84396e-05
4.93453e-05
5.26887e-05
7.59665e-05
5.12488e-05
5.11563e-05
5.10461e-05
5.0965e-05
5.09229e-05
5.09117e-05
5.0919e-05
5.09353e-05
5.09579e-05
5.09914e-05
5.10487e-05
5.11496e-05
5.13166e-05
5.15623e-05
5.18537e-05
5.20484e-05
5.19344e-05
5.17496e-05
5.16045e-05
5.14987e-05
5.13936e-05
5.12433e-05
5.10072e-05
5.06548e-05
5.01714e-05
4.95615e-05
4.88538e-05
4.80985e-05
4.73553e-05
4.66759e-05
4.60936e-05
4.56236e-05
4.5271e-05
4.50409e-05
4.49506e-05
4.50547e-05
4.55384e-05
4.73883e-05
6.09449e-05
7.79962e-05
7.8e-05
7.8e-05
7.8e-05
7.8e-05
7.8e-05
7.8e-05
7.8e-05
7.8e-05
7.8e-05
7.8e-05
7.8e-05
7.8e-05
7.8e-05
7.8e-05
7.8e-05
7.8e-05
7.8e-05
7.8e-05
7.79744e-05
5.7162e-05
4.72375e-05
4.57152e-05
4.53539e-05
4.53612e-05
4.5586e-05
4.5993e-05
4.6583e-05
4.73666e-05
4.83417e-05
4.94679e-05
5.06546e-05
5.17856e-05
5.27622e-05
5.3524e-05
5.40439e-05
5.43163e-05
5.43485e-05
5.41571e-05
5.37691e-05
5.32258e-05
5.25873e-05
5.19348e-05
5.13708e-05
5.10305e-05
5.11654e-05
5.27655e-05
6.44426e-05
7.79928e-05
7.20699e-05
5.2923e-05
5.02272e-05
4.94354e-05
4.91801e-05
4.91679e-05
4.92882e-05
4.94835e-05
4.97179e-05
4.99671e-05
5.02138e-05
5.04441e-05
5.0644e-05
5.07957e-05
5.08767e-05
5.08644e-05
5.07498e-05
5.05434e-05
5.02666e-05
4.99402e-05
4.95808e-05
4.9204e-05
4.88269e-05
4.84702e-05
4.81586e-05
4.79224e-05
4.78035e-05
4.78754e-05
4.83193e-05
4.9869e-05
5.81981e-05
7.79331e-05
5.03493e-05
5.01155e-05
4.98544e-05
4.96536e-05
4.95238e-05
4.94523e-05
4.94242e-05
4.94295e-05
4.9465e-05
4.95357e-05
4.96555e-05
4.98488e-05
5.01528e-05
5.06116e-05
5.12245e-05
5.17163e-05
5.12558e-05
5.07684e-05
5.04314e-05
5.02069e-05
5.00312e-05
4.98478e-05
4.96132e-05
4.92984e-05
4.8891e-05
4.83973e-05
4.78414e-05
4.72599e-05
4.66925e-05
4.61732e-05
4.57257e-05
4.53649e-05
4.51013e-05
4.49487e-05
4.49377e-05
4.51491e-05
4.58551e-05
4.85227e-05
7.20407e-05
7.8e-05
7.8e-05
7.8e-05
7.8e-05
7.8e-05
7.8e-05
7.8e-05
7.8e-05
7.8e-05
7.8e-05
7.8e-05
7.8e-05
7.8e-05
7.8e-05
7.8e-05
7.8e-05
7.8e-05
7.8e-05
7.8e-05
7.79999e-05
6.83319e-05
4.82621e-05
4.59567e-05
4.54007e-05
4.53024e-05
4.54369e-05
4.57439e-05
4.62088e-05
4.68316e-05
4.76091e-05
4.85184e-05
4.95027e-05
5.0476e-05
5.13473e-05
5.20471e-05
5.25341e-05
5.27922e-05
5.2824e-05
5.2647e-05
5.2294e-05
5.18146e-05
5.12754e-05
5.07589e-05
5.03633e-05
5.0223e-05
5.06239e-05
5.2867e-05
7.10772e-05
7.79999e-05
7.76387e-05
5.56771e-05
5.03198e-05
4.89966e-05
4.85088e-05
4.83364e-05
4.83239e-05
4.84033e-05
4.85383e-05
4.87073e-05
4.88967e-05
4.9095e-05
4.92884e-05
4.94546e-05
4.95587e-05
4.95602e-05
4.94429e-05
4.92291e-05
4.89583e-05
4.86627e-05
4.83624e-05
4.80711e-05
4.78013e-05
4.75665e-05
4.73846e-05
4.72819e-05
4.73031e-05
4.75416e-05
4.82624e-05
5.07726e-05
6.95548e-05
7.79999e-05
4.9843e-05
4.92961e-05
4.88068e-05
4.84638e-05
4.82428e-05
4.81122e-05
4.80497e-05
4.80422e-05
4.8086e-05
4.81867e-05
4.8361e-05
4.86415e-05
4.90923e-05
4.98442e-05
5.11594e-05
5.32445e-05
5.10034e-05
4.98878e-05
4.92749e-05
4.89073e-05
4.86527e-05
4.84345e-05
4.82054e-05
4.79375e-05
4.76189e-05
4.72519e-05
4.68508e-05
4.64369e-05
4.60343e-05
4.56649e-05
4.53473e-05
4.50969e-05
4.49299e-05
4.48706e-05
4.49707e-05
4.5376e-05
4.67417e-05
5.47177e-05
7.79396e-05
7.8e-05
7.8e-05
7.8e-05
7.8e-05
7.8e-05
7.8e-05
7.8e-05
7.8e-05
7.8e-05
7.8e-05
7.8e-05
7.8e-05
7.8e-05
7.8e-05
7.8e-05
7.8e-05
7.8e-05
7.8e-05
7.8e-05
7.8e-05
7.72004e-05
5.04656e-05
4.64688e-05
4.55308e-05
4.527e-05
4.52891e-05
4.54824e-05
4.58144e-05
4.62719e-05
4.68458e-05
4.75193e-05
4.82586e-05
4.90094e-05
4.97048e-05
5.02819e-05
5.06949e-05
5.09205e-05
5.09569e-05
5.08216e-05
5.055e-05
5.01934e-05
4.98159e-05
4.94924e-05
4.93162e-05
4.94429e-05
5.02934e-05
5.39449e-05
7.69033e-05
7.8e-05
7.79999e-05
6.94499e-05
5.13303e-05
4.87712e-05
4.79436e-05
4.75925e-05
4.74511e-05
4.74252e-05
4.74717e-05
4.75693e-05
4.77065e-05
4.78747e-05
4.80624e-05
4.82473e-05
4.83832e-05
4.84046e-05
4.828e-05
4.80538e-05
4.77876e-05
4.75226e-05
4.72783e-05
4.70648e-05
4.68895e-05
4.67615e-05
4.66959e-05
4.67205e-05
4.68918e-05
4.73502e-05
4.85885e-05
5.37166e-05
7.75856e-05
7.8e-05
5.10607e-05
4.91056e-05
4.81433e-05
4.75981e-05
4.72727e-05
4.70827e-05
4.69875e-05
4.69671e-05
4.70153e-05
4.71395e-05
4.73624e-05
4.77331e-05
4.83693e-05
4.96318e-05
5.3387e-05
7.18076e-05
5.22722e-05
4.93893e-05
4.83495e-05
4.78172e-05
4.74833e-05
4.72327e-05
4.70095e-05
4.67839e-05
4.65415e-05
4.62794e-05
4.60027e-05
4.57223e-05
4.5452e-05
4.52067e-05
4.50018e-05
4.48542e-05
4.47864e-05
4.48374e-05
4.50958e-05
4.58424e-05
4.85933e-05
7.26516e-05
7.8e-05
7.8e-05
7.8e-05
7.8e-05
7.8e-05
7.8e-05
7.8e-05
7.8e-05
7.8e-05
7.8e-05
7.8e-05
7.8e-05
7.8e-05
7.8e-05
7.8e-05
7.8e-05
7.8e-05
7.8e-05
7.8e-05
7.8e-05
7.8e-05
7.79999e-05
6.6827e-05
4.80273e-05
4.58575e-05
4.53066e-05
4.51753e-05
4.52445e-05
4.54463e-05
4.5752e-05
4.61446e-05
4.6607e-05
4.71156e-05
4.76366e-05
4.81283e-05
4.85469e-05
4.88565e-05
4.90361e-05
4.90827e-05
4.90113e-05
4.88526e-05
4.86496e-05
4.84559e-05
4.83374e-05
4.83926e-05
4.8842e-05
5.06624e-05
6.34578e-05
7.79951e-05
7.8e-05
7.8e-05
7.78274e-05
5.56633e-05
4.9105e-05
4.76363e-05
4.70587e-05
4.67869e-05
4.66687e-05
4.66442e-05
4.66885e-05
4.67911e-05
4.69453e-05
4.71439e-05
4.73701e-05
4.75666e-05
4.7623e-05
4.7466e-05
4.71974e-05
4.69117e-05
4.66568e-05
4.64472e-05
4.62878e-05
4.61821e-05
4.6138e-05
4.61723e-05
4.63219e-05
4.66766e-05
4.75111e-05
5.02191e-05
7.09943e-05
7.8e-05
7.8e-05
6.7967e-05
5.07687e-05
4.80909e-05
4.71368e-05
4.66524e-05
4.6386e-05
4.62538e-05
4.62193e-05
4.62721e-05
4.64222e-05
4.67057e-05
4.72079e-05
4.81912e-05
5.09641e-05
7.02993e-05
7.79814e-05
6.02199e-05
4.96606e-05
4.77656e-05
4.70215e-05
4.66021e-05
4.63179e-05
4.60953e-05
4.58984e-05
4.57093e-05
4.55205e-05
4.53315e-05
4.51471e-05
4.49754e-05
4.48274e-05
4.47172e-05
4.46644e-05
4.47012e-05
4.48937e-05
4.54319e-05
4.72573e-05
6.05931e-05
7.79968e-05
7.8e-05
7.8e-05
7.8e-05
7.8e-05
7.8e-05
7.8e-05
7.8e-05
7.8e-05
7.8e-05
7.8e-05
7.8e-05
7.8e-05
7.8e-05
7.8e-05
7.8e-05
7.8e-05
7.8e-05
7.8e-05
7.8e-05
7.8e-05
7.8e-05
7.8e-05
7.77125e-05
5.186e-05
4.65771e-05
4.54762e-05
4.51334e-05
4.50618e-05
4.51366e-05
4.53089e-05
4.55523e-05
4.58472e-05
4.61737e-05
4.65094e-05
4.68285e-05
4.71051e-05
4.73175e-05
4.74527e-05
4.75094e-05
4.74991e-05
4.74445e-05
4.73791e-05
4.73473e-05
4.74132e-05
4.76948e-05
4.85106e-05
5.13594e-05
7.38962e-05
7.8e-05
7.8e-05
7.8e-05
7.8e-05
7.43942e-05
5.0945e-05
4.78202e-05
4.68345e-05
4.63849e-05
4.61679e-05
4.60789e-05
4.6084e-05
4.61708e-05
4.63357e-05
4.65785e-05
4.69052e-05
4.72549e-05
4.74149e-05
4.71259e-05
4.67294e-05
4.6367e-05
4.60852e-05
4.58811e-05
4.57508e-05
4.56938e-05
4.57187e-05
4.5851e-05
4.61517e-05
4.68083e-05
4.8707e-05
6.01437e-05
7.79898e-05
7.8e-05
7.8e-05
7.79972e-05
6.3207e-05
4.94702e-05
4.72124e-05
4.63977e-05
4.60019e-05
4.58158e-05
4.57631e-05
4.58244e-05
4.60155e-05
4.64035e-05
4.71699e-05
4.91754e-05
6.03019e-05
7.79874e-05
7.8e-05
7.37162e-05
5.06515e-05
4.75804e-05
4.65324e-05
4.60001e-05
4.56712e-05
4.54386e-05
4.52552e-05
4.50981e-05
4.49564e-05
4.48263e-05
4.47094e-05
4.46111e-05
4.45406e-05
4.45131e-05
4.45541e-05
4.47137e-05
4.51127e-05
4.61942e-05
5.0881e-05
7.75871e-05
7.8e-05
7.8e-05
7.8e-05
7.8e-05
7.8e-05
7.8e-05
7.8e-05
7.8e-05
7.8e-05
7.8e-05
7.8e-05
7.8e-05
7.8e-05
7.8e-05
7.8e-05
7.8e-05
7.8e-05
7.8e-05
7.8e-05
7.8e-05
7.8e-05
7.8e-05
7.8e-05
7.8e-05
7.25306e-05
4.86658e-05
4.59608e-05
4.5227e-05
4.49672e-05
4.49077e-05
4.49596e-05
4.50818e-05
4.52495e-05
4.5444e-05
4.56482e-05
4.58458e-05
4.60214e-05
4.61635e-05
4.62656e-05
4.63288e-05
4.63626e-05
4.63848e-05
4.64236e-05
4.65218e-05
4.67552e-05
4.73079e-05
4.8978e-05
5.89961e-05
7.79759e-05
7.8e-05
7.8e-05
7.8e-05
7.8e-05
7.79999e-05
6.82423e-05
4.98099e-05
4.71687e-05
4.63189e-05
4.59493e-05
4.57783e-05
4.57479e-05
4.58394e-05
4.60557e-05
4.64115e-05
4.70199e-05
4.79426e-05
4.88114e-05
4.7626e-05
4.67855e-05
4.61904e-05
4.58114e-05
4.55728e-05
4.5448e-05
4.54267e-05
4.55226e-05
4.57855e-05
4.63396e-05
4.76856e-05
5.33332e-05
7.77494e-05
7.8e-05
7.8e-05
7.8e-05
7.8e-05
7.79682e-05
5.78243e-05
4.85473e-05
4.66606e-05
4.59629e-05
4.56776e-05
4.55944e-05
4.56747e-05
4.59475e-05
4.65772e-05
4.80808e-05
5.41215e-05
7.7796e-05
7.8e-05
7.8e-05
7.79933e-05
6.07953e-05
4.83939e-05
4.64005e-05
4.56597e-05
4.52565e-05
4.49969e-05
4.48116e-05
4.46699e-05
4.45568e-05
4.44665e-05
4.43988e-05
4.43587e-05
4.43566e-05
4.44115e-05
4.45641e-05
4.49098e-05
4.57443e-05
4.8702e-05
7.47348e-05
7.8e-05
7.8e-05
7.8e-05
7.8e-05
7.8e-05
7.8e-05
7.8e-05
7.8e-05
7.8e-05
7.8e-05
7.8e-05
7.8e-05
7.8e-05
7.8e-05
7.8e-05
7.8e-05
7.8e-05
7.8e-05
7.8e-05
7.8e-05
7.8e-05
7.8e-05
7.8e-05
7.8e-05
7.8e-05
7.79988e-05
6.26791e-05
4.76216e-05
4.56058e-05
4.50079e-05
4.47805e-05
4.47128e-05
4.47312e-05
4.48003e-05
4.48993e-05
4.50131e-05
4.51299e-05
4.52399e-05
4.53367e-05
4.54179e-05
4.54863e-05
4.55508e-05
4.56283e-05
4.57469e-05
4.59569e-05
4.63648e-05
4.72775e-05
5.02259e-05
7.36788e-05
7.8e-05
7.8e-05
7.8e-05
7.8e-05
7.8e-05
7.8e-05
7.79992e-05
6.50247e-05
4.93294e-05
4.68564e-05
4.61344e-05
4.57952e-05
4.57162e-05
4.58462e-05
4.62241e-05
4.68947e-05
4.87767e-05
5.34029e-05
6.40345e-05
5.1357e-05
4.82053e-05
4.65994e-05
4.59203e-05
4.55626e-05
4.54125e-05
4.54236e-05
4.56246e-05
4.61677e-05
4.7464e-05
5.16794e-05
7.725e-05
7.8e-05
7.8e-05
7.8e-05
7.8e-05
7.8e-05
7.8e-05
7.79384e-05
5.71404e-05
4.84571e-05
4.65167e-05
4.59828e-05
4.58229e-05
4.59591e-05
4.64483e-05
4.80446e-05
5.33895e-05
7.75947e-05
7.8e-05
7.8e-05
7.8e-05
7.8e-05
7.6776e-05
5.05097e-05
4.67362e-05
4.56031e-05
4.50615e-05
4.4745e-05
4.45391e-05
4.4398e-05
4.43005e-05
4.42382e-05
4.42105e-05
4.42242e-05
4.42951e-05
4.44538e-05
4.47836e-05
4.55584e-05
4.8215e-05
7.05486e-05
7.8e-05
7.8e-05
7.8e-05
7.8e-05
7.8e-05
7.8e-05
7.8e-05
7.8e-05
7.8e-05
7.8e-05
7.8e-05
7.8e-05
7.8e-05
7.8e-05
7.8e-05
7.8e-05
7.8e-05
7.8e-05
7.8e-05
7.8e-05
7.8e-05
7.8e-05
7.8e-05
7.8e-05
7.8e-05
7.8e-05
7.8e-05
7.79323e-05
5.42505e-05
4.66747e-05
4.52729e-05
4.4788e-05
4.4581e-05
4.44988e-05
4.4484e-05
4.4509e-05
4.45577e-05
4.46193e-05
4.46865e-05
4.4755e-05
4.48247e-05
4.48995e-05
4.49895e-05
4.51132e-05
4.53049e-05
4.56359e-05
4.6304e-05
4.82551e-05
6.13016e-05
7.79956e-05
7.8e-05
7.8e-05
7.8e-05
7.8e-05
7.8e-05
7.8e-05
7.8e-05
7.79992e-05
6.753e-05
4.96188e-05
4.74224e-05
4.63932e-05
4.62011e-05
4.6469e-05
4.76399e-05
4.96782e-05
6.52002e-05
7.77555e-05
7.79987e-05
7.72036e-05
6.01875e-05
4.90169e-05
4.68916e-05
4.60755e-05
4.5829e-05
4.58869e-05
4.63332e-05
4.81e-05
5.41724e-05
7.73784e-05
7.8e-05
7.8e-05
7.8e-05
7.8e-05
7.8e-05
7.8e-05
7.8e-05
7.8e-05
7.79662e-05
6.30808e-05
4.92244e-05
4.76551e-05
4.70646e-05
4.75244e-05
4.8972e-05
5.92131e-05
7.77747e-05
7.8e-05
7.8e-05
7.8e-05
7.8e-05
7.8e-05
7.8e-05
7.19411e-05
4.89413e-05
4.60618e-05
4.51412e-05
4.4695e-05
4.44364e-05
4.42782e-05
4.41853e-05
4.4145e-05
4.41567e-05
4.42339e-05
4.44107e-05
4.47485e-05
4.54951e-05
4.80706e-05
6.85461e-05
7.8e-05
7.8e-05
7.8e-05
7.8e-05
7.8e-05
7.8e-05
7.8e-05
7.8e-05
7.8e-05
7.8e-05
7.8e-05
7.8e-05
7.8e-05
7.8e-05
7.8e-05
7.8e-05
7.8e-05
7.8e-05
7.8e-05
7.8e-05
7.8e-05
7.8e-05
7.8e-05
7.8e-05
7.8e-05
7.8e-05
7.8e-05
7.8e-05
7.8e-05
7.72562e-05
4.9998e-05
4.6036e-05
4.50146e-05
4.45986e-05
4.43956e-05
4.42947e-05
4.4253e-05
4.42487e-05
4.4269e-05
4.43063e-05
4.43571e-05
4.44222e-05
4.45071e-05
4.46246e-05
4.47987e-05
4.5079e-05
4.55808e-05
4.66893e-05
5.06479e-05
7.70807e-05
7.8e-05
7.8e-05
7.8e-05
7.8e-05
7.8e-05
7.8e-05
7.8e-05
7.8e-05
7.8e-05
7.79999e-05
7.41614e-05
5.64912e-05
4.91288e-05
4.85544e-05
4.93654e-05
5.86811e-05
7.46891e-05
7.79995e-05
7.8e-05
7.8e-05
7.8e-05
7.79935e-05
7.13106e-05
5.23924e-05
4.84905e-05
4.78246e-05
4.806e-05
4.94311e-05
6.457e-05
7.78912e-05
7.8e-05
7.8e-05
7.8e-05
7.8e-05
7.8e-05
7.8e-05
7.8e-05
7.8e-05
7.8e-05
7.8e-05
7.79986e-05
7.33716e-05
6.038e-05
5.38623e-05
5.86668e-05
7.15015e-05
7.79901e-05
7.8e-05
7.8e-05
7.8e-05
7.8e-05
7.8e-05
7.8e-05
7.8e-05
7.79999e-05
6.7295e-05
4.83522e-05
4.57523e-05
4.49426e-05
4.4554e-05
4.43465e-05
4.42438e-05
4.42258e-05
4.42905e-05
4.4471e-05
4.48858e-05
4.57167e-05
4.82923e-05
6.99743e-05
7.8e-05
7.8e-05
7.8e-05
7.8e-05
7.8e-05
7.8e-05
7.8e-05
7.8e-05
7.8e-05
7.8e-05
7.8e-05
7.8e-05
7.8e-05
7.8e-05
7.8e-05
7.8e-05
7.8e-05
7.8e-05
7.8e-05
7.8e-05
7.8e-05
7.8e-05
7.8e-05
7.8e-05
7.8e-05
7.8e-05
7.8e-05
7.8e-05
7.8e-05
7.8e-05
7.8e-05
7.578e-05
4.89289e-05
4.57702e-05
4.48715e-05
4.44663e-05
4.42473e-05
4.41285e-05
4.40713e-05
4.40551e-05
4.40687e-05
4.41081e-05
4.41748e-05
4.42768e-05
4.44325e-05
4.46802e-05
4.51131e-05
4.60082e-05
4.8856e-05
7.22805e-05
7.8e-05
7.8e-05
7.8e-05
7.8e-05
7.8e-05
7.8e-05
7.8e-05
7.8e-05
7.8e-05
7.8e-05
7.8e-05
7.8e-05
7.79654e-05
7.43749e-05
7.08781e-05
7.53481e-05
7.79876e-05
7.8e-05
7.8e-05
7.8e-05
7.8e-05
7.8e-05
7.8e-05
7.8e-05
7.77512e-05
7.07253e-05
6.41451e-05
6.73329e-05
7.58971e-05
7.79995e-05
7.8e-05
7.8e-05
7.8e-05
7.8e-05
7.8e-05
7.8e-05
7.8e-05
7.8e-05
7.8e-05
7.8e-05
7.8e-05
7.8e-05
7.8e-05
7.79942e-05
7.78665e-05
7.79866e-05
7.8e-05
7.8e-05
7.8e-05
7.8e-05
7.8e-05
7.8e-05
7.8e-05
7.8e-05
7.8e-05
7.8e-05
7.79999e-05
6.76761e-05
4.84245e-05
4.59264e-05
4.51066e-05
4.47521e-05
4.46022e-05
4.46262e-05
4.48063e-05
4.52339e-05
4.67265e-05
5.01838e-05
7.43004e-05
7.8e-05
7.8e-05
7.8e-05
7.8e-05
7.8e-05
7.8e-05
7.8e-05
7.8e-05
7.8e-05
7.8e-05
7.8e-05
7.8e-05
7.8e-05
7.8e-05
7.8e-05
7.8e-05
7.8e-05
7.8e-05
7.8e-05
7.8e-05
7.8e-05
7.8e-05
7.8e-05
7.8e-05
7.8e-05
7.8e-05
7.8e-05
7.8e-05
7.8e-05
7.8e-05
7.8e-05
7.8e-05
7.8e-05
7.50229e-05
4.88459e-05
4.58163e-05
4.48655e-05
4.44046e-05
4.41619e-05
4.40347e-05
4.39772e-05
4.39676e-05
4.39996e-05
4.40757e-05
4.42083e-05
4.443e-05
4.48163e-05
4.56261e-05
4.81215e-05
6.63247e-05
7.79998e-05
7.8e-05
7.8e-05
7.8e-05
7.8e-05
7.8e-05
7.8e-05
7.8e-05
7.8e-05
7.8e-05
7.8e-05
7.8e-05
7.8e-05
7.8e-05
7.8e-05
7.8e-05
7.8e-05
7.8e-05
7.8e-05
7.8e-05
7.8e-05
7.8e-05
7.8e-05
7.8e-05
7.8e-05
7.8e-05
7.8e-05
7.79992e-05
7.79999e-05
7.8e-05
7.8e-05
7.8e-05
7.8e-05
7.8e-05
7.8e-05
7.8e-05
7.8e-05
7.8e-05
7.8e-05
7.8e-05
7.8e-05
7.8e-05
7.8e-05
7.8e-05
7.8e-05
7.8e-05
7.8e-05
7.8e-05
7.8e-05
7.8e-05
7.8e-05
7.8e-05
7.8e-05
7.8e-05
7.8e-05
7.8e-05
7.8e-05
7.8e-05
7.79999e-05
7.31352e-05
5.07272e-05
4.73502e-05
4.62557e-05
4.58152e-05
4.60596e-05
4.68169e-05
4.81766e-05
6.21932e-05
7.75685e-05
7.8e-05
7.8e-05
7.8e-05
7.8e-05
7.8e-05
7.8e-05
7.8e-05
7.8e-05
7.8e-05
7.8e-05
7.8e-05
7.8e-05
7.8e-05
7.8e-05
7.8e-05
7.8e-05
7.8e-05
7.8e-05
7.8e-05
7.8e-05
7.8e-05
7.8e-05
7.8e-05
7.8e-05
7.8e-05
7.8e-05
7.8e-05
7.8e-05
7.8e-05
7.8e-05
7.8e-05
7.8e-05
7.8e-05
7.8e-05
7.8e-05
7.61115e-05
5.01727e-05
4.63728e-05
4.49979e-05
4.44519e-05
4.4196e-05
4.40749e-05
4.40327e-05
4.40598e-05
4.41609e-05
4.43562e-05
4.47242e-05
4.5468e-05
4.78742e-05
6.41167e-05
7.79994e-05
7.8e-05
7.8e-05
7.8e-05
7.8e-05
7.8e-05
7.8e-05
7.8e-05
7.8e-05
7.8e-05
7.8e-05
7.8e-05
7.8e-05
7.8e-05
7.8e-05
7.8e-05
7.8e-05
7.8e-05
7.8e-05
7.8e-05
7.8e-05
7.8e-05
7.8e-05
7.8e-05
7.8e-05
7.8e-05
7.8e-05
7.8e-05
7.8e-05
7.8e-05
7.8e-05
7.8e-05
7.8e-05
7.8e-05
7.8e-05
7.8e-05
7.8e-05
7.8e-05
7.8e-05
7.8e-05
7.8e-05
7.8e-05
7.8e-05
7.8e-05
7.8e-05
7.8e-05
7.8e-05
7.8e-05
7.8e-05
7.8e-05
7.8e-05
7.8e-05
7.8e-05
7.8e-05
7.8e-05
7.8e-05
7.8e-05
7.8e-05
7.8e-05
7.8e-05
7.8e-05
7.76417e-05
6.7471e-05
5.57038e-05
5.16753e-05
5.45824e-05
6.38812e-05
7.50543e-05
7.79991e-05
7.8e-05
7.8e-05
7.8e-05
7.8e-05
7.8e-05
7.8e-05
7.8e-05
7.8e-05
7.8e-05
7.8e-05
7.8e-05
7.8e-05
7.8e-05
7.8e-05
7.8e-05
7.8e-05
7.8e-05
7.8e-05
7.8e-05
7.8e-05
7.8e-05
7.8e-05
7.8e-05
7.8e-05
7.8e-05
7.8e-05
7.8e-05
7.8e-05
7.8e-05
7.8e-05
7.8e-05
7.8e-05
7.8e-05
7.8e-05
7.8e-05
7.8e-05
7.8e-05
7.75551e-05
5.68571e-05
4.73457e-05
4.5396e-05
4.47734e-05
4.45052e-05
4.43842e-05
4.44071e-05
4.45855e-05
4.49499e-05
4.58344e-05
4.81955e-05
6.6935e-05
7.79995e-05
7.8e-05
7.8e-05
7.8e-05
7.8e-05
7.8e-05
7.8e-05
7.8e-05
7.8e-05
7.8e-05
7.8e-05
7.8e-05
7.8e-05
7.8e-05
7.8e-05
7.8e-05
7.8e-05
7.8e-05
7.8e-05
7.8e-05
7.8e-05
7.8e-05
7.8e-05
7.8e-05
7.8e-05
7.8e-05
7.8e-05
7.8e-05
7.8e-05
7.8e-05
7.8e-05
7.8e-05
7.8e-05
7.8e-05
7.8e-05
7.8e-05
7.8e-05
7.8e-05
7.8e-05
7.8e-05
7.8e-05
7.8e-05
7.8e-05
7.8e-05
7.8e-05
7.8e-05
7.8e-05
7.8e-05
7.8e-05
7.8e-05
7.8e-05
7.8e-05
7.8e-05
7.8e-05
7.8e-05
7.8e-05
7.8e-05
7.8e-05
7.8e-05
7.8e-05
7.8e-05
7.8e-05
7.8e-05
7.79999e-05
7.7971e-05
7.77934e-05
7.79535e-05
7.79995e-05
7.8e-05
7.8e-05
7.8e-05
7.8e-05
7.8e-05
7.8e-05
7.8e-05
7.8e-05
7.8e-05
7.8e-05
7.8e-05
7.8e-05
7.8e-05
7.8e-05
7.8e-05
7.8e-05
7.8e-05
7.8e-05
7.8e-05
7.8e-05
7.8e-05
7.8e-05
7.8e-05
7.8e-05
7.8e-05
7.8e-05
7.8e-05
7.8e-05
7.8e-05
7.8e-05
7.8e-05
7.8e-05
7.8e-05
7.8e-05
7.8e-05
7.8e-05
7.8e-05
7.8e-05
7.8e-05
7.8e-05
7.79875e-05
6.91731e-05
4.95556e-05
4.70404e-05
4.60996e-05
4.55521e-05
4.55602e-05
4.61736e-05
4.73173e-05
5.18921e-05
7.36189e-05
7.79999e-05
7.8e-05
7.8e-05
7.8e-05
7.8e-05
7.8e-05
7.8e-05
7.8e-05
7.8e-05
7.8e-05
7.8e-05
7.8e-05
7.8e-05
7.8e-05
7.8e-05
7.8e-05
7.8e-05
7.8e-05
7.8e-05
7.8e-05
7.8e-05
7.8e-05
7.8e-05
7.8e-05
7.8e-05
7.8e-05
7.8e-05
7.8e-05
7.8e-05
7.8e-05
7.8e-05
7.8e-05
7.8e-05
7.8e-05
7.8e-05
7.8e-05
7.8e-05
7.8e-05
7.8e-05
7.8e-05
7.8e-05
7.8e-05
7.8e-05
7.8e-05
7.8e-05
7.8e-05
7.8e-05
7.8e-05
7.8e-05
7.8e-05
7.8e-05
7.8e-05
7.8e-05
7.8e-05
7.8e-05
7.8e-05
7.8e-05
7.8e-05
7.8e-05
7.8e-05
7.8e-05
7.8e-05
7.8e-05
7.8e-05
7.8e-05
7.8e-05
7.8e-05
7.8e-05
7.8e-05
7.8e-05
7.8e-05
7.8e-05
7.8e-05
7.8e-05
7.8e-05
7.8e-05
7.8e-05
7.8e-05
7.8e-05
7.8e-05
7.8e-05
7.8e-05
7.8e-05
7.8e-05
7.8e-05
7.8e-05
7.8e-05
7.8e-05
7.8e-05
7.8e-05
7.8e-05
7.8e-05
7.8e-05
7.8e-05
7.8e-05
7.8e-05
7.8e-05
7.8e-05
7.8e-05
7.8e-05
7.8e-05
7.8e-05
7.8e-05
7.8e-05
7.8e-05
7.8e-05
7.8e-05
7.8e-05
7.8e-05
7.8e-05
7.8e-05
7.74358e-05
6.80708e-05
5.70135e-05
5.11917e-05
5.10333e-05
5.70193e-05
6.91648e-05
7.78486e-05
7.8e-05
7.8e-05
7.8e-05
7.8e-05
7.8e-05
7.8e-05
7.8e-05
7.8e-05
7.8e-05
7.8e-05
7.8e-05
7.8e-05
7.8e-05
7.8e-05
7.8e-05
7.8e-05
7.8e-05
7.8e-05
7.8e-05
7.8e-05
7.8e-05
7.8e-05
7.8e-05
7.8e-05
7.8e-05
7.8e-05
7.8e-05
7.8e-05
7.8e-05
7.8e-05
7.8e-05
7.8e-05
7.8e-05
7.8e-05
7.8e-05
7.8e-05
7.8e-05
7.8e-05
7.8e-05
7.8e-05
7.8e-05
7.8e-05
7.8e-05
7.8e-05
7.8e-05
7.8e-05
7.8e-05
7.8e-05
7.8e-05
7.8e-05
7.8e-05
7.8e-05
7.8e-05
7.8e-05
7.8e-05
7.8e-05
7.8e-05
7.8e-05
7.8e-05
7.8e-05
7.8e-05
7.8e-05
7.8e-05
7.8e-05
7.8e-05
7.8e-05
7.8e-05
7.8e-05
7.8e-05
7.8e-05
7.8e-05
7.8e-05
7.8e-05
7.8e-05
7.8e-05
7.8e-05
7.8e-05
7.8e-05
7.8e-05
7.8e-05
7.8e-05
7.8e-05
7.8e-05
7.8e-05
7.8e-05
7.8e-05
7.8e-05
7.8e-05
7.8e-05
7.8e-05
7.8e-05
7.8e-05
7.8e-05
7.8e-05
7.8e-05
7.8e-05
7.8e-05
7.8e-05
7.8e-05
7.8e-05
7.8e-05
7.8e-05
7.8e-05
7.8e-05
7.8e-05
7.8e-05
7.8e-05
7.8e-05
7.8e-05
7.8e-05
7.8e-05
7.8e-05
7.8e-05
7.8e-05
7.79871e-05
7.77728e-05
7.77467e-05
7.79865e-05
7.8e-05
7.8e-05
7.8e-05
7.8e-05
7.8e-05
7.8e-05
7.8e-05
7.8e-05
7.8e-05
7.8e-05
7.8e-05
7.8e-05
7.8e-05
7.8e-05
7.8e-05
7.8e-05
7.8e-05
7.8e-05
7.8e-05
7.8e-05
7.8e-05
7.8e-05
7.8e-05
7.8e-05
7.8e-05
7.8e-05
7.8e-05
7.8e-05
7.8e-05
7.8e-05
7.8e-05
7.8e-05
7.8e-05
7.8e-05
7.8e-05
7.8e-05
7.8e-05
7.8e-05
7.8e-05
7.8e-05
7.8e-05
7.8e-05
7.8e-05
7.8e-05
7.8e-05
7.8e-05
7.8e-05
7.8e-05
7.8e-05
7.8e-05
7.8e-05
7.8e-05
7.8e-05
7.8e-05
7.8e-05
7.8e-05
7.8e-05
7.8e-05
7.8e-05
7.8e-05
7.8e-05
7.8e-05
7.8e-05
7.8e-05
7.8e-05
7.8e-05
7.8e-05
7.8e-05
7.8e-05
7.8e-05
7.8e-05
7.8e-05
7.8e-05
7.8e-05
7.8e-05
7.8e-05
7.8e-05
7.8e-05
7.8e-05
7.8e-05
7.8e-05
7.8e-05
7.8e-05
7.8e-05
7.8e-05
7.8e-05
7.8e-05
7.8e-05
7.8e-05
7.8e-05
7.8e-05
7.8e-05
7.8e-05
7.8e-05
7.8e-05
7.8e-05
7.8e-05
7.8e-05
7.8e-05
7.8e-05
7.8e-05
7.8e-05
7.8e-05
7.8e-05
7.8e-05
7.8e-05
7.8e-05
7.8e-05
7.8e-05
7.8e-05
7.8e-05
7.8e-05
7.8e-05
7.8e-05
7.8e-05
7.8e-05
7.8e-05
7.8e-05
7.8e-05
7.8e-05
7.8e-05
7.8e-05
7.8e-05
7.8e-05
7.8e-05
7.8e-05
7.8e-05
7.8e-05
7.8e-05
7.8e-05
7.8e-05
7.8e-05
7.8e-05
7.8e-05
7.8e-05
7.8e-05
7.8e-05
7.8e-05
7.8e-05
7.8e-05
7.8e-05
7.8e-05
7.8e-05
7.8e-05
7.8e-05
7.8e-05
7.8e-05
7.8e-05
7.8e-05
7.8e-05
7.8e-05
7.8e-05
7.8e-05
7.8e-05
7.8e-05
7.8e-05
7.8e-05
7.8e-05
7.8e-05
7.8e-05
7.8e-05
7.8e-05
7.8e-05
7.8e-05
7.8e-05
7.8e-05
7.8e-05
7.8e-05
7.8e-05
7.8e-05
7.8e-05
7.8e-05
7.8e-05
7.8e-05
7.8e-05
7.8e-05
7.8e-05
7.8e-05
7.8e-05
7.8e-05
7.8e-05
7.8e-05
7.8e-05
7.8e-05
7.8e-05
7.8e-05
7.8e-05
7.8e-05
7.8e-05
7.8e-05
7.8e-05
7.8e-05
7.8e-05
7.8e-05
7.8e-05
7.8e-05
7.8e-05
7.8e-05
7.8e-05
7.8e-05
7.8e-05
7.8e-05
7.8e-05
7.8e-05
7.8e-05
7.8e-05
7.8e-05
7.8e-05
7.8e-05
7.8e-05
7.8e-05
7.8e-05
7.8e-05
7.8e-05
7.8e-05
7.8e-05
7.8e-05
7.8e-05
7.8e-05
7.8e-05
7.8e-05
7.8e-05
7.8e-05
7.8e-05
7.8e-05
7.8e-05
7.8e-05
7.8e-05
7.8e-05
7.8e-05
7.8e-05
7.8e-05
7.8e-05
7.8e-05
7.8e-05
7.8e-05
7.8e-05
7.8e-05
7.8e-05
7.8e-05
7.8e-05
7.8e-05
7.8e-05
7.8e-05
7.8e-05
7.8e-05
7.8e-05
7.8e-05
7.8e-05
7.8e-05
7.8e-05
7.8e-05
7.8e-05
7.8e-05
7.8e-05
7.8e-05
7.8e-05
7.8e-05
7.8e-05
7.8e-05
7.8e-05
7.8e-05
7.8e-05
7.8e-05
7.8e-05
7.8e-05
7.8e-05
7.8e-05
7.8e-05
7.8e-05
7.8e-05
7.8e-05
7.8e-05
7.8e-05
7.8e-05
7.8e-05
7.8e-05
7.8e-05
7.8e-05
7.8e-05
7.8e-05
7.8e-05
7.8e-05
7.8e-05
7.8e-05
7.8e-05
7.8e-05
7.8e-05
7.8e-05
7.8e-05
7.8e-05
7.8e-05
7.8e-05
7.8e-05
7.8e-05
7.8e-05
7.8e-05
7.8e-05
7.8e-05
7.8e-05
7.8e-05
7.8e-05
7.8e-05
7.8e-05
7.8e-05
7.8e-05
7.8e-05
7.8e-05
7.8e-05
7.8e-05
7.8e-05
7.8e-05
7.8e-05
7.8e-05
7.8e-05
7.8e-05
7.8e-05
7.8e-05
7.8e-05
7.8e-05
7.8e-05
7.8e-05
7.8e-05
7.8e-05
7.8e-05
7.8e-05
7.8e-05
7.8e-05
7.8e-05
7.8e-05
7.8e-05
7.8e-05
7.8e-05
7.8e-05
7.8e-05
7.8e-05
7.8e-05
7.8e-05
7.8e-05
7.8e-05
7.8e-05
7.8e-05
7.8e-05
7.8e-05
7.8e-05
7.8e-05
7.8e-05
7.8e-05
7.8e-05
7.8e-05
7.8e-05
7.8e-05
7.8e-05
7.8e-05
7.8e-05
7.8e-05
7.8e-05
7.8e-05
7.8e-05
7.8e-05
7.8e-05
7.8e-05
7.8e-05
7.8e-05
7.8e-05
7.8e-05
7.8e-05
7.8e-05
7.8e-05
7.8e-05
7.8e-05
7.8e-05
7.8e-05
7.8e-05
7.8e-05
7.8e-05
7.8e-05
7.8e-05
7.8e-05
7.8e-05
7.8e-05
7.8e-05
7.8e-05
7.8e-05
7.8e-05
7.8e-05
7.8e-05
7.8e-05
7.8e-05
7.8e-05
7.8e-05
7.8e-05
7.8e-05
7.8e-05
7.8e-05
7.8e-05
7.8e-05
7.8e-05
7.8e-05
7.8e-05
7.8e-05
7.8e-05
7.8e-05
7.8e-05
7.8e-05
7.8e-05
7.8e-05
7.8e-05
7.8e-05
7.8e-05
7.8e-05
7.8e-05
7.8e-05
7.8e-05
7.8e-05
7.8e-05
7.8e-05
7.8e-05
7.8e-05
7.8e-05
7.8e-05
7.8e-05
7.8e-05
7.8e-05
7.8e-05
7.8e-05
7.8e-05
7.8e-05
7.8e-05
7.8e-05
7.8e-05
7.8e-05
7.8e-05
7.8e-05
7.8e-05
7.8e-05
7.8e-05
7.8e-05
7.8e-05
7.8e-05
7.8e-05
7.8e-05
7.8e-05
7.8e-05
7.8e-05
7.8e-05
7.8e-05
7.8e-05
7.8e-05
7.8e-05
7.8e-05
7.8e-05
7.8e-05
7.8e-05
7.8e-05
7.8e-05
7.8e-05
7.8e-05
7.8e-05
7.8e-05
7.8e-05
7.8e-05
7.8e-05
7.8e-05
7.8e-05
7.8e-05
7.8e-05
7.8e-05
7.8e-05
7.8e-05
7.8e-05
7.8e-05
7.8e-05
7.8e-05
7.8e-05
7.8e-05
7.8e-05
7.8e-05
7.8e-05
7.8e-05
7.8e-05
7.8e-05
7.8e-05
7.8e-05
7.8e-05
7.8e-05
7.8e-05
7.8e-05
7.8e-05
7.8e-05
7.8e-05
7.8e-05
7.8e-05
7.8e-05
7.8e-05
7.8e-05
7.8e-05
7.8e-05
7.8e-05
7.8e-05
7.8e-05
7.8e-05
7.8e-05
7.8e-05
7.8e-05
7.8e-05
7.8e-05
7.8e-05
7.8e-05
7.8e-05
7.8e-05
7.8e-05
7.8e-05
7.8e-05
7.8e-05
7.8e-05
7.8e-05
7.8e-05
7.8e-05
7.8e-05
7.8e-05
7.8e-05
7.8e-05
7.8e-05
7.8e-05
7.8e-05
7.8e-05
7.8e-05
7.8e-05
7.8e-05
7.8e-05
7.8e-05
7.8e-05
7.8e-05
7.8e-05
7.8e-05
7.8e-05
7.8e-05
7.8e-05
7.8e-05
7.8e-05
7.8e-05
7.8e-05
7.8e-05
7.8e-05
7.8e-05
7.8e-05
7.8e-05
7.8e-05
7.8e-05
7.8e-05
7.8e-05
7.8e-05
7.8e-05
7.8e-05
7.8e-05
7.8e-05
7.8e-05
7.8e-05
7.8e-05
7.8e-05
7.8e-05
7.8e-05
7.8e-05
7.8e-05
7.8e-05
7.8e-05
7.8e-05
7.8e-05
7.8e-05
7.8e-05
7.8e-05
7.8e-05
7.8e-05
7.8e-05
7.8e-05
7.8e-05
7.8e-05
7.8e-05
7.8e-05
7.8e-05
7.8e-05
7.8e-05
7.8e-05
7.8e-05
7.8e-05
7.8e-05
7.8e-05
7.8e-05
7.8e-05
7.8e-05
7.8e-05
7.8e-05
7.8e-05
7.8e-05
7.8e-05
7.8e-05
7.8e-05
7.8e-05
7.8e-05
7.8e-05
7.8e-05
7.8e-05
7.8e-05
7.8e-05
7.8e-05
7.8e-05
7.8e-05
7.8e-05
7.8e-05
7.8e-05
7.8e-05
7.8e-05
7.8e-05
7.8e-05
7.8e-05
7.8e-05
7.8e-05
7.8e-05
7.8e-05
7.8e-05
7.8e-05
7.8e-05
7.8e-05
7.8e-05
7.8e-05
7.8e-05
7.8e-05
7.8e-05
7.8e-05
7.8e-05
7.8e-05
7.8e-05
7.8e-05
7.8e-05
7.8e-05
7.8e-05
7.8e-05
7.8e-05
7.8e-05
7.8e-05
7.8e-05
7.8e-05
7.8e-05
7.8e-05
7.8e-05
7.8e-05
7.8e-05
7.8e-05
7.8e-05
7.8e-05
7.8e-05
7.8e-05
7.8e-05
7.8e-05
7.8e-05
7.8e-05
7.8e-05
7.8e-05
7.8e-05
7.8e-05
7.8e-05
7.8e-05
7.8e-05
7.8e-05
7.8e-05
7.8e-05
7.8e-05
7.8e-05
7.8e-05
7.8e-05
7.8e-05
7.8e-05
7.8e-05
7.8e-05
7.8e-05
7.8e-05
7.8e-05
7.8e-05
7.8e-05
7.8e-05
7.8e-05
7.8e-05
7.8e-05
7.8e-05
7.8e-05
7.8e-05
7.8e-05
7.8e-05
7.8e-05
7.8e-05
7.8e-05
7.8e-05
7.8e-05
7.8e-05
7.8e-05
7.8e-05
7.8e-05
7.8e-05
7.8e-05
7.8e-05
7.8e-05
7.8e-05
7.8e-05
7.8e-05
7.8e-05
7.8e-05
7.8e-05
7.8e-05
7.8e-05
7.8e-05
7.8e-05
7.8e-05
7.8e-05
7.8e-05
7.8e-05
7.8e-05
7.8e-05
7.8e-05
7.8e-05
7.8e-05
7.8e-05
7.8e-05
7.8e-05
7.8e-05
7.8e-05
7.8e-05
7.8e-05
7.8e-05
7.8e-05
7.8e-05
7.8e-05
7.8e-05
7.8e-05
7.8e-05
7.8e-05
7.8e-05
7.8e-05
7.8e-05
7.8e-05
7.8e-05
7.8e-05
7.8e-05
7.8e-05
7.8e-05
7.8e-05
7.8e-05
7.8e-05
7.8e-05
7.8e-05
7.8e-05
7.8e-05
7.8e-05
7.8e-05
7.8e-05
7.8e-05
7.8e-05
7.8e-05
7.8e-05
7.8e-05
7.8e-05
7.8e-05
7.8e-05
7.8e-05
7.8e-05
7.8e-05
7.8e-05
7.8e-05
7.8e-05
7.8e-05
7.8e-05
7.8e-05
7.8e-05
7.8e-05
7.8e-05
7.8e-05
7.8e-05
7.8e-05
7.8e-05
7.8e-05
7.8e-05
7.8e-05
7.8e-05
7.8e-05
7.8e-05
7.8e-05
7.8e-05
7.8e-05
7.8e-05
7.8e-05
7.8e-05
7.8e-05
7.8e-05
7.8e-05
7.8e-05
7.8e-05
7.8e-05
7.8e-05
7.8e-05
7.8e-05
7.8e-05
7.8e-05
7.8e-05
7.8e-05
7.8e-05
7.8e-05
7.8e-05
7.8e-05
7.8e-05
7.8e-05
7.8e-05
7.8e-05
7.8e-05
7.8e-05
7.8e-05
7.8e-05
7.8e-05
7.8e-05
7.8e-05
7.8e-05
7.8e-05
7.8e-05
7.8e-05
7.8e-05
7.8e-05
7.8e-05
7.8e-05
7.8e-05
7.8e-05
7.8e-05
7.8e-05
7.8e-05
7.8e-05
7.8e-05
7.8e-05
7.8e-05
7.8e-05
7.8e-05
7.8e-05
7.8e-05
7.8e-05
7.8e-05
7.8e-05
7.8e-05
7.8e-05
7.8e-05
7.8e-05
7.8e-05
7.8e-05
7.8e-05
7.8e-05
7.8e-05
7.8e-05
7.8e-05
7.8e-05
7.8e-05
7.8e-05
7.8e-05
7.8e-05
7.8e-05
7.8e-05
7.8e-05
7.8e-05
7.8e-05
7.8e-05
7.8e-05
7.8e-05
7.8e-05
7.8e-05
7.8e-05
7.8e-05
7.8e-05
7.8e-05
7.8e-05
7.8e-05
7.8e-05
7.8e-05
7.8e-05
7.8e-05
7.8e-05
7.8e-05
7.8e-05
7.8e-05
7.8e-05
7.8e-05
7.8e-05
7.8e-05
7.8e-05
7.8e-05
7.8e-05
7.8e-05
7.8e-05
7.8e-05
7.8e-05
7.8e-05
7.8e-05
7.8e-05
7.8e-05
7.8e-05
7.8e-05
7.8e-05
7.8e-05
7.8e-05
7.8e-05
7.8e-05
7.8e-05
7.8e-05
7.8e-05
7.8e-05
7.8e-05
7.8e-05
7.8e-05
7.8e-05
7.8e-05
7.8e-05
7.8e-05
7.8e-05
7.8e-05
7.8e-05
7.8e-05
7.8e-05
7.8e-05
7.8e-05
7.8e-05
7.8e-05
7.8e-05
7.8e-05
7.8e-05
7.8e-05
7.8e-05
7.8e-05
7.8e-05
7.8e-05
7.8e-05
7.8e-05
7.8e-05
7.8e-05
7.8e-05
7.8e-05
7.8e-05
7.8e-05
7.8e-05
7.8e-05
7.8e-05
7.8e-05
7.8e-05
7.8e-05
7.8e-05
7.8e-05
7.8e-05
7.8e-05
7.8e-05
7.8e-05