/*--------------------------------*- C++ -*----------------------------------*\
| =========                 |                                                 |
| \\      /  F ield         | OpenFOAM: The Open Source CFD Toolbox           |
|  \\    /   O peration     | Version:  2406                                  |
|   \\  /    A nd           | Website:  www.openfoam.com                      |
|    \\/     M anipulation  |                                                 |
\*---------------------------------------------------------------------------*/
FoamFile
{
    version     2.0;
    format      ascii;
    arch        "LSB;label=32;scalar=64";
    class       volScalarField;
    location    "5.85";
    object      C_0_0;
}
// * * * * * * * * * * * * * * * * * * * * * * * * * * * * * * * * * * * * * //

dimensions      [1 -3 0 0 0 0 0];

internalField   nonuniform List<scalar> 
14400
(
0.274776
0.273018
0.270047
0.266586
0.263312
0.260764
0.259328
0.259247
0.260626
0.26344
0.267526
0.272563
0.278033
0.28318
0.286984
0.288262
0.286153
0.281609
0.275939
0.270299
0.265589
0.262491
0.261526
0.263114
0.267611
0.275342
0.286624
0.301778
0.321143
0.345078
0.373956
0.408142
0.447934
0.493405
0.543888
0.59588
0.633452
0.65829
0.679783
0.698489
0.714678
0.728558
0.740292
0.750009
0.757808
0.763766
0.767939
0.770369
0.77108
0.770085
0.767379
0.762949
0.756763
0.748777
0.738929
0.727138
0.7133
0.697282
0.678917
0.657993
0.634239
0.604912
0.561326
0.506606
0.455969
0.411094
0.372022
0.338456
0.310002
0.286255
0.266833
0.251395
0.23964
0.231315
0.226211
0.224163
0.225042
0.228755
0.235237
0.244439
0.256313
0.270795
0.28776
0.306967
0.327907
0.349256
0.365052
0.371466
0.37082
0.361358
0.346175
0.330324
0.315338
0.301882
0.290276
0.28065
0.273011
0.267263
0.263231
0.260663
0.259253
0.258669
0.258599
0.258818
0.259254
0.260025
0.261402
0.263738
0.267407
0.272763
0.280109
0.289684
0.301657
0.316114
0.333034
0.352237
0.373241
0.394702
0.410364
0.416651
0.284781
0.282468
0.278749
0.274577
0.270724
0.267757
0.266063
0.265882
0.267315
0.270343
0.274816
0.280432
0.286706
0.29289
0.297869
0.299994
0.297019
0.29123
0.284433
0.277895
0.272506
0.268911
0.267599
0.268965
0.27335
0.281067
0.292427
0.307745
0.327357
0.351619
0.380906
0.415586
0.455972
0.50217
0.553396
0.602859
0.637254
0.661429
0.68257
0.701007
0.716986
0.730703
0.74231
0.751927
0.759649
0.76555
0.769683
0.772087
0.772787
0.771794
0.769105
0.764704
0.758563
0.750639
0.740873
0.729186
0.71548
0.699629
0.681476
0.660822
0.637408
0.609753
0.568631
0.514411
0.463471
0.418086
0.378498
0.34446
0.315593
0.291495
0.271783
0.256114
0.244188
0.23575
0.230592
0.22855
0.229495
0.233338
0.240014
0.24948
0.261693
0.276593
0.294059
0.313838
0.335353
0.357029
0.372155
0.378001
0.377892
0.370225
0.355092
0.338649
0.323119
0.309228
0.297298
0.287461
0.279725
0.273996
0.270088
0.267734
0.266596
0.266289
0.266433
0.266732
0.267078
0.26763
0.268728
0.270793
0.274251
0.279485
0.286813
0.296483
0.308662
0.323433
0.340769
0.360467
0.381932
0.403311
0.417226
0.422516
0.305405
0.30169
0.296295
0.290632
0.285605
0.281801
0.279598
0.279218
0.280757
0.2842
0.289417
0.296151
0.303985
0.31225
0.31981
0.324441
0.318986
0.310434
0.301355
0.293064
0.286361
0.281803
0.279815
0.280749
0.284917
0.292612
0.30413
0.319778
0.339883
0.364795
0.394883
0.430505
0.471943
0.519209
0.571084
0.614915
0.644307
0.667591
0.688062
0.705981
0.721558
0.734958
0.746317
0.75574
0.763312
0.769101
0.773155
0.77551
0.776188
0.775199
0.772541
0.768199
0.762147
0.754344
0.744736
0.733253
0.719803
0.704278
0.686537
0.666411
0.643689
0.61807
0.581952
0.530304
0.478628
0.432168
0.391542
0.356566
0.326877
0.302078
0.281786
0.265656
0.253386
0.244723
0.239458
0.237427
0.238506
0.242607
0.249672
0.259663
0.272547
0.288273
0.306728
0.327645
0.350309
0.37217
0.385057
0.390239
0.390738
0.386068
0.372455
0.355163
0.338683
0.323975
0.311418
0.301169
0.293248
0.287565
0.283926
0.282035
0.281492
0.281807
0.282445
0.282937
0.283067
0.283112
0.283585
0.285059
0.288059
0.293028
0.300312
0.310164
0.322747
0.338133
0.356272
0.376922
0.399273
0.419073
0.429302
0.433564
0.337603
0.331027
0.322787
0.314808
0.308029
0.302996
0.300049
0.29938
0.301071
0.305105
0.311371
0.319655
0.329624
0.340717
0.351626
0.356608
0.351026
0.338693
0.32645
0.315734
0.307194
0.301271
0.298317
0.29863
0.302488
0.310162
0.321927
0.338075
0.358919
0.384797
0.416059
0.453028
0.495858
0.544007
0.593948
0.629458
0.654502
0.676567
0.696104
0.713298
0.728305
0.741256
0.752259
0.761403
0.76876
0.774387
0.778326
0.780609
0.781256
0.780274
0.777661
0.773405
0.767481
0.759853
0.750475
0.739284
0.726204
0.711141
0.693983
0.674595
0.652825
0.628501
0.598622
0.554042
0.501378
0.453427
0.411314
0.374964
0.344056
0.318209
0.297046
0.280224
0.26744
0.258439
0.253014
0.251002
0.252282
0.256771
0.264417
0.275188
0.289062
0.305995
0.325871
0.348387
0.372553
0.392674
0.402346
0.407138
0.408222
0.405757
0.3968
0.379585
0.362056
0.34624
0.332781
0.321932
0.313745
0.308153
0.304964
0.303847
0.304321
0.305747
0.307315
0.308215
0.30789
0.306986
0.306347
0.306811
0.309046
0.313573
0.320768
0.330881
0.344052
0.360313
0.379537
0.401268
0.423784
0.438538
0.445454
0.448872
0.378181
0.369622
0.357857
0.346991
0.338029
0.331449
0.327567
0.32654
0.328425
0.333197
0.340743
0.350833
0.363133
0.376805
0.387775
0.389541
0.386872
0.374357
0.359192
0.345798
0.335083
0.327486
0.323323
0.322854
0.326327
0.333991
0.346102
0.362927
0.384756
0.411902
0.444676
0.483354
0.527951
0.577005
0.617296
0.644541
0.66745
0.688072
0.70649
0.722802
0.737108
0.749501
0.76006
0.768853
0.775937
0.781359
0.785153
0.787345
0.787952
0.786979
0.784425
0.780278
0.774517
0.767114
0.758027
0.747205
0.734588
0.7201
0.703658
0.685163
0.664513
0.641599
0.616216
0.581142
0.530992
0.481923
0.438045
0.399931
0.367424
0.34019
0.317869
0.300122
0.28665
0.277198
0.27156
0.269576
0.271127
0.276134
0.284549
0.296347
0.31151
0.329986
0.351611
0.375841
0.400568
0.41586
0.423327
0.427745
0.429233
0.427934
0.423716
0.411506
0.393255
0.376152
0.36156
0.349947
0.341421
0.33598
0.333457
0.333501
0.33554
0.338791
0.341988
0.34379
0.342475
0.339919
0.337465
0.336375
0.337466
0.341339
0.348385
0.358828
0.372746
0.390089
0.410528
0.432965
0.450733
0.459629
0.464899
0.467599
0.416164
0.412072
0.400057
0.386763
0.375553
0.367243
0.36231
0.360884
0.363008
0.368635
0.377622
0.389552
0.403846
0.41802
0.42302
0.422919
0.4219
0.415332
0.399083
0.383231
0.370184
0.360691
0.355128
0.35374
0.356769
0.364451
0.377017
0.394706
0.417762
0.446444
0.480951
0.521358
0.566892
0.609614
0.638811
0.661675
0.682683
0.701783
0.71898
0.734311
0.747826
0.75958
0.769626
0.778012
0.784778
0.789959
0.793582
0.795668
0.796227
0.795265
0.792781
0.788764
0.783198
0.776058
0.767313
0.756923
0.744841
0.731014
0.715384
0.697888
0.678465
0.657068
0.63367
0.60689
0.567759
0.517961
0.472043
0.431818
0.397362
0.368414
0.34465
0.325748
0.311412
0.301394
0.29549
0.293543
0.295436
0.301091
0.310461
0.323521
0.340244
0.360547
0.384156
0.409994
0.430859
0.440839
0.447226
0.451284
0.45303
0.452597
0.450245
0.444579
0.431254
0.413604
0.39784
0.385386
0.376452
0.371221
0.369598
0.371245
0.375454
0.381475
0.387138
0.390876
0.387478
0.382436
0.377245
0.373998
0.373513
0.376507
0.383341
0.394179
0.408942
0.427385
0.448321
0.466775
0.476963
0.48281
0.486914
0.489026
0.45058
0.450261
0.445303
0.433137
0.420404
0.410351
0.404377
0.402557
0.404966
0.411508
0.422025
0.435348
0.449976
0.4566
0.457242
0.45721
0.456498
0.454794
0.445359
0.428039
0.412693
0.401169
0.394081
0.391666
0.394206
0.401944
0.415092
0.43384
0.458342
0.488779
0.525011
0.566381
0.608502
0.638037
0.660013
0.680663
0.699824
0.717397
0.733337
0.747635
0.760304
0.771368
0.780853
0.78879
0.795203
0.800117
0.80355
0.805515
0.806023
0.805075
0.802669
0.798799
0.793451
0.786607
0.778243
0.768331
0.756839
0.743733
0.728976
0.712538
0.694393
0.674537
0.652988
0.629811
0.601553
0.560261
0.513289
0.470933
0.434295
0.403347
0.37787
0.357582
0.342208
0.331505
0.325279
0.32338
0.325689
0.332122
0.342626
0.35716
0.375666
0.397924
0.423162
0.447678
0.460728
0.467952
0.473453
0.477134
0.479005
0.479178
0.477865
0.475373
0.46953
0.457483
0.441326
0.428267
0.418843
0.413871
0.413332
0.416999
0.423619
0.433007
0.439741
0.441848
0.440163
0.433791
0.425294
0.419606
0.417152
0.419099
0.425665
0.436947
0.452441
0.471277
0.487694
0.497614
0.503202
0.507733
0.510921
0.512565
0.485296
0.485197
0.485035
0.480714
0.471464
0.460247
0.45362
0.451451
0.45418
0.461436
0.473132
0.484621
0.490741
0.49161
0.492066
0.492183
0.491891
0.491162
0.488829
0.478981
0.462516
0.449094
0.440532
0.437004
0.439026
0.446875
0.46074
0.480746
0.506816
0.539088
0.576254
0.614512
0.642402
0.662876
0.68252
0.701139
0.718554
0.734643
0.749335
0.762588
0.774388
0.784733
0.79363
0.80109
0.807128
0.811756
0.814984
0.816822
0.817274
0.816341
0.814023
0.810313
0.805201
0.798676
0.790721
0.78132
0.770452
0.7581
0.74425
0.728893
0.712034
0.693697
0.673935
0.652843
0.630571
0.601948
0.560829
0.517405
0.478641
0.445489
0.418062
0.396176
0.37959
0.36808
0.361473
0.359632
0.362433
0.369772
0.381574
0.397749
0.418194
0.442355
0.467989
0.483252
0.490706
0.496782
0.501499
0.504795
0.506679
0.507245
0.506663
0.505181
0.503114
0.49864
0.489907
0.477822
0.468027
0.463441
0.463877
0.4696
0.476815
0.481478
0.483702
0.483886
0.484353
0.482667
0.478607
0.472071
0.467675
0.4687
0.47487
0.486358
0.501392
0.513483
0.5214
0.526193
0.530494
0.533999
0.536471
0.537749
0.520112
0.520163
0.52033
0.520762
0.518705
0.514093
0.508621
0.506189
0.509231
0.515851
0.522024
0.525842
0.52626
0.526759
0.527228
0.527564
0.527721
0.52771
0.527611
0.525844
0.518044
0.504053
0.494687
0.489969
0.491491
0.499516
0.514201
0.535649
0.562931
0.596202
0.627559
0.651855
0.670337
0.688483
0.706052
0.722819
0.738608
0.753288
0.76677
0.778996
0.789927
0.799546
0.807842
0.814814
0.820463
0.824794
0.827809
0.829514
0.829908
0.828994
0.826768
0.823227
0.818365
0.812174
0.804647
0.795774
0.785549
0.773967
0.761031
0.746751
0.731153
0.714283
0.696213
0.677051
0.656952
0.636103
0.608698
0.570447
0.530617
0.495271
0.465757
0.442105
0.424156
0.411709
0.404652
0.402884
0.406256
0.414609
0.427832
0.445661
0.467932
0.492771
0.508417
0.515921
0.521925
0.526972
0.530968
0.533866
0.535672
0.53646
0.536362
0.535573
0.534342
0.532976
0.530839
0.52616
0.521059
0.517729
0.517692
0.519276
0.520736
0.520252
0.519565
0.519623
0.520369
0.521895
0.523069
0.522427
0.521903
0.52327
0.528388
0.535813
0.543019
0.547868
0.551585
0.555261
0.558581
0.561297
0.563217
0.564209
0.554878
0.555012
0.55533
0.555936
0.556993
0.557773
0.556974
0.556733
0.55819
0.560353
0.561157
0.561105
0.561423
0.561936
0.562525
0.563124
0.563718
0.564344
0.565101
0.566165
0.566454
0.5626
0.555756
0.549979
0.551379
0.559662
0.574931
0.597665
0.623668
0.646972
0.666069
0.682227
0.698527
0.714666
0.730387
0.745478
0.75977
0.773131
0.785463
0.796696
0.80678
0.815681
0.823379
0.82986
0.835117
0.839146
0.841946
0.843515
0.843853
0.842958
0.840828
0.837462
0.832857
0.827009
0.819917
0.811581
0.802002
0.791188
0.779154
0.765926
0.751544
0.736067
0.719581
0.702199
0.684072
0.665385
0.646352
0.621847
0.589066
0.552651
0.521291
0.495864
0.476477
0.462949
0.455353
0.45368
0.457709
0.46711
0.481772
0.500642
0.523139
0.537128
0.543943
0.549299
0.554101
0.558211
0.561536
0.564027
0.565685
0.56656
0.566752
0.566406
0.565706
0.564864
0.564106
0.563665
0.562621
0.561038
0.559792
0.558002
0.556145
0.555044
0.554549
0.554672
0.555413
0.556807
0.558877
0.561816
0.564651
0.56724
0.570566
0.573727
0.576114
0.578874
0.58181
0.584683
0.587273
0.589391
0.590888
0.591663
0.58951
0.589677
0.59004
0.590652
0.591568
0.592788
0.594288
0.595458
0.595806
0.595673
0.595698
0.59593
0.596393
0.597036
0.59781
0.59869
0.599684
0.600848
0.602284
0.604161
0.606722
0.610024
0.611096
0.612441
0.616395
0.625
0.638597
0.654655
0.670535
0.684389
0.698145
0.712414
0.726878
0.741268
0.755351
0.768936
0.781863
0.794003
0.805256
0.815546
0.824814
0.83302
0.840132
0.84613
0.850999
0.854729
0.857313
0.858748
0.859029
0.858156
0.856125
0.852937
0.848591
0.843089
0.836433
0.82863
0.81969
0.809629
0.798473
0.786256
0.77303
0.758862
0.743844
0.728091
0.71175
0.694999
0.678049
0.661145
0.641033
0.615197
0.584014
0.557506
0.5369
0.522119
0.513853
0.512318
0.517099
0.527231
0.542815
0.559312
0.56997
0.574953
0.579165
0.583233
0.586969
0.590235
0.592937
0.595022
0.59648
0.597343
0.597679
0.597593
0.59721
0.59667
0.596098
0.595564
0.594943
0.594065
0.592678
0.591243
0.59002
0.58923
0.588914
0.589101
0.589806
0.591042
0.592815
0.595117
0.597762
0.600519
0.602895
0.605116
0.607355
0.609706
0.612096
0.614389
0.616438
0.618106
0.619283
0.619892
0.623974
0.624146
0.624503
0.625064
0.625838
0.626796
0.627846
0.628742
0.629309
0.629659
0.630031
0.630524
0.631182
0.632006
0.63299
0.63414
0.635482
0.637078
0.639026
0.641472
0.644612
0.648696
0.654092
0.660496
0.66714
0.675505
0.685391
0.695367
0.705893
0.717444
0.729702
0.742405
0.755305
0.768174
0.780814
0.793052
0.804742
0.815761
0.826012
0.835416
0.843912
0.851451
0.857999
0.863528
0.868019
0.871456
0.87383
0.875134
0.875361
0.874511
0.87258
0.86957
0.865482
0.860321
0.854096
0.846816
0.838498
0.829166
0.818851
0.807596
0.795457
0.782508
0.768841
0.754572
0.73984
0.724813
0.709689
0.694699
0.680117
0.664942
0.646064
0.624847
0.604444
0.588453
0.579444
0.577993
0.583392
0.592308
0.600499
0.606482
0.608872
0.611578
0.61453
0.617499
0.620308
0.622824
0.624954
0.626643
0.627871
0.628652
0.629031
0.629075
0.628871
0.628506
0.628054
0.627546
0.626943
0.626184
0.625236
0.624273
0.623462
0.62294
0.622778
0.623013
0.623666
0.624741
0.626225
0.628072
0.630167
0.632353
0.63445
0.636475
0.638483
0.640498
0.642478
0.64434
0.645983
0.647312
0.648246
0.648728
0.658267
0.65843
0.658761
0.659262
0.659923
0.660712
0.661558
0.662352
0.663027
0.663624
0.664241
0.664953
0.665804
0.666816
0.668006
0.669397
0.671026
0.672955
0.675271
0.67809
0.681558
0.685837
0.69108
0.697293
0.704437
0.712193
0.720503
0.729559
0.739323
0.749792
0.760813
0.7722
0.783761
0.795311
0.80668
0.817717
0.82829
0.838288
0.847615
0.856195
0.863965
0.870875
0.876885
0.881965
0.886092
0.889247
0.891418
0.892595
0.892772
0.891945
0.890114
0.887279
0.883446
0.87862
0.872812
0.866039
0.858321
0.849685
0.840169
0.829819
0.818695
0.806872
0.794441
0.781514
0.768223
0.754723
0.741195
0.727844
0.714907
0.702649
0.691355
0.678999
0.666262
0.655085
0.647275
0.643615
0.643407
0.644793
0.6453
0.645373
0.646374
0.647959
0.649877
0.651924
0.653939
0.655798
0.657413
0.658725
0.659708
0.660364
0.660715
0.660807
0.660693
0.660431
0.660066
0.659623
0.6591
0.65849
0.657811
0.657151
0.656614
0.656291
0.656244
0.656508
0.657104
0.658031
0.659271
0.66078
0.662481
0.664276
0.666075
0.667852
0.669605
0.671326
0.67298
0.674508
0.675842
0.676912
0.677662
0.678047
0.692395
0.692547
0.69285
0.693299
0.693882
0.694571
0.695321
0.696082
0.696825
0.697567
0.698357
0.699244
0.700264
0.701447
0.702821
0.704415
0.706271
0.708445
0.711011
0.714059
0.717692
0.722013
0.7271
0.732967
0.739575
0.746809
0.754623
0.763044
0.772048
0.781588
0.791559
0.801822
0.812228
0.822627
0.832877
0.842845
0.852415
0.861485
0.869966
0.877785
0.884879
0.891198
0.896702
0.901356
0.905136
0.908022
0.909999
0.911056
0.911186
0.910384
0.908651
0.905988
0.902401
0.897899
0.892495
0.886207
0.87906
0.871085
0.86232
0.852816
0.842632
0.831843
0.820538
0.808821
0.796816
0.784663
0.772523
0.760575
0.749016
0.738056
0.727907
0.718745
0.710824
0.70385
0.697753
0.692732
0.688584
0.685507
0.683819
0.683151
0.683292
0.684008
0.685095
0.686382
0.687727
0.689018
0.690173
0.691136
0.691874
0.692378
0.69266
0.692744
0.692664
0.692457
0.692155
0.69178
0.691345
0.690864
0.690366
0.689906
0.689553
0.689367
0.689397
0.689673
0.69021
0.691007
0.692048
0.693297
0.6947
0.696195
0.697724
0.699252
0.700759
0.702222
0.703607
0.704871
0.705963
0.706834
0.707441
0.707752
0.726372
0.726513
0.726792
0.727203
0.727735
0.728367
0.729074
0.72983
0.730623
0.731463
0.732378
0.7334
0.734561
0.735889
0.737415
0.739171
0.741198
0.743544
0.74627
0.749444
0.753139
0.757422
0.762339
0.767902
0.774087
0.780844
0.788136
0.795946
0.804237
0.812954
0.822011
0.831301
0.840703
0.850094
0.859354
0.868371
0.87704
0.88527
0.892979
0.900098
0.906567
0.912337
0.917366
0.921621
0.925075
0.927707
0.929501
0.930444
0.930531
0.929756
0.928118
0.925621
0.922272
0.91808
0.913061
0.907236
0.900629
0.893274
0.885211
0.876491
0.867174
0.85733
0.847045
0.836416
0.825556
0.81459
0.803659
0.792917
0.782526
0.772653
0.763458
0.755077
0.747617
0.741041
0.735323
0.730433
0.726427
0.723371
0.721315
0.720122
0.719634
0.719684
0.720113
0.720781
0.721567
0.722374
0.723126
0.72377
0.724272
0.724616
0.724803
0.724845
0.724762
0.724579
0.724317
0.723997
0.723636
0.723255
0.722881
0.722555
0.722323
0.722227
0.722304
0.722576
0.723055
0.72374
0.724617
0.725659
0.726828
0.728079
0.729372
0.730674
0.731956
0.733194
0.734356
0.735406
0.736306
0.73702
0.737515
0.737768
0.760209
0.760341
0.760602
0.760987
0.761487
0.762089
0.762778
0.763541
0.764374
0.765284
0.766291
0.767417
0.768689
0.770134
0.771779
0.773657
0.775804
0.778262
0.78108
0.784308
0.787999
0.792197
0.796932
0.802213
0.808026
0.814343
0.821133
0.828365
0.835999
0.843979
0.852231
0.860667
0.869188
0.877692
0.886076
0.894244
0.902105
0.909576
0.916583
0.923062
0.928956
0.934217
0.938805
0.942687
0.945836
0.948229
0.949852
0.95069
0.950737
0.949989
0.948444
0.946107
0.942984
0.939088
0.934434
0.929044
0.922945
0.91617
0.90876
0.900765
0.892242
0.883259
0.873896
0.864243
0.854401
0.844481
0.834607
0.824908
0.815519
0.806573
0.798195
0.790488
0.783525
0.777323
0.771884
0.767209
0.763319
0.760235
0.75795
0.756387
0.755438
0.754981
0.754893
0.755062
0.755387
0.755785
0.756188
0.756547
0.756828
0.757012
0.757091
0.757071
0.756962
0.756778
0.756536
0.756254
0.755948
0.755639
0.75535
0.755111
0.754956
0.754916
0.755015
0.755272
0.755694
0.756282
0.757022
0.757895
0.758873
0.759922
0.761013
0.762114
0.763199
0.764243
0.765216
0.766091
0.766836
0.767424
0.76783
0.768038
0.793913
0.794039
0.794288
0.794656
0.795138
0.795724
0.796407
0.797182
0.798046
0.799009
0.800084
0.801289
0.802645
0.804178
0.805911
0.807874
0.810099
0.812621
0.815478
0.818709
0.822351
0.826435
0.83098
0.835992
0.841462
0.84737
0.853688
0.860383
0.867415
0.874732
0.882268
0.889948
0.89769
0.905408
0.913014
0.920424
0.927559
0.934345
0.940715
0.94661
0.951976
0.956769
0.96095
0.964486
0.967351
0.969523
0.970986
0.971728
0.97174
0.971018
0.969563
0.967378
0.964471
0.960854
0.956544
0.951563
0.945937
0.939702
0.932895
0.925566
0.917769
0.909569
0.901038
0.892259
0.883323
0.874327
0.865379
0.856588
0.848067
0.839924
0.832259
0.825155
0.818672
0.812842
0.807681
0.803199
0.799404
0.796299
0.793862
0.792039
0.790751
0.789909
0.789417
0.789186
0.789134
0.789189
0.789294
0.789402
0.789481
0.789511
0.78948
0.789386
0.789235
0.789035
0.788797
0.788535
0.788264
0.788002
0.787767
0.787584
0.787475
0.787464
0.787569
0.787802
0.788169
0.78867
0.789294
0.790026
0.790845
0.791725
0.792642
0.79357
0.794484
0.795361
0.796176
0.796905
0.797523
0.798009
0.798344
0.798515
0.827492
0.827613
0.827854
0.828212
0.828683
0.829262
0.829946
0.830731
0.831622
0.832623
0.833747
0.835008
0.836426
0.83802
0.839813
0.84183
0.844098
0.846646
0.849503
0.852699
0.856261
0.860211
0.864561
0.869313
0.874461
0.879986
0.885864
0.892065
0.898548
0.905265
0.91216
0.919168
0.926217
0.933236
0.940147
0.94688
0.953363
0.959531
0.965323
0.970686
0.97557
0.979933
0.983739
0.986956
0.989559
0.991527
0.992842
0.993494
0.993475
0.992781
0.991411
0.98937
0.986667
0.983313
0.979325
0.974725
0.96954
0.963803
0.957553
0.950834
0.943699
0.936209
0.928429
0.920433
0.912303
0.904126
0.895993
0.887999
0.880238
0.872798
0.865763
0.859202
0.853166
0.847691
0.842799
0.8385
0.834801
0.831695
0.82916
0.827154
0.825619
0.824485
0.82368
0.823132
0.822773
0.822545
0.822396
0.822286
0.822184
0.82207
0.82193
0.821759
0.821557
0.821328
0.821081
0.820825
0.820572
0.820336
0.820134
0.819981
0.819897
0.819896
0.819994
0.820197
0.820511
0.820934
0.821458
0.822071
0.822755
0.823492
0.82426
0.825039
0.825806
0.82654
0.827222
0.827829
0.828343
0.828745
0.829023
0.829164
0.86095
0.861068
0.861304
0.861655
0.86212
0.862696
0.863381
0.864177
0.865086
0.866114
0.867272
0.868572
0.87003
0.871663
0.873491
0.875535
0.877817
0.88036
0.883188
0.886323
0.889784
0.893587
0.897738
0.902239
0.907081
0.912249
0.917719
0.923464
0.929445
0.935621
0.941939
0.948345
0.954776
0.961169
0.96746
0.973585
0.979482
0.985092
0.990361
0.99524
0.999685
1.00366
1.00712
1.01004
1.0124
1.01418
1.01536
1.01593
1.01589
1.01522
1.01393
1.01203
1.00951
1.0064
1.00272
0.998472
0.993695
0.988418
0.982678
0.976518
0.969986
0.963138
0.956034
0.948741
0.941331
0.933881
0.92647
0.919178
0.912086
0.905268
0.898794
0.892722
0.887099
0.881958
0.877322
0.873203
0.869605
0.866521
0.86393
0.861799
0.860085
0.858733
0.857687
0.856888
0.856283
0.85582
0.855459
0.855161
0.8549
0.854655
0.854412
0.854163
0.853906
0.853641
0.853374
0.853112
0.852863
0.852638
0.85245
0.852311
0.852234
0.852231
0.852312
0.852482
0.852745
0.853097
0.853533
0.854043
0.854613
0.855228
0.855869
0.856519
0.85716
0.857774
0.858342
0.858847
0.859274
0.859607
0.859837
0.859953
0.894289
0.894406
0.894638
0.894985
0.895446
0.89602
0.896707
0.897509
0.89843
0.899476
0.900655
0.901978
0.903458
0.905111
0.906953
0.909001
0.911274
0.913789
0.916566
0.919621
0.922967
0.926614
0.930567
0.934823
0.939376
0.944208
0.949301
0.954626
0.960149
0.965833
0.971632
0.977496
0.983372
0.989206
0.99494
1.00052
1.00589
1.01099
1.01579
1.02023
1.02427
1.02789
1.03103
1.03369
1.03583
1.03743
1.03849
1.03899
1.03892
1.03828
1.03707
1.03529
1.03296
1.03008
1.02667
1.02275
1.01835
1.0135
1.00822
1.00257
0.99659
0.990323
0.983828
0.977166
0.970399
0.963597
0.956826
0.950158
0.943659
0.937394
0.931422
0.925793
0.920549
0.91572
0.911328
0.907386
0.903896
0.900852
0.898238
0.896029
0.894188
0.892676
0.891445
0.890451
0.889648
0.888996
0.888457
0.888
0.8876
0.887238
0.886899
0.886575
0.886261
0.885956
0.885663
0.885385
0.885129
0.884904
0.884717
0.884578
0.884498
0.884483
0.884541
0.884676
0.884888
0.885176
0.885535
0.885956
0.886427
0.886936
0.887468
0.888009
0.888542
0.889052
0.889524
0.889944
0.890297
0.890574
0.890763
0.89086
0.927513
0.927627
0.927857
0.9282
0.928658
0.92923
0.929918
0.930723
0.93165
0.932704
0.933893
0.935226
0.936715
0.938371
0.940209
0.942244
0.944488
0.946958
0.949667
0.952627
0.955847
0.959335
0.963091
0.967112
0.971389
0.975909
0.98065
0.985588
0.990694
0.99593
1.00126
1.00663
1.01201
1.01734
1.02257
1.02766
1.03255
1.03721
1.04157
1.04562
1.0493
1.05258
1.05544
1.05785
1.05979
1.06124
1.06218
1.06261
1.06252
1.06191
1.06077
1.05911
1.05694
1.05428
1.05113
1.04751
1.04346
1.03899
1.03415
1.02896
1.02348
1.01774
1.01179
1.00569
0.999504
0.99328
0.987081
0.980967
0.974998
0.969227
0.963707
0.95848
0.953584
0.949046
0.944885
0.941115
0.937739
0.934753
0.932143
0.929889
0.927964
0.926336
0.924967
0.923822
0.922864
0.922058
0.921373
0.920782
0.920263
0.919797
0.919372
0.918977
0.918607
0.91826
0.917935
0.917636
0.917366
0.91713
0.916935
0.916788
0.916695
0.916662
0.916693
0.916791
0.916956
0.917185
0.917475
0.917817
0.918203
0.918621
0.91906
0.919506
0.919947
0.920369
0.920759
0.921106
0.921398
0.921627
0.921783
0.921863
0.960621
0.960734
0.960961
0.961302
0.961756
0.962325
0.963011
0.963815
0.964742
0.965797
0.966987
0.968319
0.969803
0.97145
0.97327
0.975275
0.977477
0.979887
0.982516
0.985372
0.988461
0.991788
0.99535
0.999145
1.00316
1.00739
1.0118
1.01638
1.02111
1.02594
1.03084
1.03577
1.0407
1.04557
1.05036
1.055
1.05946
1.0637
1.06768
1.07136
1.07471
1.0777
1.0803
1.08248
1.08424
1.08554
1.08638
1.08675
1.08665
1.08606
1.08499
1.08344
1.08143
1.07896
1.07605
1.07271
1.06898
1.06487
1.06041
1.05565
1.05062
1.04535
1.0399
1.03432
1.02864
1.02294
1.01725
1.01163
1.00614
1.00081
0.995699
0.990838
0.98626
0.981993
0.978052
0.974451
0.971194
0.968277
0.965691
0.96342
0.961444
0.959735
0.958266
0.957007
0.955927
0.954998
0.954195
0.953493
0.952872
0.952317
0.951814
0.951354
0.950931
0.950541
0.950183
0.949858
0.949567
0.949315
0.949106
0.948943
0.948832
0.948776
0.948778
0.948839
0.948959
0.949134
0.949362
0.949635
0.949946
0.950285
0.950643
0.951008
0.95137
0.951717
0.952038
0.952323
0.952563
0.952751
0.95288
0.952945
0.993616
0.993728
0.993952
0.994289
0.99474
0.995304
0.995985
0.996785
0.997707
0.998756
0.999938
1.00126
1.00273
1.00435
1.00614
1.00811
1.01026
1.0126
1.01514
1.01788
1.02084
1.024
1.02738
1.03095
1.03472
1.03867
1.04279
1.04704
1.05141
1.05587
1.06038
1.06492
1.06944
1.0739
1.07827
1.08252
1.08659
1.09046
1.09409
1.09744
1.10049
1.10321
1.10557
1.10755
1.10914
1.11031
1.11106
1.11138
1.11125
1.11069
1.10968
1.10824
1.10637
1.10409
1.10139
1.09832
1.09487
1.09109
1.08699
1.08261
1.07799
1.07315
1.06815
1.06303
1.05782
1.05258
1.04735
1.04218
1.03711
1.03218
1.02744
1.02291
1.01863
1.01461
1.01088
1.00744
1.00431
1.00147
0.998924
0.996658
0.994655
0.992895
0.991356
0.990012
0.988839
0.987814
0.986915
0.986121
0.985416
0.984783
0.984212
0.983694
0.983221
0.98279
0.982398
0.982044
0.981731
0.981458
0.98123
0.981047
0.980914
0.980833
0.980804
0.980829
0.980905
0.981032
0.981203
0.981415
0.981661
0.981932
0.982219
0.982514
0.982808
0.98309
0.983352
0.983585
0.983781
0.983935
0.98404
0.984094
1.0265
1.02661
1.02683
1.02716
1.02761
1.02817
1.02884
1.02963
1.03054
1.03158
1.03275
1.03405
1.0355
1.03709
1.03885
1.04076
1.04285
1.04511
1.04755
1.05019
1.05301
1.05601
1.0592
1.06257
1.06611
1.0698
1.07363
1.07758
1.08163
1.08575
1.08991
1.09408
1.09823
1.10232
1.10632
1.1102
1.11393
1.11746
1.12077
1.12382
1.1266
1.12907
1.13122
1.13302
1.13445
1.1355
1.13617
1.13644
1.1363
1.13576
1.13482
1.13347
1.13173
1.12961
1.12713
1.12428
1.12111
1.11762
1.11385
1.10982
1.10557
1.10112
1.09653
1.09181
1.08703
1.0822
1.07739
1.07262
1.06793
1.06337
1.05896
1.05474
1.05073
1.04695
1.04341
1.04014
1.03712
1.03437
1.03188
1.02963
1.02762
1.02584
1.02425
1.02285
1.0216
1.0205
1.01953
1.01866
1.01789
1.01719
1.01656
1.01599
1.01547
1.015
1.01457
1.01419
1.01385
1.01356
1.01331
1.0131
1.01295
1.01284
1.01278
1.01277
1.0128
1.01288
1.013
1.01316
1.01335
1.01356
1.01379
1.01402
1.01426
1.01448
1.01469
1.01488
1.01504
1.01517
1.01525
1.0153
1.05927
1.05938
1.0596
1.05993
1.06036
1.06091
1.06158
1.06236
1.06326
1.06428
1.06542
1.0667
1.06812
1.06968
1.07138
1.07324
1.07526
1.07744
1.07979
1.0823
1.08498
1.08784
1.09085
1.09402
1.09734
1.10079
1.10436
1.10803
1.11178
1.11558
1.11942
1.12326
1.12707
1.13083
1.1345
1.13805
1.14145
1.14468
1.1477
1.15049
1.15302
1.15527
1.15721
1.15884
1.16014
1.16108
1.16167
1.1619
1.16175
1.16124
1.16035
1.15909
1.15748
1.15551
1.15321
1.15058
1.14765
1.14444
1.14096
1.13725
1.13334
1.12925
1.12502
1.12068
1.11627
1.11182
1.10738
1.10297
1.09864
1.0944
1.0903
1.08636
1.0826
1.07903
1.07569
1.07257
1.06967
1.06701
1.06458
1.06237
1.06037
1.05857
1.05696
1.05552
1.05423
1.05307
1.05204
1.05111
1.05028
1.04953
1.04885
1.04823
1.04767
1.04716
1.04671
1.0463
1.04593
1.04561
1.04534
1.04511
1.04493
1.04479
1.0447
1.04466
1.04465
1.04469
1.04477
1.04488
1.04502
1.04517
1.04535
1.04553
1.04571
1.04589
1.04606
1.04621
1.04634
1.04644
1.04651
1.04654
1.09193
1.09204
1.09226
1.09258
1.09301
1.09355
1.0942
1.09496
1.09585
1.09685
1.09797
1.09922
1.1006
1.10211
1.10377
1.10556
1.10751
1.1096
1.11185
1.11425
1.1168
1.1195
1.12234
1.12532
1.12843
1.13165
1.13498
1.13839
1.14187
1.14539
1.14893
1.15247
1.15597
1.15942
1.16279
1.16604
1.16916
1.17211
1.17486
1.17741
1.17971
1.18176
1.18353
1.18501
1.18617
1.18702
1.18755
1.18773
1.18758
1.18708
1.18625
1.18508
1.18357
1.18175
1.17962
1.17719
1.17448
1.17151
1.16831
1.16489
1.16128
1.15751
1.15361
1.14961
1.14555
1.14144
1.13734
1.13326
1.12924
1.1253
1.12148
1.11779
1.11426
1.11091
1.10774
1.10477
1.10199
1.09943
1.09706
1.0949
1.09292
1.09113
1.0895
1.08803
1.08671
1.08552
1.08444
1.08347
1.08259
1.08179
1.08107
1.08041
1.07982
1.07928
1.07879
1.07835
1.07796
1.07762
1.07732
1.07707
1.07686
1.0767
1.07658
1.0765
1.07647
1.07647
1.0765
1.07657
1.07666
1.07677
1.0769
1.07704
1.07718
1.07731
1.07744
1.07756
1.07766
1.07774
1.07779
1.07782
1.12449
1.1246
1.1248
1.12512
1.12554
1.12607
1.12671
1.12746
1.12832
1.12929
1.13039
1.1316
1.13294
1.13441
1.13601
1.13774
1.13961
1.14161
1.14376
1.14604
1.14846
1.15101
1.15369
1.15649
1.15941
1.16242
1.16552
1.16869
1.17191
1.17517
1.17844
1.1817
1.18493
1.1881
1.19119
1.19417
1.19703
1.19972
1.20224
1.20457
1.20667
1.20853
1.21014
1.21148
1.21253
1.21329
1.21375
1.2139
1.21374
1.21327
1.21248
1.21139
1.20999
1.2083
1.20632
1.20407
1.20157
1.19883
1.19587
1.19271
1.18938
1.18591
1.18231
1.17862
1.17486
1.17107
1.16727
1.16349
1.15975
1.15609
1.15252
1.14907
1.14576
1.1426
1.13959
1.13676
1.13411
1.13164
1.12935
1.12723
1.12529
1.12351
1.12189
1.12041
1.11906
1.11784
1.11674
1.11573
1.11481
1.11398
1.11323
1.11254
1.11191
1.11134
1.11083
1.11036
1.10995
1.10958
1.10926
1.10899
1.10875
1.10856
1.10842
1.10831
1.10824
1.10821
1.10821
1.10823
1.10828
1.10836
1.10844
1.10854
1.10864
1.10874
1.10884
1.10893
1.10901
1.10907
1.10911
1.10913
1.15694
1.15704
1.15725
1.15756
1.15797
1.15848
1.1591
1.15983
1.16067
1.16162
1.16268
1.16386
1.16516
1.16657
1.16811
1.16978
1.17157
1.17348
1.17553
1.1777
1.17999
1.1824
1.18493
1.18756
1.19028
1.1931
1.19599
1.19894
1.20193
1.20494
1.20797
1.21097
1.21395
1.21686
1.2197
1.22244
1.22505
1.22752
1.22982
1.23194
1.23386
1.23556
1.23702
1.23823
1.23918
1.23986
1.24027
1.24039
1.24022
1.23977
1.23903
1.238
1.2367
1.23513
1.23329
1.23121
1.2289
1.22636
1.22363
1.22071
1.21764
1.21442
1.2111
1.20769
1.20421
1.2007
1.19718
1.19367
1.1902
1.18678
1.18345
1.18022
1.1771
1.17412
1.17128
1.16858
1.16605
1.16367
1.16145
1.15939
1.15749
1.15574
1.15413
1.15265
1.1513
1.15006
1.14893
1.1479
1.14696
1.1461
1.14531
1.1446
1.14395
1.14335
1.14281
1.14233
1.14189
1.1415
1.14116
1.14086
1.1406
1.14039
1.14021
1.14008
1.13998
1.13991
1.13988
1.13987
1.13989
1.13992
1.13997
1.14004
1.1401
1.14018
1.14025
1.14031
1.14037
1.14041
1.14044
1.14046