/*--------------------------------*- C++ -*----------------------------------*\
| =========                 |                                                 |
| \\      /  F ield         | OpenFOAM: The Open Source CFD Toolbox           |
|  \\    /   O peration     | Version:  2406                                  |
|   \\  /    A nd           | Website:  www.openfoam.com                      |
|    \\/     M anipulation  |                                                 |
\*---------------------------------------------------------------------------*/
FoamFile
{
    version     2.0;
    format      ascii;
    arch        "LSB;label=32;scalar=64";
    class       volScalarField;
    location    "3";
    object      C;
}
// * * * * * * * * * * * * * * * * * * * * * * * * * * * * * * * * * * * * * //

dimensions      [1 -3 0 0 0 0 0];

internalField   nonuniform List<scalar> 
14400
(
0.743264
0.729746
0.705067
0.680014
0.659286
0.644625
0.636918
0.636646
0.644026
0.659046
0.681432
0.710499
0.744709
0.77974
0.802484
0.811276
0.812249
0.804808
0.783177
0.753819
0.728464
0.709923
0.699532
0.698136
0.706326
0.72453
0.753034
0.791976
0.841271
0.90032
0.966579
1.02149
1.05784
1.0862
1.11112
1.1331
1.1525
1.1696
1.18463
1.19775
1.20912
1.21882
1.22697
1.23362
1.23883
1.24265
1.2451
1.24621
1.24599
1.24445
1.24158
1.23737
1.23179
1.22481
1.2164
1.2065
1.19504
1.18193
1.16708
1.15036
1.13162
1.11065
1.08723
1.06104
1.03171
0.998726
0.950593
0.881949
0.812124
0.74989
0.69687
0.653318
0.619119
0.594051
0.577866
0.570335
0.571255
0.580456
0.597775
0.623028
0.65592
0.695834
0.740822
0.77891
0.801762
0.815427
0.823746
0.82715
0.825792
0.819564
0.808055
0.786701
0.752219
0.714342
0.681447
0.655272
0.636345
0.624748
0.620227
0.622171
0.629525
0.640598
0.652535
0.660052
0.652811
0.641174
0.630427
0.62345
0.621963
0.627054
0.639368
0.659196
0.686489
0.720761
0.760282
0.796311
0.819108
0.832352
0.8408
0.844919
0.753728
0.744469
0.721774
0.695453
0.673659
0.658238
0.650079
0.649656
0.657184
0.672652
0.695794
0.725927
0.761424
0.793462
0.811033
0.819047
0.820338
0.814777
0.798073
0.769815
0.743558
0.724117
0.713051
0.711247
0.719309
0.737668
0.766583
0.806152
0.856214
0.915827
0.980751
1.02918
1.06186
1.08962
1.11407
1.13568
1.1548
1.17168
1.18653
1.19952
1.21077
1.22039
1.22846
1.23506
1.24023
1.24401
1.24644
1.24754
1.24732
1.24578
1.24292
1.23873
1.23318
1.22625
1.21789
1.20806
1.19668
1.18368
1.16895
1.15239
1.13383
1.11311
1.08999
1.06419
1.03534
1.00297
0.960514
0.897827
0.826823
0.763552
0.709686
0.665441
0.630708
0.605269
0.588881
0.581313
0.582362
0.591854
0.609622
0.635461
0.669021
0.709513
0.754337
0.788379
0.807908
0.820773
0.828659
0.831912
0.830662
0.824844
0.814171
0.796945
0.766968
0.728836
0.69528
0.66858
0.649355
0.637781
0.633672
0.636475
0.645198
0.658347
0.673115
0.68059
0.6734
0.65892
0.646079
0.637711
0.635345
0.640006
0.652279
0.672386
0.70018
0.735071
0.774749
0.806084
0.824736
0.837146
0.845128
0.849038
0.772288
0.766836
0.751606
0.72538
0.702078
0.685293
0.676291
0.67558
0.683387
0.699685
0.72416
0.755671
0.790773
0.814135
0.826512
0.83354
0.835272
0.831647
0.822056
0.800629
0.773299
0.752309
0.739979
0.737391
0.745205
0.76388
0.7936
0.834362
0.885881
0.946659
1.00204
1.04011
1.06992
1.09636
1.11986
1.14076
1.15933
1.17578
1.1903
1.20302
1.21405
1.2235
1.23143
1.23792
1.243
1.24673
1.24911
1.25019
1.24996
1.24843
1.2456
1.24145
1.23597
1.22912
1.22086
1.21116
1.19994
1.18714
1.17266
1.1564
1.13822
1.11796
1.09543
1.07038
1.0425
1.01137
0.97553
0.924202
0.854923
0.790609
0.735299
0.689741
0.653964
0.627795
0.611006
0.603366
0.604671
0.614741
0.633392
0.660386
0.695235
0.736652
0.777866
0.803664
0.819664
0.831098
0.838206
0.841176
0.840101
0.834978
0.825722
0.812228
0.790815
0.756812
0.722573
0.695015
0.675196
0.663632
0.660274
0.664641
0.675622
0.691552
0.70587
0.709328
0.706102
0.69211
0.676456
0.665788
0.661818
0.665692
0.677919
0.698582
0.727189
0.762682
0.797871
0.820533
0.835431
0.846369
0.853529
0.857067
0.796259
0.792639
0.785462
0.768575
0.743972
0.725378
0.715269
0.714163
0.72235
0.739733
0.766011
0.798612
0.823255
0.837267
0.847155
0.853328
0.855563
0.853863
0.848473
0.837373
0.815965
0.793956
0.780027
0.776358
0.783799
0.802979
0.83384
0.875998
0.928148
0.983517
1.02372
1.05396
1.08135
1.10604
1.12825
1.14817
1.16597
1.18183
1.19586
1.2082
1.21892
1.22812
1.23586
1.24218
1.24715
1.25078
1.2531
1.25414
1.2539
1.25238
1.24959
1.2455
1.24011
1.23338
1.22528
1.21577
1.20479
1.19228
1.17816
1.16233
1.14469
1.12509
1.10339
1.0794
1.05289
1.02362
0.991333
0.95233
0.896242
0.830987
0.773724
0.726307
0.689021
0.661787
0.644413
0.636669
0.63835
0.649266
0.669187
0.697816
0.734247
0.775539
0.80498
0.82254
0.83598
0.845748
0.851892
0.854484
0.853587
0.849244
0.841509
0.83051
0.816564
0.794315
0.762139
0.734125
0.713418
0.701804
0.699401
0.705831
0.718844
0.733949
0.740717
0.741574
0.740848
0.734326
0.719583
0.706832
0.700741
0.703604
0.715828
0.737319
0.766281
0.799358
0.82263
0.837756
0.850084
0.85937
0.86555
0.868633
0.823851
0.821522
0.817242
0.81048
0.796445
0.777132
0.766281
0.764743
0.773345
0.79142
0.818462
0.839743
0.853121
0.86338
0.871515
0.877052
0.879789
0.879767
0.877288
0.872978
0.863524
0.847393
0.832429
0.827617
0.834499
0.854469
0.886708
0.92968
0.977657
1.01532
1.04382
1.07064
1.09546
1.11822
1.13893
1.15768
1.17457
1.18968
1.20313
1.21498
1.22532
1.23421
1.24169
1.24781
1.25262
1.25613
1.25838
1.25937
1.25911
1.25762
1.25487
1.25087
1.24559
1.23902
1.23112
1.22185
1.21118
1.19903
1.18536
1.17008
1.1531
1.13433
1.11365
1.09093
1.06606
1.0389
1.00939
0.977558
0.937667
0.882418
0.824518
0.775113
0.735987
0.707411
0.689305
0.681431
0.683582
0.695572
0.716992
0.747501
0.784582
0.813719
0.831393
0.84503
0.855967
0.864023
0.869129
0.871282
0.870517
0.866903
0.86056
0.851708
0.840743
0.828236
0.80899
0.784488
0.76286
0.75124
0.749675
0.758195
0.768236
0.774161
0.775036
0.775404
0.77513
0.774363
0.768673
0.758968
0.750715
0.752675
0.764828
0.787151
0.812274
0.83228
0.845738
0.857751
0.867779
0.875477
0.88067
0.883281
0.853773
0.852357
0.849813
0.846701
0.842795
0.834683
0.826872
0.825013
0.833959
0.849276
0.864211
0.874404
0.883393
0.891618
0.898472
0.903576
0.906773
0.908128
0.907934
0.906737
0.905328
0.900973
0.894261
0.889458
0.895501
0.916618
0.949474
0.984712
1.01562
1.04082
1.06557
1.0893
1.11165
1.13244
1.15157
1.16906
1.18493
1.19922
1.21199
1.22329
1.23318
1.24169
1.24887
1.25476
1.25938
1.26276
1.26491
1.26584
1.26557
1.26409
1.26141
1.2575
1.25237
1.24598
1.23832
1.22934
1.21903
1.20732
1.19417
1.17952
1.16331
1.14547
1.12593
1.10462
1.0815
1.05653
1.02976
1.00134
0.971594
0.934437
0.885898
0.835705
0.794749
0.764702
0.745812
0.737781
0.740411
0.753612
0.776143
0.807234
0.83186
0.847535
0.859649
0.87022
0.878836
0.885246
0.889317
0.890997
0.890298
0.887291
0.882118
0.87502
0.866379
0.856746
0.846843
0.833727
0.819437
0.809042
0.80682
0.80893
0.810571
0.809941
0.809847
0.809875
0.809895
0.810046
0.810754
0.809308
0.807431
0.810001
0.820799
0.835556
0.849177
0.859801
0.870222
0.879731
0.887803
0.894087
0.898371
0.900539
0.88511
0.88432
0.882953
0.881426
0.880341
0.880375
0.879353
0.880526
0.886425
0.894086
0.900273
0.907244
0.91443
0.921226
0.927179
0.932006
0.9356
0.938037
0.939583
0.940707
0.942087
0.944634
0.947521
0.950923
0.960615
0.979247
1.00194
1.02395
1.04502
1.06671
1.08833
1.10935
1.12941
1.1483
1.16587
1.18206
1.19686
1.21027
1.22231
1.23301
1.2424
1.25051
1.25736
1.26298
1.26739
1.27061
1.27265
1.27352
1.27323
1.27178
1.26916
1.26537
1.2604
1.25422
1.24682
1.23818
1.22826
1.21704
1.20447
1.19052
1.17515
1.15831
1.13998
1.12014
1.09878
1.07596
1.05177
1.02644
1.0003
0.973824
0.942829
0.905131
0.864055
0.83308
0.813669
0.805446
0.808194
0.822314
0.84315
0.860135
0.871284
0.880566
0.889447
0.897365
0.90391
0.90881
0.911897
0.913091
0.912387
0.909844
0.905599
0.899877
0.893006
0.885437
0.877741
0.870602
0.863736
0.857007
0.852816
0.849169
0.846538
0.845163
0.844535
0.844355
0.844528
0.845157
0.846549
0.849223
0.853015
0.857414
0.864403
0.8716
0.879221
0.887454
0.895618
0.903149
0.909614
0.914697
0.918189
0.919965
0.917236
0.916859
0.916254
0.915706
0.915606
0.916381
0.918375
0.921464
0.9248
0.928972
0.934103
0.939867
0.945856
0.951675
0.957012
0.96167
0.965584
0.968835
0.971653
0.97442
0.977675
0.982102
0.988519
0.997835
1.00953
1.02329
1.03847
1.05549
1.07376
1.09267
1.11168
1.13035
1.14836
1.16547
1.18153
1.19646
1.21018
1.22269
1.23398
1.24405
1.25291
1.26057
1.26707
1.2724
1.27658
1.27964
1.28156
1.28237
1.28206
1.28063
1.27809
1.27442
1.26963
1.26368
1.25658
1.24829
1.23881
1.22811
1.21616
1.20295
1.18845
1.17265
1.15555
1.13716
1.11753
1.09674
1.07494
1.05236
1.02932
1.00628
0.983828
0.96079
0.934611
0.909153
0.890496
0.882034
0.883022
0.889346
0.897045
0.90213
0.907755
0.913997
0.920209
0.925881
0.93063
0.934185
0.936368
0.937085
0.936313
0.934099
0.930559
0.92588
0.920332
0.914256
0.908054
0.90213
0.896751
0.891972
0.887403
0.883787
0.881237
0.87964
0.878775
0.878482
0.878704
0.879505
0.881054
0.883581
0.887215
0.891856
0.896798
0.902411
0.90863
0.915177
0.921645
0.927633
0.932805
0.936898
0.939724
0.941166
0.94974
0.949626
0.949497
0.94954
0.949996
0.951105
0.953025
0.955706
0.958934
0.962798
0.967298
0.972265
0.977452
0.982607
0.987524
0.992076
0.996232
1.00007
1.00377
1.00765
1.01209
1.01758
1.02461
1.03358
1.04442
1.05682
1.07063
1.08577
1.10187
1.11854
1.13537
1.15202
1.1682
1.18369
1.19834
1.21204
1.22472
1.23634
1.24686
1.25629
1.2646
1.27182
1.27794
1.28297
1.28692
1.28979
1.29159
1.29233
1.292
1.2906
1.28814
1.28461
1.28
1.2743
1.26751
1.2596
1.25058
1.24042
1.22912
1.21666
1.20305
1.18829
1.17241
1.15543
1.13744
1.11854
1.09889
1.07873
1.05835
1.03815
1.01864
1.00038
0.984002
0.967899
0.954012
0.945046
0.941135
0.939342
0.938805
0.940506
0.943609
0.947459
0.95151
0.95532
0.958545
0.960931
0.962304
0.962566
0.961682
0.959682
0.956655
0.952754
0.948184
0.943201
0.938088
0.933112
0.92847
0.92425
0.920458
0.917336
0.914985
0.913383
0.912444
0.912093
0.912301
0.913103
0.914582
0.916833
0.919885
0.92365
0.927897
0.932616
0.937711
0.942981
0.94815
0.952934
0.957076
0.960365
0.962643
0.963808
0.982358
0.982406
0.982568
0.98296
0.983731
0.985019
0.986911
0.989402
0.992431
0.995986
1.00003
1.00444
1.00908
1.01378
1.0184
1.02288
1.0272
1.03143
1.03572
1.0403
1.04546
1.05151
1.05877
1.06744
1.07753
1.08892
1.10149
1.11507
1.12942
1.14425
1.15925
1.17416
1.18872
1.20275
1.2161
1.22865
1.24033
1.25108
1.26085
1.26963
1.2774
1.28416
1.2899
1.29462
1.29832
1.30101
1.30269
1.30335
1.303
1.30164
1.29927
1.29587
1.29146
1.28602
1.27954
1.27203
1.26348
1.25387
1.24322
1.23153
1.2188
1.20506
1.19035
1.17472
1.15826
1.14108
1.12336
1.10531
1.08719
1.06935
1.05218
1.03611
1.02155
1.0088
0.998173
0.989562
0.983167
0.979275
0.977496
0.977479
0.978716
0.980719
0.983052
0.985344
0.987299
0.988689
0.989353
0.989192
0.988166
0.986289
0.983627
0.980295
0.976449
0.972277
0.967984
0.963762
0.959765
0.9561
0.952844
0.950114
0.947983
0.946463
0.945526
0.945143
0.945304
0.946024
0.94734
0.949281
0.951844
0.954962
0.958523
0.962445
0.966619
0.970883
0.975039
0.978877
0.9822
0.984843
0.986676
0.987614
1.01493
1.01507
1.01541
1.016
1.01695
1.01833
1.0202
1.02256
1.0254
1.02869
1.03238
1.0364
1.04065
1.04502
1.04943
1.05384
1.05825
1.06273
1.06738
1.07238
1.07793
1.08425
1.09152
1.09987
1.10934
1.11985
1.13132
1.14359
1.15649
1.16978
1.18323
1.19663
1.20977
1.22249
1.23465
1.24614
1.25687
1.26678
1.27583
1.28399
1.29122
1.29752
1.30288
1.30729
1.31075
1.31325
1.31479
1.31539
1.31502
1.31369
1.31141
1.30816
1.30395
1.29877
1.29262
1.28551
1.27742
1.26838
1.25837
1.24743
1.23556
1.2228
1.20921
1.19484
1.17979
1.16418
1.14817
1.13195
1.11576
1.09988
1.08463
1.07032
1.05726
1.0457
1.03584
1.02773
1.02147
1.01709
1.01443
1.0132
1.01306
1.01365
1.01463
1.01571
1.01662
1.01717
1.01723
1.01668
1.0155
1.01368
1.01127
1.00835
1.00504
1.00147
0.997809
0.994185
0.990729
0.987541
0.984702
0.982294
0.980371
0.978958
0.978053
0.977651
0.977748
0.97835
0.97947
0.981109
0.983247
0.985833
0.988786
0.992022
0.995435
0.998894
1.00225
1.00533
1.008
1.01013
1.0116
1.01236
1.04735
1.04755
1.04799
1.04869
1.04973
1.05115
1.05299
1.05525
1.05792
1.06099
1.06441
1.06813
1.07209
1.07621
1.08046
1.0848
1.08924
1.09385
1.0987
1.10392
1.10964
1.11602
1.12318
1.13119
1.14009
1.14984
1.16034
1.1715
1.18316
1.19514
1.20727
1.21936
1.23125
1.2428
1.25388
1.26438
1.27422
1.28335
1.29171
1.29926
1.30597
1.31182
1.31681
1.32091
1.32412
1.32644
1.32786
1.32838
1.32799
1.3267
1.32451
1.32141
1.3174
1.31249
1.30667
1.29995
1.29233
1.28383
1.27446
1.26424
1.2532
1.24138
1.22884
1.21564
1.20188
1.18767
1.17317
1.15855
1.14401
1.12979
1.11612
1.10328
1.09147
1.08092
1.07175
1.06405
1.05788
1.0532
1.04992
1.04782
1.04667
1.04619
1.04612
1.04623
1.04629
1.04616
1.04569
1.04481
1.04347
1.04167
1.03942
1.0368
1.03388
1.03077
1.02759
1.02444
1.02143
1.01863
1.01613
1.01399
1.01225
1.01094
1.01008
1.00966
1.00969
1.01016
1.01108
1.01244
1.0142
1.01634
1.01877
1.02142
1.0242
1.02701
1.02972
1.03221
1.03436
1.03606
1.03725
1.03786
1.07957
1.0798
1.08029
1.08105
1.08213
1.08356
1.08535
1.08751
1.09005
1.09293
1.09614
1.09963
1.10336
1.10729
1.11139
1.11565
1.12008
1.12472
1.12965
1.13494
1.1407
1.14701
1.15398
1.16164
1.17001
1.17905
1.18872
1.19891
1.2095
1.22036
1.23134
1.24229
1.25308
1.26357
1.27367
1.28327
1.2923
1.30069
1.30839
1.31536
1.32157
1.327
1.33162
1.33542
1.33839
1.34053
1.34182
1.34227
1.34187
1.34062
1.33852
1.33556
1.33176
1.32711
1.32161
1.31528
1.30813
1.30016
1.29141
1.28188
1.27163
1.26069
1.24912
1.237
1.22441
1.21147
1.1983
1.18508
1.17195
1.15913
1.14681
1.13519
1.12445
1.11474
1.10619
1.09886
1.09278
1.08793
1.08422
1.0815
1.07961
1.07832
1.07744
1.07678
1.07617
1.07547
1.07458
1.0734
1.07191
1.07009
1.06795
1.06554
1.06291
1.06015
1.05734
1.05456
1.0519
1.04943
1.0472
1.04528
1.0437
1.04249
1.04166
1.04122
1.04117
1.04152
1.04225
1.04335
1.0448
1.04654
1.04852
1.05069
1.05295
1.05523
1.05741
1.05942
1.06115
1.06252
1.06347
1.06396
1.11155
1.1118
1.11231
1.1131
1.11419
1.1156
1.11734
1.11941
1.12182
1.12455
1.12758
1.13088
1.13443
1.13819
1.14216
1.14632
1.1507
1.15532
1.16023
1.1655
1.17119
1.17736
1.18408
1.19137
1.19924
1.20766
1.21657
1.22591
1.23558
1.24546
1.25543
1.26538
1.27519
1.28475
1.29396
1.30274
1.31101
1.31872
1.32581
1.33223
1.33796
1.34298
1.34725
1.35076
1.3535
1.35546
1.35663
1.35702
1.3566
1.35539
1.35337
1.35057
1.34696
1.34257
1.33739
1.33144
1.32474
1.31728
1.30911
1.30025
1.29074
1.28062
1.26996
1.25882
1.24729
1.23548
1.2235
1.21149
1.1996
1.18798
1.1768
1.16622
1.15638
1.14741
1.1394
1.13241
1.12645
1.12151
1.11752
1.11437
1.11193
1.11004
1.10854
1.10729
1.10614
1.10499
1.10373
1.10231
1.10068
1.09882
1.09675
1.09449
1.09208
1.08958
1.08705
1.08457
1.08219
1.07997
1.07797
1.07623
1.07478
1.07364
1.07285
1.07239
1.07227
1.0725
1.07306
1.07393
1.07509
1.07649
1.0781
1.07986
1.08169
1.08353
1.08529
1.0869
1.08829
1.0894
1.09016
1.09056
1.14328
1.14354
1.14406
1.14485
1.14593
1.14731
1.14899
1.15098
1.15328
1.15588
1.15875
1.16189
1.16528
1.16889
1.17273
1.17679
1.18108
1.18562
1.19046
1.19564
1.20119
1.20717
1.21361
1.22053
1.22792
1.23576
1.244
1.25259
1.26144
1.27046
1.27955
1.28862
1.29756
1.30627
1.31469
1.32272
1.3303
1.33737
1.34388
1.34979
1.35508
1.3597
1.36363
1.36687
1.36939
1.37118
1.37224
1.37255
1.37213
1.37095
1.36903
1.36636
1.36296
1.35882
1.35395
1.34837
1.34208
1.33512
1.32751
1.31928
1.31046
1.3011
1.29127
1.28103
1.27047
1.25966
1.24873
1.23779
1.22696
1.21638
1.20619
1.1965
1.18745
1.17912
1.1716
1.16492
1.15911
1.15415
1.14998
1.14654
1.1437
1.14136
1.1394
1.13769
1.13612
1.1346
1.13306
1.13143
1.12968
1.12778
1.12574
1.12358
1.12133
1.11903
1.11672
1.11447
1.11231
1.1103
1.10848
1.10688
1.10554
1.10447
1.10369
1.10321
1.10303
1.10315
1.10355
1.10422
1.10513
1.10625
1.10754
1.10895
1.11042
1.1119
1.11332
1.11461
1.11573
1.11661
1.11723
1.11754
1.17476
1.17501
1.17553
1.17631
1.17737
1.17871
1.18033
1.18224
1.18444
1.18692
1.18966
1.19266
1.1959
1.19938
1.20308
1.20702
1.2112
1.21563
1.22036
1.22539
1.23077
1.23652
1.24267
1.24921
1.25615
1.26345
1.27109
1.27901
1.28713
1.29539
1.3037
1.31198
1.32014
1.3281
1.33579
1.34314
1.35008
1.35657
1.36255
1.36799
1.37285
1.3771
1.38072
1.38369
1.386
1.38763
1.38858
1.38884
1.3884
1.38726
1.38543
1.3829
1.37969
1.37579
1.37122
1.36599
1.36011
1.35362
1.34653
1.33888
1.33071
1.32206
1.313
1.30357
1.29387
1.28397
1.27397
1.26397
1.25408
1.2444
1.23506
1.22616
1.21779
1.21003
1.20294
1.19657
1.19092
1.18599
1.18173
1.17809
1.17498
1.17231
1.17
1.16794
1.16605
1.16425
1.16247
1.16067
1.15881
1.15687
1.15486
1.15277
1.15064
1.14848
1.14635
1.14427
1.14229
1.14044
1.13876
1.13728
1.13602
1.135
1.13424
1.13374
1.13349
1.13351
1.13377
1.13426
1.13496
1.13584
1.13686
1.13798
1.13915
1.14033
1.14146
1.1425
1.14339
1.1441
1.14459
1.14484
1.20597
1.20623
1.20673
1.2075
1.20852
1.20982
1.21138
1.21322
1.21532
1.21769
1.22031
1.22318
1.22629
1.22963
1.2332
1.23701
1.24106
1.24536
1.24993
1.2548
1.25997
1.26548
1.27132
1.2775
1.28401
1.29082
1.2979
1.30521
1.31269
1.32027
1.32788
1.33546
1.34292
1.3502
1.35724
1.36397
1.37033
1.37628
1.38177
1.38676
1.39123
1.39513
1.39846
1.40118
1.40329
1.40477
1.40562
1.40582
1.40537
1.40427
1.40253
1.40013
1.3971
1.39343
1.38914
1.38425
1.37876
1.37271
1.36611
1.35901
1.35144
1.34344
1.33507
1.32639
1.31747
1.30838
1.29921
1.29004
1.28097
1.27209
1.2635
1.25528
1.24751
1.24026
1.23358
1.22749
1.22202
1.21715
1.21286
1.2091
1.2058
1.20291
1.20034
1.19802
1.19589
1.19387
1.19191
1.18997
1.18802
1.18605
1.18404
1.18201
1.17996
1.17792
1.17592
1.17398
1.17213
1.17041
1.16885
1.16746
1.16627
1.16529
1.16453
1.164
1.1637
1.16362
1.16376
1.16409
1.16461
1.16528
1.16607
1.16695
1.16788
1.16881
1.16971
1.17053
1.17124
1.1718
1.17219
1.17239
1.23694
1.23718
1.23768
1.23842
1.23941
1.24066
1.24217
1.24393
1.24594
1.2482
1.25071
1.25346
1.25644
1.25965
1.26309
1.26676
1.27067
1.27482
1.27922
1.2839
1.28885
1.2941
1.29963
1.30546
1.31156
1.31791
1.32449
1.33125
1.33814
1.34511
1.3521
1.35904
1.36588
1.37255
1.379
1.38516
1.39099
1.39645
1.40148
1.40607
1.41016
1.41374
1.41679
1.41928
1.42121
1.42255
1.42329
1.42344
1.42299
1.42193
1.42027
1.418
1.41514
1.4117
1.40768
1.4031
1.39797
1.39233
1.3862
1.3796
1.37259
1.36519
1.35746
1.34946
1.34124
1.33288
1.32444
1.31602
1.30767
1.2995
1.29156
1.28395
1.27672
1.26992
1.26361
1.2578
1.25252
1.24774
1.24346
1.23964
1.23623
1.23318
1.23044
1.22793
1.22561
1.22342
1.22132
1.21928
1.21726
1.21526
1.21325
1.21126
1.20927
1.20732
1.20542
1.20359
1.20185
1.20023
1.19875
1.19744
1.1963
1.19534
1.19459
1.19403
1.19368
1.19352
1.19355
1.19375
1.19411
1.1946
1.1952
1.19587
1.19659
1.19732
1.19803
1.19867
1.19923
1.19968
1.19999
1.20014
1.26766
1.2679
1.26837
1.26909
1.27005
1.27125
1.2727
1.27438
1.27631
1.27848
1.28088
1.28351
1.28636
1.28944
1.29275
1.29627
1.30003
1.30401
1.30824
1.31271
1.31744
1.32242
1.32766
1.33314
1.33886
1.34479
1.3509
1.35716
1.36352
1.36994
1.37636
1.38274
1.38901
1.39513
1.40103
1.40668
1.41203
1.41703
1.42165
1.42585
1.42961
1.43289
1.43568
1.43796
1.43971
1.44091
1.44157
1.44167
1.44121
1.44019
1.43861
1.43647
1.43377
1.43054
1.42677
1.42249
1.41771
1.41245
1.40675
1.40062
1.39412
1.38727
1.38012
1.37273
1.36515
1.35745
1.34967
1.34191
1.33421
1.32666
1.31931
1.31224
1.30549
1.29911
1.29314
1.2876
1.2825
1.27784
1.27361
1.26977
1.2663
1.26315
1.26029
1.25765
1.2552
1.25289
1.25069
1.24856
1.24649
1.24446
1.24246
1.24049
1.23856
1.23667
1.23485
1.2331
1.23145
1.22991
1.2285
1.22724
1.22614
1.2252
1.22445
1.22387
1.22346
1.22323
1.22317
1.22325
1.22348
1.22382
1.22425
1.22475
1.2253
1.22586
1.2264
1.22691
1.22734
1.22769
1.22793
1.22805
1.29814
1.29837
1.29883
1.29952
1.30044
1.3016
1.30298
1.3046
1.30644
1.30851
1.31081
1.31333
1.31606
1.31901
1.32218
1.32556
1.32916
1.33297
1.33701
1.34128
1.34577
1.35049
1.35544
1.36059
1.36595
1.37148
1.37716
1.38296
1.38884
1.39476
1.40067
1.40653
1.41229
1.41791
1.42333
1.42851
1.43341
1.438
1.44224
1.44609
1.44953
1.45254
1.45508
1.45716
1.45875
1.45983
1.4604
1.46046
1.46
1.45901
1.45751
1.45548
1.45295
1.44991
1.44638
1.44238
1.43792
1.43302
1.42771
1.42202
1.41599
1.40964
1.40303
1.3962
1.38919
1.38208
1.3749
1.36772
1.36061
1.35361
1.34679
1.3402
1.33388
1.32788
1.32223
1.31695
1.31204
1.30751
1.30335
1.29954
1.29605
1.29285
1.28991
1.28718
1.28464
1.28225
1.27997
1.27779
1.27568
1.27363
1.27164
1.26969
1.2678
1.26596
1.2642
1.26252
1.26093
1.25946
1.2581
1.25689
1.25581
1.25489
1.25413
1.25352
1.25307
1.25278
1.25263
1.25262
1.25272
1.25293
1.25323
1.25359
1.25399
1.25441
1.25482
1.2552
1.25554
1.2558
1.25599
1.25609
1.32839
1.32861
1.32905
1.32972
1.3306
1.33171
1.33303
1.33458
1.33635
1.33833
1.34052
1.34293
1.34554
1.34837
1.35139
1.35463
1.35806
1.36171
1.36556
1.36962
1.37388
1.37834
1.383
1.38784
1.39285
1.39801
1.4033
1.40868
1.41412
1.41958
1.42503
1.43043
1.43573
1.44088
1.44586
1.45062
1.45511
1.45932
1.4632
1.46673
1.46989
1.47263
1.47496
1.47685
1.47829
1.47926
1.47975
1.47977
1.47931
1.47836
1.47692
1.47501
1.47262
1.46977
1.46647
1.46273
1.45856
1.454
1.44906
1.44377
1.43817
1.43228
1.42616
1.41983
1.41335
1.40676
1.40012
1.39348
1.38688
1.38038
1.37404
1.36788
1.36196
1.35631
1.35096
1.34592
1.3412
1.33681
1.33274
1.32898
1.3255
1.32229
1.31931
1.31653
1.31393
1.31149
1.30916
1.30694
1.30481
1.30275
1.30076
1.29883
1.29697
1.29518
1.29347
1.29184
1.29031
1.28888
1.28757
1.28639
1.28533
1.28442
1.28365
1.28302
1.28253
1.28218
1.28196
1.28186
1.28187
1.28197
1.28215
1.28239
1.28267
1.28297
1.28327
1.28355
1.2838
1.284
1.28414
1.28421
1.35842
1.35863
1.35906
1.35969
1.36054
1.3616
1.36287
1.36435
1.36603
1.36793
1.37002
1.37232
1.37482
1.37751
1.3804
1.38349
1.38677
1.39024
1.3939
1.39775
1.40178
1.406
1.41038
1.41493
1.41961
1.42443
1.42934
1.43434
1.43937
1.44442
1.44945
1.45442
1.4593
1.46404
1.46861
1.47298
1.47711
1.48097
1.48452
1.48776
1.49064
1.49316
1.49528
1.49699
1.49829
1.49916
1.49958
1.49957
1.4991
1.49818
1.49682
1.49501
1.49276
1.49009
1.48699
1.48349
1.47961
1.47535
1.47075
1.46584
1.46063
1.45517
1.44949
1.44362
1.43761
1.43151
1.42535
1.41918
1.41306
1.40701
1.40109
1.39533
1.38978
1.38445
1.37937
1.37457
1.37004
1.36579
1.36183
1.35813
1.35469
1.35149
1.3485
1.3457
1.34308
1.3406
1.33825
1.33601
1.33386
1.3318
1.32982
1.32791
1.32608
1.32433
1.32265
1.32107
1.31958
1.31819
1.31691
1.31575
1.31472
1.31381
1.31302
1.31237
1.31185
1.31145
1.31117
1.31099
1.31092
1.31093
1.31101
1.31114
1.31132
1.31152
1.31173
1.31193
1.31211
1.31226
1.31236
1.31241
1.38824
1.38844
1.38885
1.38946
1.39027
1.39128
1.39249
1.3939
1.39551
1.39732
1.39932
1.40151
1.4039
1.40647
1.40922
1.41216
1.41528
1.41858
1.42205
1.42569
1.42951
1.43348
1.4376
1.44186
1.44625
1.45074
1.45531
1.45995
1.46462
1.46929
1.47393
1.47851
1.483
1.48736
1.49157
1.49558
1.49937
1.50291
1.50617
1.50913
1.51177
1.51407
1.516
1.51756
1.51872
1.51949
1.51986
1.51981
1.51934
1.51846
1.51716
1.51545
1.51333
1.51082
1.50792
1.50465
1.50102
1.49705
1.49277
1.48819
1.48335
1.47827
1.473
1.46755
1.46197
1.4563
1.45058
1.44485
1.43915
1.43351
1.42798
1.42258
1.41736
1.41233
1.40752
1.40293
1.39859
1.3945
1.39065
1.38703
1.38365
1.38048
1.3775
1.37471
1.37208
1.36959
1.36722
1.36498
1.36283
1.36077
1.35881
1.35692
1.35511
1.35339
1.35175
1.3502
1.34874
1.34739
1.34614
1.345
1.34397
1.34306
1.34227
1.3416
1.34105
1.3406
1.34027
1.34003
1.33988
1.33981
1.33981
1.33986
1.33995
1.34007
1.3402
1.34034
1.34046
1.34056
1.34063
1.34066
1.41786
1.41805
1.41844
1.41902
1.41979
1.42076
1.42192
1.42326
1.4248
1.42652
1.42843
1.43052
1.43279
1.43523
1.43785
1.44065
1.44361
1.44674
1.45003
1.45347
1.45707
1.46081
1.46468
1.46868
1.47278
1.47697
1.48122
1.48553
1.48985
1.49418
1.49847
1.50269
1.50683
1.51085
1.51471
1.5184
1.52188
1.52513
1.52812
1.53083
1.53324
1.53534
1.5371
1.53851
1.53956
1.54024
1.54054
1.54046
1.54
1.53915
1.53791
1.53629
1.5343
1.53194
1.52922
1.52616
1.52277
1.51906
1.51507
1.51081
1.5063
1.50158
1.49667
1.49161
1.48642
1.48115
1.47583
1.47049
1.46517
1.45991
1.45473
1.44967
1.44475
1.43999
1.43543
1.43106
1.4269
1.42296
1.41923
1.41571
1.41239
1.40927
1.40633
1.40355
1.40093
1.39845
1.39609
1.39384
1.39171
1.38966
1.38771
1.38584
1.38406
1.38236
1.38075
1.37923
1.37781
1.37648
1.37525
1.37413
1.37311
1.3722
1.3714
1.37071
1.37013
1.36965
1.36927
1.36897
1.36876
1.36863
1.36856
1.36854
1.36856
1.36861
1.36867
1.36875
1.36882
1.36888
1.36893
1.36895
1.44728
1.44746
1.44783
1.44839
1.44912
1.45005
1.45115
1.45243
1.4539
1.45554
1.45735
1.45934
1.4615
1.46382
1.46631
1.46896
1.47177
1.47474
1.47785
1.4811
1.48449
1.48801
1.49165
1.49539
1.49922
1.50312
1.50709
1.51108
1.5151
1.5191
1.52306
1.52697
1.53078
1.53448
1.53804
1.54143
1.54462
1.5476
1.55034
1.55283
1.55503
1.55694
1.55854
1.55982
1.56076
1.56136
1.56161
1.56151
1.56104
1.56022
1.55904
1.55751
1.55563
1.55342
1.55087
1.548
1.54483
1.54137
1.53764
1.53367
1.52947
1.52507
1.5205
1.51579
1.51096
1.50605
1.50109
1.49611
1.49114
1.48622
1.48136
1.47661
1.47197
1.46747
1.46314
1.45897
1.45499
1.4512
1.44759
1.44417
1.44094
1.43788
1.43498
1.43224
1.42964
1.42718
1.42484
1.42261
1.42048
1.41846
1.41652
1.41468
1.41292
1.41125
1.40967
1.40818
1.40678
1.40547
1.40426
1.40315
1.40214
1.40123
1.40042
1.39972
1.39911
1.3986
1.39817
1.39784
1.39758
1.39738
1.39725
1.39717
1.39713
1.39712
1.39714
1.39716
1.3972
1.39723
1.39725
1.39726
1.47651
1.47669
1.47704
1.47757
1.47827
1.47915
1.4802
1.48142
1.48282
1.48438
1.4861
1.48799
1.49004
1.49225
1.49461
1.49713
1.49979
1.50259
1.50553
1.50859
1.51179
1.51509
1.5185
1.522
1.52558
1.52922
1.53291
1.53663
1.54035
1.54406
1.54772
1.55133
1.55485
1.55825
1.56153
1.56465
1.56758
1.57032
1.57283
1.5751
1.57712
1.57886
1.58031
1.58146
1.58231
1.58283
1.58303
1.5829
1.58245
1.58165
1.58053
1.57908
1.57731
1.57522
1.57283
1.57014
1.56718
1.56394
1.56046
1.55675
1.55284
1.54874
1.54448
1.54008
1.53558
1.531
1.52637
1.52172
1.51707
1.51246
1.5079
1.50342
1.49905
1.49479
1.49068
1.48671
1.4829
1.47925
1.47577
1.47246
1.46931
1.46632
1.46348
1.46078
1.45822
1.45579
1.45347
1.45127
1.44917
1.44716
1.44525
1.44343
1.4417
1.44005
1.4385
1.43703
1.43565
1.43436
1.43317
1.43207
1.43106
1.43016
1.42934
1.42862
1.42799
1.42745
1.427
1.42662
1.42632
1.42608
1.4259
1.42577
1.42568
1.42562
1.42559
1.42558
1.42557
1.42558
1.42558
1.42559
1.50557
1.50574
1.50608
1.50658
1.50725
1.50808
1.50908
1.51024
1.51157
1.51305
1.51469
1.51648
1.51843
1.52052
1.52276
1.52514
1.52765
1.5303
1.53307
1.53596
1.53896
1.54207
1.54526
1.54854
1.55188
1.55528
1.55871
1.56217
1.56562
1.56905
1.57244
1.57577
1.57902
1.58216
1.58518
1.58805
1.59074
1.59325
1.59556
1.59764
1.59947
1.60106
1.60238
1.60342
1.60417
1.60463
1.60478
1.60464
1.60418
1.60341
1.60234
1.60097
1.5993
1.59733
1.59509
1.59257
1.58979
1.58676
1.58351
1.58005
1.57639
1.57256
1.56859
1.56449
1.56028
1.55601
1.55168
1.54732
1.54297
1.53864
1.53435
1.53014
1.526
1.52198
1.51807
1.51428
1.51064
1.50714
1.50379
1.50058
1.49753
1.49461
1.49184
1.48919
1.48668
1.48428
1.482
1.47982
1.47775
1.47577
1.47389
1.47209
1.47039
1.46877
1.46723
1.46579
1.46443
1.46316
1.46198
1.46089
1.45989
1.45899
1.45817
1.45744
1.45679
1.45623
1.45574
1.45533
1.45499
1.45471
1.45449
1.45432
1.45419
1.45409
1.45402
1.45397
1.45394
1.45393
1.45392
1.45391
1.53446
1.53462
1.53494
1.53542
1.53606
1.53685
1.5378
1.5389
1.54016
1.54157
1.54312
1.54482
1.54667
1.54865
1.55077
1.55302
1.55539
1.55789
1.5605
1.56322
1.56604
1.56895
1.57195
1.57501
1.57813
1.5813
1.58449
1.5877
1.59091
1.59409
1.59723
1.60031
1.6033
1.6062
1.60898
1.61161
1.61409
1.6164
1.61851
1.62041
1.62209
1.62353
1.62472
1.62566
1.62633
1.62672
1.62684
1.62667
1.62622
1.62548
1.62446
1.62316
1.62158
1.61973
1.61761
1.61525
1.61265
1.60981
1.60677
1.60353
1.60011
1.59654
1.59282
1.58899
1.58506
1.58106
1.57701
1.57293
1.56884
1.56477
1.56074
1.55676
1.55286
1.54904
1.54533
1.54172
1.53824
1.53488
1.53165
1.52856
1.5256
1.52276
1.52006
1.51748
1.51501
1.51266
1.51042
1.50828
1.50623
1.50429
1.50243
1.50067
1.49899
1.49739
1.49589
1.49446
1.49313
1.49187
1.49071
1.48963
1.48864
1.48773
1.4869
1.48616
1.4855
1.48492
1.48441
1.48398
1.48361
1.48329
1.48304
1.48283
1.48266
1.48253
1.48243
1.48236
1.4823
1.48227
1.48225
1.48223
1.5632
1.56335
1.56365
1.5641
1.56471
1.56546
1.56636
1.56741
1.5686
1.56994
1.57141
1.57302
1.57477
1.57664
1.57864
1.58077
1.58301
1.58536
1.58782
1.59038
1.59302
1.59576
1.59856
1.60142
1.60434
1.60729
1.61026
1.61324
1.61622
1.61916
1.62207
1.62492
1.62768
1.63036
1.63291
1.63534
1.63762
1.63973
1.64166
1.6434
1.64493
1.64625
1.64733
1.64817
1.64876
1.6491
1.64918
1.649
1.64855
1.64784
1.64686
1.64562
1.64413
1.64238
1.6404
1.63817
1.63573
1.63308
1.63023
1.62719
1.62399
1.62065
1.61717
1.61358
1.60991
1.60616
1.60236
1.59853
1.5947
1.59087
1.58707
1.58332
1.57962
1.57601
1.57247
1.56904
1.56571
1.56249
1.55939
1.5564
1.55354
1.55079
1.54816
1.54564
1.54323
1.54093
1.53873
1.53663
1.53463
1.53271
1.53089
1.52915
1.5275
1.52593
1.52445
1.52305
1.52173
1.5205
1.51935
1.51828
1.51729
1.51638
1.51556
1.51481
1.51414
1.51354
1.51302
1.51256
1.51216
1.51182
1.51153
1.51129
1.5111
1.51094
1.51081
1.51072
1.51065
1.51059
1.51056
1.51055
1.59178
1.59192
1.59221
1.59264
1.59321
1.59392
1.59478
1.59577
1.5969
1.59816
1.59956
1.60108
1.60273
1.60451
1.6064
1.6084
1.61051
1.61273
1.61504
1.61744
1.61993
1.62249
1.62511
1.62778
1.6305
1.63325
1.63602
1.63879
1.64155
1.64428
1.64697
1.64961
1.65216
1.65463
1.65698
1.65921
1.66131
1.66325
1.66502
1.66661
1.668
1.66919
1.67017
1.67092
1.67145
1.67174
1.67178
1.67158
1.67114
1.67045
1.66952
1.66834
1.66693
1.66528
1.66341
1.66132
1.65903
1.65654
1.65386
1.65102
1.64802
1.64489
1.64163
1.63827
1.63482
1.63131
1.62775
1.62415
1.62054
1.61694
1.61336
1.60981
1.60632
1.60288
1.59953
1.59625
1.59307
1.58999
1.587
1.58413
1.58136
1.5787
1.57614
1.57369
1.57134
1.5691
1.56695
1.56489
1.56292
1.56105
1.55926
1.55755
1.55593
1.55439
1.55293
1.55155
1.55026
1.54904
1.5479
1.54684
1.54586
1.54496
1.54413
1.54338
1.5427
1.54209
1.54155
1.54107
1.54065
1.54029