/*--------------------------------*- C++ -*----------------------------------*\
| =========                 |                                                 |
| \\      /  F ield         | OpenFOAM: The Open Source CFD Toolbox           |
|  \\    /   O peration     | Version:  2406                                  |
|   \\  /    A nd           | Website:  www.openfoam.com                      |
|    \\/     M anipulation  |                                                 |
\*---------------------------------------------------------------------------*/
FoamFile
{
    version     2.0;
    format      ascii;
    arch        "LSB;label=32;scalar=64";
    class       volScalarField;
    location    "3";
    object      C_0;
}
// * * * * * * * * * * * * * * * * * * * * * * * * * * * * * * * * * * * * * //

dimensions      [1 -3 0 0 0 0 0];

internalField   nonuniform List<scalar> 
14400
(
0.745528
0.732063
0.707354
0.682189
0.661365
0.646637
0.638893
0.638612
0.646014
0.661086
0.683553
0.71273
0.747063
0.782124
0.804813
0.813601
0.814592
0.807205
0.785628
0.756214
0.73077
0.712146
0.701695
0.700266
0.708453
0.726682
0.755237
0.79425
0.843626
0.902755
0.969077
1.02381
1.05999
1.08831
1.11321
1.13516
1.15453
1.17162
1.18662
1.19973
1.21108
1.22078
1.22891
1.23555
1.24075
1.24456
1.24701
1.24812
1.2479
1.24635
1.24348
1.23926
1.23369
1.22671
1.21831
1.20841
1.19695
1.18385
1.16901
1.1523
1.13357
1.11262
1.08921
1.06304
1.03373
1.00077
0.952872
0.884449
0.814469
0.752077
0.69892
0.655253
0.620963
0.595827
0.5796
0.572051
0.572981
0.582216
0.599596
0.624933
0.65793
0.697963
0.743061
0.78108
0.803825
0.817469
0.825772
0.829165
0.827802
0.821573
0.810069
0.788791
0.754348
0.716384
0.683404
0.65716
0.638184
0.626565
0.622054
0.624038
0.631457
0.642618
0.654654
0.662235
0.654926
0.643186
0.632346
0.625299
0.623767
0.628843
0.641171
0.661039
0.688394
0.72274
0.762336
0.79831
0.821021
0.834251
0.842692
0.846807
0.755969
0.746746
0.724066
0.697645
0.675761
0.660276
0.65208
0.651649
0.659198
0.674718
0.697939
0.728179
0.763796
0.795817
0.813333
0.821355
0.822662
0.817126
0.800516
0.772267
0.745907
0.726375
0.715245
0.713408
0.721468
0.739854
0.768824
0.808472
0.85862
0.918298
0.9832
1.03144
1.06401
1.09173
1.11615
1.13774
1.15683
1.17369
1.18852
1.20149
1.21273
1.22234
1.2304
1.23699
1.24215
1.24592
1.24835
1.24944
1.24922
1.24768
1.24482
1.24063
1.23508
1.22815
1.2198
1.20996
1.19859
1.18559
1.17088
1.15432
1.13578
1.11507
1.09197
1.06618
1.03736
1.00501
0.962746
0.900288
0.829169
0.765763
0.711767
0.667408
0.632582
0.607074
0.590642
0.583057
0.584115
0.593643
0.611471
0.637397
0.671066
0.711677
0.756575
0.790506
0.809963
0.822809
0.83068
0.833923
0.832667
0.826846
0.816176
0.798994
0.769088
0.730906
0.69727
0.670497
0.651218
0.639621
0.635522
0.638366
0.647158
0.66039
0.675234
0.68269
0.675515
0.660955
0.648025
0.639584
0.637172
0.641817
0.654107
0.674258
0.702118
0.737077
0.776791
0.808043
0.826641
0.839041
0.847016
0.850923
0.7745
0.769054
0.753876
0.727609
0.704225
0.687383
0.678343
0.677624
0.685453
0.701802
0.72635
0.757954
0.793118
0.816423
0.828787
0.835824
0.83757
0.833962
0.82442
0.8031
0.77571
0.754632
0.742233
0.739611
0.747424
0.766131
0.795915
0.836771
0.888397
0.949247
1.00437
1.04227
1.07205
1.09846
1.12193
1.14281
1.16135
1.17779
1.19229
1.20499
1.21601
1.22545
1.23337
1.23985
1.24492
1.24864
1.25102
1.25209
1.25186
1.25033
1.24749
1.24334
1.23786
1.23101
1.22276
1.21306
1.20185
1.18906
1.17459
1.15833
1.14017
1.11992
1.0974
1.07237
1.04451
1.01341
0.97768
0.926566
0.857295
0.792883
0.737449
0.691773
0.655899
0.629657
0.612822
0.605164
0.606479
0.616585
0.635299
0.662382
0.697347
0.7389
0.780049
0.805724
0.821705
0.833123
0.840218
0.843178
0.842096
0.836968
0.827711
0.814217
0.792871
0.758947
0.72463
0.696987
0.677105
0.665513
0.662165
0.66658
0.677637
0.693641
0.707913
0.711333
0.708142
0.694191
0.678457
0.667709
0.663687
0.667544
0.679792
0.70051
0.729194
0.764755
0.799849
0.822433
0.837323
0.848254
0.855409
0.858944
0.798442
0.794821
0.787677
0.770845
0.746178
0.727547
0.717397
0.716282
0.724493
0.74193
0.768269
0.800957
0.825539
0.839504
0.849401
0.855583
0.857829
0.856142
0.850763
0.839757
0.818471
0.796371
0.782362
0.778662
0.786104
0.805318
0.836248
0.878519
0.930763
0.985866
1.02588
1.05609
1.08345
1.10813
1.13031
1.1502
1.16799
1.18382
1.19784
1.21016
1.22088
1.23006
1.23779
1.24411
1.24906
1.25269
1.25501
1.25604
1.25579
1.25428
1.25148
1.2474
1.242
1.23528
1.22718
1.21767
1.2067
1.19419
1.18008
1.16426
1.14663
1.12704
1.10536
1.08138
1.0549
1.02565
0.993384
0.954553
0.898729
0.833385
0.775984
0.728436
0.691046
0.663733
0.646309
0.638547
0.640238
0.651193
0.671176
0.699894
0.736423
0.777767
0.807073
0.824582
0.838006
0.84776
0.853892
0.856474
0.855569
0.851221
0.843481
0.832476
0.818526
0.796346
0.764262
0.736169
0.715384
0.703736
0.701346
0.707833
0.72092
0.735949
0.742659
0.743525
0.742787
0.736319
0.721645
0.708815
0.702662
0.705507
0.717758
0.739319
0.768351
0.801322
0.824514
0.839636
0.851961
0.861243
0.86742
0.870501
0.826005
0.823674
0.819388
0.812679
0.798691
0.779406
0.768498
0.766953
0.775577
0.793714
0.820764
0.841993
0.855312
0.865585
0.87373
0.879277
0.882023
0.882011
0.87954
0.875235
0.865893
0.849889
0.834842
0.830023
0.836905
0.85691
0.889199
0.932277
0.979994
1.01747
1.04595
1.07275
1.09755
1.12028
1.14098
1.15971
1.17657
1.19167
1.2051
1.21695
1.22727
1.23614
1.24361
1.24973
1.25453
1.25804
1.26028
1.26126
1.261
1.2595
1.25676
1.25275
1.24748
1.24091
1.23301
1.22375
1.21308
1.20094
1.18727
1.172
1.15503
1.13627
1.1156
1.0929
1.06804
1.0409
1.01141
0.979598
0.939904
0.884946
0.826914
0.777362
0.738129
0.709467
0.691305
0.683411
0.685576
0.69761
0.719087
0.74969
0.786866
0.815861
0.833429
0.847052
0.857976
0.866019
0.871114
0.873258
0.872485
0.868864
0.862514
0.853656
0.842682
0.830173
0.811
0.786593
0.764876
0.753221
0.751665
0.760247
0.770213
0.77607
0.77695
0.777321
0.777041
0.776264
0.770637
0.761
0.752682
0.754626
0.766807
0.789208
0.814226
0.834149
0.847602
0.859615
0.869641
0.877337
0.882528
0.885138
0.8559
0.854482
0.851934
0.848813
0.844951
0.836887
0.829139
0.827307
0.836245
0.851508
0.8664
0.87655
0.885555
0.893792
0.900657
0.90577
0.908976
0.910338
0.910151
0.90896
0.907557
0.903311
0.896683
0.891968
0.897991
0.919151
0.951959
0.987025
1.01776
1.04294
1.06767
1.09139
1.11372
1.13448
1.1536
1.17107
1.18692
1.2012
1.21395
1.22524
1.23512
1.24362
1.25079
1.25667
1.26129
1.26465
1.2668
1.26773
1.26746
1.26598
1.26329
1.25938
1.25425
1.24786
1.2402
1.23123
1.22092
1.20922
1.19607
1.18143
1.16523
1.1474
1.12788
1.10658
1.08347
1.05851
1.03176
1.00335
0.973617
0.936662
0.888395
0.838065
0.797033
0.766885
0.747933
0.739881
0.742531
0.755792
0.778346
0.809521
0.834008
0.84956
0.861663
0.872222
0.880827
0.887226
0.891287
0.892958
0.892251
0.889236
0.884055
0.876951
0.868301
0.858658
0.848749
0.835703
0.821448
0.811052
0.808799
0.810881
0.812458
0.81183
0.811739
0.811767
0.811783
0.811927
0.812627
0.81124
0.809385
0.811978
0.822769
0.837484
0.851026
0.861649
0.872071
0.88158
0.889651
0.895934
0.900218
0.902385
0.887212
0.886421
0.88505
0.883517
0.882426
0.882468
0.881504
0.882699
0.888582
0.896197
0.90238
0.909365
0.916565
0.923372
0.929335
0.934171
0.937772
0.940215
0.941766
0.942894
0.944278
0.946829
0.949795
0.953247
0.962948
0.981555
1.00416
1.02607
1.04713
1.0688
1.09041
1.11141
1.13146
1.15033
1.16788
1.18406
1.19884
1.21224
1.22427
1.23496
1.24433
1.25243
1.25927
1.26488
1.26928
1.2725
1.27454
1.27541
1.27511
1.27366
1.27104
1.26725
1.26227
1.2561
1.2487
1.24006
1.23015
1.21893
1.20637
1.19243
1.17706
1.16024
1.14192
1.12208
1.10074
1.07792
1.05375
1.02843
1.0023
0.975831
0.945022
0.907505
0.866498
0.835386
0.815916
0.807671
0.810436
0.824673
0.845384
0.862265
0.873296
0.882568
0.891439
0.899347
0.905882
0.910772
0.91385
0.915036
0.914323
0.911773
0.907521
0.901791
0.894912
0.887335
0.879629
0.87248
0.865652
0.858936
0.854724
0.851035
0.848407
0.847035
0.846408
0.846227
0.846396
0.847019
0.848404
0.851069
0.854897
0.85931
0.866278
0.873431
0.881054
0.889289
0.897453
0.904984
0.911449
0.916531
0.920023
0.921798
0.919316
0.918937
0.918329
0.917778
0.917673
0.918443
0.920428
0.923516
0.926859
0.931047
0.93619
0.941966
0.947966
0.953795
0.95914
0.963805
0.967726
0.970982
0.973804
0.976574
0.979829
0.984255
0.990663
0.999967
1.01168
1.0254
1.04057
1.05758
1.07584
1.09474
1.11374
1.13239
1.15038
1.16748
1.18353
1.19844
1.21215
1.22465
1.23592
1.24598
1.25483
1.26249
1.26897
1.2743
1.27847
1.28152
1.28344
1.28424
1.28393
1.2825
1.27996
1.27629
1.27149
1.26555
1.25845
1.25017
1.24069
1.22999
1.21805
1.20484
1.19035
1.17456
1.15747
1.13909
1.11947
1.09869
1.0769
1.05433
1.0313
1.00827
0.98582
0.962887
0.936832
0.911485
0.892842
0.884358
0.885277
0.891522
0.899125
0.904129
0.909744
0.915977
0.92218
0.927843
0.932583
0.936129
0.938303
0.939012
0.938233
0.936012
0.932464
0.927778
0.922222
0.916139
0.909929
0.903997
0.89861
0.893824
0.889256
0.88564
0.883092
0.881495
0.88063
0.880335
0.880554
0.88135
0.882894
0.885415
0.889042
0.893676
0.898618
0.904232
0.910451
0.916999
0.923466
0.929455
0.934627
0.938719
0.941545
0.942986
0.951798
0.951683
0.951552
0.951593
0.952045
0.953152
0.955068
0.95775
0.960983
0.964856
0.969366
0.974342
0.979538
0.984701
0.989626
0.994184
0.998344
1.00218
1.00589
1.00977
1.01421
1.0197
1.02672
1.03568
1.04651
1.0589
1.07271
1.08783
1.10393
1.12059
1.13741
1.15404
1.1702
1.18568
1.20032
1.21401
1.22668
1.23828
1.2488
1.25821
1.26652
1.27372
1.27983
1.28486
1.2888
1.29166
1.29346
1.29419
1.29386
1.29247
1.29
1.28647
1.28186
1.27616
1.26937
1.26147
1.25244
1.24229
1.23099
1.21854
1.20494
1.19019
1.17431
1.15735
1.13936
1.12047
1.10083
1.08067
1.0603
1.04012
1.0206
1.00235
0.985987
0.969984
0.956149
0.947184
0.94322
0.941326
0.940782
0.942478
0.945574
0.949416
0.953459
0.957262
0.960479
0.962856
0.964222
0.964476
0.963585
0.961578
0.958545
0.954636
0.950059
0.94507
0.939949
0.934967
0.930319
0.926094
0.922301
0.919177
0.916826
0.915223
0.914283
0.91393
0.914135
0.914933
0.916408
0.918653
0.921702
0.925462
0.929707
0.934425
0.93952
0.944789
0.949958
0.954743
0.958885
0.962173
0.964451
0.965616
0.984395
0.984443
0.984603
0.984994
0.985763
0.98705
0.988941
0.991434
0.994466
0.998028
1.00208
1.0065
1.01114
1.01585
1.02048
1.02496
1.02928
1.03352
1.03781
1.04239
1.04755
1.0536
1.06085
1.06951
1.07959
1.09098
1.10353
1.1171
1.13145
1.14627
1.16126
1.17615
1.19071
1.20473
1.21806
1.2306
1.24227
1.25301
1.26277
1.27154
1.27931
1.28605
1.29179
1.2965
1.3002
1.30288
1.30455
1.30521
1.30486
1.30349
1.30112
1.29772
1.29331
1.28787
1.2814
1.27389
1.26533
1.25573
1.24509
1.2334
1.22068
1.20694
1.19224
1.17662
1.16016
1.143
1.12528
1.10723
1.08912
1.07129
1.05412
1.03805
1.0235
1.01075
1.00012
0.991515
0.985124
0.981231
0.979448
0.979426
0.980658
0.982654
0.98498
0.987265
0.989213
0.990596
0.991253
0.991085
0.990052
0.988169
0.985501
0.982162
0.978309
0.974131
0.969832
0.965604
0.961602
0.957933
0.954674
0.951943
0.94981
0.948288
0.94735
0.946965
0.947123
0.94784
0.949151
0.951089
0.953648
0.956763
0.960321
0.964242
0.968415
0.972679
0.976835
0.980672
0.983995
0.986638
0.988471
0.989409
1.01694
1.01709
1.01742
1.01802
1.01896
1.02034
1.02221
1.02458
1.02742
1.03071
1.03441
1.03844
1.04269
1.04706
1.05148
1.05589
1.06031
1.06479
1.06945
1.07445
1.07999
1.0863
1.09357
1.10192
1.11138
1.12188
1.13334
1.14561
1.15849
1.17177
1.18522
1.19861
1.21174
1.22445
1.2366
1.24807
1.25879
1.2687
1.27774
1.28588
1.29311
1.2994
1.30475
1.30916
1.31261
1.3151
1.31665
1.31723
1.31686
1.31553
1.31325
1.31
1.30579
1.30061
1.29446
1.28735
1.27927
1.27023
1.26023
1.24928
1.23742
1.22467
1.21108
1.19672
1.18168
1.16607
1.15006
1.13385
1.11767
1.1018
1.08655
1.07224
1.05919
1.04763
1.03777
1.02966
1.0234
1.01902
1.01635
1.01512
1.01498
1.01556
1.01654
1.01761
1.01851
1.01906
1.01911
1.01856
1.01737
1.01554
1.01313
1.0102
1.00688
1.00331
0.999642
0.996014
0.992553
0.989361
0.98652
0.984109
0.982184
0.980768
0.979862
0.979457
0.979551
0.980151
0.981267
0.982903
0.985039
0.987621
0.990573
0.993807
0.997219
1.00068
1.00403
1.00712
1.00979
1.01191
1.01338
1.01414
1.04935
1.04955
1.04998
1.05069
1.05173
1.05315
1.05498
1.05724
1.05992
1.06299
1.06642
1.07014
1.0741
1.07823
1.08248
1.08683
1.09128
1.09588
1.10073
1.10595
1.11167
1.11805
1.1252
1.13321
1.14211
1.15184
1.16234
1.17349
1.18514
1.19712
1.20923
1.22132
1.2332
1.24474
1.2558
1.2663
1.27613
1.28525
1.2936
1.30114
1.30784
1.31369
1.31867
1.32277
1.32597
1.32829
1.3297
1.33021
1.32983
1.32854
1.32634
1.32324
1.31923
1.31432
1.3085
1.30178
1.29417
1.28567
1.27631
1.26609
1.25505
1.24324
1.2307
1.2175
1.20375
1.18955
1.17506
1.16044
1.1459
1.13168
1.11802
1.10518
1.09338
1.08282
1.07366
1.06596
1.05978
1.05511
1.05182
1.04972
1.04856
1.04808
1.04801
1.04811
1.04817
1.04803
1.04756
1.04667
1.04532
1.04351
1.04126
1.03863
1.03571
1.0326
1.02941
1.02626
1.02324
1.02044
1.01793
1.01579
1.01405
1.01274
1.01187
1.01145
1.01147
1.01195
1.01286
1.01422
1.01598
1.01811
1.02054
1.02319
1.02598
1.02878
1.03149
1.03398
1.03612
1.03783
1.03902
1.03963
1.08155
1.08178
1.08227
1.08303
1.08411
1.08554
1.08733
1.0895
1.09203
1.09492
1.09813
1.10162
1.10535
1.10929
1.11339
1.11765
1.12209
1.12673
1.13166
1.13695
1.1427
1.14902
1.15598
1.16363
1.17199
1.18104
1.1907
1.20088
1.21146
1.22231
1.23328
1.24423
1.25501
1.26549
1.27558
1.28517
1.29419
1.30258
1.31027
1.31723
1.32344
1.32885
1.33347
1.33726
1.34023
1.34236
1.34365
1.3441
1.34369
1.34244
1.34034
1.33738
1.33358
1.32893
1.32343
1.3171
1.30995
1.30199
1.29323
1.28372
1.27346
1.26253
1.25096
1.23885
1.22626
1.21333
1.20017
1.18694
1.17382
1.16101
1.14869
1.13707
1.12633
1.11662
1.10807
1.10074
1.09466
1.08981
1.0861
1.08338
1.08148
1.08019
1.07931
1.07864
1.07803
1.07733
1.07642
1.07524
1.07375
1.07192
1.06977
1.06735
1.06472
1.06196
1.05914
1.05636
1.0537
1.05122
1.04899
1.04707
1.04548
1.04427
1.04344
1.043
1.04295
1.04329
1.04402
1.04512
1.04656
1.0483
1.05029
1.05245
1.05471
1.05698
1.05917
1.06117
1.0629
1.06428
1.06523
1.06572
1.11351
1.11376
1.11427
1.11506
1.11615
1.11756
1.1193
1.12138
1.12379
1.12652
1.12955
1.13285
1.1364
1.14017
1.14414
1.1483
1.15268
1.1573
1.16222
1.16748
1.17317
1.17934
1.18606
1.19334
1.2012
1.20962
1.21853
1.22786
1.23752
1.24739
1.25736
1.2673
1.2771
1.28665
1.29586
1.30463
1.31289
1.32059
1.32767
1.33409
1.33981
1.34482
1.34908
1.35259
1.35533
1.35728
1.35845
1.35883
1.35841
1.3572
1.35518
1.35237
1.34877
1.34438
1.3392
1.33325
1.32655
1.3191
1.31093
1.30207
1.29256
1.28245
1.27179
1.26065
1.24913
1.23732
1.22535
1.21334
1.20145
1.18983
1.17865
1.16808
1.15824
1.14927
1.14126
1.13427
1.12832
1.12337
1.11938
1.11623
1.11378
1.11189
1.11039
1.10913
1.10798
1.10682
1.10556
1.10413
1.1025
1.10064
1.09856
1.09629
1.09388
1.09137
1.08884
1.08635
1.08397
1.08175
1.07974
1.078
1.07655
1.07541
1.07461
1.07415
1.07403
1.07426
1.07481
1.07568
1.07684
1.07824
1.07985
1.0816
1.08343
1.08527
1.08703
1.08865
1.09004
1.09114
1.09191
1.0923
1.14522
1.14548
1.146
1.14679
1.14787
1.14925
1.15093
1.15293
1.15523
1.15782
1.1607
1.16384
1.16723
1.17085
1.17469
1.17875
1.18304
1.18758
1.19242
1.19759
1.20315
1.20913
1.21556
1.22247
1.22986
1.23769
1.24593
1.25452
1.26336
1.27237
1.28146
1.29052
1.29945
1.30816
1.31656
1.32458
1.33216
1.33922
1.34573
1.35163
1.35691
1.36152
1.36546
1.36869
1.3712
1.37299
1.37404
1.37436
1.37393
1.37275
1.37083
1.36816
1.36475
1.36061
1.35574
1.35016
1.34388
1.33692
1.32931
1.32108
1.31226
1.30291
1.29309
1.28285
1.27228
1.26148
1.25056
1.23962
1.22879
1.21822
1.20802
1.19834
1.18929
1.18096
1.17344
1.16676
1.16095
1.15599
1.15182
1.14837
1.14553
1.14319
1.14122
1.13951
1.13794
1.13642
1.13487
1.13323
1.13148
1.12958
1.12753
1.12537
1.12311
1.12081
1.1185
1.11624
1.11408
1.11206
1.11024
1.10864
1.10729
1.10622
1.10544
1.10496
1.10478
1.10489
1.10529
1.10595
1.10686
1.10799
1.10927
1.11068
1.11215
1.11363
1.11505
1.11634
1.11746
1.11834
1.11896
1.11927
1.17668
1.17693
1.17745
1.17823
1.17929
1.18063
1.18225
1.18417
1.18637
1.18884
1.19159
1.19459
1.19783
1.20131
1.20502
1.20896
1.21313
1.21757
1.22229
1.22732
1.2327
1.23845
1.24459
1.25113
1.25807
1.26537
1.273
1.28091
1.28903
1.29728
1.30559
1.31386
1.32201
1.32997
1.33765
1.34499
1.35193
1.35841
1.36438
1.36981
1.37467
1.37891
1.38253
1.3855
1.3878
1.38943
1.39037
1.39063
1.39019
1.38905
1.38721
1.38469
1.38147
1.37757
1.373
1.36777
1.3619
1.3554
1.34832
1.34067
1.3325
1.32386
1.31479
1.30537
1.29567
1.28578
1.27578
1.26578
1.25589
1.24622
1.23688
1.22798
1.2196
1.21185
1.20476
1.19839
1.19274
1.18781
1.18355
1.1799
1.17679
1.17412
1.1718
1.16974
1.16785
1.16604
1.16426
1.16246
1.16059
1.15865
1.15663
1.15454
1.1524
1.15025
1.14811
1.14603
1.14404
1.14219
1.14051
1.13902
1.13776
1.13674
1.13598
1.13547
1.13522
1.13524
1.13549
1.13598
1.13668
1.13756
1.13858
1.1397
1.14087
1.14205
1.14318
1.14421
1.14511
1.14581
1.14631
1.14656
1.20788
1.20813
1.20863
1.2094
1.21043
1.21172
1.21329
1.21513
1.21723
1.2196
1.22222
1.22509
1.2282
1.23154
1.23512
1.23892
1.24297
1.24727
1.25185
1.25671
1.26188
1.26738
1.27322
1.2794
1.2859
1.29271
1.29979
1.30709
1.31457
1.32214
1.32975
1.33731
1.34477
1.35205
1.35908
1.3658
1.37216
1.3781
1.38359
1.38857
1.39303
1.39693
1.40025
1.40297
1.40508
1.40655
1.4074
1.40759
1.40714
1.40604
1.4043
1.4019
1.39887
1.3952
1.39091
1.38602
1.38053
1.37448
1.36788
1.36078
1.35321
1.34522
1.33685
1.32818
1.31926
1.31017
1.301
1.29183
1.28277
1.27389
1.2653
1.25708
1.24931
1.24206
1.23538
1.22929
1.22382
1.21895
1.21466
1.21089
1.2076
1.2047
1.20213
1.19981
1.19767
1.19564
1.19368
1.19174
1.18979
1.18781
1.1858
1.18376
1.18171
1.17967
1.17766
1.17572
1.17387
1.17215
1.17058
1.16919
1.16799
1.16701
1.16625
1.16572
1.16541
1.16534
1.16547
1.16581
1.16632
1.16699
1.16778
1.16865
1.16958
1.17051
1.17141
1.17223
1.17294
1.1735
1.17389
1.17409
1.23882
1.23907
1.23956
1.2403
1.2413
1.24255
1.24405
1.24581
1.24783
1.25009
1.2526
1.25535
1.25833
1.26154
1.26498
1.26865
1.27256
1.27671
1.28111
1.28579
1.29074
1.29598
1.30151
1.30734
1.31343
1.31978
1.32636
1.33311
1.34
1.34696
1.35394
1.36088
1.36772
1.37438
1.38082
1.38698
1.3928
1.39825
1.40328
1.40786
1.41195
1.41553
1.41857
1.42106
1.42298
1.42432
1.42506
1.42521
1.42475
1.42369
1.42202
1.41976
1.4169
1.41345
1.40943
1.40485
1.39973
1.39409
1.38796
1.38136
1.37435
1.36695
1.35922
1.35122
1.34301
1.33465
1.32622
1.31779
1.30945
1.30127
1.29334
1.28573
1.2785
1.2717
1.26539
1.25958
1.2543
1.24952
1.24524
1.24142
1.23801
1.23495
1.2322
1.22969
1.22737
1.22518
1.22308
1.22103
1.21901
1.217
1.215
1.21299
1.21101
1.20905
1.20715
1.20531
1.20357
1.20195
1.20047
1.19915
1.19801
1.19705
1.19629
1.19574
1.19538
1.19522
1.19525
1.19545
1.1958
1.19629
1.19689
1.19756
1.19828
1.19901
1.19971
1.20036
1.20092
1.20136
1.20167
1.20183
1.26952
1.26976
1.27024
1.27096
1.27191
1.27312
1.27456
1.27625
1.27818
1.28034
1.28274
1.28537
1.28823
1.29131
1.29461
1.29814
1.3019
1.30588
1.31011
1.31458
1.3193
1.32428
1.32952
1.335
1.34071
1.34664
1.35274
1.359
1.36535
1.37177
1.37819
1.38456
1.39082
1.39694
1.40284
1.40848
1.41382
1.41882
1.42344
1.42763
1.43138
1.43466
1.43745
1.43972
1.44146
1.44267
1.44332
1.44342
1.44296
1.44194
1.44035
1.43821
1.43552
1.43228
1.42851
1.42423
1.41945
1.41419
1.40849
1.40237
1.39586
1.38901
1.38187
1.37448
1.3669
1.3592
1.35143
1.34366
1.33597
1.32842
1.32107
1.314
1.30725
1.30087
1.2949
1.28936
1.28426
1.2796
1.27536
1.27153
1.26806
1.26491
1.26203
1.25939
1.25694
1.25463
1.25242
1.2503
1.24822
1.24619
1.24418
1.24221
1.24028
1.23839
1.23656
1.23481
1.23315
1.23161
1.2302
1.22894
1.22783
1.2269
1.22614
1.22555
1.22515
1.22492
1.22485
1.22493
1.22516
1.22549
1.22593
1.22643
1.22698
1.22753
1.22808
1.22858
1.22901
1.22936
1.2296
1.22973
1.29998
1.30021
1.30067
1.30136
1.30229
1.30344
1.30483
1.30644
1.30829
1.31036
1.31266
1.31517
1.31791
1.32086
1.32403
1.32741
1.331
1.33482
1.33886
1.34312
1.34762
1.35233
1.35727
1.36243
1.36778
1.3733
1.37898
1.38478
1.39065
1.39657
1.40248
1.40833
1.41409
1.4197
1.42511
1.43029
1.43519
1.43977
1.444
1.44785
1.45129
1.45429
1.45684
1.45891
1.46049
1.46157
1.46214
1.4622
1.46173
1.46074
1.45924
1.45721
1.45468
1.45164
1.44811
1.4441
1.43964
1.43475
1.42944
1.42375
1.41772
1.41137
1.40476
1.39793
1.39093
1.38381
1.37664
1.36946
1.36234
1.35535
1.34853
1.34194
1.33563
1.32963
1.32397
1.31869
1.31378
1.30925
1.30509
1.30127
1.29778
1.29458
1.29164
1.28891
1.28636
1.28397
1.28169
1.27951
1.27739
1.27534
1.27334
1.27139
1.2695
1.26766
1.2659
1.26421
1.26262
1.26115
1.25979
1.25857
1.25749
1.25657
1.2558
1.2552
1.25475
1.25445
1.2543
1.25428
1.25439
1.2546
1.25489
1.25525
1.25565
1.25607
1.25648
1.25686
1.2572
1.25746
1.25765
1.25774
1.33022
1.33044
1.33088
1.33154
1.33243
1.33353
1.33486
1.33641
1.33817
1.34015
1.34235
1.34476
1.34737
1.35019
1.35322
1.35645
1.35989
1.36353
1.36738
1.37144
1.3757
1.38016
1.38482
1.38966
1.39466
1.39982
1.4051
1.41048
1.41591
1.42137
1.42682
1.43221
1.4375
1.44266
1.44763
1.45238
1.45687
1.46108
1.46495
1.46848
1.47163
1.47437
1.4767
1.47858
1.48001
1.48098
1.48148
1.48149
1.48102
1.48007
1.47864
1.47672
1.47434
1.47148
1.46818
1.46444
1.46027
1.45571
1.45077
1.44548
1.43988
1.434
1.42787
1.42155
1.41507
1.40848
1.40184
1.3952
1.3886
1.38211
1.37576
1.36961
1.36369
1.35804
1.35268
1.34764
1.34292
1.33853
1.33446
1.3307
1.32722
1.324
1.32102
1.31824
1.31564
1.31319
1.31086
1.30864
1.30651
1.30444
1.30245
1.30052
1.29866
1.29687
1.29515
1.29352
1.29198
1.29055
1.28924
1.28805
1.287
1.28608
1.28531
1.28468
1.28419
1.28384
1.28361
1.28351
1.28352
1.28362
1.2838
1.28404
1.28431
1.28461
1.28491
1.2852
1.28544
1.28564
1.28578
1.28586
1.36023
1.36044
1.36086
1.3615
1.36235
1.3634
1.36467
1.36615
1.36784
1.36973
1.37183
1.37413
1.37662
1.37932
1.38221
1.38529
1.38857
1.39204
1.3957
1.39955
1.40358
1.40779
1.41218
1.41672
1.4214
1.42621
1.43113
1.43612
1.44115
1.4462
1.45122
1.45619
1.46106
1.46579
1.47036
1.47472
1.47885
1.4827
1.48626
1.48949
1.49237
1.49488
1.497
1.49871
1.5
1.50087
1.50129
1.50127
1.5008
1.49988
1.49852
1.49671
1.49446
1.49178
1.48869
1.48519
1.4813
1.47705
1.47245
1.46753
1.46233
1.45687
1.45118
1.44532
1.43931
1.43321
1.42705
1.42089
1.41476
1.40871
1.40279
1.39704
1.39148
1.38615
1.38108
1.37627
1.37174
1.3675
1.36353
1.35983
1.35639
1.35319
1.35019
1.3474
1.34477
1.34229
1.33993
1.33769
1.33554
1.33348
1.33149
1.32959
1.32775
1.32599
1.32432
1.32273
1.32124
1.31985
1.31857
1.3174
1.31637
1.31545
1.31467
1.31402
1.31349
1.31309
1.31281
1.31263
1.31255
1.31256
1.31264
1.31278
1.31295
1.31316
1.31336
1.31356
1.31374
1.31389
1.31399
1.31404
1.39003
1.39023
1.39064
1.39124
1.39205
1.39307
1.39428
1.39569
1.3973
1.39911
1.40111
1.4033
1.40568
1.40825
1.41101
1.41394
1.41706
1.42036
1.42383
1.42747
1.43129
1.43526
1.43938
1.44364
1.44802
1.45251
1.45708
1.46171
1.46637
1.47104
1.47568
1.48026
1.48474
1.4891
1.4933
1.49731
1.50109
1.50463
1.50789
1.51085
1.51348
1.51577
1.5177
1.51926
1.52042
1.52119
1.52155
1.5215
1.52103
1.52014
1.51884
1.51713
1.51502
1.5125
1.5096
1.50633
1.5027
1.49873
1.49445
1.48987
1.48503
1.47995
1.47468
1.46923
1.46366
1.45799
1.45227
1.44654
1.44083
1.4352
1.42966
1.42427
1.41905
1.41402
1.4092
1.40462
1.40028
1.39618
1.39233
1.38871
1.38533
1.38215
1.37918
1.37638
1.37375
1.37126
1.36889
1.36664
1.36449
1.36243
1.36046
1.35857
1.35676
1.35504
1.3534
1.35184
1.35039
1.34903
1.34778
1.34663
1.34561
1.3447
1.3439
1.34323
1.34267
1.34223
1.34189
1.34165
1.3415
1.34143
1.34143
1.34148
1.34157
1.34169
1.34182
1.34195
1.34207
1.34217
1.34224
1.34228
1.41962
1.41982
1.4202
1.42078
1.42156
1.42252
1.42368
1.42503
1.42656
1.42829
1.43019
1.43228
1.43455
1.437
1.43962
1.44241
1.44537
1.4485
1.45179
1.45523
1.45883
1.46257
1.46644
1.47043
1.47453
1.47871
1.48297
1.48727
1.49159
1.49591
1.50019
1.50442
1.50855
1.51256
1.51643
1.52011
1.52359
1.52683
1.52982
1.53253
1.53494
1.53703
1.53878
1.54019
1.54124
1.54192
1.54222
1.54214
1.54167
1.54082
1.53958
1.53796
1.53597
1.53361
1.53089
1.52782
1.52443
1.52073
1.51674
1.51247
1.50797
1.50325
1.49834
1.49327
1.48809
1.48282
1.4775
1.47216
1.46684
1.46158
1.4564
1.45133
1.44642
1.44166
1.43709
1.43273
1.42857
1.42462
1.42089
1.41737
1.41405
1.41093
1.40798
1.40521
1.40258
1.4001
1.39774
1.39549
1.39335
1.3913
1.38935
1.38748
1.3857
1.384
1.38239
1.38086
1.37943
1.3781
1.37687
1.37575
1.37473
1.37382
1.37302
1.37233
1.37174
1.37126
1.37088
1.37058
1.37037
1.37024
1.37016
1.37014
1.37016
1.37021
1.37028
1.37035
1.37042
1.37048
1.37053
1.37055
1.44902
1.44921
1.44958
1.45013
1.45087
1.45179
1.4529
1.45418
1.45564
1.45728
1.4591
1.46109
1.46324
1.46557
1.46806
1.47071
1.47352
1.47648
1.47959
1.48284
1.48623
1.48975
1.49338
1.49712
1.50095
1.50485
1.50881
1.51281
1.51681
1.52081
1.52477
1.52867
1.53248
1.53618
1.53973
1.54312
1.54631
1.54929
1.55203
1.55451
1.55671
1.55862
1.56021
1.56149
1.56243
1.56302
1.56327
1.56316
1.5627
1.56188
1.5607
1.55917
1.55729
1.55507
1.55252
1.54965
1.54648
1.54302
1.53929
1.53532
1.53112
1.52672
1.52215
1.51744
1.51261
1.5077
1.50274
1.49776
1.49279
1.48787
1.48301
1.47825
1.47362
1.46912
1.46479
1.46062
1.45664
1.45285
1.44924
1.44582
1.44258
1.43952
1.43662
1.43388
1.43128
1.42881
1.42647
1.42424
1.42211
1.42008
1.41815
1.4163
1.41454
1.41287
1.41129
1.40979
1.40839
1.40708
1.40587
1.40475
1.40374
1.40283
1.40202
1.40131
1.40071
1.40019
1.39977
1.39943
1.39917
1.39897
1.39884
1.39876
1.39872
1.39871
1.39872
1.39875
1.39878
1.39881
1.39884
1.39885
1.47824
1.47842
1.47877
1.4793
1.48
1.48088
1.48193
1.48315
1.48454
1.4861
1.48783
1.48972
1.49177
1.49398
1.49634
1.49885
1.50151
1.50431
1.50725
1.51031
1.5135
1.51681
1.52021
1.52371
1.52729
1.53093
1.53462
1.53833
1.54205
1.54575
1.54941
1.55302
1.55653
1.55994
1.56321
1.56632
1.56926
1.57199
1.5745
1.57677
1.57878
1.58051
1.58196
1.58312
1.58396
1.58448
1.58468
1.58455
1.58409
1.58329
1.58217
1.58072
1.57894
1.57686
1.57446
1.57178
1.56881
1.56558
1.5621
1.55839
1.55447
1.55037
1.54611
1.54172
1.53722
1.53264
1.52801
1.52335
1.51871
1.51409
1.50953
1.50505
1.50068
1.49642
1.49231
1.48834
1.48453
1.48088
1.4774
1.47409
1.47094
1.46794
1.4651
1.4624
1.45984
1.45741
1.45509
1.45288
1.45078
1.44877
1.44686
1.44504
1.4433
1.44165
1.4401
1.43863
1.43724
1.43596
1.43476
1.43366
1.43265
1.43174
1.43093
1.43021
1.42958
1.42903
1.42858
1.4282
1.42789
1.42765
1.42747
1.42734
1.42725
1.42719
1.42716
1.42715
1.42714
1.42715
1.42715
1.42716
1.50728
1.50745
1.50778
1.50829
1.50896
1.50979
1.51079
1.51195
1.51328
1.51476
1.5164
1.51819
1.52013
1.52223
1.52446
1.52684
1.52936
1.532
1.53477
1.53766
1.54066
1.54376
1.54696
1.55023
1.55357
1.55697
1.5604
1.56385
1.5673
1.57073
1.57412
1.57744
1.58069
1.58383
1.58684
1.5897
1.5924
1.59491
1.59721
1.59928
1.60112
1.6027
1.60402
1.60505
1.6058
1.60626
1.60641
1.60626
1.6058
1.60504
1.60397
1.60259
1.60092
1.59895
1.5967
1.59418
1.59141
1.58838
1.58513
1.58166
1.57801
1.57418
1.5702
1.5661
1.5619
1.55762
1.55329
1.54894
1.54458
1.54025
1.53597
1.53175
1.52762
1.52359
1.51968
1.5159
1.51225
1.50875
1.5054
1.50219
1.49913
1.49622
1.49344
1.4908
1.48828
1.48588
1.4836
1.48142
1.47934
1.47736
1.47548
1.47368
1.47197
1.47035
1.46882
1.46737
1.46601
1.46474
1.46356
1.46247
1.46147
1.46056
1.45974
1.459
1.45836
1.45779
1.45731
1.4569
1.45655
1.45627
1.45605
1.45588
1.45574
1.45565
1.45558
1.45553
1.4555
1.45548
1.45547
1.45547
1.53615
1.53631
1.53663
1.53711
1.53775
1.53854
1.53949
1.54059
1.54185
1.54325
1.54481
1.54651
1.54835
1.55033
1.55245
1.5547
1.55707
1.55957
1.56218
1.5649
1.56772
1.57063
1.57362
1.57668
1.5798
1.58297
1.58616
1.58936
1.59257
1.59574
1.59888
1.60196
1.60495
1.60785
1.61062
1.61325
1.61573
1.61803
1.62014
1.62204
1.62371
1.62515
1.62634
1.62728
1.62795
1.62834
1.62845
1.62828
1.62783
1.62709
1.62607
1.62476
1.62318
1.62133
1.61922
1.61685
1.61425
1.61141
1.60837
1.60513
1.60171
1.59813
1.59442
1.59059
1.58666
1.58266
1.5786
1.57452
1.57044
1.56637
1.56234
1.55836
1.55445
1.55064
1.54692
1.54332
1.53983
1.53647
1.53325
1.53015
1.52719
1.52435
1.52164
1.51906
1.51659
1.51424
1.512
1.50985
1.50781
1.50586
1.50401
1.50224
1.50056
1.49896
1.49745
1.49603
1.49469
1.49343
1.49227
1.49119
1.49019
1.48928
1.48846
1.48772
1.48705
1.48647
1.48596
1.48552
1.48515
1.48484
1.48458
1.48437
1.4842
1.48407
1.48397
1.4839
1.48384
1.48381
1.48379
1.48378
1.56487
1.56502
1.56532
1.56577
1.56638
1.56713
1.56803
1.56908
1.57027
1.5716
1.57308
1.57469
1.57643
1.57831
1.58031
1.58243
1.58467
1.58702
1.58948
1.59204
1.59468
1.59741
1.60021
1.60307
1.60599
1.60894
1.61191
1.61489
1.61786
1.6208
1.62371
1.62655
1.62931
1.63198
1.63454
1.63696
1.63924
1.64135
1.64328
1.64502
1.64654
1.64785
1.64893
1.64977
1.65036
1.6507
1.65078
1.65059
1.65014
1.64943
1.64845
1.64721
1.64571
1.64397
1.64198
1.63976
1.63732
1.63466
1.63181
1.62878
1.62558
1.62223
1.61875
1.61517
1.61149
1.60774
1.60394
1.60011
1.59628
1.59245
1.58865
1.5849
1.5812
1.57758
1.57405
1.57062
1.56729
1.56407
1.56096
1.55798
1.55511
1.55236
1.54973
1.54721
1.5448
1.54249
1.54029
1.53819
1.53618
1.53427
1.53245
1.53071
1.52905
1.52749
1.526
1.5246
1.52328
1.52204
1.52089
1.51982
1.51883
1.51792
1.51709
1.51635
1.51567
1.51508
1.51455
1.51409
1.51369
1.51335
1.51306
1.51282
1.51263
1.51247
1.51234
1.51224
1.51217
1.51212
1.51209
1.51207
1.59343
1.59357
1.59386
1.59429
1.59486
1.59557
1.59643
1.59742
1.59855
1.59981
1.60121
1.60273
1.60438
1.60615
1.60804
1.61004
1.61215
1.61437
1.61668
1.61908
1.62156
1.62412
1.62674
1.62942
1.63214
1.63488
1.63765
1.64042
1.64317
1.6459
1.64859
1.65122
1.65377
1.65624
1.65859
1.66082
1.66291
1.66485
1.66661
1.6682
1.66959
1.67078
1.67176
1.67251
1.67303
1.67332
1.67336
1.67316
1.67272
1.67203
1.67109
1.66991
1.6685
1.66685
1.66498
1.66289
1.66059
1.6581
1.65543
1.65259
1.64959
1.64645
1.6432
1.63984
1.63639
1.63287
1.62931
1.62572
1.62211
1.6185
1.61492
1.61137
1.60788
1.60444
1.60108
1.59781
1.59463
1.59154
1.58856
1.58568
1.58291
1.58025
1.57769
1.57524
1.57289
1.57064
1.56849
1.56643
1.56447
1.56259
1.5608
1.55909
1.55747
1.55593
1.55447
1.55309
1.55179
1.55057
1.54943
1.54837
1.54739
1.54648
1.54565
1.5449
1.54422
1.54361
1.54307
1.54259
1.54217