/*--------------------------------*- C++ -*----------------------------------*\
| =========                 |                                                 |
| \\      /  F ield         | OpenFOAM: The Open Source CFD Toolbox           |
|  \\    /   O peration     | Version:  2406                                  |
|   \\  /    A nd           | Website:  www.openfoam.com                      |
|    \\/     M anipulation  |                                                 |
\*---------------------------------------------------------------------------*/
FoamFile
{
    version     2.0;
    format      ascii;
    arch        "LSB;label=32;scalar=64";
    class       volScalarField;
    location    "3";
    object      C_0_0;
}
// * * * * * * * * * * * * * * * * * * * * * * * * * * * * * * * * * * * * * //

dimensions      [1 -3 0 0 0 0 0];

internalField   nonuniform List<scalar> 
14400
(
0.747803
0.734392
0.709654
0.684377
0.663457
0.648662
0.640879
0.64059
0.648014
0.663139
0.685688
0.714975
0.749432
0.784519
0.807151
0.815936
0.816945
0.809613
0.788092
0.75862
0.733085
0.714377
0.703865
0.702403
0.710587
0.728841
0.757447
0.79653
0.845988
0.905197
0.971583
1.02615
1.06215
1.09043
1.1153
1.13723
1.15658
1.17364
1.18863
1.20172
1.21305
1.22274
1.23086
1.23749
1.24269
1.24649
1.24893
1.25003
1.24981
1.24826
1.24539
1.24117
1.2356
1.22863
1.22022
1.21032
1.19887
1.18578
1.17095
1.15425
1.13553
1.11459
1.0912
1.06505
1.03576
1.00283
0.955161
0.88696
0.816823
0.754271
0.700977
0.657195
0.622813
0.597609
0.58134
0.573775
0.574715
0.583985
0.601425
0.626846
0.659949
0.700101
0.74531
0.783261
0.8059
0.819522
0.827809
0.831192
0.829822
0.823592
0.812095
0.790892
0.756487
0.718436
0.685372
0.659057
0.640032
0.628393
0.623891
0.625914
0.633399
0.644648
0.656785
0.66443
0.657052
0.645208
0.634276
0.627158
0.625581
0.630641
0.642984
0.662893
0.690309
0.724729
0.7644
0.80032
0.822945
0.836162
0.844594
0.848706
0.758221
0.749034
0.726371
0.699852
0.677876
0.662325
0.654092
0.653653
0.661225
0.676796
0.700096
0.730443
0.766181
0.798181
0.815644
0.823674
0.824997
0.819486
0.80297
0.774732
0.748265
0.728642
0.717447
0.715576
0.723633
0.742047
0.771073
0.810799
0.861033
0.920778
0.985655
1.03372
1.06616
1.09385
1.11824
1.1398
1.15887
1.17571
1.19053
1.20348
1.2147
1.2243
1.23235
1.23893
1.24408
1.24785
1.25027
1.25136
1.25113
1.24959
1.24673
1.24253
1.23699
1.23006
1.22171
1.21188
1.20051
1.18752
1.17282
1.15627
1.13774
1.11704
1.09396
1.06819
1.03939
1.00706
0.964989
0.902757
0.831523
0.767981
0.713855
0.669381
0.634462
0.608885
0.59241
0.584808
0.585876
0.59544
0.61333
0.639342
0.67312
0.713851
0.758824
0.792645
0.81203
0.824856
0.832713
0.835944
0.834682
0.828859
0.818193
0.801054
0.771219
0.732987
0.699271
0.672424
0.653091
0.641471
0.637381
0.640267
0.649127
0.662443
0.677364
0.684801
0.677641
0.663
0.649982
0.641468
0.639009
0.643638
0.655944
0.676141
0.704066
0.739094
0.778844
0.810012
0.828558
0.840946
0.848914
0.852818
0.776723
0.771282
0.756156
0.729851
0.706385
0.689485
0.680408
0.67968
0.687532
0.703932
0.728552
0.76025
0.795474
0.818722
0.831074
0.838119
0.839878
0.836289
0.826795
0.80558
0.77813
0.756963
0.744495
0.741839
0.749651
0.768389
0.798236
0.839188
0.890921
0.951843
1.00672
1.04444
1.07419
1.10057
1.12401
1.14486
1.16339
1.1798
1.19428
1.20697
1.21798
1.2274
1.23532
1.24178
1.24685
1.25056
1.25294
1.254
1.25377
1.25223
1.2494
1.24525
1.23977
1.23292
1.22467
1.21498
1.20377
1.19098
1.17652
1.16028
1.14212
1.12189
1.09939
1.07437
1.04653
1.01546
0.979842
0.928938
0.859676
0.795163
0.739604
0.693811
0.65784
0.631526
0.614645
0.606969
0.608294
0.618438
0.637214
0.664387
0.699469
0.741159
0.782243
0.807795
0.823758
0.83516
0.842242
0.845191
0.844101
0.83897
0.829711
0.816217
0.794938
0.761096
0.7267
0.698971
0.679024
0.667405
0.664067
0.668529
0.679662
0.695742
0.709968
0.713349
0.710193
0.696285
0.68047
0.669641
0.665566
0.669406
0.681675
0.702449
0.731211
0.76684
0.801838
0.824344
0.839225
0.850149
0.857299
0.860833
0.800636
0.797013
0.789901
0.773125
0.748395
0.72973
0.719539
0.718414
0.726648
0.74414
0.770537
0.803312
0.827832
0.841753
0.851658
0.857849
0.860107
0.858432
0.853065
0.842152
0.820987
0.798795
0.784705
0.780973
0.788416
0.807665
0.838663
0.881049
0.933391
0.988226
1.02805
1.05824
1.08557
1.11022
1.13238
1.15225
1.17001
1.18583
1.19984
1.21214
1.22284
1.23202
1.23973
1.24604
1.25099
1.2546
1.25692
1.25795
1.2577
1.25618
1.25338
1.2493
1.2439
1.23718
1.22909
1.21958
1.20861
1.19612
1.18201
1.1662
1.14857
1.12901
1.10733
1.08337
1.05691
1.02768
0.995447
0.956786
0.901224
0.835791
0.77825
0.730572
0.693077
0.665686
0.648213
0.640431
0.642134
0.653129
0.673174
0.70198
0.738609
0.780005
0.809177
0.826634
0.840043
0.849783
0.855903
0.858475
0.857562
0.853208
0.845463
0.834454
0.820498
0.798389
0.766398
0.738225
0.717362
0.70568
0.703301
0.709845
0.723006
0.73796
0.744613
0.745487
0.744737
0.738323
0.72372
0.710809
0.704594
0.707421
0.719698
0.741329
0.770435
0.803297
0.826408
0.841527
0.853848
0.863127
0.869301
0.87238
0.82817
0.825837
0.821546
0.81489
0.800948
0.781696
0.770729
0.769175
0.777821
0.796025
0.823076
0.844253
0.857515
0.8678
0.875956
0.881512
0.884269
0.884266
0.881804
0.877503
0.868273
0.852394
0.837263
0.832437
0.83932
0.859359
0.891697
0.934885
0.982343
1.01964
1.04809
1.07487
1.09965
1.12236
1.14303
1.16174
1.17859
1.19367
1.20709
1.21892
1.22923
1.23809
1.24555
1.25166
1.25645
1.25995
1.26218
1.26317
1.26291
1.2614
1.25865
1.25465
1.24938
1.24281
1.23491
1.22565
1.21499
1.20286
1.1892
1.17393
1.15697
1.13822
1.11757
1.09488
1.07004
1.04292
1.01345
0.981651
0.942153
0.887483
0.829318
0.779617
0.740279
0.71153
0.693313
0.685398
0.687578
0.699656
0.721191
0.751887
0.789159
0.818014
0.835477
0.849086
0.859996
0.868027
0.873111
0.875245
0.874464
0.870836
0.864479
0.855614
0.844632
0.832119
0.81302
0.78871
0.766904
0.755214
0.753667
0.762309
0.772201
0.77799
0.778876
0.77925
0.778963
0.778176
0.772613
0.763042
0.754662
0.756589
0.768797
0.791276
0.816189
0.836027
0.849476
0.86149
0.871514
0.879208
0.884398
0.887006
0.858038
0.856618
0.854065
0.850937
0.847119
0.839103
0.831418
0.829612
0.838543
0.85375
0.868599
0.878707
0.887728
0.895977
0.902853
0.907975
0.91119
0.91256
0.91238
0.911194
0.909797
0.90566
0.899113
0.894488
0.900496
0.921693
0.954452
0.989349
1.01991
1.04507
1.06978
1.09348
1.1158
1.13654
1.15564
1.17309
1.18893
1.20319
1.21593
1.22721
1.23707
1.24556
1.25272
1.2586
1.2632
1.26656
1.2687
1.26963
1.26935
1.26787
1.26518
1.26128
1.25614
1.24976
1.2421
1.23313
1.22282
1.21113
1.19799
1.18336
1.16717
1.14935
1.12983
1.10855
1.08545
1.06051
1.03377
1.00538
0.975652
0.938899
0.890901
0.840433
0.799326
0.769075
0.750062
0.741989
0.744659
0.757982
0.780559
0.811815
0.836166
0.851595
0.863688
0.874235
0.882828
0.889217
0.893268
0.89493
0.894214
0.891192
0.886004
0.878892
0.870233
0.860581
0.850666
0.837691
0.823468
0.813073
0.810789
0.812842
0.814356
0.81373
0.813642
0.813671
0.813682
0.813819
0.814511
0.813182
0.811348
0.813965
0.824748
0.839421
0.852885
0.863507
0.87393
0.88344
0.89151
0.897792
0.902075
0.904241
0.889326
0.888532
0.887158
0.885619
0.884521
0.88457
0.883665
0.884883
0.890749
0.898318
0.904498
0.911498
0.91871
0.925529
0.931502
0.936346
0.939954
0.942404
0.943961
0.945093
0.94648
0.949034
0.952079
0.955582
0.96529
0.983872
1.00639
1.0282
1.04924
1.07091
1.09249
1.11349
1.13352
1.15237
1.1699
1.18607
1.20084
1.21422
1.22623
1.23691
1.24627
1.25436
1.26119
1.2668
1.27119
1.2744
1.27643
1.2773
1.277
1.27554
1.27292
1.26913
1.26416
1.25798
1.25059
1.24196
1.23205
1.22083
1.20828
1.19434
1.17899
1.16217
1.14386
1.12404
1.1027
1.0799
1.05574
1.03043
1.00431
0.977852
0.947226
0.909887
0.868953
0.837701
0.81817
0.809903
0.812687
0.827043
0.847626
0.864406
0.87532
0.884581
0.893443
0.90134
0.907865
0.912745
0.915813
0.916991
0.916271
0.913713
0.909453
0.903715
0.896829
0.889243
0.881528
0.874369
0.867578
0.860876
0.856643
0.852912
0.850287
0.848918
0.848291
0.848109
0.848275
0.848893
0.85027
0.852926
0.856789
0.861216
0.868163
0.875273
0.882897
0.891133
0.899298
0.90683
0.913294
0.918376
0.921867
0.923642
0.921407
0.921026
0.920416
0.919861
0.919751
0.920516
0.922492
0.925579
0.928928
0.933133
0.938288
0.944076
0.950087
0.955925
0.961279
0.965951
0.969878
0.97314
0.975965
0.978738
0.981995
0.986418
0.992819
1.00211
1.01383
1.02752
1.04268
1.05968
1.07793
1.09682
1.1158
1.13444
1.15242
1.1695
1.18554
1.20043
1.21413
1.22662
1.23788
1.24792
1.25676
1.26441
1.27089
1.2762
1.28037
1.28341
1.28533
1.28613
1.28581
1.28438
1.28184
1.27817
1.27337
1.26743
1.26033
1.25205
1.24258
1.23188
1.21995
1.20675
1.19226
1.17648
1.1594
1.14103
1.12142
1.10065
1.07887
1.05631
1.03329
1.01026
0.987825
0.964994
0.939064
0.913825
0.895196
0.886689
0.887539
0.893707
0.901216
0.906138
0.911744
0.917968
0.924161
0.929815
0.934547
0.938084
0.94025
0.940951
0.940164
0.937935
0.93438
0.929687
0.924123
0.918032
0.911814
0.905874
0.900481
0.895688
0.891121
0.887505
0.884958
0.883362
0.882497
0.8822
0.882416
0.883207
0.884745
0.887259
0.890881
0.895507
0.90045
0.906063
0.912283
0.918831
0.925299
0.931288
0.936459
0.940551
0.943377
0.944818
0.953867
0.953751
0.953618
0.953656
0.954106
0.955209
0.957122
0.959805
0.963043
0.966925
0.971445
0.97643
0.981635
0.986806
0.991738
0.996302
1.00047
1.00431
1.00802
1.0119
1.01634
1.02183
1.02884
1.03779
1.04861
1.06099
1.07479
1.0899
1.10599
1.12264
1.13945
1.15607
1.17222
1.18769
1.20231
1.21599
1.22864
1.24024
1.25074
1.26014
1.26844
1.27564
1.28174
1.28675
1.29069
1.29355
1.29534
1.29607
1.29574
1.29434
1.29187
1.28834
1.28373
1.27803
1.27124
1.26334
1.25432
1.24417
1.23288
1.22044
1.20684
1.1921
1.17623
1.15927
1.14129
1.12241
1.10278
1.08263
1.06227
1.04209
1.02258
1.00434
0.987982
0.972079
0.958296
0.949331
0.945315
0.943321
0.942771
0.944461
0.94755
0.951384
0.955419
0.959214
0.962423
0.964793
0.966151
0.966397
0.965499
0.963484
0.960445
0.956529
0.951945
0.946949
0.941821
0.936833
0.932178
0.927949
0.924154
0.921029
0.918677
0.917074
0.916133
0.915777
0.91598
0.916774
0.918245
0.920485
0.923528
0.927285
0.931528
0.936245
0.94134
0.946609
0.951778
0.956562
0.960704
0.963992
0.96627
0.967434
0.986444
0.986491
0.98665
0.987039
0.987807
0.989091
0.990982
0.993476
0.996512
1.00008
1.00414
1.00857
1.01322
1.01793
1.02256
1.02705
1.03138
1.03562
1.03991
1.04449
1.04965
1.0557
1.06294
1.07159
1.08167
1.09304
1.10559
1.11916
1.13349
1.1483
1.16328
1.17816
1.1927
1.20671
1.22004
1.23257
1.24422
1.25494
1.2647
1.27346
1.28122
1.28796
1.29368
1.29839
1.30208
1.30475
1.30642
1.30708
1.30672
1.30536
1.30298
1.29958
1.29517
1.28973
1.28326
1.27575
1.2672
1.25761
1.24696
1.23528
1.22256
1.20884
1.19414
1.17852
1.16208
1.14492
1.12721
1.10917
1.09107
1.07324
1.05608
1.04001
1.02546
1.01271
1.00209
0.993481
0.987093
0.983197
0.981411
0.981384
0.98261
0.9846
0.986918
0.989197
0.991138
0.992514
0.993163
0.992989
0.991949
0.990059
0.987384
0.984039
0.98018
0.975996
0.97169
0.967456
0.96345
0.959776
0.956515
0.953782
0.951648
0.950124
0.949184
0.948797
0.948952
0.949666
0.950973
0.952907
0.955463
0.958575
0.962131
0.96605
0.970223
0.974486
0.978641
0.982478
0.985801
0.988443
0.990276
0.991214
1.01897
1.01912
1.01945
1.02004
1.02099
1.02237
1.02424
1.0266
1.02945
1.03275
1.03645
1.04048
1.04474
1.04912
1.05354
1.05796
1.06238
1.06686
1.07152
1.07652
1.08206
1.08837
1.09563
1.10397
1.11342
1.12393
1.13538
1.14763
1.16051
1.17378
1.18722
1.2006
1.21372
1.22642
1.23855
1.25002
1.26073
1.27062
1.27965
1.28779
1.29501
1.30129
1.30664
1.31103
1.31448
1.31697
1.31851
1.31909
1.31872
1.31739
1.3151
1.31185
1.30764
1.30246
1.29632
1.28921
1.28113
1.27209
1.26209
1.25115
1.23929
1.22655
1.21297
1.19861
1.18357
1.16798
1.15198
1.13577
1.11959
1.10372
1.08848
1.07418
1.06113
1.04957
1.03971
1.0316
1.02534
1.02096
1.01829
1.01705
1.01691
1.01749
1.01846
1.01952
1.02042
1.02096
1.021
1.02044
1.01925
1.01742
1.01499
1.01206
1.00874
1.00516
1.00149
0.997853
0.994388
0.991192
0.988347
0.985934
0.984007
0.98259
0.981681
0.981274
0.981366
0.981962
0.983075
0.984708
0.986841
0.989421
0.99237
0.995603
0.999014
1.00247
1.00582
1.00891
1.01158
1.0137
1.01518
1.01593
1.05136
1.05156
1.05199
1.0527
1.05374
1.05516
1.05699
1.05925
1.06193
1.06501
1.06844
1.07217
1.07613
1.08027
1.08452
1.08887
1.09332
1.09793
1.10278
1.10799
1.11372
1.12009
1.12724
1.13524
1.14413
1.15386
1.16435
1.1755
1.18714
1.1991
1.21121
1.22328
1.23516
1.24669
1.25774
1.26823
1.27805
1.28716
1.2955
1.30303
1.30973
1.31557
1.32054
1.32463
1.32783
1.33014
1.33155
1.33206
1.33167
1.33038
1.32818
1.32508
1.32107
1.31616
1.31034
1.30362
1.29601
1.28752
1.27816
1.26795
1.25691
1.2451
1.23257
1.21938
1.20563
1.19144
1.17695
1.16234
1.14781
1.13359
1.11993
1.10709
1.09529
1.08474
1.07557
1.06788
1.0617
1.05703
1.05374
1.05163
1.05047
1.04998
1.04991
1.05
1.05006
1.04991
1.04943
1.04854
1.04719
1.04537
1.04311
1.04048
1.03755
1.03443
1.03124
1.02808
1.02506
1.02225
1.01975
1.0176
1.01586
1.01455
1.01368
1.01325
1.01327
1.01374
1.01466
1.01601
1.01777
1.0199
1.02233
1.02498
1.02776
1.03056
1.03327
1.03576
1.0379
1.03961
1.0408
1.0414
1.08354
1.08377
1.08426
1.08502
1.0861
1.08753
1.08932
1.09149
1.09403
1.09692
1.10013
1.10362
1.10736
1.1113
1.1154
1.11967
1.1241
1.12875
1.13368
1.13897
1.14472
1.15103
1.15799
1.16564
1.17399
1.18303
1.19268
1.20286
1.21343
1.22428
1.23524
1.24617
1.25694
1.26742
1.2775
1.28709
1.2961
1.30447
1.31216
1.31911
1.32531
1.33072
1.33533
1.33912
1.34208
1.34421
1.34549
1.34594
1.34553
1.34427
1.34217
1.33921
1.33541
1.33075
1.32526
1.31894
1.31179
1.30383
1.29507
1.28556
1.27531
1.26438
1.25282
1.2407
1.22813
1.21519
1.20204
1.18882
1.17571
1.16289
1.15058
1.13896
1.12822
1.11852
1.10997
1.10264
1.09656
1.09171
1.08799
1.08527
1.08336
1.08207
1.08118
1.08051
1.0799
1.07919
1.07828
1.07709
1.07559
1.07376
1.07161
1.06918
1.06655
1.06378
1.06096
1.05817
1.0555
1.05302
1.05079
1.04886
1.04728
1.04606
1.04523
1.04478
1.04473
1.04508
1.0458
1.0469
1.04834
1.05007
1.05206
1.05422
1.05648
1.05875
1.06094
1.06294
1.06467
1.06604
1.067
1.06748
1.11548
1.11573
1.11624
1.11703
1.11812
1.11953
1.12127
1.12335
1.12576
1.1285
1.13153
1.13484
1.13839
1.14216
1.14613
1.1503
1.15468
1.1593
1.16421
1.16947
1.17516
1.18133
1.18804
1.19532
1.20318
1.21159
1.22049
1.22982
1.23947
1.24933
1.25929
1.26923
1.27902
1.28856
1.29776
1.30652
1.31478
1.32247
1.32954
1.33595
1.34167
1.34667
1.35093
1.35443
1.35716
1.35911
1.36028
1.36066
1.36023
1.35902
1.357
1.35419
1.35059
1.34619
1.34102
1.33507
1.32837
1.32092
1.31275
1.3039
1.29439
1.28428
1.27363
1.2625
1.25098
1.23917
1.2272
1.2152
1.20331
1.1917
1.18052
1.16995
1.16011
1.15114
1.14314
1.13614
1.13019
1.12525
1.12125
1.1181
1.11565
1.11375
1.11224
1.11098
1.10983
1.10866
1.1074
1.10597
1.10433
1.10246
1.10038
1.0981
1.09568
1.09318
1.09064
1.08815
1.08576
1.08354
1.08153
1.07978
1.07833
1.07719
1.07639
1.07592
1.0758
1.07603
1.07658
1.07744
1.0786
1.08
1.08161
1.08336
1.08519
1.08702
1.08879
1.0904
1.09179
1.09289
1.09366
1.09405
1.14717
1.14743
1.14795
1.14874
1.14982
1.1512
1.15289
1.15488
1.15718
1.15978
1.16266
1.16581
1.1692
1.17282
1.17666
1.18071
1.18501
1.18955
1.19439
1.19956
1.20511
1.21109
1.21752
1.22443
1.23181
1.23964
1.24788
1.25645
1.26529
1.27429
1.28337
1.29242
1.30135
1.31005
1.31845
1.32646
1.33403
1.34108
1.34758
1.35349
1.35875
1.36336
1.36729
1.37051
1.37302
1.37481
1.37586
1.37617
1.37574
1.37456
1.37263
1.36997
1.36656
1.36242
1.35755
1.35197
1.34569
1.33873
1.33112
1.32289
1.31408
1.30473
1.29491
1.28468
1.27411
1.26332
1.25239
1.24146
1.23063
1.22006
1.20987
1.20019
1.19114
1.18281
1.17529
1.16861
1.1628
1.15784
1.15367
1.15022
1.14738
1.14503
1.14306
1.14134
1.13977
1.13824
1.13669
1.13505
1.13329
1.13138
1.12934
1.12717
1.12491
1.1226
1.12028
1.11802
1.11586
1.11384
1.11201
1.11041
1.10906
1.10799
1.1072
1.10672
1.10653
1.10664
1.10704
1.1077
1.10861
1.10973
1.11102
1.11242
1.1139
1.11537
1.11679
1.11808
1.1192
1.12008
1.12069
1.12101
1.17861
1.17887
1.17938
1.18016
1.18122
1.18256
1.18419
1.1861
1.1883
1.19078
1.19353
1.19653
1.19977
1.20325
1.20696
1.2109
1.21508
1.21952
1.22424
1.22927
1.23464
1.24039
1.24653
1.25307
1.25999
1.26729
1.27492
1.28282
1.29094
1.29918
1.30748
1.31574
1.32389
1.33184
1.33952
1.34685
1.35378
1.36026
1.36623
1.37165
1.3765
1.38074
1.38435
1.38731
1.38961
1.39124
1.39218
1.39243
1.39198
1.39084
1.38901
1.38648
1.38326
1.37936
1.37479
1.36956
1.36369
1.3572
1.35011
1.34247
1.3343
1.32566
1.3166
1.30718
1.29748
1.28759
1.2776
1.2676
1.25771
1.24804
1.23871
1.2298
1.22143
1.21368
1.20659
1.20022
1.19457
1.18964
1.18537
1.18172
1.17861
1.17594
1.17362
1.17155
1.16966
1.16785
1.16606
1.16426
1.16239
1.16044
1.15842
1.15632
1.15418
1.15202
1.14988
1.14779
1.1458
1.14395
1.14226
1.14078
1.13951
1.13849
1.13772
1.13721
1.13697
1.13698
1.13723
1.13772
1.13842
1.13929
1.14031
1.14142
1.1426
1.14377
1.14491
1.14594
1.14683
1.14754
1.14803
1.14828
1.20979
1.21004
1.21055
1.21131
1.21234
1.21364
1.2152
1.21704
1.21915
1.22151
1.22414
1.22701
1.23012
1.23346
1.23704
1.24085
1.24489
1.2492
1.25377
1.25863
1.2638
1.2693
1.27514
1.28131
1.28781
1.29461
1.30169
1.30899
1.31645
1.32402
1.33162
1.33918
1.34664
1.35391
1.36093
1.36765
1.374
1.37993
1.38541
1.39039
1.39485
1.39874
1.40206
1.40477
1.40687
1.40835
1.40919
1.40938
1.40893
1.40783
1.40608
1.40368
1.40065
1.39698
1.39269
1.38779
1.38231
1.37626
1.36966
1.36257
1.355
1.34701
1.33864
1.32997
1.32105
1.31197
1.3028
1.29364
1.28457
1.27569
1.2671
1.25889
1.25112
1.24387
1.23719
1.2311
1.22563
1.22076
1.21646
1.2127
1.2094
1.2065
1.20393
1.2016
1.19946
1.19743
1.19546
1.19352
1.19156
1.18958
1.18757
1.18553
1.18347
1.18142
1.17941
1.17747
1.17562
1.17389
1.17232
1.17092
1.16973
1.16874
1.16798
1.16745
1.16714
1.16706
1.16719
1.16753
1.16804
1.16871
1.16949
1.17037
1.17129
1.17222
1.17312
1.17394
1.17465
1.17521
1.1756
1.1758
1.24072
1.24096
1.24146
1.2422
1.24319
1.24444
1.24595
1.24771
1.24972
1.25199
1.2545
1.25725
1.26023
1.26344
1.26688
1.27055
1.27446
1.27861
1.28301
1.28768
1.29263
1.29787
1.3034
1.30922
1.31532
1.32166
1.32823
1.33498
1.34186
1.34882
1.3558
1.36273
1.36956
1.37622
1.38265
1.3888
1.39462
1.40007
1.40509
1.40966
1.41375
1.41732
1.42036
1.42285
1.42476
1.42609
1.42684
1.42698
1.42652
1.42546
1.42379
1.42152
1.41866
1.41522
1.4112
1.40662
1.4015
1.39586
1.38972
1.38313
1.37612
1.36872
1.361
1.353
1.34479
1.33643
1.328
1.31957
1.31124
1.30306
1.29513
1.28752
1.28029
1.27349
1.26718
1.26137
1.25609
1.25131
1.24703
1.2432
1.23979
1.23673
1.23398
1.23147
1.22914
1.22695
1.22484
1.22279
1.22077
1.21876
1.21675
1.21474
1.21275
1.21079
1.20888
1.20705
1.2053
1.20368
1.2022
1.20087
1.19973
1.19877
1.19801
1.19745
1.19709
1.19693
1.19696
1.19715
1.19751
1.198
1.19859
1.19927
1.19998
1.20071
1.20141
1.20206
1.20262
1.20306
1.20337
1.20353
1.2714
1.27164
1.27211
1.27283
1.27379
1.27499
1.27644
1.27812
1.28005
1.28222
1.28462
1.28725
1.29011
1.29319
1.29649
1.30002
1.30377
1.30776
1.31199
1.31646
1.32118
1.32616
1.33139
1.33686
1.34257
1.34849
1.3546
1.36085
1.3672
1.37361
1.38002
1.38639
1.39265
1.39875
1.40465
1.41029
1.41563
1.42062
1.42523
1.42942
1.43317
1.43644
1.43922
1.44149
1.44323
1.44443
1.44508
1.44518
1.44472
1.44369
1.4421
1.43996
1.43727
1.43403
1.43026
1.42598
1.4212
1.41594
1.41024
1.40412
1.39762
1.39077
1.38363
1.37624
1.36867
1.36096
1.35319
1.34543
1.33774
1.33018
1.32284
1.31577
1.30902
1.30264
1.29667
1.29113
1.28603
1.28137
1.27713
1.27329
1.26982
1.26667
1.26379
1.26115
1.25869
1.25638
1.25417
1.25204
1.24996
1.24793
1.24592
1.24394
1.242
1.24011
1.23828
1.23653
1.23487
1.23333
1.23191
1.23065
1.22954
1.2286
1.22784
1.22725
1.22685
1.22661
1.22654
1.22663
1.22685
1.22718
1.22762
1.22812
1.22866
1.22922
1.22976
1.23026
1.2307
1.23104
1.23128
1.23141
1.30184
1.30207
1.30253
1.30322
1.30414
1.3053
1.30668
1.3083
1.31014
1.31222
1.31451
1.31703
1.31977
1.32272
1.32588
1.32926
1.33286
1.33668
1.34071
1.34498
1.34947
1.35418
1.35912
1.36427
1.36962
1.37514
1.38081
1.38661
1.39248
1.39839
1.40429
1.41015
1.4159
1.4215
1.42691
1.43208
1.43698
1.44155
1.44578
1.44962
1.45306
1.45605
1.45859
1.46066
1.46224
1.46332
1.46389
1.46394
1.46347
1.46248
1.46098
1.45895
1.45641
1.45337
1.44984
1.44584
1.44138
1.43648
1.43118
1.42549
1.41946
1.41311
1.4065
1.39967
1.39267
1.38556
1.37838
1.37121
1.36409
1.3571
1.35028
1.34369
1.33738
1.33138
1.32572
1.32044
1.31553
1.311
1.30683
1.30302
1.29953
1.29632
1.29338
1.29065
1.2881
1.2857
1.28342
1.28123
1.27912
1.27706
1.27506
1.27311
1.27121
1.26937
1.2676
1.26591
1.26432
1.26284
1.26148
1.26026
1.25918
1.25826
1.25749
1.25688
1.25643
1.25613
1.25598
1.25596
1.25607
1.25627
1.25657
1.25693
1.25732
1.25774
1.25815
1.25853
1.25886
1.25913
1.25932
1.25941
1.33205
1.33227
1.33271
1.33338
1.33426
1.33537
1.3367
1.33824
1.34001
1.34199
1.34419
1.34659
1.34921
1.35203
1.35506
1.35829
1.36173
1.36537
1.36922
1.37327
1.37753
1.38199
1.38664
1.39148
1.39648
1.40164
1.40691
1.41229
1.41772
1.42318
1.42862
1.434
1.43929
1.44444
1.44941
1.45415
1.45864
1.46284
1.46672
1.47024
1.47338
1.47612
1.47844
1.48032
1.48175
1.48272
1.48321
1.48322
1.48275
1.4818
1.48036
1.47845
1.47606
1.47321
1.4699
1.46616
1.46199
1.45743
1.45249
1.44721
1.44161
1.43572
1.4296
1.42327
1.41679
1.41021
1.40357
1.39693
1.39033
1.38384
1.37749
1.37134
1.36542
1.35977
1.35441
1.34937
1.34465
1.34026
1.33619
1.33242
1.32894
1.32572
1.32274
1.31996
1.31736
1.3149
1.31257
1.31035
1.30821
1.30615
1.30415
1.30222
1.30035
1.29856
1.29684
1.2952
1.29367
1.29224
1.29092
1.28973
1.28867
1.28776
1.28698
1.28635
1.28585
1.2855
1.28528
1.28517
1.28518
1.28528
1.28546
1.28569
1.28597
1.28627
1.28657
1.28685
1.2871
1.2873
1.28744
1.28751
1.36204
1.36226
1.36268
1.36331
1.36416
1.36522
1.36649
1.36797
1.36966
1.37155
1.37365
1.37594
1.37844
1.38114
1.38403
1.38711
1.39039
1.39385
1.39751
1.40136
1.40539
1.4096
1.41398
1.41852
1.4232
1.42801
1.43292
1.4379
1.44293
1.44798
1.453
1.45796
1.46282
1.46756
1.47212
1.47648
1.4806
1.48445
1.488
1.49123
1.4941
1.49661
1.49873
1.50043
1.50172
1.50259
1.50301
1.50298
1.50251
1.5016
1.50023
1.49842
1.49617
1.49349
1.49039
1.48689
1.48301
1.47875
1.47416
1.46924
1.46403
1.45857
1.45289
1.44703
1.44102
1.43492
1.42876
1.4226
1.41647
1.41043
1.40451
1.39875
1.39319
1.38787
1.38279
1.37798
1.37345
1.36921
1.36524
1.36154
1.3581
1.35489
1.3519
1.3491
1.34647
1.34398
1.34163
1.33938
1.33723
1.33516
1.33318
1.33127
1.32943
1.32767
1.32599
1.3244
1.3229
1.32151
1.32023
1.31907
1.31803
1.31711
1.31633
1.31567
1.31514
1.31474
1.31446
1.31428
1.3142
1.31421
1.31429
1.31442
1.3146
1.3148
1.315
1.3152
1.31538
1.31553
1.31563
1.31568
1.39182
1.39203
1.39243
1.39304
1.39385
1.39486
1.39607
1.39749
1.3991
1.4009
1.4029
1.4051
1.40748
1.41005
1.4128
1.41574
1.41885
1.42215
1.42562
1.42926
1.43307
1.43704
1.44116
1.44542
1.4498
1.45428
1.45885
1.46348
1.46814
1.4728
1.47744
1.48201
1.48649
1.49085
1.49504
1.49904
1.50283
1.50636
1.50961
1.51257
1.5152
1.51749
1.51941
1.52097
1.52213
1.52289
1.52325
1.5232
1.52273
1.52184
1.52054
1.51883
1.51671
1.51419
1.51129
1.50802
1.50439
1.50042
1.49614
1.49156
1.48672
1.48165
1.47637
1.47092
1.46535
1.45968
1.45396
1.44823
1.44253
1.43689
1.43136
1.42597
1.42074
1.41571
1.4109
1.40631
1.40197
1.39787
1.39402
1.3904
1.38702
1.38384
1.38086
1.37806
1.37543
1.37293
1.37057
1.36832
1.36616
1.3641
1.36213
1.36024
1.35843
1.3567
1.35505
1.3535
1.35204
1.35068
1.34942
1.34828
1.34725
1.34634
1.34554
1.34487
1.34431
1.34386
1.34352
1.34328
1.34313
1.34306
1.34306
1.34311
1.3432
1.34332
1.34345
1.34358
1.3437
1.3438
1.34387
1.3439
1.4214
1.42159
1.42198
1.42256
1.42333
1.4243
1.42546
1.42681
1.42834
1.43006
1.43197
1.43406
1.43633
1.43877
1.44139
1.44418
1.44714
1.45027
1.45356
1.457
1.4606
1.46433
1.4682
1.47219
1.47628
1.48047
1.48472
1.48902
1.49334
1.49765
1.50193
1.50615
1.51028
1.51429
1.51815
1.52183
1.5253
1.52854
1.53153
1.53423
1.53664
1.53873
1.54048
1.54188
1.54293
1.54361
1.5439
1.54382
1.54335
1.5425
1.54126
1.53964
1.53764
1.53528
1.53256
1.5295
1.52611
1.5224
1.51841
1.51415
1.50964
1.50492
1.50001
1.49495
1.48977
1.4845
1.47917
1.47384
1.46852
1.46325
1.45807
1.45301
1.44809
1.44334
1.43877
1.4344
1.43024
1.42629
1.42256
1.41904
1.41572
1.4126
1.40965
1.40687
1.40425
1.40176
1.3994
1.39715
1.395
1.39296
1.391
1.38913
1.38734
1.38564
1.38403
1.3825
1.38107
1.37974
1.37851
1.37738
1.37636
1.37544
1.37464
1.37395
1.37336
1.37288
1.37249
1.3722
1.37199
1.37185
1.37178
1.37175
1.37177
1.37182
1.37189
1.37196
1.37203
1.37209
1.37214
1.37216
1.45078
1.45097
1.45134
1.45189
1.45263
1.45355
1.45465
1.45594
1.4574
1.45904
1.46085
1.46284
1.465
1.46732
1.46981
1.47246
1.47527
1.47823
1.48134
1.48459
1.48798
1.49149
1.49512
1.49886
1.50268
1.50659
1.51054
1.51453
1.51854
1.52254
1.52649
1.53039
1.5342
1.53789
1.54144
1.54482
1.54801
1.55099
1.55372
1.5562
1.5584
1.5603
1.56189
1.56316
1.5641
1.5647
1.56494
1.56483
1.56437
1.56354
1.56236
1.56083
1.55895
1.55673
1.55418
1.55131
1.54814
1.54468
1.54095
1.53698
1.53278
1.52838
1.52381
1.5191
1.51427
1.50936
1.5044
1.49942
1.49445
1.48953
1.48467
1.47991
1.47528
1.47078
1.46645
1.46228
1.4583
1.4545
1.45089
1.44747
1.44423
1.44117
1.43827
1.43552
1.43292
1.43046
1.42811
1.42588
1.42375
1.42172
1.41978
1.41793
1.41617
1.4145
1.41291
1.41141
1.41001
1.4087
1.40748
1.40637
1.40535
1.40444
1.40363
1.40292
1.40231
1.4018
1.40137
1.40103
1.40077
1.40057
1.40044
1.40036
1.40032
1.40031
1.40032
1.40035
1.40038
1.40041
1.40043
1.40044
1.47998
1.48015
1.48051
1.48103
1.48174
1.48262
1.48367
1.48489
1.48628
1.48784
1.48956
1.49145
1.4935
1.49571
1.49807
1.50058
1.50324
1.50604
1.50897
1.51204
1.51523
1.51853
1.52194
1.52543
1.52901
1.53265
1.53633
1.54004
1.54375
1.54745
1.55112
1.55471
1.55823
1.56163
1.5649
1.56801
1.57094
1.57367
1.57617
1.57844
1.58045
1.58218
1.58363
1.58478
1.58561
1.58614
1.58633
1.5862
1.58574
1.58494
1.58382
1.58236
1.58059
1.5785
1.57611
1.57342
1.57045
1.56722
1.56374
1.56003
1.55611
1.55201
1.54775
1.54336
1.53886
1.53428
1.52965
1.52499
1.52035
1.51573
1.51117
1.5067
1.50232
1.49807
1.49395
1.48998
1.48617
1.48252
1.47904
1.47572
1.47257
1.46958
1.46673
1.46403
1.46147
1.45903
1.45671
1.4545
1.4524
1.45039
1.44847
1.44665
1.44491
1.44326
1.4417
1.44023
1.43885
1.43756
1.43636
1.43526
1.43425
1.43334
1.43252
1.4318
1.43117
1.43062
1.43017
1.42979
1.42948
1.42924
1.42906
1.42892
1.42883
1.42877
1.42874
1.42873
1.42872
1.42873
1.42873
1.42874
1.509
1.50917
1.5095
1.51
1.51067
1.51151
1.51251
1.51367
1.51499
1.51647
1.51811
1.51991
1.52185
1.52394
1.52618
1.52856
1.53107
1.53371
1.53648
1.53937
1.54237
1.54547
1.54866
1.55193
1.55527
1.55866
1.56209
1.56554
1.56899
1.57241
1.5758
1.57912
1.58237
1.5855
1.58851
1.59137
1.59406
1.59657
1.59886
1.60094
1.60277
1.60435
1.60566
1.6067
1.60745
1.6079
1.60805
1.6079
1.60744
1.60667
1.6056
1.60422
1.60255
1.60058
1.59833
1.59581
1.59303
1.59001
1.58675
1.58329
1.57963
1.5758
1.57183
1.56773
1.56352
1.55925
1.55492
1.55056
1.54621
1.54188
1.53759
1.53337
1.52924
1.52521
1.5213
1.51752
1.51387
1.51037
1.50702
1.50381
1.50075
1.49783
1.49505
1.49241
1.48989
1.48749
1.4852
1.48302
1.48094
1.47896
1.47708
1.47528
1.47357
1.47194
1.47041
1.46896
1.4676
1.46633
1.46514
1.46405
1.46305
1.46214
1.46131
1.46058
1.45993
1.45937
1.45888
1.45847
1.45812
1.45784
1.45762
1.45744
1.45731
1.45721
1.45714
1.4571
1.45707
1.45705
1.45704
1.45703
1.53785
1.53801
1.53833
1.53881
1.53944
1.54024
1.54119
1.54229
1.54354
1.54495
1.54651
1.54821
1.55005
1.55203
1.55415
1.55639
1.55877
1.56126
1.56387
1.56659
1.5694
1.57231
1.5753
1.57836
1.58148
1.58464
1.58783
1.59104
1.59423
1.59741
1.60054
1.60362
1.60661
1.6095
1.61227
1.6149
1.61738
1.61967
1.62178
1.62368
1.62535
1.62679
1.62798
1.62891
1.62957
1.62996
1.63007
1.6299
1.62945
1.62871
1.62768
1.62638
1.62479
1.62294
1.62083
1.61846
1.61586
1.61302
1.60998
1.60674
1.60332
1.59974
1.59603
1.59219
1.58826
1.58426
1.58021
1.57613
1.57205
1.56798
1.56394
1.55997
1.55606
1.55224
1.54853
1.54492
1.54143
1.53808
1.53485
1.53175
1.52878
1.52595
1.52324
1.52065
1.51819
1.51583
1.51359
1.51144
1.5094
1.50745
1.50559
1.50382
1.50213
1.50054
1.49903
1.4976
1.49626
1.495
1.49384
1.49275
1.49176
1.49085
1.49002
1.48928
1.48861
1.48803
1.48752
1.48708
1.48671
1.48639
1.48613
1.48592
1.48575
1.48562
1.48552
1.48545
1.48539
1.48536
1.48534
1.48532
1.56654
1.56669
1.567
1.56745
1.56806
1.56881
1.56971
1.57076
1.57195
1.57328
1.57475
1.57636
1.57811
1.57998
1.58198
1.5841
1.58634
1.58869
1.59115
1.5937
1.59635
1.59908
1.60188
1.60474
1.60765
1.61059
1.61356
1.61654
1.61951
1.62245
1.62535
1.62819
1.63095
1.63362
1.63617
1.63859
1.64087
1.64297
1.6449
1.64664
1.64816
1.64947
1.65055
1.65138
1.65197
1.65231
1.65238
1.65219
1.65174
1.65103
1.65005
1.64881
1.64731
1.64556
1.64358
1.64135
1.63891
1.63625
1.6334
1.63037
1.62717
1.62382
1.62034
1.61676
1.61308
1.60933
1.60553
1.6017
1.59787
1.59404
1.59024
1.58649
1.58279
1.57917
1.57564
1.5722
1.56887
1.56565
1.56254
1.55956
1.55669
1.55394
1.5513
1.54878
1.54637
1.54407
1.54187
1.53976
1.53775
1.53584
1.53401
1.53227
1.53062
1.52905
1.52756
1.52616
1.52483
1.5236
1.52244
1.52137
1.52038
1.51947
1.51864
1.51789
1.51722
1.51662
1.51609
1.51563
1.51523
1.51489
1.5146
1.51436
1.51416
1.514
1.51388
1.51378
1.51371
1.51365
1.51362
1.51361
1.59508
1.59523
1.59552
1.59595
1.59652
1.59723
1.59809
1.59908
1.60021
1.60147
1.60286
1.60439
1.60604
1.60781
1.60969
1.6117
1.61381
1.61602
1.61833
1.62073
1.62321
1.62577
1.62839
1.63106
1.63377
1.63652
1.63928
1.64205
1.6448
1.64753
1.65022
1.65284
1.65539
1.65785
1.6602
1.66243
1.66452
1.66645
1.66822
1.6698
1.6712
1.67238
1.67336
1.6741
1.67462
1.67491
1.67495
1.67475
1.6743
1.67361
1.67267
1.67149
1.67008
1.66843
1.66656
1.66447
1.66217
1.65968
1.657
1.65416
1.65116
1.64803
1.64477
1.64141
1.63796
1.63445
1.63088
1.62729
1.62368
1.62007
1.61649
1.61294
1.60945
1.60601
1.60265
1.59938
1.59619
1.59311
1.59013
1.58725
1.58448
1.58181
1.57925
1.5768
1.57445
1.5722
1.57005
1.56799
1.56602
1.56414
1.56235
1.56064
1.55901
1.55747
1.55601
1.55463
1.55333
1.55211
1.55096
1.5499
1.54892
1.54801
1.54718
1.54643
1.54575
1.54514
1.54459
1.54411
1.54369
1.54333