/*--------------------------------*- C++ -*----------------------------------*\
| =========                 |                                                 |
| \\      /  F ield         | OpenFOAM: The Open Source CFD Toolbox           |
|  \\    /   O peration     | Version:  2406                                  |
|   \\  /    A nd           | Website:  www.openfoam.com                      |
|    \\/     M anipulation  |                                                 |
\*---------------------------------------------------------------------------*/
FoamFile
{
    version     2.0;
    format      ascii;
    arch        "LSB;label=32;scalar=64";
    class       volScalarField;
    location    "5.6";
    object      C_0;
}
// * * * * * * * * * * * * * * * * * * * * * * * * * * * * * * * * * * * * * //

dimensions      [1 -3 0 0 0 0 0];

internalField   nonuniform List<scalar> 
14400
(
0.286069
0.284088
0.280773
0.276947
0.273361
0.270602
0.269087
0.269076
0.270686
0.273893
0.278532
0.284267
0.290552
0.296572
0.301189
0.302993
0.300788
0.295821
0.289631
0.283517
0.278456
0.275172
0.274208
0.275994
0.280898
0.289256
0.301393
0.317645
0.338364
0.363923
0.394709
0.431097
0.473387
0.521589
0.574456
0.622892
0.656622
0.680781
0.701875
0.720244
0.736146
0.749782
0.761311
0.770856
0.778513
0.784356
0.788441
0.790807
0.791478
0.790465
0.787765
0.783363
0.77723
0.76932
0.759575
0.747916
0.734241
0.718423
0.700301
0.679672
0.656279
0.629222
0.588395
0.532965
0.48037
0.433212
0.391908
0.356298
0.326034
0.300718
0.279964
0.263415
0.250763
0.241742
0.236137
0.233774
0.234522
0.238284
0.244991
0.254592
0.267037
0.282255
0.300116
0.320353
0.342407
0.364807
0.38083
0.387038
0.38644
0.376946
0.361003
0.34408
0.328053
0.313686
0.301326
0.291107
0.283028
0.276983
0.272778
0.270141
0.26874
0.268208
0.268196
0.268448
0.268878
0.269619
0.270971
0.273325
0.277091
0.282647
0.290319
0.30036
0.312949
0.328175
0.346011
0.366249
0.388322
0.410657
0.42627
0.432242
0.296736
0.2941
0.289935
0.285321
0.281104
0.277893
0.276102
0.275984
0.277651
0.281083
0.286129
0.292476
0.299617
0.306772
0.312742
0.315665
0.31238
0.305991
0.298564
0.291487
0.28571
0.281909
0.280587
0.282147
0.28694
0.295288
0.30751
0.323937
0.344916
0.370816
0.402018
0.438888
0.481709
0.530463
0.583776
0.629274
0.660121
0.683842
0.704601
0.722711
0.738411
0.75189
0.763295
0.772743
0.780326
0.786114
0.790161
0.792502
0.793162
0.792152
0.789467
0.785095
0.779005
0.771156
0.76149
0.749932
0.736384
0.720727
0.702808
0.682436
0.659369
0.633215
0.595251
0.541695
0.488556
0.440698
0.398783
0.362653
0.331947
0.30626
0.285201
0.268412
0.255582
0.246444
0.240783
0.238427
0.239245
0.243141
0.250049
0.259923
0.272719
0.28837
0.306751
0.327587
0.350231
0.372807
0.3878
0.393491
0.39336
0.385935
0.370322
0.352739
0.336131
0.321312
0.308621
0.298192
0.290024
0.284008
0.279946
0.277551
0.276455
0.27624
0.276475
0.276819
0.277146
0.277633
0.278665
0.280713
0.28424
0.289654
0.297298
0.30743
0.320228
0.335779
0.354049
0.374815
0.3974
0.419391
0.432853
0.437979
0.318749
0.314432
0.308369
0.302116
0.296628
0.29252
0.290186
0.289856
0.291633
0.295502
0.301331
0.30885
0.317629
0.326988
0.335767
0.341596
0.33557
0.326176
0.316303
0.30737
0.300221
0.295425
0.293412
0.294535
0.299113
0.307447
0.319843
0.336622
0.358123
0.384706
0.416736
0.454549
0.498347
0.54783
0.600412
0.639993
0.666981
0.689863
0.709976
0.727587
0.742898
0.756071
0.767236
0.776496
0.783935
0.789614
0.793584
0.795878
0.796517
0.795512
0.792858
0.788543
0.782539
0.774809
0.765297
0.753936
0.740637
0.725292
0.707767
0.687896
0.665475
0.640261
0.607391
0.559002
0.504763
0.455632
0.412576
0.375443
0.34387
0.317447
0.295781
0.278511
0.265323
0.255952
0.250181
0.247837
0.248794
0.252958
0.260269
0.270686
0.284173
0.300675
0.320073
0.34209
0.365945
0.388141
0.400492
0.405636
0.406095
0.401535
0.388073
0.369796
0.352251
0.336606
0.323281
0.312442
0.3041
0.298153
0.294397
0.292518
0.29209
0.292585
0.293395
0.293963
0.294041
0.293938
0.294255
0.295636
0.298649
0.303762
0.31134
0.321647
0.334855
0.351036
0.370125
0.391844
0.415275
0.43488
0.444558
0.448813
0.353009
0.345288
0.336078
0.327325
0.319966
0.314553
0.311432
0.310797
0.312735
0.317228
0.324159
0.333293
0.344268
0.356484
0.368464
0.373324
0.368585
0.355619
0.34249
0.331041
0.321999
0.315813
0.312822
0.313322
0.317595
0.325921
0.338588
0.355902
0.378189
0.405795
0.439057
0.47825
0.523458
0.573889
0.620931
0.652709
0.67699
0.698653
0.717855
0.734762
0.749522
0.76226
0.773081
0.782072
0.789301
0.794825
0.798684
0.800909
0.801518
0.800519
0.797911
0.793679
0.787801
0.780242
0.770954
0.759877
0.746936
0.732038
0.715073
0.695905
0.674373
0.650276
0.622335
0.581912
0.528289
0.477939
0.433395
0.394844
0.362001
0.334485
0.311911
0.293919
0.280195
0.270472
0.264535
0.262211
0.263376
0.267942
0.275854
0.287076
0.301581
0.319317
0.340146
0.363696
0.388753
0.408418
0.417707
0.422463
0.423488
0.420956
0.412503
0.39496
0.376428
0.359668
0.345435
0.334003
0.325412
0.319587
0.316332
0.315304
0.316007
0.317769
0.31968
0.320713
0.320274
0.319051
0.318095
0.318348
0.320515
0.325133
0.332593
0.343153
0.356955
0.374037
0.394219
0.41689
0.439845
0.453731
0.46049
0.463904
0.392853
0.385097
0.372476
0.360747
0.351097
0.344063
0.339962
0.338953
0.341096
0.34637
0.354653
0.365669
0.378988
0.393595
0.403945
0.40528
0.403611
0.392462
0.376492
0.362322
0.351088
0.343229
0.339031
0.338753
0.342652
0.350988
0.36403
0.382065
0.405402
0.434361
0.469225
0.510108
0.556595
0.60591
0.641808
0.667084
0.689616
0.709904
0.728028
0.744084
0.758167
0.770366
0.780757
0.789408
0.796374
0.801699
0.805417
0.807555
0.808126
0.807137
0.804586
0.800462
0.794744
0.787403
0.778399
0.767682
0.755191
0.740852
0.724581
0.706279
0.685838
0.663149
0.638125
0.606461
0.559355
0.50782
0.461487
0.42114
0.386644
0.357684
0.333901
0.314945
0.300504
0.290311
0.28415
0.281853
0.283297
0.288398
0.297104
0.309385
0.325213
0.344529
0.367124
0.392286
0.417143
0.431376
0.43867
0.443021
0.444434
0.443056
0.439048
0.427591
0.408627
0.390602
0.375233
0.363054
0.354145
0.348502
0.345973
0.346195
0.348607
0.352433
0.356323
0.358347
0.356819
0.353601
0.35058
0.349133
0.350057
0.353956
0.361239
0.372122
0.386674
0.404892
0.426344
0.449562
0.466182
0.474411
0.479701
0.482409
0.429527
0.426442
0.415796
0.40187
0.389905
0.381087
0.375897
0.374481
0.376872
0.383044
0.39286
0.40578
0.420818
0.434144
0.438503
0.438675
0.437866
0.432875
0.41745
0.401065
0.387596
0.377909
0.372336
0.371154
0.374621
0.382997
0.396531
0.415473
0.440108
0.470719
0.507503
0.550257
0.597284
0.635062
0.661163
0.683757
0.704485
0.723318
0.74027
0.755379
0.768698
0.780279
0.790174
0.79843
0.805087
0.810179
0.813733
0.815767
0.816293
0.815316
0.812835
0.808838
0.803311
0.796228
0.787558
0.777262
0.765293
0.751599
0.736119
0.71879
0.699552
0.678355
0.655178
0.629873
0.5947
0.544845
0.497069
0.454689
0.418188
0.387443
0.362157
0.341995
0.326654
0.31587
0.309428
0.307164
0.308956
0.314724
0.324414
0.337987
0.355406
0.376584
0.40119
0.427747
0.447021
0.45624
0.462547
0.466518
0.46817
0.467634
0.465165
0.460128
0.44776
0.429242
0.412699
0.39974
0.390441
0.385023
0.383463
0.385353
0.390038
0.396877
0.403805
0.407786
0.404126
0.397896
0.391859
0.388157
0.387419
0.39036
0.397416
0.408695
0.424037
0.443416
0.465278
0.482248
0.491436
0.497355
0.501494
0.503622
0.464057
0.463749
0.459936
0.449437
0.436061
0.425525
0.419286
0.417487
0.420149
0.427241
0.438683
0.452885
0.466161
0.471963
0.4728
0.473052
0.47265
0.471555
0.464188
0.447141
0.431666
0.420149
0.413088
0.410898
0.413884
0.422344
0.436497
0.456519
0.482641
0.515071
0.553766
0.59705
0.63391
0.659989
0.681826
0.702294
0.721249
0.738613
0.754353
0.768465
0.780965
0.791877
0.801229
0.80905
0.815365
0.820198
0.823568
0.825486
0.825963
0.825001
0.822598
0.818746
0.813433
0.806639
0.798342
0.788514
0.777122
0.764131
0.749505
0.733212
0.715226
0.695539
0.674174
0.651196
0.625628
0.588746
0.540444
0.495886
0.45707
0.424228
0.39716
0.375557
0.359133
0.347637
0.340856
0.338628
0.340836
0.347401
0.358255
0.373323
0.392505
0.415593
0.441645
0.464553
0.476193
0.483352
0.488759
0.492335
0.494093
0.494146
0.492703
0.490069
0.485059
0.474049
0.457308
0.444021
0.434238
0.429027
0.428665
0.43255
0.439467
0.449398
0.455045
0.456908
0.455528
0.450351
0.441147
0.435228
0.432477
0.434243
0.44107
0.452849
0.468591
0.488241
0.503101
0.511826
0.517487
0.522076
0.5253
0.526961
0.498894
0.498813
0.498723
0.495649
0.487965
0.476628
0.469859
0.467823
0.470705
0.478316
0.490879
0.500845
0.506023
0.506957
0.507676
0.508081
0.508112
0.507759
0.506817
0.499133
0.483051
0.470158
0.461599
0.45834
0.460786
0.46939
0.484319
0.505537
0.533168
0.567176
0.60643
0.639574
0.663929
0.684306
0.703856
0.722344
0.739605
0.755533
0.770064
0.783164
0.794821
0.805035
0.813816
0.821175
0.827126
0.831681
0.834853
0.836648
0.837072
0.836126
0.83381
0.830115
0.825034
0.818554
0.810658
0.80133
0.790549
0.778298
0.76456
0.749326
0.7326
0.714402
0.694784
0.67383
0.651667
0.626227
0.589952
0.544707
0.503612
0.468496
0.439441
0.416179
0.3985
0.386173
0.378992
0.3768
0.379485
0.386968
0.399158
0.415865
0.436794
0.461295
0.485803
0.499129
0.506278
0.512215
0.516802
0.519968
0.521722
0.522153
0.521431
0.519802
0.517587
0.513936
0.50598
0.4949
0.484667
0.479632
0.480522
0.486257
0.492234
0.495989
0.497155
0.497104
0.497877
0.497291
0.494207
0.488953
0.484235
0.484838
0.49141
0.503679
0.51769
0.528657
0.535396
0.540249
0.54461
0.548164
0.550669
0.551962
0.533814
0.533881
0.534086
0.534582
0.533678
0.530066
0.525793
0.52392
0.526829
0.532681
0.538009
0.540829
0.541395
0.542135
0.542865
0.543486
0.543956
0.544295
0.544584
0.544502
0.538804
0.527332
0.517792
0.513599
0.515408
0.524251
0.540178
0.562504
0.590989
0.62459
0.651997
0.67293
0.691348
0.70945
0.726949
0.74362
0.759294
0.77385
0.787205
0.799306
0.810119
0.819628
0.827824
0.834708
0.840282
0.844549
0.847514
0.84918
0.84955
0.848623
0.846398
0.842871
0.838035
0.831884
0.824407
0.815598
0.805447
0.793951
0.781109
0.766933
0.751444
0.734687
0.716729
0.697672
0.677657
0.656875
0.632854
0.599456
0.557679
0.52054
0.489504
0.464411
0.445335
0.432077
0.424435
0.422268
0.425466
0.433961
0.447633
0.465993
0.488107
0.51169
0.525189
0.531787
0.537565
0.54243
0.546266
0.549014
0.550674
0.551314
0.551066
0.550121
0.548725
0.547176
0.545527
0.541378
0.53664
0.533404
0.532902
0.53396
0.534657
0.533461
0.532816
0.53286
0.533622
0.535109
0.537114
0.537237
0.537256
0.539141
0.544178
0.551037
0.55752
0.561609
0.565417
0.569162
0.57254
0.5753
0.577249
0.578256
0.568665
0.568813
0.569157
0.569796
0.570877
0.572367
0.57233
0.572468
0.573898
0.575656
0.575817
0.576015
0.576567
0.577321
0.578166
0.57904
0.579932
0.580881
0.581988
0.583424
0.585233
0.583359
0.579546
0.575629
0.576798
0.586023
0.603078
0.625461
0.649078
0.669978
0.686637
0.702791
0.719083
0.735196
0.750869
0.765893
0.780101
0.793368
0.805602
0.816735
0.826721
0.835532
0.843146
0.849552
0.854744
0.858718
0.861474
0.863009
0.863325
0.862419
0.86029
0.856935
0.852352
0.846538
0.83949
0.831207
0.821691
0.810949
0.798994
0.785851
0.771558
0.756171
0.739772
0.722472
0.704415
0.68579
0.666826
0.645645
0.616959
0.579865
0.547644
0.520632
0.500134
0.485904
0.477744
0.475573
0.479247
0.488708
0.503889
0.523201
0.542757
0.55458
0.560118
0.565197
0.569764
0.573674
0.57682
0.579146
0.580645
0.581364
0.581398
0.58089
0.580018
0.578986
0.578004
0.577295
0.57654
0.575105
0.573367
0.571165
0.56937
0.56827
0.567782
0.567899
0.568634
0.570007
0.572057
0.574932
0.578312
0.581357
0.584473
0.587063
0.589577
0.592471
0.5955
0.598444
0.601088
0.603246
0.60477
0.605558
0.603369
0.603547
0.603931
0.604569
0.605511
0.606755
0.608204
0.609446
0.60996
0.610111
0.610378
0.610844
0.611537
0.612416
0.613436
0.614577
0.61585
0.617311
0.619062
0.621268
0.624172
0.628131
0.631258
0.634052
0.639378
0.648873
0.662067
0.676913
0.691298
0.70436
0.7182
0.732514
0.746997
0.761381
0.77544
0.788981
0.801849
0.81392
0.825098
0.835309
0.844501
0.852632
0.859675
0.86561
0.870423
0.874106
0.876653
0.878058
0.878321
0.877437
0.875406
0.872228
0.8679
0.862426
0.855807
0.848049
0.839161
0.829159
0.818068
0.80592
0.792765
0.778668
0.763718
0.748028
0.731743
0.715042
0.698144
0.681308
0.663879
0.640899
0.61279
0.584364
0.562983
0.547907
0.539167
0.536951
0.540877
0.550634
0.566423
0.579213
0.587546
0.591399
0.595316
0.599119
0.602622
0.60568
0.608194
0.610104
0.611397
0.612098
0.612273
0.612022
0.611469
0.610748
0.60998
0.609239
0.60843
0.607379
0.605965
0.604492
0.603265
0.602466
0.602143
0.602318
0.603009
0.604227
0.605978
0.60825
0.610879
0.613598
0.616063
0.618402
0.620749
0.623199
0.625669
0.628025
0.630122
0.631827
0.633027
0.633648
0.637895
0.638076
0.638452
0.639038
0.639842
0.640832
0.641914
0.642894
0.643607
0.644158
0.644739
0.645446
0.64632
0.647368
0.648586
0.649981
0.651582
0.653449
0.65568
0.658416
0.661845
0.666203
0.671727
0.678713
0.686576
0.695153
0.704381
0.714253
0.725164
0.736911
0.74929
0.762068
0.775008
0.787894
0.800528
0.812742
0.824394
0.835365
0.84556
0.854905
0.86334
0.87082
0.877312
0.882789
0.887233
0.890631
0.892973
0.894251
0.894462
0.893602
0.891671
0.888668
0.884596
0.879458
0.873263
0.866019
0.857745
0.84846
0.838197
0.826996
0.814913
0.802018
0.788402
0.774178
0.759486
0.744493
0.729399
0.714436
0.699873
0.685945
0.669488
0.650876
0.631983
0.616695
0.607331
0.60502
0.608497
0.614568
0.620294
0.623769
0.62557
0.627959
0.630628
0.633343
0.635923
0.638231
0.64017
0.641681
0.64274
0.643357
0.643574
0.643457
0.643088
0.642555
0.64193
0.641252
0.640494
0.639606
0.638587
0.637574
0.636732
0.636187
0.636005
0.636222
0.636857
0.637913
0.639379
0.64121
0.643297
0.645486
0.647633
0.649732
0.651818
0.653907
0.655951
0.657865
0.65955
0.66091
0.661865
0.662358
0.672239
0.672412
0.672761
0.673289
0.673986
0.674819
0.675724
0.67661
0.677415
0.678176
0.678975
0.679879
0.68093
0.682152
0.68356
0.685179
0.687047
0.689223
0.691793
0.69487
0.69859
0.703106
0.708551
0.715002
0.722299
0.730275
0.738886
0.748166
0.758178
0.768831
0.779982
0.791458
0.803076
0.814656
0.826036
0.837066
0.847619
0.857585
0.866874
0.87541
0.883134
0.889997
0.895963
0.901001
0.90509
0.908212
0.910356
0.911512
0.911674
0.91084
0.909007
0.906178
0.902356
0.897549
0.891766
0.885022
0.877338
0.86874
0.859264
0.848956
0.837873
0.826089
0.813695
0.800798
0.78753
0.774045
0.760522
0.747163
0.734195
0.721863
0.71044
0.6998
0.688215
0.677583
0.669654
0.665352
0.664036
0.663753
0.662482
0.662253
0.66294
0.664238
0.665894
0.667701
0.669495
0.671151
0.672576
0.67371
0.674525
0.675017
0.675209
0.675143
0.674873
0.674454
0.673934
0.673344
0.672687
0.671965
0.671204
0.670483
0.669902
0.669544
0.669468
0.669709
0.670283
0.671191
0.672415
0.673913
0.675612
0.677418
0.67925
0.681076
0.682884
0.68466
0.686363
0.687934
0.689302
0.690399
0.691166
0.69156
0.706409
0.706571
0.706893
0.707372
0.707994
0.708735
0.709554
0.710407
0.711269
0.712154
0.713105
0.714166
0.71537
0.716747
0.718323
0.720128
0.722204
0.724604
0.7274
0.73068
0.73454
0.739078
0.744371
0.750444
0.757239
0.764679
0.77272
0.781348
0.790549
0.800253
0.81035
0.820707
0.831179
0.841621
0.851892
0.861867
0.87143
0.880483
0.888939
0.896727
0.903788
0.910072
0.915541
0.920162
0.923912
0.926772
0.928726
0.929765
0.929883
0.929074
0.92734
0.924681
0.921103
0.916615
0.91123
0.904965
0.897844
0.889898
0.881163
0.871689
0.861534
0.850772
0.839488
0.827788
0.815791
0.803636
0.791481
0.7795
0.767882
0.756823
0.746519
0.737128
0.728859
0.721694
0.715467
0.71013
0.705772
0.702653
0.700738
0.699819
0.699699
0.700161
0.701009
0.702071
0.703206
0.704301
0.705272
0.70606
0.706631
0.706976
0.707102
0.707034
0.706805
0.706452
0.70601
0.705502
0.704947
0.704362
0.70378
0.703254
0.702848
0.70262
0.702615
0.702862
0.703374
0.704152
0.705177
0.706417
0.707819
0.709323
0.710875
0.712436
0.713982
0.715485
0.716908
0.718206
0.719325
0.720217
0.720838
0.721157
0.740418
0.740569
0.740868
0.74131
0.741884
0.742571
0.743349
0.744195
0.745098
0.746067
0.747127
0.748307
0.749637
0.751144
0.752857
0.754808
0.757035
0.759588
0.762524
0.765908
0.769811
0.774296
0.779409
0.785163
0.791534
0.798481
0.805966
0.813958
0.822418
0.831281
0.840458
0.849841
0.859313
0.868754
0.878046
0.887079
0.895753
0.903977
0.911673
0.918772
0.925218
0.930963
0.935966
0.940195
0.943626
0.946236
0.948012
0.948941
0.949017
0.948236
0.946597
0.944102
0.940759
0.936578
0.931573
0.925765
0.919177
0.911843
0.903801
0.895102
0.885803
0.875975
0.8657
0.855075
0.844209
0.833227
0.822266
0.811475
0.80101
0.791029
0.781685
0.773107
0.765408
0.758611
0.752681
0.747608
0.743437
0.740242
0.737996
0.736587
0.735874
0.735698
0.735909
0.736369
0.736957
0.737576
0.73815
0.738625
0.738965
0.739153
0.73919
0.739086
0.738862
0.738541
0.738149
0.737707
0.737236
0.736757
0.7363
0.735905
0.735615
0.735473
0.73551
0.735749
0.736201
0.736865
0.737726
0.738758
0.739924
0.741181
0.742489
0.743813
0.745123
0.746389
0.747579
0.748655
0.749577
0.750307
0.750813
0.751073
0.774276
0.774418
0.7747
0.775117
0.77566
0.776318
0.777077
0.777926
0.778861
0.77989
0.781029
0.7823
0.783727
0.785336
0.787153
0.78921
0.791542
0.794189
0.797198
0.800619
0.804501
0.808886
0.813805
0.819265
0.825254
0.831745
0.838706
0.8461
0.853883
0.861995
0.870359
0.878886
0.887479
0.896036
0.904459
0.912651
0.920525
0.927999
0.935002
0.941471
0.94735
0.952594
0.957164
0.961028
0.964158
0.966536
0.968144
0.968971
0.969009
0.968255
0.966708
0.964372
0.961254
0.957365
0.952721
0.947342
0.941256
0.934495
0.927098
0.919115
0.910601
0.901624
0.892262
0.882601
0.872743
0.862796
0.852881
0.843123
0.833653
0.824599
0.816083
0.808208
0.801055
0.794661
0.789034
0.784184
0.780127
0.776881
0.774417
0.772661
0.77151
0.77085
0.770562
0.770537
0.770676
0.770895
0.771129
0.771325
0.77145
0.771483
0.771418
0.771258
0.771014
0.770702
0.770338
0.769942
0.769532
0.76913
0.768759
0.768451
0.768236
0.768145
0.768202
0.768424
0.768817
0.76938
0.770103
0.770964
0.771937
0.772989
0.774087
0.775203
0.776307
0.77737
0.778364
0.779258
0.780019
0.78062
0.781035
0.781248
0.807993
0.808128
0.808398
0.808798
0.809322
0.809963
0.810714
0.81157
0.81253
0.813602
0.814798
0.816136
0.817635
0.819318
0.82121
0.823338
0.825733
0.828428
0.831461
0.834869
0.838686
0.842944
0.847659
0.852839
0.858472
0.864539
0.871011
0.877853
0.88502
0.892457
0.900097
0.907866
0.915679
0.923453
0.931102
0.938542
0.945697
0.952493
0.958866
0.964758
0.970118
0.9749
0.979069
0.982592
0.985444
0.987604
0.989056
0.989788
0.989793
0.989067
0.987609
0.985424
0.982519
0.978907
0.974602
0.969628
0.964011
0.957782
0.950982
0.943658
0.935862
0.92766
0.919121
0.910326
0.901366
0.892335
0.883338
0.874483
0.865879
0.857632
0.84984
0.842588
0.835942
0.829943
0.824612
0.819965
0.816007
0.812739
0.81013
0.808128
0.806656
0.805628
0.804952
0.804541
0.804314
0.804201
0.804144
0.804096
0.804025
0.803911
0.803741
0.803514
0.803235
0.802913
0.80256
0.802191
0.801822
0.80147
0.801156
0.800903
0.800734
0.80067
0.80073
0.800926
0.801262
0.801737
0.802342
0.80306
0.803871
0.804749
0.805669
0.806605
0.807531
0.808421
0.80925
0.809993
0.810623
0.811119
0.81146
0.811635
0.841573
0.841704
0.841965
0.842354
0.842866
0.843498
0.844246
0.845109
0.846088
0.84719
0.848426
0.84981
0.851358
0.853091
0.85503
0.857199
0.859623
0.86233
0.865349
0.868708
0.872433
0.876543
0.88105
0.885958
0.891256
0.896928
0.902947
0.90928
0.915886
0.922715
0.929708
0.936799
0.94392
0.950995
0.957952
0.964719
0.971226
0.97741
0.983212
0.988578
0.993461
0.99782
1.00162
1.00483
1.00742
1.00938
1.01069
1.01133
1.01131
1.01061
1.00924
1.0072
1.00449
1.00114
0.997154
0.992557
0.987376
0.981641
0.975391
0.968671
0.961531
0.954031
0.946236
0.938218
0.930057
0.921839
0.913653
0.905592
0.897748
0.890208
0.883056
0.876362
0.870182
0.864555
0.859508
0.855054
0.851199
0.847935
0.845238
0.843064
0.841359
0.840053
0.839078
0.838362
0.837839
0.837451
0.837149
0.83689
0.836646
0.836394
0.836121
0.835823
0.835499
0.835155
0.834799
0.83444
0.834093
0.833771
0.833491
0.83327
0.833125
0.833072
0.833123
0.833288
0.833569
0.833964
0.834466
0.835063
0.835737
0.836468
0.837236
0.838017
0.83879
0.839533
0.840223
0.84084
0.841362
0.841771
0.842053
0.842196
0.875022
0.87515
0.875405
0.875786
0.876291
0.876917
0.877664
0.878532
0.879523
0.880645
0.881906
0.883319
0.884898
0.886659
0.888621
0.890804
0.89323
0.89592
0.898897
0.902182
0.905793
0.909744
0.914041
0.918685
0.923667
0.928969
0.934569
0.940436
0.94653
0.952809
0.959219
0.965705
0.972205
0.978655
0.984993
0.991155
0.997079
1.00271
1.00799
1.01288
1.01733
1.0213
1.02476
1.02768
1.03004
1.03181
1.03298
1.03355
1.0335
1.03283
1.03153
1.02963
1.02711
1.02401
1.02032
1.01607
1.01129
1.00601
1.00027
0.994103
0.987561
0.980698
0.973573
0.966252
0.958807
0.951312
0.943844
0.936485
0.929311
0.922398
0.915815
0.909622
0.903868
0.898589
0.89381
0.889546
0.8858
0.882565
0.879821
0.877534
0.875661
0.874149
0.872944
0.871988
0.871229
0.870617
0.870109
0.869671
0.869273
0.868897
0.868527
0.868157
0.867784
0.867409
0.867038
0.866678
0.866339
0.866032
0.865768
0.865561
0.865424
0.865368
0.865403
0.865533
0.865761
0.866084
0.866497
0.866989
0.867545
0.868151
0.868788
0.869437
0.87008
0.870697
0.87127
0.871781
0.872213
0.872551
0.872783
0.872902
0.908343
0.908469
0.90872
0.909095
0.909594
0.910216
0.910961
0.91183
0.912828
0.913961
0.915235
0.916662
0.918254
0.920025
0.92199
0.924167
0.926572
0.929223
0.932137
0.93533
0.938814
0.942598
0.946686
0.951075
0.955756
0.960714
0.965925
0.971362
0.976991
0.98277
0.988655
0.994596
1.00054
1.00643
1.01221
1.01783
1.02323
1.02836
1.03317
1.03762
1.04167
1.04529
1.04844
1.05109
1.05323
1.05483
1.05589
1.05638
1.05631
1.05566
1.05445
1.05267
1.05033
1.04745
1.04404
1.04012
1.03571
1.03085
1.02557
1.01991
1.01391
1.00763
1.00111
0.994412
0.987606
0.980756
0.973928
0.967192
0.960614
0.954258
0.948184
0.942444
0.937078
0.932122
0.927598
0.923519
0.91989
0.916704
0.913946
0.91159
0.909601
0.907939
0.90656
0.905419
0.904471
0.903677
0.903
0.90241
0.90188
0.901393
0.900934
0.900494
0.900069
0.89966
0.899267
0.898896
0.898553
0.898248
0.897988
0.897783
0.897643
0.897575
0.897586
0.89768
0.897857
0.898115
0.898449
0.898849
0.899305
0.899803
0.900327
0.900863
0.901395
0.901905
0.902379
0.902801
0.903157
0.903436
0.903628
0.903725
0.941539
0.941662
0.94191
0.94228
0.942774
0.943391
0.944132
0.945001
0.945999
0.947134
0.948411
0.94984
0.951432
0.953197
0.955149
0.957302
0.959669
0.962263
0.965099
0.968186
0.971534
0.975149
0.97903
0.983173
0.98757
0.992204
0.997055
1.0021
1.0073
1.01263
1.01804
1.02348
1.02893
1.03431
1.03959
1.04472
1.04964
1.05432
1.05871
1.06276
1.06646
1.06975
1.07261
1.07502
1.07696
1.07841
1.07935
1.07978
1.07969
1.07907
1.07793
1.07627
1.07409
1.07142
1.06827
1.06465
1.06059
1.05611
1.05126
1.04606
1.04055
1.03479
1.02881
1.02268
1.01645
1.01018
1.00392
0.997739
0.991693
0.985837
0.98022
0.974889
0.96988
0.965224
0.96094
0.957043
0.953536
0.950415
0.947669
0.945278
0.943214
0.941446
0.939938
0.938655
0.93756
0.93662
0.935805
0.935088
0.934445
0.933861
0.93332
0.932815
0.93234
0.931893
0.931473
0.931085
0.930731
0.930418
0.930152
0.92994
0.929789
0.929703
0.929687
0.929744
0.929872
0.930071
0.930334
0.930654
0.931022
0.931427
0.931855
0.932295
0.932731
0.93315
0.93354
0.933887
0.93418
0.934409
0.934566
0.934646
0.974611
0.974732
0.974976
0.975342
0.97583
0.976442
0.977177
0.978041
0.979034
0.980164
0.981435
0.982856
0.984435
0.986182
0.988108
0.990222
0.992537
0.995062
0.997808
1.00078
1.00399
1.00743
1.01111
1.01502
1.01914
1.02348
1.02799
1.03267
1.03749
1.0424
1.04738
1.05238
1.05737
1.0623
1.06713
1.07181
1.07631
1.08057
1.08458
1.08827
1.09164
1.09463
1.09724
1.09943
1.10119
1.10249
1.10333
1.1037
1.10359
1.103
1.10192
1.10037
1.09836
1.09588
1.09296
1.08962
1.08587
1.08175
1.07728
1.0725
1.06745
1.06216
1.05668
1.05105
1.04534
1.03958
1.03384
1.02815
1.02258
1.01717
1.01197
1.00701
1.00233
0.997952
0.993896
0.990175
0.986795
0.983752
0.981039
0.978639
0.976531
0.974692
0.973092
0.971702
0.970494
0.96944
0.968512
0.96769
0.966952
0.966284
0.965672
0.965107
0.964583
0.964098
0.963649
0.963238
0.962868
0.962541
0.962263
0.962037
0.961869
0.961761
0.961716
0.961735
0.961818
0.961962
0.962162
0.962412
0.962704
0.963027
0.963373
0.963729
0.964083
0.964425
0.964743
0.965027
0.965266
0.965453
0.965582
0.965647
1.00756
1.00768
1.00792
1.00828
1.00876
1.00937
1.0101
1.01095
1.01193
1.01305
1.01431
1.01571
1.01727
1.01899
1.02088
1.02294
1.02519
1.02764
1.03029
1.03314
1.03621
1.03948
1.04296
1.04664
1.05052
1.05456
1.05877
1.06312
1.06757
1.07211
1.07669
1.08129
1.08587
1.09039
1.09481
1.09909
1.1032
1.10709
1.11075
1.11412
1.11718
1.11991
1.12228
1.12427
1.12586
1.12703
1.12778
1.1281
1.12797
1.12741
1.1264
1.12495
1.12308
1.12078
1.11808
1.11499
1.11154
1.10774
1.10363
1.09923
1.09458
1.08972
1.08468
1.07952
1.07427
1.06897
1.06369
1.05845
1.05331
1.04831
1.04348
1.03886
1.03448
1.03036
1.02652
1.02297
1.01972
1.01676
1.01409
1.01171
1.00958
1.0077
1.00603
1.00457
1.00328
1.00213
1.00112
1.00021
0.999391
0.998651
0.997976
0.997357
0.996789
0.996266
0.995787
0.995352
0.994961
0.994616
0.994321
0.994077
0.993888
0.993755
0.99368
0.993663
0.993703
0.993796
0.99394
0.994128
0.994352
0.994606
0.99488
0.995164
0.995449
0.995724
0.995981
0.996211
0.996405
0.996556
0.996661
0.996714
1.04039
1.04051
1.04074
1.0411
1.04157
1.04217
1.04289
1.04373
1.0447
1.0458
1.04704
1.04842
1.04994
1.05163
1.05347
1.05548
1.05766
1.06002
1.06256
1.0653
1.06822
1.07132
1.07461
1.07808
1.08171
1.08549
1.08941
1.09345
1.09757
1.10176
1.10599
1.11022
1.11443
1.11857
1.12262
1.12654
1.1303
1.13386
1.13719
1.14027
1.14306
1.14555
1.1477
1.14951
1.15095
1.152
1.15267
1.15294
1.1528
1.15226
1.15131
1.14996
1.14822
1.14609
1.14359
1.14073
1.13754
1.13404
1.13025
1.1262
1.12192
1.11745
1.11282
1.10807
1.10324
1.09836
1.09349
1.08866
1.0839
1.07927
1.07478
1.07047
1.06636
1.06248
1.05885
1.05546
1.05234
1.04948
1.04687
1.04451
1.04239
1.04048
1.03878
1.03726
1.03591
1.03469
1.03361
1.03263
1.03175
1.03095
1.03022
1.02956
1.02895
1.02839
1.02788
1.02742
1.02701
1.02664
1.02633
1.02606
1.02585
1.02569
1.02559
1.02553
1.02553
1.02558
1.02567
1.02581
1.02597
1.02616
1.02638
1.0266
1.02682
1.02704
1.02725
1.02743
1.02759
1.02771
1.02779
1.02783
1.0731
1.07322
1.07345
1.0738
1.07426
1.07485
1.07555
1.07638
1.07733
1.07841
1.07963
1.08097
1.08247
1.0841
1.08589
1.08784
1.08994
1.09221
1.09465
1.09726
1.10004
1.10298
1.10609
1.10935
1.11275
1.11629
1.11994
1.12369
1.12751
1.13139
1.13529
1.13918
1.14305
1.14686
1.15057
1.15416
1.1576
1.16085
1.1639
1.16671
1.16925
1.17152
1.17348
1.17511
1.17641
1.17736
1.17796
1.17818
1.17803
1.17751
1.17662
1.17536
1.17374
1.17176
1.16945
1.16681
1.16386
1.16063
1.15714
1.1534
1.14946
1.14534
1.14108
1.1367
1.13225
1.12775
1.12325
1.11878
1.11438
1.11007
1.10589
1.10187
1.09802
1.09437
1.09092
1.0877
1.08471
1.08194
1.0794
1.07708
1.07498
1.07307
1.07134
1.06979
1.06839
1.06713
1.06599
1.06497
1.06403
1.06318
1.06241
1.0617
1.06106
1.06046
1.05993
1.05944
1.05901
1.05862
1.05828
1.058
1.05776
1.05757
1.05744
1.05735
1.05732
1.05732
1.05737
1.05745
1.05757
1.0577
1.05786
1.05803
1.0582
1.05837
1.05853
1.05868
1.0588
1.0589
1.05896
1.059
1.1057
1.10581
1.10604
1.10638
1.10684
1.10741
1.1081
1.10891
1.10984
1.11089
1.11208
1.11339
1.11484
1.11643
1.11816
1.12003
1.12206
1.12424
1.12657
1.12906
1.13169
1.13448
1.13741
1.14047
1.14366
1.14696
1.15037
1.15385
1.1574
1.16098
1.16458
1.16818
1.17174
1.17523
1.17864
1.18193
1.18508
1.18806
1.19084
1.1934
1.19573
1.19779
1.19957
1.20105
1.20223
1.20308
1.20361
1.20379
1.20364
1.20314
1.2023
1.20112
1.19961
1.19778
1.19564
1.19319
1.19047
1.18748
1.18426
1.18081
1.17718
1.17338
1.16944
1.16541
1.1613
1.15714
1.15298
1.14885
1.14476
1.14076
1.13686
1.13309
1.12948
1.12604
1.12278
1.11971
1.11684
1.11418
1.11171
1.10944
1.10736
1.10547
1.10374
1.10217
1.10074
1.09945
1.09827
1.0972
1.09623
1.09534
1.09453
1.09378
1.09311
1.09249
1.09192
1.09141
1.09095
1.09055
1.09019
1.08988
1.08962
1.08941
1.08924
1.08913
1.08905
1.08902
1.08903
1.08907
1.08913
1.08923
1.08934
1.08946
1.08959
1.08971
1.08984
1.08995
1.09004
1.09011
1.09017
1.09019
1.13818
1.13829
1.13851
1.13885
1.13929
1.13985
1.14052
1.14131
1.14222
1.14325
1.1444
1.14567
1.14707
1.14861
1.15028
1.15208
1.15403
1.15611
1.15834
1.1607
1.1632
1.16583
1.16859
1.17147
1.17446
1.17754
1.18072
1.18395
1.18724
1.19056
1.19389
1.1972
1.20048
1.2037
1.20683
1.20984
1.21273
1.21546
1.218
1.22034
1.22246
1.22434
1.22596
1.22731
1.22837
1.22913
1.2296
1.22975
1.22959
1.22911
1.22832
1.22722
1.22581
1.22411
1.22212
1.21986
1.21734
1.21458
1.2116
1.20842
1.20506
1.20155
1.19792
1.19419
1.19039
1.18655
1.18269
1.17885
1.17506
1.17133
1.16769
1.16417
1.16077
1.15753
1.15444
1.15152
1.14878
1.14621
1.14382
1.14161
1.13957
1.1377
1.13597
1.1344
1.13296
1.13164
1.13044
1.12934
1.12834
1.12742
1.12657
1.1258
1.1251
1.12445
1.12387
1.12333
1.12285
1.12242
1.12204
1.12171
1.12143
1.12119
1.121
1.12085
1.12075
1.12068
1.12065
1.12065
1.12068
1.12073
1.1208
1.12088
1.12097
1.12106
1.12115
1.12123
1.1213
1.12136
1.1214
1.12142
1.17055
1.17066
1.17088
1.1712
1.17163
1.17218
1.17283
1.1736
1.17448
1.17548
1.17659
1.17782
1.17918
1.18066
1.18226
1.18399
1.18586
1.18784
1.18996
1.1922
1.19457
1.19706
1.19965
1.20236
1.20516
1.20804
1.21099
1.21401
1.21706
1.22013
1.22321
1.22627
1.22929
1.23225
1.23512
1.23789
1.24054
1.24303
1.24536
1.2475
1.24944
1.25115
1.25262
1.25384
1.2548
1.25549
1.2559
1.25602
1.25585
1.25539
1.25465
1.25362
1.25231
1.25072
1.24888
1.24678
1.24445
1.24189
1.23914
1.23619
1.23309
1.22985
1.22649
1.22304
1.21952
1.21596
1.21239
1.20882
1.20529
1.20181
1.19841
1.19511
1.19192
1.18886
1.18593
1.18315
1.18053
1.17807
1.17576
1.17361
1.17162
1.16977
1.16806
1.1665
1.16505
1.16372
1.16251
1.16139
1.16036
1.15942
1.15855
1.15776
1.15703
1.15636
1.15575
1.1552
1.1547
1.15425
1.15385
1.1535
1.15319
1.15293
1.15272
1.15254
1.15241
1.15231
1.15224
1.15221
1.1522
1.15222
1.15225
1.15229
1.15235
1.15241
1.15247
1.15253
1.15258
1.15262
1.15264
1.15266
1.20282
1.20292
1.20313
1.20345
1.20387
1.20439
1.20503
1.20577
1.20662
1.20759
1.20866