/*--------------------------------*- C++ -*----------------------------------*\
| =========                 |                                                 |
| \\      /  F ield         | OpenFOAM: The Open Source CFD Toolbox           |
|  \\    /   O peration     | Version:  2406                                  |
|   \\  /    A nd           | Website:  www.openfoam.com                      |
|    \\/     M anipulation  |                                                 |
\*---------------------------------------------------------------------------*/
FoamFile
{
    version     2.0;
    format      ascii;
    arch        "LSB;label=32;scalar=64";
    class       volScalarField;
    location    "5.6";
    object      D;
}
// * * * * * * * * * * * * * * * * * * * * * * * * * * * * * * * * * * * * * //

dimensions      [0 2 -1 0 0 0 0];

internalField   nonuniform List<scalar> 
14400
(
6.25521e-05
6.23766e-05
6.21195e-05
6.18615e-05
6.16446e-05
6.14854e-05
6.13889e-05
6.13575e-05
6.13952e-05
6.15102e-05
6.17165e-05
6.2035e-05
6.24901e-05
6.30885e-05
6.37266e-05
6.39686e-05
6.32635e-05
6.23284e-05
6.15169e-05
6.08732e-05
6.03666e-05
5.99621e-05
5.96338e-05
5.93646e-05
5.91445e-05
5.89686e-05
5.88368e-05
5.87529e-05
5.87258e-05
5.87716e-05
5.89196e-05
5.9227e-05
5.9824e-05
6.10964e-05
6.48766e-05
8.80097e-05
0.000138201
0.00013824
0.00013824
0.00013824
0.00013824
0.00013824
0.00013824
0.00013824
0.00013824
0.00013824
0.00013824
0.00013824
0.00013824
0.00013824
0.00013824
0.00013824
0.00013824
0.00013824
0.00013824
0.00013824
0.00013824
0.00013824
0.00013824
0.00013824
0.00013824
0.00013211
6.90691e-05
6.25605e-05
6.06591e-05
5.98298e-05
5.9418e-05
5.92214e-05
5.91547e-05
5.91746e-05
5.9255e-05
5.93782e-05
5.95308e-05
5.97019e-05
5.98823e-05
6.00655e-05
6.02483e-05
6.04319e-05
6.06241e-05
6.08409e-05
6.11106e-05
6.14822e-05
6.20466e-05
6.30051e-05
6.49661e-05
7.11508e-05
0.000122771
0.00013824
0.000134666
7.42327e-05
6.60351e-05
6.34758e-05
6.2301e-05
6.16624e-05
6.12948e-05
6.10873e-05
6.09838e-05
6.09517e-05
6.09692e-05
6.10183e-05
6.10818e-05
6.11407e-05
6.11752e-05
6.11687e-05
6.11154e-05
6.10235e-05
6.09109e-05
6.07972e-05
6.07004e-05
6.06364e-05
6.06209e-05
6.06729e-05
6.08201e-05
6.11091e-05
6.163e-05
6.25914e-05
6.46362e-05
7.11091e-05
0.000127232
0.00013824
6.28947e-05
6.26116e-05
6.22481e-05
6.19158e-05
6.16527e-05
6.14664e-05
6.13554e-05
6.13185e-05
6.13583e-05
6.14836e-05
6.17118e-05
6.2073e-05
6.26156e-05
6.34081e-05
6.44838e-05
6.53883e-05
6.3996e-05
6.26469e-05
6.16534e-05
6.0929e-05
6.03849e-05
5.99629e-05
5.96271e-05
5.9356e-05
5.91373e-05
5.89654e-05
5.88395e-05
5.87636e-05
5.87469e-05
5.8807e-05
5.89756e-05
5.93163e-05
5.99768e-05
6.14172e-05
6.60929e-05
0.000104031
0.000138239
0.00013824
0.00013824
0.00013824
0.00013824
0.00013824
0.00013824
0.00013824
0.00013824
0.00013824
0.00013824
0.00013824
0.00013824
0.00013824
0.00013824
0.00013824
0.00013824
0.00013824
0.00013824
0.00013824
0.00013824
0.00013824
0.00013824
0.00013824
0.00013824
0.000137425
7.43519e-05
6.3455e-05
6.09279e-05
5.99477e-05
5.9478e-05
5.9251e-05
5.91646e-05
5.91695e-05
5.92375e-05
5.93498e-05
5.94927e-05
5.96552e-05
5.98286e-05
6.00068e-05
6.01872e-05
6.03717e-05
6.05687e-05
6.0795e-05
6.1081e-05
6.14798e-05
6.20944e-05
6.31624e-05
6.5421e-05
7.25739e-05
0.000131746
0.00013824
0.000138085
8.59388e-05
6.74977e-05
6.38466e-05
6.24459e-05
6.17279e-05
6.13232e-05
6.1096e-05
6.09826e-05
6.09476e-05
6.09684e-05
6.10271e-05
6.11056e-05
6.11829e-05
6.12336e-05
6.12338e-05
6.1174e-05
6.10668e-05
6.09373e-05
6.08104e-05
6.0706e-05
6.06402e-05
6.06289e-05
6.06918e-05
6.08588e-05
6.11832e-05
6.17739e-05
6.29078e-05
6.55692e-05
7.54621e-05
0.000136728
0.00013824
6.39601e-05
6.32458e-05
6.25722e-05
6.20587e-05
6.16934e-05
6.14501e-05
6.13095e-05
6.12616e-05
6.13058e-05
6.14522e-05
6.17253e-05
6.21743e-05
6.29009e-05
6.41456e-05
6.66349e-05
7.29989e-05
6.61927e-05
6.34122e-05
6.19617e-05
6.10579e-05
6.04343e-05
5.99754e-05
5.96233e-05
5.93474e-05
5.9131e-05
5.89664e-05
5.8852e-05
5.8792e-05
5.8797e-05
5.88872e-05
5.91014e-05
5.95193e-05
6.03375e-05
6.22055e-05
6.85707e-05
0.000128122
0.00013824
0.00013824
0.00013824
0.00013824
0.00013824
0.00013824
0.00013824
0.00013824
0.00013824
0.00013824
0.00013824
0.00013824
0.00013824
0.00013824
0.00013824
0.00013824
0.00013824
0.00013824
0.00013824
0.00013824
0.00013824
0.00013824
0.00013824
0.00013824
0.00013824
0.000138236
9.85057e-05
6.57151e-05
6.1501e-05
6.01971e-05
5.96078e-05
5.93182e-05
5.91915e-05
5.91665e-05
5.92101e-05
5.93013e-05
5.94256e-05
5.95721e-05
5.97327e-05
5.9902e-05
6.00786e-05
6.02655e-05
6.04724e-05
6.07183e-05
6.10373e-05
6.14924e-05
6.22158e-05
6.35622e-05
6.70208e-05
8.42727e-05
0.000138048
0.00013824
0.00013824
0.000116645
7.04797e-05
6.46444e-05
6.27756e-05
6.1888e-05
6.14032e-05
6.11339e-05
6.09993e-05
6.09585e-05
6.09874e-05
6.1068e-05
6.11823e-05
6.13055e-05
6.14001e-05
6.1419e-05
6.13399e-05
6.11902e-05
6.10177e-05
6.08586e-05
6.07355e-05
6.06646e-05
6.06615e-05
6.07472e-05
6.09568e-05
6.13584e-05
6.21053e-05
6.36627e-05
6.84871e-05
0.000105629
0.000138238
0.00013824
6.80931e-05
6.48418e-05
6.32628e-05
6.23668e-05
6.18166e-05
6.14782e-05
6.12901e-05
6.12252e-05
6.12773e-05
6.14588e-05
6.18065e-05
6.24045e-05
6.34597e-05
6.56348e-05
7.24533e-05
0.000126811
7.3041e-05
6.50333e-05
6.254e-05
6.13018e-05
6.05418e-05
6.00208e-05
5.96407e-05
5.93548e-05
5.91399e-05
5.8985e-05
5.88875e-05
5.88521e-05
5.88919e-05
5.90334e-05
5.93296e-05
5.98997e-05
6.10988e-05
6.47374e-05
9.0762e-05
0.000138224
0.00013824
0.00013824
0.00013824
0.00013824
0.00013824
0.00013824
0.00013824
0.00013824
0.00013824
0.00013824
0.00013824
0.00013824
0.00013824
0.00013824
0.00013824
0.00013824
0.00013824
0.00013824
0.00013824
0.00013824
0.00013824
0.00013824
0.00013824
0.00013824
0.00013824
0.00013824
0.000128217
6.89248e-05
6.24902e-05
6.06339e-05
5.98364e-05
5.94416e-05
5.92498e-05
5.91784e-05
5.91854e-05
5.92461e-05
5.93444e-05
5.94692e-05
5.96128e-05
5.97711e-05
5.9944e-05
6.01362e-05
6.03597e-05
6.06368e-05
6.10086e-05
6.15548e-05
6.24553e-05
6.42586e-05
6.98535e-05
0.00011506
0.00013824
0.00013824
0.00013824
0.000137829
8.04297e-05
6.65365e-05
6.34625e-05
6.22241e-05
6.15885e-05
6.12439e-05
6.10726e-05
6.10222e-05
6.10664e-05
6.11887e-05
6.13745e-05
6.15995e-05
6.18066e-05
6.18784e-05
6.1742e-05
6.14819e-05
6.12119e-05
6.09865e-05
6.08263e-05
6.07438e-05
6.07531e-05
6.08772e-05
6.11621e-05
6.17081e-05
6.27602e-05
6.51445e-05
7.34982e-05
0.00013551
0.00013824
0.00013824
0.000101697
6.98955e-05
6.47878e-05
6.30054e-05
6.21138e-05
6.16183e-05
6.13562e-05
6.12662e-05
6.13319e-05
6.15711e-05
6.20467e-05
6.29193e-05
6.46924e-05
6.99659e-05
0.000108561
0.000138239
0.000115861
6.94386e-05
6.36831e-05
6.17541e-05
6.07579e-05
6.01354e-05
5.97082e-05
5.94032e-05
5.91865e-05
5.90425e-05
5.89675e-05
5.89674e-05
5.90606e-05
5.9286e-05
5.97277e-05
6.05903e-05
6.25611e-05
6.95108e-05
0.000133092
0.00013824
0.00013824
0.00013824
0.00013824
0.00013824
0.00013824
0.00013824
0.00013824
0.00013824
0.00013824
0.00013824
0.00013824
0.00013824
0.00013824
0.00013824
0.00013824
0.00013824
0.00013824
0.00013824
0.00013824
0.00013824
0.00013824
0.00013824
0.00013824
0.00013824
0.00013824
0.00013824
0.000138234
9.55579e-05
6.54072e-05
6.14817e-05
6.02354e-05
5.96582e-05
5.93647e-05
5.92257e-05
5.91825e-05
5.92034e-05
5.92691e-05
5.93679e-05
5.94924e-05
5.96395e-05
5.98108e-05
6.00134e-05
6.02627e-05
6.05871e-05
6.1041e-05
6.17367e-05
6.29556e-05
6.57005e-05
7.6191e-05
0.000137102
0.00013824
0.00013824
0.00013824
0.00013824
0.000129817
7.19438e-05
6.50287e-05
6.29345e-05
6.19892e-05
6.15057e-05
6.12692e-05
6.12021e-05
6.12749e-05
6.14749e-05
6.1805e-05
6.22734e-05
6.28341e-05
6.31116e-05
6.27494e-05
6.21432e-05
6.16372e-05
6.12753e-05
6.1043e-05
6.09357e-05
6.09638e-05
6.11538e-05
6.1576e-05
6.2428e-05
6.43116e-05
7.04436e-05
0.000121879
0.00013824
0.00013824
0.00013824
0.000138232
9.97641e-05
6.93084e-05
6.44592e-05
6.27828e-05
6.19916e-05
6.16021e-05
6.14717e-05
6.15619e-05
6.19051e-05
6.26322e-05
6.41285e-05
6.81045e-05
8.93352e-05
0.000138182
0.00013824
0.000138173
8.70883e-05
6.63513e-05
6.26273e-05
6.11806e-05
6.03825e-05
5.98727e-05
5.9531e-05
5.9305e-05
5.91723e-05
5.91271e-05
5.91785e-05
5.93563e-05
5.97288e-05
6.04711e-05
6.21306e-05
6.77045e-05
0.000118023
0.00013824
0.00013824
0.00013824
0.00013824
0.00013824
0.00013824
0.00013824
0.00013824
0.00013824
0.00013824
0.00013824
0.00013824
0.00013824
0.00013824
0.00013824
0.00013824
0.00013824
0.00013824
0.00013824
0.00013824
0.00013824
0.00013824
0.00013824
0.00013824
0.00013824
0.00013824
0.00013824
0.00013824
0.00013824
0.000136054
7.11203e-05
6.3087e-05
6.09464e-05
6.00399e-05
5.95801e-05
5.93405e-05
5.92283e-05
5.91977e-05
5.92241e-05
5.92933e-05
5.93978e-05
5.95353e-05
5.97094e-05
5.99306e-05
6.022e-05
6.06176e-05
6.12048e-05
6.21742e-05
6.4126e-05
7.02179e-05
0.000121093
0.00013824
0.00013824
0.00013824
0.00013824
0.00013824
0.00013824
0.000117901
7.06636e-05
6.46748e-05
6.28679e-05
6.2085e-05
6.17146e-05
6.1612e-05
6.17434e-05
6.21026e-05
6.27578e-05
6.39408e-05
6.62493e-05
6.80271e-05
6.60342e-05
6.37673e-05
6.25621e-05
6.18929e-05
6.15082e-05
6.13459e-05
6.14084e-05
6.17277e-05
6.24311e-05
6.41016e-05
6.94553e-05
0.000107816
0.000138239
0.00013824
0.00013824
0.00013824
0.00013824
0.000138219
9.51336e-05
6.91164e-05
6.44245e-05
6.28812e-05
6.22192e-05
6.20119e-05
6.2151e-05
6.27157e-05
6.41042e-05
6.7849e-05
8.34611e-05
0.000138001
0.00013824
0.00013824
0.00013824
0.000136317
7.33097e-05
6.45231e-05
6.20437e-05
6.08933e-05
6.02199e-05
5.98039e-05
5.95524e-05
5.94301e-05
5.94283e-05
5.95621e-05
5.98899e-05
6.05571e-05
6.20893e-05
6.70654e-05
0.000105008
0.000138239
0.00013824
0.00013824
0.00013824
0.00013824
0.00013824
0.00013824
0.00013824
0.00013824
0.00013824
0.00013824
0.00013824
0.00013824
0.00013824
0.00013824
0.00013824
0.00013824
0.00013824
0.00013824
0.00013824
0.00013824
0.00013824
0.00013824
0.00013824
0.00013824
0.00013824
0.00013824
0.00013824
0.00013824
0.00013824
0.00013824
0.000125685
6.86072e-05
6.25359e-05
6.07694e-05
5.99826e-05
5.9577e-05
5.9363e-05
5.92628e-05
5.92399e-05
5.92751e-05
5.93592e-05
5.94902e-05
5.96745e-05
5.99279e-05
6.02821e-05
6.07997e-05
6.16227e-05
6.31762e-05
6.75072e-05
9.55968e-05
0.000138229
0.00013824
0.00013824
0.00013824
0.00013824
0.00013824
0.00013824
0.00013824
0.000115375
7.08413e-05
6.50902e-05
6.34593e-05
6.27161e-05
6.25078e-05
6.28008e-05
6.35842e-05
6.52185e-05
6.97134e-05
8.80047e-05
0.000113075
8.61577e-05
6.93691e-05
6.48839e-05
6.33277e-05
6.25267e-05
6.22098e-05
6.23626e-05
6.30336e-05
6.44717e-05
6.97982e-05
0.00010634
0.000138238
0.00013824
0.00013824
0.00013824
0.00013824
0.00013824
0.00013824
0.000138222
0.000101968
7.02685e-05
6.53127e-05
6.37768e-05
6.33767e-05
6.36393e-05
6.48378e-05
6.93207e-05
9.08259e-05
0.000138023
0.00013824
0.00013824
0.00013824
0.00013824
0.00013824
0.000132647
7.12886e-05
6.42199e-05
6.20435e-05
6.09448e-05
6.03586e-05
6.00408e-05
5.9928e-05
6.00039e-05
6.02958e-05
6.0963e-05
6.24069e-05
6.74114e-05
0.000103235
0.000138238
0.00013824
0.00013824
0.00013824
0.00013824
0.00013824
0.00013824
0.00013824
0.00013824
0.00013824
0.00013824
0.00013824
0.00013824
0.00013824
0.00013824
0.00013824
0.00013824
0.00013824
0.00013824
0.00013824
0.00013824
0.00013824
0.00013824
0.00013824
0.00013824
0.00013824
0.00013824
0.00013824
0.00013824
0.00013824
0.00013824
0.00013824
0.00013824
0.000113959
6.78833e-05
6.241e-05
6.07703e-05
6.00411e-05
5.96567e-05
5.94506e-05
5.93598e-05
5.93532e-05
5.94159e-05
5.95455e-05
5.97523e-05
6.0063e-05
6.05308e-05
6.12702e-05
6.25782e-05
6.56746e-05
7.94922e-05
0.000137898
0.00013824
0.00013824
0.00013824
0.00013824
0.00013824
0.00013824
0.00013824
0.00013824
0.00013824
0.000125368
7.36891e-05
6.81572e-05
6.54362e-05
6.46947e-05
6.5782e-05
6.86644e-05
7.55335e-05
0.000122371
0.000138189
0.00013824
0.000138166
0.000120315
7.40047e-05
6.82044e-05
6.52783e-05
6.42529e-05
6.4803e-05
6.73558e-05
7.17838e-05
0.000118571
0.000138239
0.00013824
0.00013824
0.00013824
0.00013824
0.00013824
0.00013824
0.00013824
0.00013824
0.000138237
0.000121958
7.60229e-05
6.9329e-05
6.81336e-05
6.89591e-05
7.29949e-05
0.000114492
0.000138206
0.00013824
0.00013824
0.00013824
0.00013824
0.00013824
0.00013824
0.00013824
0.000132912
7.29282e-05
6.56293e-05
6.26634e-05
6.1584e-05
6.1055e-05
6.09539e-05
6.12396e-05
6.19478e-05
6.39054e-05
6.88448e-05
0.000113136
0.000138239
0.00013824
0.00013824
0.00013824
0.00013824
0.00013824
0.00013824
0.00013824
0.00013824
0.00013824
0.00013824
0.00013824
0.00013824
0.00013824
0.00013824
0.00013824
0.00013824
0.00013824
0.00013824
0.00013824
0.00013824
0.00013824
0.00013824
0.00013824
0.00013824
0.00013824
0.00013824
0.00013824
0.00013824
0.00013824
0.00013824
0.00013824
0.00013824
0.00013824
0.00013824
0.000110754
6.79763e-05
6.25789e-05
6.1005e-05
6.02625e-05
5.98595e-05
5.96594e-05
5.95942e-05
5.96324e-05
5.97686e-05
6.00211e-05
6.04422e-05
6.11442e-05
6.24141e-05
6.51625e-05
7.47102e-05
0.000136879
0.00013824
0.00013824
0.00013824
0.00013824
0.00013824
0.00013824
0.00013824
0.00013824
0.00013824
0.00013824
0.00013824
0.000136225
0.000107048
7.76613e-05
7.21869e-05
8.07683e-05
0.000112172
0.000137197
0.00013824
0.00013824
0.00013824
0.00013824
0.00013824
0.000136609
0.000109521
7.79502e-05
7.11129e-05
7.45363e-05
0.000101463
0.000133753
0.00013824
0.00013824
0.00013824
0.00013824
0.00013824
0.00013824
0.00013824
0.00013824
0.00013824
0.00013824
0.00013824
0.00013824
0.000137352
0.000119723
0.000106125
0.000116688
0.000135806
0.00013824
0.00013824
0.00013824
0.00013824
0.00013824
0.00013824
0.00013824
0.00013824
0.00013824
0.00013824
0.000136645
9.01982e-05
6.86598e-05
6.53798e-05
6.36575e-05
6.3607e-05
6.50396e-05
6.75922e-05
8.03057e-05
0.000129525
0.00013824
0.00013824
0.00013824
0.00013824
0.00013824
0.00013824
0.00013824
0.00013824
0.00013824
0.00013824
0.00013824
0.00013824
0.00013824
0.00013824
0.00013824
0.00013824
0.00013824
0.00013824
0.00013824
0.00013824
0.00013824
0.00013824
0.00013824
0.00013824
0.00013824
0.00013824
0.00013824
0.00013824
0.00013824
0.00013824
0.00013824
0.00013824
0.00013824
0.00013824
0.00013824
0.00013824
0.00013824
0.000117279
6.89805e-05
6.35656e-05
6.16547e-05
6.07292e-05
6.03059e-05
6.01414e-05
6.01452e-05
6.03043e-05
6.06543e-05
6.13299e-05
6.26796e-05
6.6086e-05
7.70163e-05
0.000136723
0.00013824
0.00013824
0.00013824
0.00013824
0.00013824
0.00013824
0.00013824
0.00013824
0.00013824
0.00013824
0.00013824
0.00013824
0.00013824
0.000138239
0.000137605
0.000134615
0.000137939
0.00013824
0.00013824
0.00013824
0.00013824
0.00013824
0.00013824
0.00013824
0.00013824
0.000138239
0.000137695
0.000132878
0.000136887
0.000138237
0.00013824
0.00013824
0.00013824
0.00013824
0.00013824
0.00013824
0.00013824
0.00013824
0.00013824
0.00013824
0.00013824
0.00013824
0.00013824
0.00013824
0.00013824
0.000138239
0.00013824
0.00013824
0.00013824
0.00013824
0.00013824
0.00013824
0.00013824
0.00013824
0.00013824
0.00013824
0.00013824
0.00013824
0.00013824
0.000138217
0.000123029
9.12644e-05
7.44332e-05
7.49823e-05
9.10725e-05
0.000120198
0.000138091
0.00013824
0.00013824
0.00013824
0.00013824
0.00013824
0.00013824
0.00013824
0.00013824
0.00013824
0.00013824
0.00013824
0.00013824
0.00013824
0.00013824
0.00013824
0.00013824
0.00013824
0.00013824
0.00013824
0.00013824
0.00013824
0.00013824
0.00013824
0.00013824
0.00013824
0.00013824
0.00013824
0.00013824
0.00013824
0.00013824
0.00013824
0.00013824
0.00013824
0.00013824
0.00013824
0.00013824
0.00013824
0.00013824
0.00013824
0.000130099
7.6028e-05
6.64399e-05
6.28976e-05
6.18249e-05
6.14298e-05
6.13584e-05
6.15901e-05
6.21977e-05
6.37143e-05
6.81738e-05
9.1177e-05
0.000137732
0.00013824
0.00013824
0.00013824
0.00013824
0.00013824
0.00013824
0.00013824
0.00013824
0.00013824
0.00013824
0.00013824
0.00013824
0.00013824
0.00013824
0.00013824
0.00013824
0.00013824
0.00013824
0.00013824
0.00013824
0.00013824
0.00013824
0.00013824
0.00013824
0.00013824
0.00013824
0.00013824
0.00013824
0.00013824
0.00013824
0.00013824
0.00013824
0.00013824
0.00013824
0.00013824
0.00013824
0.00013824
0.00013824
0.00013824
0.00013824
0.00013824
0.00013824
0.00013824
0.00013824
0.00013824
0.00013824
0.00013824
0.00013824
0.00013824
0.00013824
0.00013824
0.00013824
0.00013824
0.00013824
0.00013824
0.00013824
0.00013824
0.00013824
0.00013824
0.00013824
0.00013824
0.00013824
0.000138219
0.00013736
0.000137521
0.00013822
0.00013824
0.00013824
0.00013824
0.00013824
0.00013824
0.00013824
0.00013824
0.00013824
0.00013824
0.00013824
0.00013824
0.00013824
0.00013824
0.00013824
0.00013824
0.00013824
0.00013824
0.00013824
0.00013824
0.00013824
0.00013824
0.00013824
0.00013824
0.00013824
0.00013824
0.00013824
0.00013824
0.00013824
0.00013824
0.00013824
0.00013824
0.00013824
0.00013824
0.00013824
0.00013824
0.00013824
0.00013824
0.00013824
0.00013824
0.00013824
0.00013824
0.00013824
0.000137825
0.000110511
7.12976e-05
6.7142e-05
6.5739e-05
6.52604e-05
6.59107e-05
6.76571e-05
7.41725e-05
0.000118904
0.00013822
0.00013824
0.00013824
0.00013824
0.00013824
0.00013824
0.00013824
0.00013824
0.00013824
0.00013824
0.00013824
0.00013824
0.00013824
0.00013824
0.00013824
0.00013824
0.00013824
0.00013824
0.00013824
0.00013824
0.00013824
0.00013824
0.00013824
0.00013824
0.00013824
0.00013824
0.00013824
0.00013824
0.00013824
0.00013824
0.00013824
0.00013824
0.00013824
0.00013824
0.00013824
0.00013824
0.00013824
0.00013824
0.00013824
0.00013824
0.00013824
0.00013824
0.00013824
0.00013824
0.00013824
0.00013824
0.00013824
0.00013824
0.00013824
0.00013824
0.00013824
0.00013824
0.00013824
0.00013824
0.00013824
0.00013824
0.00013824
0.00013824
0.00013824
0.00013824
0.00013824
0.00013824
0.00013824
0.00013824
0.00013824
0.00013824
0.00013824
0.00013824
0.00013824
0.00013824
0.00013824
0.00013824
0.00013824
0.00013824
0.00013824
0.00013824
0.00013824
0.00013824
0.00013824
0.00013824
0.00013824
0.00013824
0.00013824
0.00013824
0.00013824
0.00013824
0.00013824
0.00013824
0.00013824
0.00013824
0.00013824
0.00013824
0.00013824
0.00013824
0.00013824
0.00013824
0.00013824
0.00013824
0.00013824
0.00013824
0.00013824
0.00013824
0.00013824
0.00013824
0.00013824
0.00013824
0.00013824
0.00013824
0.00013824
0.00013824
0.00013824
0.00013824
0.000136405
0.00011747
9.85734e-05
9.1263e-05
9.87626e-05
0.000119123
0.000137389
0.00013824
0.00013824
0.00013824
0.00013824
0.00013824
0.00013824
0.00013824
0.00013824
0.00013824
0.00013824
0.00013824
0.00013824
0.00013824
0.00013824
0.00013824
0.00013824
0.00013824
0.00013824
0.00013824
0.00013824
0.00013824
0.00013824
0.00013824
0.00013824
0.00013824
0.00013824
0.00013824
0.00013824
0.00013824
0.00013824
0.00013824
0.00013824
0.00013824
0.00013824
0.00013824
0.00013824
0.00013824
0.00013824
0.00013824
0.00013824
0.00013824
0.00013824
0.00013824
0.00013824
0.00013824
0.00013824
0.00013824
0.00013824
0.00013824
0.00013824
0.00013824
0.00013824
0.00013824
0.00013824
0.00013824
0.00013824
0.00013824
0.00013824
0.00013824
0.00013824
0.00013824
0.00013824
0.00013824
0.00013824
0.00013824
0.00013824
0.00013824
0.00013824
0.00013824
0.00013824
0.00013824
0.00013824
0.00013824
0.00013824
0.00013824
0.00013824
0.00013824
0.00013824
0.00013824
0.00013824
0.00013824
0.00013824
0.00013824
0.00013824
0.00013824
0.00013824
0.00013824
0.00013824
0.00013824
0.00013824
0.00013824
0.00013824
0.00013824
0.00013824
0.00013824
0.00013824
0.00013824
0.00013824
0.00013824
0.00013824
0.00013824
0.00013824
0.00013824
0.00013824
0.00013824
0.00013824
0.00013824
0.00013824
0.00013824
0.00013824
0.00013824
0.00013824
0.00013824
0.00013824
0.00013824
0.000138236
0.00013822
0.000138236
0.00013824
0.00013824
0.00013824
0.00013824
0.00013824
0.00013824
0.00013824
0.00013824
0.00013824
0.00013824
0.00013824
0.00013824
0.00013824
0.00013824
0.00013824
0.00013824
0.00013824
0.00013824
0.00013824
0.00013824
0.00013824
0.00013824
0.00013824
0.00013824
0.00013824
0.00013824
0.00013824
0.00013824
0.00013824
0.00013824
0.00013824
0.00013824
0.00013824
0.00013824
0.00013824
0.00013824
0.00013824
0.00013824
0.00013824
0.00013824
0.00013824
0.00013824
0.00013824
0.00013824
0.00013824
0.00013824
0.00013824
0.00013824
0.00013824
0.00013824
0.00013824
0.00013824
0.00013824
0.00013824
0.00013824
0.00013824
0.00013824
0.00013824
0.00013824
0.00013824
0.00013824
0.00013824
0.00013824
0.00013824
0.00013824
0.00013824
0.00013824
0.00013824
0.00013824
0.00013824
0.00013824
0.00013824
0.00013824
0.00013824
0.00013824
0.00013824
0.00013824
0.00013824
0.00013824
0.00013824
0.00013824
0.00013824
0.00013824
0.00013824
0.00013824
0.00013824
0.00013824
0.00013824
0.00013824
0.00013824
0.00013824
0.00013824
0.00013824
0.00013824
0.00013824
0.00013824
0.00013824
0.00013824
0.00013824
0.00013824
0.00013824
0.00013824
0.00013824
0.00013824
0.00013824
0.00013824
0.00013824
0.00013824
0.00013824
0.00013824
0.00013824
0.00013824
0.00013824
0.00013824
0.00013824
0.00013824
0.00013824
0.00013824
0.00013824
0.00013824
0.00013824
0.00013824
0.00013824
0.00013824
0.00013824
0.00013824
0.00013824
0.00013824
0.00013824
0.00013824
0.00013824
0.00013824
0.00013824
0.00013824
0.00013824
0.00013824
0.00013824
0.00013824
0.00013824
0.00013824
0.00013824
0.00013824
0.00013824
0.00013824
0.00013824
0.00013824
0.00013824
0.00013824
0.00013824
0.00013824
0.00013824
0.00013824
0.00013824
0.00013824
0.00013824
0.00013824
0.00013824
0.00013824
0.00013824
0.00013824
0.00013824
0.00013824
0.00013824
0.00013824
0.00013824
0.00013824
0.00013824
0.00013824
0.00013824
0.00013824
0.00013824
0.00013824
0.00013824
0.00013824
0.00013824
0.00013824
0.00013824
0.00013824
0.00013824
0.00013824
0.00013824
0.00013824
0.00013824
0.00013824
0.00013824
0.00013824
0.00013824
0.00013824
0.00013824
0.00013824
0.00013824
0.00013824
0.00013824
0.00013824
0.00013824
0.00013824
0.00013824
0.00013824
0.00013824
0.00013824
0.00013824
0.00013824
0.00013824
0.00013824
0.00013824
0.00013824
0.00013824
0.00013824
0.00013824
0.00013824
0.00013824
0.00013824
0.00013824
0.00013824
0.00013824
0.00013824
0.00013824
0.00013824
0.00013824
0.00013824
0.00013824
0.00013824
0.00013824
0.00013824
0.00013824
0.00013824
0.00013824
0.00013824
0.00013824
0.00013824
0.00013824
0.00013824
0.00013824
0.00013824
0.00013824
0.00013824
0.00013824
0.00013824
0.00013824
0.00013824
0.00013824
0.00013824
0.00013824
0.00013824
0.00013824
0.00013824
0.00013824
0.00013824
0.00013824
0.00013824
0.00013824
0.00013824
0.00013824
0.00013824
0.00013824
0.00013824
0.00013824
0.00013824
0.00013824
0.00013824
0.00013824
0.00013824
0.00013824
0.00013824
0.00013824
0.00013824
0.00013824
0.00013824
0.00013824
0.00013824
0.00013824
0.00013824
0.00013824
0.00013824
0.00013824
0.00013824
0.00013824
0.00013824
0.00013824
0.00013824
0.00013824
0.00013824
0.00013824
0.00013824
0.00013824
0.00013824
0.00013824
0.00013824
0.00013824
0.00013824
0.00013824
0.00013824
0.00013824
0.00013824
0.00013824
0.00013824
0.00013824
0.00013824
0.00013824
0.00013824
0.00013824
0.00013824
0.00013824
0.00013824
0.00013824
0.00013824
0.00013824
0.00013824
0.00013824
0.00013824
0.00013824
0.00013824
0.00013824
0.00013824
0.00013824
0.00013824
0.00013824
0.00013824
0.00013824
0.00013824
0.00013824
0.00013824
0.00013824
0.00013824
0.00013824
0.00013824
0.00013824
0.00013824
0.00013824
0.00013824
0.00013824
0.00013824
0.00013824
0.00013824
0.00013824
0.00013824
0.00013824
0.00013824
0.00013824
0.00013824
0.00013824
0.00013824
0.00013824
0.00013824
0.00013824
0.00013824
0.00013824
0.00013824
0.00013824
0.00013824
0.00013824
0.00013824
0.00013824
0.00013824
0.00013824
0.00013824
0.00013824
0.00013824
0.00013824
0.00013824
0.00013824
0.00013824
0.00013824
0.00013824
0.00013824
0.00013824
0.00013824
0.00013824
0.00013824
0.00013824
0.00013824
0.00013824
0.00013824
0.00013824
0.00013824
0.00013824
0.00013824
0.00013824
0.00013824
0.00013824
0.00013824
0.00013824
0.00013824
0.00013824
0.00013824
0.00013824
0.00013824
0.00013824
0.00013824
0.00013824
0.00013824
0.00013824
0.00013824
0.00013824
0.00013824
0.00013824
0.00013824
0.00013824
0.00013824
0.00013824
0.00013824
0.00013824
0.00013824
0.00013824
0.00013824
0.00013824
0.00013824
0.00013824
0.00013824
0.00013824
0.00013824
0.00013824
0.00013824
0.00013824
0.00013824
0.00013824
0.00013824
0.00013824
0.00013824
0.00013824
0.00013824
0.00013824
0.00013824
0.00013824
0.00013824
0.00013824
0.00013824
0.00013824
0.00013824
0.00013824
0.00013824
0.00013824
0.00013824
0.00013824
0.00013824
0.00013824
0.00013824
0.00013824
0.00013824
0.00013824
0.00013824
0.00013824
0.00013824
0.00013824
0.00013824
0.00013824
0.00013824
0.00013824
0.00013824
0.00013824
0.00013824
0.00013824
0.00013824
0.00013824
0.00013824
0.00013824
0.00013824
0.00013824
0.00013824
0.00013824
0.00013824
0.00013824
0.00013824
0.00013824
0.00013824
0.00013824
0.00013824
0.00013824
0.00013824
0.00013824
0.00013824
0.00013824
0.00013824
0.00013824
0.00013824
0.00013824
0.00013824
0.00013824
0.00013824
0.00013824
0.00013824
0.00013824
0.00013824
0.00013824
0.00013824
0.00013824
0.00013824
0.00013824
0.00013824
0.00013824
0.00013824
0.00013824
0.00013824
0.00013824
0.00013824
0.00013824
0.00013824
0.00013824
0.00013824
0.00013824
0.00013824
0.00013824
0.00013824
0.00013824
0.00013824
0.00013824
0.00013824
0.00013824
0.00013824
0.00013824
0.00013824
0.00013824
0.00013824
0.00013824
0.00013824
0.00013824
0.00013824
0.00013824
0.00013824
0.00013824
0.00013824
0.00013824
0.00013824
0.00013824
0.00013824
0.00013824
0.00013824
0.00013824
0.00013824
0.00013824
0.00013824
0.00013824
0.00013824
0.00013824
0.00013824
0.00013824
0.00013824
0.00013824
0.00013824
0.00013824
0.00013824
0.00013824
0.00013824
0.00013824
0.00013824
0.00013824
0.00013824
0.00013824
0.00013824
0.00013824
0.00013824
0.00013824
0.00013824
0.00013824
0.00013824
0.00013824
0.00013824
0.00013824
0.00013824
0.00013824
0.00013824
0.00013824
0.00013824
0.00013824
0.00013824
0.00013824
0.00013824
0.00013824
0.00013824
0.00013824
0.00013824
0.00013824
0.00013824
0.00013824
0.00013824
0.00013824
0.00013824
0.00013824
0.00013824
0.00013824
0.00013824
0.00013824
0.00013824
0.00013824
0.00013824
0.00013824
0.00013824
0.00013824
0.00013824
0.00013824
0.00013824
0.00013824
0.00013824
0.00013824
0.00013824
0.00013824
0.00013824
0.00013824
0.00013824
0.00013824
0.00013824
0.00013824
0.00013824
0.00013824
0.00013824
0.00013824
0.00013824
0.00013824
0.00013824
0.00013824
0.00013824
0.00013824
0.00013824
0.00013824
0.00013824
0.00013824
0.00013824
0.00013824
0.00013824
0.00013824
0.00013824
0.00013824
0.00013824
0.00013824
0.00013824
0.00013824
0.00013824
0.00013824
0.00013824
0.00013824
0.00013824
0.00013824
0.00013824
0.00013824
0.00013824
0.00013824
0.00013824
0.00013824
0.00013824
0.00013824
0.00013824
0.00013824
0.00013824
0.00013824
0.00013824
0.00013824
0.00013824
0.00013824
0.00013824
0.00013824
0.00013824
0.00013824
0.00013824
0.00013824
0.00013824
0.00013824
0.00013824
0.00013824
0.00013824
0.00013824
0.00013824
0.00013824
0.00013824
0.00013824
0.00013824
0.00013824
0.00013824
0.00013824
0.00013824
0.00013824
0.00013824
0.00013824
0.00013824
0.00013824
0.00013824
0.00013824
0.00013824
0.00013824
0.00013824
0.00013824
0.00013824
0.00013824
0.00013824
0.00013824
0.00013824
0.00013824
0.00013824
0.00013824
0.00013824
0.00013824
0.00013824
0.00013824
0.00013824
0.00013824
0.00013824
0.00013824
0.00013824
0.00013824
0.00013824
0.00013824
0.00013824
0.00013824
0.00013824
0.00013824
0.00013824
0.00013824
0.00013824
0.00013824
0.00013824
0.00013824
0.00013824
0.00013824
0.00013824
0.00013824
0.00013824
0.00013824
0.00013824
0.00013824
0.00013824
0.00013824
0.00013824
0.00013824
0.00013824
0.00013824
0.00013824
0.00013824
0.00013824
0.00013824
0.00013824
0.00013824
0.00013824
0.00013824
0.00013824
0.00013824
0.00013824
0.00013824
0.00013824
0.00013824
0.00013824
0.00013824
0.00013824
0.00013824
0.00013824
0.00013824
0.00013824
0.00013824
0.00013824
0.00013824
0.00013824
0.00013824
0.00013824
0.00013824
0.00013824
0.00013824
0.00013824
0.00013824
0.00013824
0.00013824
0.00013824
0.00013824
0.00013824
0.00013824
0.00013824
0.00013824
0.00013824
0.00013824
0.00013824
0.00013824
0.00013824
0.00013824
0.00013824
0.00013824
0.00013824
0.00013824
0.00013824
0.00013824
0.00013824
0.00013824
0.00013824
0.00013824
0.00013824
0.00013824
0.00013824
0.00013824
0.00013824
0.00013824
0.00013824
0.00013824
0.00013824
0.00013824
0.00013824
0.00013824
0.00013824
0.00013824
0.00013824
0.00013824
0.00013824
0.00013824
0.00013824
0.00013824
0.00013824
0.00013824
0.00013824
0.00013824
0.00013824
0.00013824
0.00013824
0.00013824
0.00013824
0.00013824
0.00013824
0.00013824
0.00013824
0.00013824
0.00013824
0.00013824
0.00013824
0.00013824
0.00013824
0.00013824
0.00013824
0.00013824
0.00013824
0.00013824
0.00013824
0.00013824
0.00013824
0.00013824
0.00013824
0.00013824
0.00013824
0.00013824
0.00013824
0.00013824
0.00013824
0.00013824
0.00013824
0.00013824
0.00013824
0.00013824
0.00013824
0.00013824
0.00013824
0.00013824
0.00013824
0.00013824
0.00013824
0.00013824
0.00013824
0.00013824
0.00013824
0.00013824
0.00013824
0.00013824
0.00013824
0.00013824
0.00013824
0.00013824
0.00013824
0.00013824
0.00013824
0.00013824
0.00013824
0.00013824
0.00013824
0.00013824
0.00013824
0.00013824
0.00013824
0.00013824
0.00013824
0.00013824
0.00013824
0.00013824
0.00013824
0.00013824
0.00013824
0.00013824
0.00013824
0.00013824
0.00013824
0.00013824
0.00013824
0.00013824
0.00013824
0.00013824
0.00013824
0.00013824
0.00013824
0.00013824
0.00013824
0.00013824
0.00013824
0.00013824
0.00013824
0.00013824
0.00013824
0.00013824
0.00013824
0.00013824
0.00013824
0.00013824
0.00013824
0.00013824
0.00013824
0.00013824
0.00013824
0.00013824
0.00013824
0.00013824
0.00013824
0.00013824
0.00013824
0.00013824
0.00013824
0.00013824
0.00013824
0.00013824
0.00013824
0.00013824
0.00013824
0.00013824
0.00013824
0.00013824
0.00013824
0.00013824
0.00013824
0.00013824
0.00013824
0.00013824
0.00013824
0.00013824
0.00013824
0.00013824
0.00013824
0.00013824
0.00013824
0.00013824
0.00013824
0.00013824
0.00013824
0.00013824
0.00013824