/*--------------------------------*- C++ -*----------------------------------*\
| =========                 |                                                 |
| \\      /  F ield         | OpenFOAM: The Open Source CFD Toolbox           |
|  \\    /   O peration     | Version:  2406                                  |
|   \\  /    A nd           | Website:  www.openfoam.com                      |
|    \\/     M anipulation  |                                                 |
\*---------------------------------------------------------------------------*/
FoamFile
{
    version     2.0;
    format      ascii;
    arch        "LSB;label=32;scalar=64";
    class       volScalarField;
    location    "1";
    object      C;
}
// * * * * * * * * * * * * * * * * * * * * * * * * * * * * * * * * * * * * * //

dimensions      [1 -3 0 0 0 0 0];

internalField   nonuniform List<scalar> 
14400
(
3.35855
3.35708
3.35401
3.34899
3.34134
3.32945
3.30532
3.29
3.30775
3.33366
3.34713
3.35651
3.36337
3.36843
3.37204
3.37441
3.37563
3.37569
3.37452
3.3719
3.36748
3.36051
3.34935
3.32618
3.31251
3.33222
3.35983
3.37491
3.38609
3.395
3.40233
3.40851
3.41379
3.41834
3.42228
3.42568
3.42861
3.43113
3.43326
3.43504
3.43648
3.43761
3.43844
3.43899
3.43925
3.43924
3.43896
3.43841
3.4376
3.43652
3.43517
3.43354
3.43164
3.42944
3.42695
3.42415
3.42101
3.41753
3.41368
3.40944
3.40476
3.39961
3.39393
3.38765
3.3807
3.37296
3.36428
3.35444
3.34315
3.32993
3.31401
3.29373
3.25853
3.224
3.21674
3.21418
3.21572
3.24417
3.2747
3.29081
3.30225
3.31075
3.31714
3.32188
3.32527
3.32749
3.32865
3.32883
3.32803
3.32625
3.32341
3.31938
3.31394
3.30672
3.297
3.28326
3.25701
3.23837
3.2523
3.27503
3.2856
3.29176
3.29501
3.29595
3.29472
3.29117
3.28473
3.27391
3.25089
3.23657
3.25484
3.28081
3.29435
3.30387
3.31093
3.31623
3.32016
3.32295
3.32475
3.32563
3.36001
3.35869
3.35596
3.35162
3.34539
3.33689
3.32593
3.31446
3.32813
3.34084
3.35103
3.35901
3.36518
3.36987
3.37328
3.37557
3.37678
3.37693
3.37595
3.37372
3.37002
3.36452
3.35687
3.34689
3.33693
3.35239
3.36672
3.37857
3.38837
3.39656
3.40349
3.40941
3.41453
3.41896
3.42281
3.42615
3.42903
3.43151
3.43361
3.43537
3.43679
3.43791
3.43873
3.43927
3.43952
3.43951
3.43923
3.43868
3.43787
3.43679
3.43544
3.43382
3.43193
3.42974
3.42726
3.42447
3.42136
3.4179
3.41408
3.40987
3.40523
3.40013
3.39452
3.38833
3.38149
3.3739
3.36543
3.3559
3.34508
3.33263
3.31809
3.30084
3.27988
3.25353
3.24961
3.2473
3.24559
3.26619
3.28251
3.29525
3.30518
3.31287
3.31878
3.32323
3.32643
3.32854
3.32964
3.3298
3.32902
3.3273
3.32459
3.32079
3.31574
3.3092
3.30085
3.29028
3.27715
3.26268
3.27291
3.28264
3.28986
3.29466
3.29734
3.2981
3.29704
3.29406
3.28897
3.28146
3.27144
3.26086
3.27498
3.28785
3.29819
3.30633
3.31269
3.31759
3.32129
3.32394
3.32566
3.3265
3.3628
3.36171
3.3595
3.35616
3.3517
3.3464
3.3413
3.33921
3.34322
3.3501
3.35712
3.36333
3.36848
3.37257
3.37566
3.37779
3.379
3.37929
3.37864
3.377
3.37435
3.37069
3.36632
3.36231
3.36155
3.36713
3.37558
3.38427
3.39227
3.39938
3.40564
3.41113
3.41594
3.42015
3.42384
3.42707
3.42986
3.43227
3.43432
3.43602
3.43742
3.4385
3.4393
3.43982
3.44007
3.44004
3.43976
3.43921
3.4384
3.43733
3.43599
3.43438
3.4325
3.43034
3.42788
3.42512
3.42205
3.41863
3.41487
3.41072
3.40617
3.40117
3.39569
3.38966
3.38303
3.37572
3.36764
3.35865
3.34863
3.33741
3.32488
3.31106
3.29658
3.28363
3.27577
3.2733
3.27598
3.28373
3.29339
3.30251
3.31035
3.31678
3.32189
3.32583
3.3287
3.33059
3.33158
3.33169
3.33095
3.32936
3.32687
3.32344
3.31901
3.3135
3.30691
3.29944
3.29202
3.28727
3.28838
3.2924
3.29653
3.29969
3.30157
3.30209
3.30126
3.29907
3.29561
3.29118
3.28684
3.28541
3.28985
3.29699
3.30421
3.31058
3.3159
3.32017
3.32347
3.32588
3.32745
3.32823
3.36667
3.36584
3.36419
3.3618
3.35884
3.35571
3.35323
3.35272
3.355
3.3592
3.36403
3.3687
3.37284
3.37628
3.37898
3.38093
3.38213
3.38259
3.38231
3.38132
3.37967
3.37757
3.37541
3.37404
3.3748
3.3785
3.38421
3.39065
3.39705
3.40307
3.40856
3.41351
3.41794
3.42187
3.42535
3.42841
3.43108
3.43339
3.43535
3.437
3.43834
3.43939
3.44016
3.44065
3.44088
3.44084
3.44055
3.44
3.43919
3.43813
3.4368
3.43521
3.43336
3.43122
3.4288
3.42609
3.42307
3.41972
3.41603
3.41199
3.40755
3.40269
3.39739
3.39159
3.38525
3.37832
3.37074
3.36244
3.35337
3.34352
3.33295
3.32194
3.31119
3.30202
3.29587
3.29342
3.29461
3.29885
3.30479
3.31107
3.31692
3.32199
3.32618
3.32949
3.33193
3.33355
3.33438
3.33444
3.33374
3.33229
3.33008
3.3271
3.32336
3.31889
3.31383
3.30856
3.30381
3.30084
3.30053
3.30207
3.30417
3.306
3.30715
3.30744
3.30683
3.30536
3.30322
3.3008
3.29894
3.29894
3.3016
3.30606
3.31107
3.31589
3.32015
3.32371
3.32654
3.32864
3.33003
3.33072
3.37138
3.37078
3.36963
3.36801
3.36615
3.36437
3.3632
3.36326
3.36486
3.36768
3.3711
3.37461
3.37788
3.38073
3.38306
3.38483
3.38601
3.38663
3.38669
3.38627
3.38547
3.38449
3.38371
3.38364
3.38492
3.38786
3.39211
3.39707
3.40222
3.40727
3.41203
3.41643
3.42043
3.42405
3.42728
3.43014
3.43266
3.43484
3.43671
3.43828
3.43956
3.44055
3.44128
3.44174
3.44195
3.4419
3.4416
3.44104
3.44024
3.43919
3.43788
3.43631
3.43449
3.43239
3.43002
3.42736
3.42441
3.42115
3.41756
3.41363
3.40934
3.40467
3.39958
3.39406
3.38807
3.38157
3.37456
3.36699
3.3589
3.35033
3.34145
3.33256
3.32422
3.3172
3.31228
3.30988
3.31001
3.31225
3.31587
3.32007
3.32425
3.32808
3.33136
3.33401
3.33599
3.3373
3.33795
3.33795
3.33729
3.33599
3.33406
3.33153
3.32843
3.32485
3.32098
3.31714
3.31381
3.3116
3.31082
3.31118
3.31208
3.31299
3.31359
3.3137
3.31326
3.31233
3.31109
3.30987
3.30918
3.30964
3.31154
3.31457
3.31814
3.32175
3.32509
3.32798
3.33034
3.33212
3.33331
3.33391
3.37669
3.37628
3.37551
3.37448
3.37337
3.37241
3.37194
3.37226
3.37351
3.37555
3.37807
3.38075
3.38335
3.3857
3.3877
3.3893
3.39047
3.39121
3.39157
3.3916
3.39143
3.39124
3.39128
3.39189
3.39339
3.39591
3.39931
3.40328
3.4075
3.41175
3.41585
3.41973
3.42332
3.4266
3.42957
3.43222
3.43457
3.43661
3.43837
3.43985
3.44105
3.44199
3.44267
3.44309
3.44327
3.4432
3.44289
3.44234
3.44154
3.4405
3.43921
3.43767
3.43588
3.43383
3.43152
3.42893
3.42606
3.4229
3.41943
3.41564
3.41152
3.40705
3.40222
3.397
3.39138
3.38535
3.37891
3.37208
3.3649
3.35747
3.34996
3.34264
3.33591
3.33027
3.32616
3.32383
3.32328
3.32428
3.32637
3.32907
3.33195
3.33471
3.33717
3.33919
3.34072
3.34172
3.34218
3.3421
3.34147
3.34032
3.33865
3.33652
3.33397
3.33111
3.32811
3.3252
3.3227
3.32091
3.31997
3.31976
3.31997
3.3203
3.32052
3.3205
3.32018
3.31962
3.31895
3.3184
3.31828
3.31889
3.32036
3.32255
3.32516
3.32788
3.33048
3.33279
3.33471
3.33619
3.33719
3.33769
3.3824
3.38214
3.38166
3.38104
3.38042
3.37997
3.37989
3.38033
3.38137
3.38294
3.38487
3.38697
3.38907
3.39102
3.39275
3.3942
3.39534
3.39618
3.39676
3.39714
3.39742
3.39774
3.39828
3.39926
3.40084
3.40309
3.40594
3.40923
3.41276
3.41637
3.41991
3.42332
3.42651
3.42947
3.43217
3.43461
3.43677
3.43867
3.44031
3.44168
3.44281
3.44368
3.44431
3.44469
3.44484
3.44475
3.44443
3.44387
3.44308
3.44206
3.44079
3.43929
3.43754
3.43554
3.43329
3.43078
3.42801
3.42495
3.42162
3.41799
3.41405
3.4098
3.40523
3.40033
3.3951
3.38954
3.38367
3.37752
3.37115
3.36468
3.35826
3.35212
3.34653
3.34182
3.33825
3.33598
3.33502
3.3352
3.33627
3.33789
3.33976
3.34166
3.3434
3.34486
3.34597
3.34668
3.34695
3.34679
3.34619
3.34515
3.34372
3.34192
3.33982
3.33751
3.33514
3.33286
3.33089
3.32937
3.3284
3.3279
3.32773
3.32771
3.3277
3.32758
3.32734
3.32701
3.32668
3.32649
3.32664
3.32728
3.32846
3.33011
3.33206
3.33414
3.33615
3.33798
3.33953
3.34074
3.34156
3.34197
3.38837
3.38821
3.38794
3.38761
3.38731
3.38717
3.3873
3.3878
3.3887
3.38997
3.39151
3.3932
3.39492
3.39657
3.39807
3.3994
3.40051
3.40142
3.40216
3.40278
3.40336
3.40401
3.40485
3.40602
3.40761
3.40966
3.41214
3.41494
3.41794
3.42104
3.42412
3.42711
3.42995
3.4326
3.43505
3.43726
3.43925
3.441
3.4425
3.44378
3.44481
3.44562
3.44619
3.44653
3.44665
3.44654
3.4462
3.44565
3.44486
3.44385
3.44261
3.44114
3.43944
3.4375
3.43533
3.4329
3.43022
3.42729
3.4241
3.42063
3.41689
3.41288
3.40858
3.404
3.39915
3.39404
3.38869
3.38316
3.37752
3.37185
3.3663
3.36104
3.35628
3.35222
3.34904
3.34683
3.3456
3.34525
3.3456
3.34644
3.34756
3.34876
3.34991
3.35089
3.35163
3.35206
3.35216
3.35192
3.35133
3.35039
3.34914
3.34762
3.34587
3.34398
3.34206
3.34023
3.33861
3.3373
3.33634
3.33572
3.33535
3.33513
3.33496
3.33479
3.3346
3.3344
3.33425
3.33426
3.33452
3.33512
3.33608
3.33736
3.33885
3.34045
3.34202
3.34346
3.34469
3.34566
3.34633
3.34667
3.39449
3.39441
3.39427
3.39413
3.39404
3.39409
3.39434
3.39486
3.39567
3.39673
3.398
3.3994
3.40084
3.40225
3.40359
3.4048
3.40588
3.40683
3.40768
3.40846
3.40923
3.41009
3.4111
3.41236
3.41392
3.41581
3.418
3.42044
3.42304
3.42573
3.42841
3.43104
3.43357
3.43594
3.43814
3.44015
3.44196
3.44356
3.44494
3.4461
3.44705
3.44778
3.4483
3.4486
3.44868
3.44855
3.4482
3.44764
3.44686
3.44587
3.44466
3.44323
3.44158
3.43971
3.4376
3.43527
3.4327
3.42989
3.42684
3.42355
3.42001
3.41623
3.4122
3.40794
3.40345
3.39876
3.39391
3.38893
3.38389
3.37889
3.37404
3.36947
3.36532
3.36174
3.35885
3.35671
3.35531
3.3546
3.35445
3.35472
3.35526
3.35593
3.35659
3.35717
3.35758
3.35778
3.35772
3.3574
3.35681
3.35595
3.35485
3.35353
3.35206
3.35049
3.3489
3.34738
3.34601
3.34486
3.34396
3.34329
3.34282
3.34249
3.34224
3.34203
3.34186
3.34173
3.34168
3.34177
3.34207
3.3426
3.34338
3.34439
3.34555
3.34678
3.34801
3.34914
3.35012
3.3509
3.35143
3.3517
3.40069
3.40066
3.40062
3.4006
3.40064
3.4008
3.40112
3.40164
3.40237
3.40329
3.40437
3.40555
3.40679
3.40802
3.40921
3.41034
3.41138
3.41235
3.41326
3.41413
3.41503
3.416
3.41711
3.41839
3.4199
3.42165
3.42362
3.42577
3.42805
3.43041
3.43277
3.43509
3.43733
3.43945
3.44143
3.44324
3.44488
3.44633
3.44759
3.44865
3.44951
3.45016
3.45062
3.45087
3.45092
3.45077
3.45041
3.44985
3.44908
3.44811
3.44693
3.44554
3.44395
3.44213
3.44011
3.43787
3.43541
3.43273
3.42983
3.42671
3.42338
3.41982
3.41606
3.4121
3.40796
3.40366
3.39924
3.39475
3.39024
3.38579
3.3815
3.37746
3.37379
3.37058
3.36791
3.36583
3.36433
3.36337
3.36288
3.36273
3.36284
3.36308
3.36336
3.36361
3.36375
3.36374
3.36355
3.36315
3.36255
3.36175
3.36076
3.35961
3.35834
3.35701
3.35567
3.35438
3.3532
3.35218
3.35133
3.35066
3.35015
3.34976
3.34946
3.34923
3.34907
3.34897
3.34897
3.34909
3.34937
3.34982
3.35046
3.35126
3.35216
3.35313
3.35408
3.35498
3.35575
3.35637
3.35679
3.35701
3.40692
3.40692
3.40694
3.407
3.40712
3.40735
3.4077
3.40821
3.40887
3.40969
3.41062
3.41165
3.41273
3.41383
3.41491
3.41596
3.41696
3.41792
3.41886
3.41979
3.42076
3.42179
3.42292
3.4242
3.42565
3.42727
3.42906
3.43098
3.433
3.43507
3.43716
3.43922
3.44121
3.4431
3.44488
3.44651
3.44798
3.44929
3.45043
3.45139
3.45216
3.45275
3.45315
3.45335
3.45337
3.45319
3.45283
3.45226
3.45151
3.45056
3.44941
3.44806
3.44652
3.44478
3.44283
3.44069
3.43834
3.43579
3.43304
3.4301
3.42695
3.42362
3.42011
3.41644
3.41262
3.40868
3.40465
3.40058
3.39652
3.39254
3.3887
3.38509
3.38179
3.37888
3.37639
3.37437
3.37281
3.37169
3.37094
3.3705
3.37028
3.37019
3.37017
3.37015
3.37006
3.36988
3.36957
3.36911
3.3685
3.36773
3.36683
3.3658
3.3647
3.36354
3.36238
3.36127
3.36023
3.35931
3.35852
3.35787
3.35735
3.35694
3.35662
3.35638
3.35621
3.35612
3.35613
3.35625
3.35649
3.35687
3.35738
3.35801
3.35873
3.35948
3.36023
3.36093
3.36154
3.36202
3.36236
3.36254
3.41315
3.41317
3.41323
3.41333
3.4135
3.41376
3.41413
3.41462
3.41523
3.41596
3.41679
3.4177
3.41866
3.41964
3.42063
3.42162
3.42258
3.42353
3.42447
3.42542
3.42641
3.42746
3.4286
3.42985
3.43122
3.43273
3.43435
3.43608
3.43789
3.43973
3.44158
3.44341
3.44519
3.44688
3.44846
3.44993
3.45125
3.45243
3.45346
3.45431
3.455
3.45552
3.45586
3.45602
3.45601
3.45581
3.45543
3.45487
3.45413
3.4532
3.45208
3.45078
3.44929
3.44762
3.44576
3.44371
3.44147
3.43905
3.43645
3.43367
3.43072
3.4276
3.42433
3.42092
3.4174
3.41378
3.4101
3.4064
3.40272
3.39913
3.39567
3.39241
3.38942
3.38674
3.3844
3.38245
3.38086
3.37963
3.37871
3.37804
3.37758
3.37724
3.37698
3.37674
3.37648
3.37615
3.37574
3.37522
3.37459
3.37385
3.37301
3.37208
3.37109
3.37007
3.36906
3.36807
3.36715
3.36631
3.36558
3.36496
3.36444
3.36402
3.36369
3.36344
3.36327
3.36318
3.36318
3.36327
3.36347
3.36378
3.36419
3.36469
3.36524
3.36583
3.36642
3.36697
3.36744
3.36783
3.3681
3.36823
3.41935
3.41938
3.41946
3.41959
3.41979
3.42007
3.42043
3.4209
3.42147
3.42213
3.42288
3.4237
3.42456
3.42546
3.42637
3.42729
3.42821
3.42913
3.43006
3.43102
3.432
3.43304
3.43416
3.43536
3.43666
3.43806
3.43955
3.44111
3.44273
3.44438
3.44603
3.44766
3.44924
3.45075
3.45217
3.45348
3.45467
3.45573
3.45664
3.45741
3.45802
3.45847
3.45875
3.45887
3.45883
3.45861
3.45822
3.45766
3.45693
3.45602
3.45494
3.45368
3.45225
3.45065
3.44887
3.44691
3.44479
3.4425
3.44004
3.43742
3.43465
3.43173
3.42869
3.42553
3.42227
3.41894
3.41557
3.41219
3.40885
3.40558
3.40244
3.39948
3.39673
3.39424
3.39204
3.39015
3.38856
3.38726
3.38621
3.38539
3.38474
3.38422
3.38377
3.38337
3.38296
3.38251
3.38201
3.38145
3.3808
3.38008
3.37928
3.37842
3.37752
3.37661
3.37569
3.37481
3.37398
3.37321
3.37253
3.37194
3.37144
3.37102
3.37069
3.37043
3.37025
3.37015
3.37013
3.3702
3.37035
3.37059
3.37091
3.3713
3.37173
3.37219
3.37265
3.37307
3.37345
3.37375
3.37396
3.37407
3.42551
3.42555
3.42565
3.42579
3.426
3.42628
3.42664
3.42708
3.42761
3.42822
3.4289
3.42964
3.43043
3.43125
3.4321
3.43297
3.43384
3.43473
3.43564
3.43657
3.43754
3.43856
3.43963
3.44078
3.442
3.4433
3.44466
3.44608
3.44754
3.44902
3.4505
3.45196
3.45337
3.45472
3.45599
3.45716
3.45822
3.45917
3.45998
3.46066
3.46119
3.46158
3.46181
3.46189
3.46181
3.46158
3.46118
3.46062
3.4599
3.45902
3.45797
3.45676
3.45538
3.45385
3.45215
3.45029
3.44827
3.4461
3.44378
3.44132
3.43872
3.436
3.43316
3.43023
3.42721
3.42415
3.42105
3.41795
3.4149
3.41191
3.40904
3.40632
3.40378
3.40146
3.39938
3.39755
3.39596
3.39462
3.3935
3.39256
3.39178
3.39111
3.39053
3.38999
3.38946
3.38893
3.38836
3.38775
3.38708
3.38637
3.38561
3.3848
3.38397
3.38313
3.3823
3.38149
3.38073
3.38003
3.37939
3.37883
3.37834
3.37794
3.3776
3.37734
3.37715
3.37704
3.377
3.37703
3.37714
3.37732
3.37756
3.37786
3.37819
3.37855
3.3789
3.37923
3.37952
3.37976
3.37992
3.38001
3.43163
3.43168
3.43177
3.43193
3.43214
3.43241
3.43276
3.43318
3.43367
3.43423
3.43486
3.43554
3.43626
3.43702
3.43781
3.43863
3.43946
3.44031
3.44119
3.44209
3.44303
3.44401
3.44504
3.44612
3.44727
3.44847
3.44972
3.45101
3.45233
3.45367
3.45499
3.4563
3.45756
3.45877
3.4599
3.46095
3.46189
3.46273
3.46345
3.46404
3.46451
3.46483
3.46502
3.46506
3.46496
3.46471
3.4643
3.46375
3.46304
3.46218
3.46117
3.46
3.45868
3.45721
3.45559
3.45382
3.45191
3.44986
3.44767
3.44535
3.44292
3.44037
3.43773
3.435
3.43221
3.42938
3.42652
3.42368
3.42087
3.41813
3.41548
3.41297
3.41061
3.40844
3.40646
3.40469
3.40313
3.40177
3.40059
3.39958
3.3987
3.39793
3.39724
3.3966
3.39598
3.39537
3.39474
3.3941
3.39342
3.39271
3.39197
3.39121
3.39043
3.38965
3.38888
3.38814
3.38743
3.38677
3.38618
3.38564
3.38517
3.38477
3.38444
3.38418
3.38398
3.38385
3.38379
3.38379
3.38385
3.38398
3.38416
3.38438
3.38464
3.38491
3.38518
3.38543
3.38566
3.38584
3.38596
3.38603
3.4377
3.43775
3.43785
3.438
3.43821
3.43848
3.43881
3.43921
3.43966
3.44018
3.44076
3.44139
3.44206
3.44276
3.4435
3.44427
3.44506
3.44587
3.44671
3.44757
3.44847
3.44941
3.45039
3.45141
3.45248
3.45359
3.45474
3.45592
3.45711
3.45832
3.45951
3.46068
3.46181
3.46289
3.4639
3.46483
3.46567
3.46641
3.46705
3.46757
3.46796
3.46823
3.46837
3.46838
3.46825
3.46798
3.46757
3.46702
3.46633
3.46549
3.46451
3.46339
3.46212
3.46072
3.45918
3.4575
3.45568
3.45374
3.45168
3.44951
3.44722
3.44484
3.44238
3.43984
3.43725
3.43463
3.43199
3.42936
3.42677
3.42424
3.42179
3.41946
3.41726
3.41522
3.41333
3.41163
3.4101
3.40873
3.40753
3.40646
3.40551
3.40467
3.40389
3.40318
3.40249
3.40182
3.40115
3.40048
3.39979
3.39908
3.39836
3.39763
3.39689
3.39615
3.39543
3.39474
3.39408
3.39346
3.3929
3.39238
3.39193
3.39154
3.39121
3.39095
3.39074
3.39059
3.39051
3.39048
3.39051
3.39059
3.39071
3.39087
3.39106
3.39126
3.39147
3.39166
3.39183
3.39197
3.39207
3.39212
3.44372
3.44377
3.44387
3.44402
3.44422
3.44448
3.44479
3.44516
3.44559
3.44608
3.44661
3.44719
3.44781
3.44847
3.44916
3.44988
3.45063
3.4514
3.4522
3.45302
3.45388
3.45476
3.45569
3.45665
3.45764
3.45867
3.45972
3.4608
3.46189
3.46297
3.46405
3.4651
3.46611
3.46707
3.46797
3.4688
3.46955
3.4702
3.47076
3.47121
3.47154
3.47176
3.47186
3.47184
3.47168
3.4714
3.47099
3.47044
3.46976
3.46895
3.468
3.46692
3.46571
3.46437
3.4629
3.4613
3.45959
3.45776
3.45581
3.45377
3.45162
3.4494
3.4471
3.44473
3.44233
3.43989
3.43745
3.43502
3.43261
3.43027
3.428
3.42582
3.42376
3.42183
3.42004
3.41839
3.41689
3.41554
3.41432
3.41322
3.41223
3.41133
3.4105
3.40972
3.40898
3.40827
3.40757
3.40687
3.40617
3.40547
3.40476
3.40405
3.40334
3.40264
3.40196
3.40131
3.40068
3.4001
3.39956
3.39907
3.39863
3.39825
3.39792
3.39765
3.39744
3.39728
3.39717
3.39712
3.39711
3.39715
3.39723
3.39734
3.39747
3.39762
3.39777
3.39791
3.39804
3.39814
3.39822
3.39825
3.44969
3.44974
3.44983
3.44998
3.45017
3.45042
3.45072
3.45107
3.45147
3.45192
3.45242
3.45296
3.45354
3.45415
3.4548
3.45547
3.45617
3.4569
3.45766
3.45844
3.45925
3.46008
3.46095
3.46185
3.46277
3.46372
3.46469
3.46567
3.46666
3.46764
3.46861
3.46955
3.47046
3.47132
3.47212
3.47286
3.47352
3.47409
3.47457
3.47496
3.47524
3.47541
3.47547
3.47542
3.47524
3.47495
3.47453
3.47399
3.47333
3.47254
3.47162
3.47058
3.46942
3.46814
3.46674
3.46523
3.46361
3.46188
3.46004
3.45812
3.45611
3.45402
3.45187
3.44967
3.44743
3.44516
3.44289
3.44063
3.4384
3.43622
3.4341
3.43206
3.43013
3.4283
3.42659
3.425
3.42354
3.4222
3.42098
3.41987
3.41885
3.41791
3.41704
3.41623
3.41545
3.41471
3.41398
3.41327
3.41256
3.41186
3.41116
3.41047
3.40978
3.40912
3.40846
3.40784
3.40724
3.40669
3.40617
3.4057
3.40527
3.4049
3.40458
3.4043
3.40408
3.40391
3.40378
3.4037
3.40367
3.40367
3.40371
3.40378
3.40387
3.40397
3.40407
3.40418
3.40427
3.40435
3.4044
3.40443
3.45561
3.45566
3.45575
3.45589
3.45607
3.45631
3.45659
3.45692
3.45729
3.45771
3.45818
3.45868
3.45922
3.45979
3.4604
3.46103
3.46169
3.46238
3.46309
3.46383
3.46459
3.46537
3.46619
3.46702
3.46788
3.46875
3.46964
3.47054
3.47143
3.47232
3.4732
3.47404
3.47486
3.47562
3.47634
3.47699
3.47757
3.47807
3.47849
3.47881
3.47904
3.47917
3.4792
3.47912
3.47892
3.47862
3.4782
3.47767
3.47701
3.47625
3.47537
3.47437
3.47326
3.47204
3.47071
3.46927
3.46773
3.46609
3.46437
3.46256
3.46067
3.45872
3.4567
3.45465
3.45255
3.45044
3.44833
3.44622
3.44414
3.4421
3.44012
3.43821
3.43638
3.43465
3.43302
3.43149
3.43007
3.42876
3.42754
3.42642
3.42539
3.42443
3.42354
3.42269
3.42189
3.42112
3.42038
3.41965
3.41894
3.41824
3.41755
3.41688
3.41621
3.41557
3.41494
3.41434
3.41377
3.41323
3.41274
3.41228
3.41187
3.4115
3.41118
3.4109
3.41067
3.41049
3.41034
3.41024
3.41018
3.41016
3.41016
3.4102
3.41025
3.41031
3.41038
3.41045
3.41052
3.41057
3.41061
3.41063
3.46149
3.46153
3.46162
3.46175
3.46193
3.46215
3.46241
3.46272
3.46307
3.46346
3.4639
3.46436
3.46487
3.4654
3.46597
3.46656
3.46718
3.46783
3.4685
3.46919
3.4699
3.47064
3.4714
3.47217
3.47296
3.47377
3.47458
3.4754
3.47622
3.47702
3.47781
3.47857
3.47929
3.47998
3.48061
3.48119
3.48169
3.48213
3.48249
3.48276
3.48295
3.48304
3.48303
3.48292
3.48272
3.4824
3.48198
3.48145
3.48082
3.48008
3.47922
3.47827
3.4772
3.47604
3.47477
3.47341
3.47195
3.4704
3.46878
3.46707
3.4653
3.46346
3.46158
3.45965
3.4577
3.45573
3.45375
3.45178
3.44984
3.44793
3.44607
3.44427
3.44254
3.4409
3.43934
3.43787
3.43649
3.43521
3.43401
3.43289
3.43186
3.43089
3.42997
3.42911
3.4283
3.42751
3.42676
3.42603
3.42531
3.42462
3.42394
3.42327
3.42262
3.422
3.42139
3.42081
3.42026
3.41974
3.41926
3.41882
3.41841
3.41805
3.41773
3.41745
3.41722
3.41702
3.41686
3.41675
3.41666
3.41661
3.41659
3.41659
3.41661
3.41665
3.41669
3.41673
3.41677
3.41681
3.41683
3.41685
3.46732
3.46736
3.46745
3.46757
3.46774
3.46794
3.46819
3.46848
3.46881
3.46917
3.46958
3.47001
3.47049
3.47099
3.47152
3.47207
3.47265
3.47326
3.47388
3.47453
3.4752
3.47588
3.47659
3.47731
3.47804
3.47878
3.47952
3.48027
3.48101
3.48174
3.48244
3.48313
3.48378
3.48438
3.48494
3.48545
3.48589
3.48627
3.48657
3.4868
3.48694
3.487
3.48696
3.48684
3.48661
3.48629
3.48587
3.48535
3.48473
3.48401
3.48319
3.48227
3.48125
3.48014
3.47893
3.47764
3.47626
3.4748
3.47326
3.47165
3.46998
3.46826
3.46649
3.46469
3.46286
3.46101
3.45916
3.45732
3.4555
3.4537
3.45196
3.45026
3.44862
3.44706
3.44557
3.44415
3.44282
3.44157
3.44039
3.43929
3.43825
3.43728
3.43636
3.43549
3.43467
3.43388
3.43311
3.43238
3.43167
3.43097
3.4303
3.42965
3.42901
3.4284
3.42781
3.42725
3.42672
3.42622
3.42575
3.42531
3.42492
3.42456
3.42424
3.42396
3.42372
3.42351
3.42335
3.42321
3.42311
3.42304
3.42299
3.42297
3.42297
3.42297
3.42299
3.42301
3.42304
3.42306
3.42307
3.42308
3.47311
3.47315
3.47323
3.47334
3.4735
3.47369
3.47393
3.4742
3.4745
3.47485
3.47522
3.47563
3.47607
3.47654
3.47703
3.47755
3.47809
3.47866
3.47924
3.47985
3.48047
3.48111
3.48176
3.48243
3.4831
3.48378
3.48446
3.48514
3.48581
3.48647
3.48711
3.48772
3.4883
3.48884
3.48933
3.48978
3.49016
3.49048
3.49074
3.49092
3.49102
3.49105
3.49099
3.49084
3.4906
3.49028
3.48986
3.48935
3.48874
3.48804
3.48725
3.48637
3.48539
3.48433
3.48318
3.48195
3.48065
3.47926
3.47781
3.4763
3.47473
3.47311
3.47144
3.46975
3.46803
3.4663
3.46456
3.46284
3.46112
3.45944
3.45779
3.45619
3.45464
3.45314
3.45172
3.45036
3.44907
3.44785
3.4467
3.44561
3.44459
3.44362
3.4427
3.44183
3.441
3.44021
3.43944
3.43871
3.438
3.43731
3.43665
3.436
3.43538
3.43478
3.43421
3.43366
3.43314
3.43265
3.4322
3.43177
3.43138
3.43103
3.43071
3.43043
3.43018
3.42997
3.42979
3.42965
3.42953
3.42944
3.42937
3.42933
3.4293
3.42929
3.42929
3.42929
3.4293
3.42931
3.42931
3.42932
3.47886
3.4789
3.47897
3.47908
3.47923
3.47941
3.47963
3.47988
3.48017
3.48048
3.48084
3.48122
3.48163
3.48206
3.48252
3.48301
3.48351
3.48404
3.48459
3.48515
3.48573
3.48632
3.48692
3.48754
3.48816
3.48878
3.4894
3.49002
3.49063
3.49122
3.49179
3.49234
3.49286
3.49334
3.49377
3.49416
3.49449
3.49476
3.49497
3.49512
3.49519
3.49518
3.4951
3.49493
3.49469
3.49436
3.49394
3.49343
3.49284
3.49217
3.4914
3.49055
3.48962
3.48861
3.48752
3.48635
3.48511
3.4838
3.48243
3.481
3.47952
3.47799
3.47643
3.47483
3.47322
3.47159
3.46996
3.46833
3.46672
3.46513
3.46358
3.46206
3.46059
3.45917
3.4578
3.45649
3.45525
3.45406
3.45294
3.45187
3.45086
3.4499
3.44899
3.44812
3.4473
3.4465
3.44574
3.44501
3.44431
3.44363
3.44297
3.44234
3.44173
3.44114
3.44058
3.44004
3.43954
3.43906
3.43861
3.4382
3.43781
3.43746
3.43715
3.43686
3.43661
3.43639
3.43621
3.43605
3.43592
3.43581
3.43573
3.43567
3.43563
3.4356
3.43558
3.43557
3.43556
3.43556
3.43556
3.43556
3.48457
3.48461
3.48468
3.48478
3.48492
3.48509
3.48529
3.48553
3.48579
3.48609
3.48642
3.48677
3.48715
3.48756
3.48799
3.48844
3.48891
3.4894
3.48991
3.49043
3.49097
3.49152
3.49207
3.49264
3.49321
3.49378
3.49435
3.49491
3.49546
3.49599
3.49651
3.49699
3.49745
3.49788
3.49826
3.49859
3.49888
3.49911
3.49928
3.49938
3.49942
3.49939
3.49929
3.49911
3.49885
3.49852
3.4981
3.49761
3.49703
3.49638
3.49564
3.49483
3.49393
3.49296
3.49192
3.49081
3.48963
3.48839
3.4871
3.48575
3.48435
3.48291
3.48144
3.47994
3.47842
3.47689
3.47535
3.47382
3.4723
3.4708
3.46933
3.46789
3.46649
3.46513
3.46382
3.46257
3.46136
3.46022
3.45912
3.45808
3.45708
3.45614
3.45524
3.45438
3.45356
3.45277
3.45201
3.45129
3.45059
3.44992
3.44927
3.44864
3.44805
3.44747
3.44692
3.4464
3.4459
3.44543
3.445
3.44459
3.44421
3.44386
3.44355
3.44326
3.44301
3.44278
3.44259
3.44242
3.44228
3.44216
3.44207
3.44199
3.44193
3.44189
3.44186
3.44184
3.44182
3.44181
3.44181
3.4418
3.49025
3.49028
3.49035
3.49044
3.49057
3.49073
3.49092
3.49114
3.49139
3.49167
3.49197
3.4923
3.49266
3.49303
3.49343
3.49385
3.49429
3.49475
3.49522
3.4957
3.4962
3.4967
3.49722
3.49774
3.49826
3.49878
3.49929
3.4998
3.5003
3.50078
3.50124
3.50168
3.50208
3.50246
3.50279
3.50308
3.50332
3.50351
3.50364
3.50372
3.50373
3.50368
3.50355
3.50336
3.5031
3.50276
3.50235
3.50186
3.5013
3.50067
3.49996
3.49917
3.49832
3.49739
3.4964
3.49534
3.49422
3.49305
3.49182
3.49054
3.48922
3.48786
3.48647
3.48506
3.48363
3.48218
3.48073
3.47929
3.47785
3.47643
3.47504
3.47367
3.47234
3.47105
3.46979
3.46859
3.46743
3.46631
3.46525
3.46423
3.46326
3.46233
3.46144
3.46059
3.45978
3.459
3.45825
3.45754
3.45685
3.45618
3.45554
3.45493
3.45434
3.45377
3.45324
3.45272
3.45224
3.45178
3.45135
3.45094
3.45057
3.45023
3.44991
3.44963
3.44937
3.44914
3.44894
3.44877
3.44862
3.44849
3.44838
3.4483
3.44823
3.44817
3.44813
3.4481
3.44807
3.44806
3.44805
3.44804
3.49589
3.49592
3.49598
3.49607
3.49619
3.49634
3.49652
3.49672
3.49696
3.49721
3.4975
3.4978
3.49813
3.49849
3.49886
3.49925
3.49965
3.50008
3.50051
3.50096
3.50142
3.50188
3.50236
3.50283
3.50331
3.50378
3.50425
3.50471
3.50516
3.50559
3.506
3.50639
3.50675
3.50707
3.50736
3.50761
3.50781
3.50797
3.50807
3.50811
3.5081
3.50803
3.50789
3.50769
3.50742
3.50708
3.50667
3.50619
3.50565
3.50503
3.50434
3.50359
3.50277
3.50189
3.50094
3.49993
3.49887
3.49776
3.49659
3.49538
3.49413
3.49285
3.49154
3.4902
3.48885
3.48748
3.48612
3.48475
3.48339
3.48205
3.48072
3.47942
3.47815
3.47692
3.47572
3.47456
3.47344
3.47236
3.47133
3.47034
3.46939
3.46848
3.46761
3.46677
3.46597
3.4652
3.46446
3.46375
3.46307
3.46242
3.46179
3.46119
3.46061
3.46005
3.45952
3.45902
3.45854
3.45809
3.45767
3.45727
3.4569
3.45656
3.45625
3.45597
3.45571
3.45548
3.45527
3.45509
3.45493
3.4548
3.45468
3.45458
3.4545
3.45444
3.45439
3.45435
3.45432
3.45429
3.45428
3.45427
3.50151
3.50154
3.50159
3.50168
3.50179
3.50193
3.50209
3.50228
3.5025
3.50274
3.503
3.50328
3.50359
3.50392
3.50426
3.50462
3.505
3.50539
3.50579
3.50621
3.50663
3.50706
3.50749
3.50792
3.50836
3.50879
3.50922
3.50963
3.51003
3.51042
3.51079
3.51113
3.51145
3.51173
3.51198
3.51219
3.51235
3.51247
3.51255
3.51257
3.51253
3.51244
3.51229
3.51208
3.5118
3.51146
3.51106
3.51059
3.51006
3.50946
3.5088
3.50808
3.50729
3.50644
3.50554
3.50458
3.50357
3.50251
3.50141
3.50026
3.49908
3.49786
3.49662
3.49536
3.49408
3.49279
3.49149
3.4902
3.48891
3.48764
3.48638
3.48514
3.48393
3.48275
3.4816
3.48049
3.47941
3.47837
3.47737
3.4764
3.47548
3.47459
3.47373
3.47291
3.47213
3.47137
3.47064
3.46995
3.46928
3.46863
3.46801
3.46742
3.46685
3.46631
3.46579
3.46529
3.46482
3.46438
3.46396
3.46357
3.46321
3.46287
3.46256
3.46228
3.46202
3.46178
3.46157
3.46139
3.46122
3.46108
3.46096
3.46085
3.46077
3.46069
3.46063
3.46059
3.46055
3.46052
3.46051
3.4605
3.50709
3.50712
3.50717
3.50725
3.50735
3.50748
3.50763
3.50781
3.50801
3.50823
3.50848
3.50874
3.50903
3.50933
3.50965
3.50998
3.51033
3.51069
3.51106
3.51144
3.51183
3.51222
3.51262
3.51302
3.51341
3.5138
3.51419
3.51456
3.51493
3.51527
3.5156
3.5159
3.51617
3.51642
3.51663
3.51681
3.51694
3.51703
3.51708
3.51707
3.51702
3.51691
3.51675
3.51653
3.51625
3.51591
3.51551
3.51505
3.51453
3.51396
3.51332
3.51262
3.51187
3.51106
3.51019
3.50928
3.50832
3.50731
3.50626
3.50517
3.50405
3.5029
3.50173
3.50053
3.49932
3.4981
3.49687
3.49565
3.49442
3.49321
3.49202
3.49084
3.48968
3.48855
3.48745
3.48638
3.48534
3.48434
3.48337
3.48243
3.48153
3.48066
3.47983
3.47902
3.47825
3.47751
3.4768
3.47611
3.47545
3.47482
3.47421
3.47362
3.47307
3.47253
3.47202
3.47154
3.47108
3.47064
3.47023
3.46985
3.46949
3.46915
3.46884
3.46856
3.4683
3.46806
3.46785
3.46766
3.46749
3.46735
3.46722
3.46711
3.46701
3.46693
3.46687
3.46681
3.46677
3.46674
3.46672
3.46672
3.51265
3.51268
3.51272
3.5128
3.51289
3.51301
3.51315
3.51332
3.5135
3.51371
3.51394
3.51418
3.51444
3.51472
3.51502
3.51533
3.51565
3.51598
3.51632
3.51667
3.51703
3.51739
3.51775
3.51811
3.51847
3.51883
3.51917
3.51951
3.51983
3.52014
3.52043
3.52069
3.52093
3.52114
3.52132
3.52146
3.52157
3.52163
3.52166
3.52163
3.52156
3.52144
3.52126
3.52104
3.52075
3.52042
3.52002
3.51958
3.51907
3.51851
3.51789
3.51722
3.5165
3.51572
3.5149
3.51403
3.51311
3.51215
3.51115
3.51012
3.50906
3.50796
3.50685
3.50572
3.50457
3.50341
3.50225
3.50108
3.49992
3.49877
3.49763
3.49651
3.49541
3.49433
3.49327
3.49224
3.49124
3.49027
3.48933
3.48842
3.48755
3.4867
3.48589
3.4851
3.48435
3.48362
3.48292
3.48224
3.4816
3.48098
3.48038
3.47981
3.47926
3.47873
3.47823
3.47776
3.4773
3.47688
3.47647
3.47609
3.47574
3.47541
3.4751
3.47482
3.47456
3.47432
3.47411
3.47391
3.47374
3.47359
3.47346
3.47334
3.47324
3.47316
3.47309
3.47303
3.47299
3.47295
3.47293
3.47292
3.51818
3.51821
3.51825
3.51832
3.51841
3.51852
3.51865
3.5188
3.51897
3.51917
3.51937
3.5196
3.51984
3.5201
3.52037
3.52066
3.52095
3.52126
3.52157
3.52189
3.52222
3.52255
3.52288
3.52321
3.52353
3.52385
3.52416
3.52447
3.52475
3.52503
3.52528
3.52551
3.52572
3.52589
3.52604
3.52616
3.52624
3.52628
3.52628
3.52624
3.52615
3.52601
3.52583
3.5256
3.52531
3.52498
3.52459
3.52415
3.52366
3.52312
3.52252
3.52188
3.52118
3.52044
3.51965
3.51882
3.51794
3.51703
3.51608
3.5151
3.51409
3.51305
3.51199
3.51092
3.50983
3.50873
3.50762
3.50652
3.50542
3.50432
3.50323
3.50216
3.50111
3.50007
3.49906
3.49807
3.49711
3.49617
3.49526
3.49438
3.49353
3.49271
3.49191
3.49115
3.49041
3.4897
3.48901
3.48835
3.48772
3.48711
3.48652
3.48596
3.48542
3.48491
3.48442
3.48395
3.48351
3.48309
3.48269
3.48231
3.48196
3.48164
3.48133
3.48105
3.48079
3.48056
3.48034
3.48015
3.47997
3.47982
3.47968
3.47956
3.47945
3.47937
3.47929
3.47923
3.47918
3.47915
3.47913
3.47912
3.52369
3.52371
3.52376
3.52382
3.5239
3.524
3.52413
3.52427
3.52442
3.5246
3.52479
3.525
3.52523
3.52547
3.52572
3.52598
3.52625
3.52653
3.52682
3.52711
3.52741
3.52771
3.52801
3.5283
3.5286
3.52889
3.52917
3.52944
3.52969
3.52993
3.53015
3.53035
3.53053
3.53068
3.5308
3.53089
3.53094
3.53096
3.53094
3.53089
3.53078
3.53064
3.53045
3.53021
3.52993
3.52959
3.52921
3.52878
3.5283
3.52778
3.5272
3.52658
3.52591
3.5252
3.52444
3.52365
3.52281
3.52194
3.52104
3.5201
3.51914
3.51816
3.51715
3.51613
3.51509
3.51405
3.513
3.51195
3.5109
3.50985
3.50882
3.5078
3.50679
3.50579
3.50482
3.50387
3.50294
3.50204
3.50116
3.50031
3.49949
3.49869
3.49791
3.49717
3.49645
3.49575
3.49508