/*--------------------------------*- C++ -*----------------------------------*\
| =========                 |                                                 |
| \\      /  F ield         | OpenFOAM: The Open Source CFD Toolbox           |
|  \\    /   O peration     | Version:  2406                                  |
|   \\  /    A nd           | Website:  www.openfoam.com                      |
|    \\/     M anipulation  |                                                 |
\*---------------------------------------------------------------------------*/
FoamFile
{
    version     2.0;
    format      ascii;
    arch        "LSB;label=32;scalar=64";
    class       volScalarField;
    location    "1";
    object      C_0;
}
// * * * * * * * * * * * * * * * * * * * * * * * * * * * * * * * * * * * * * //

dimensions      [1 -3 0 0 0 0 0];

internalField   nonuniform List<scalar> 
14400
(
3.36518
3.36374
3.36069
3.35573
3.34815
3.33641
3.3124
3.29707
3.3148
3.34058
3.35388
3.36316
3.36995
3.37496
3.37853
3.38088
3.38208
3.38215
3.38098
3.3784
3.37402
3.36713
3.35611
3.33305
3.31934
3.33902
3.36647
3.38137
3.39243
3.40124
3.4085
3.41461
3.41984
3.42434
3.42823
3.4316
3.4345
3.43699
3.4391
3.44085
3.44228
3.4434
3.44422
3.44476
3.44502
3.44501
3.44473
3.44419
3.44338
3.44231
3.44097
3.43936
3.43748
3.4353
3.43283
3.43006
3.42695
3.42351
3.4197
3.41549
3.41086
3.40576
3.40014
3.39393
3.38705
3.37938
3.37078
3.36105
3.34987
3.33678
3.32102
3.30097
3.26603
3.23172
3.22471
3.22219
3.22354
3.25183
3.28215
3.29806
3.30939
3.31781
3.32413
3.32882
3.33217
3.33437
3.33552
3.3357
3.33491
3.33314
3.33033
3.32635
3.32097
3.31381
3.3042
3.29061
3.26451
3.2459
3.25986
3.28248
3.29292
3.29901
3.30224
3.30316
3.30194
3.29843
3.29206
3.28137
3.25846
3.24413
3.26236
3.2882
3.30157
3.31099
3.31798
3.32322
3.32711
3.32988
3.33166
3.33253
3.36663
3.36533
3.36262
3.35833
3.35216
3.34376
3.33294
3.32148
3.33511
3.34766
3.35774
3.36564
3.37175
3.37638
3.37976
3.38202
3.38322
3.38337
3.3824
3.3802
3.37653
3.3711
3.36353
3.35369
3.34371
3.35912
3.37326
3.38499
3.39469
3.40279
3.40964
3.4155
3.42056
3.42495
3.42876
3.43206
3.43492
3.43737
3.43945
3.44118
3.44259
3.4437
3.44451
3.44504
3.44529
3.44527
3.44499
3.44445
3.44364
3.44258
3.44124
3.43964
3.43776
3.4356
3.43314
3.43038
3.4273
3.42387
3.42009
3.41592
3.41133
3.40628
3.40072
3.3946
3.38783
3.38031
3.37192
3.36249
3.35177
3.33945
3.32506
3.30798
3.28727
3.26113
3.2574
3.25512
3.25328
3.27373
3.28985
3.30247
3.31229
3.31991
3.32576
3.33016
3.33333
3.33541
3.3365
3.33666
3.33589
3.33419
3.3315
3.32774
3.32274
3.31627
3.308
3.29754
3.28458
3.27015
3.28038
3.28999
3.29713
3.30189
3.30453
3.30529
3.30424
3.30129
3.29625
3.28882
3.27893
3.26835
3.28243
3.29513
3.30537
3.31343
3.31972
3.32458
3.32824
3.33086
3.33256
3.3334
3.36939
3.36831
3.36613
3.36282
3.3584
3.35316
3.34811
3.34605
3.35001
3.35682
3.36377
3.36991
3.37501
3.37906
3.38211
3.38422
3.38542
3.38571
3.38506
3.38345
3.38082
3.3772
3.37287
3.36891
3.36817
3.37366
3.38203
3.39062
3.39854
3.40558
3.41177
3.4172
3.42196
3.42613
3.42978
3.43297
3.43574
3.43812
3.44014
3.44183
3.44321
3.44428
3.44507
3.44559
3.44583
3.4458
3.44552
3.44497
3.44417
3.44311
3.44178
3.44019
3.43833
3.43619
3.43375
3.43102
3.42798
3.4246
3.42087
3.41677
3.41226
3.40731
3.40188
3.39591
3.38935
3.38212
3.37411
3.36521
3.35529
3.34419
3.33178
3.3181
3.30376
3.29097
3.28319
3.28074
3.28341
3.29106
3.30062
3.30965
3.31741
3.32377
3.32883
3.33273
3.33557
3.33744
3.33842
3.33853
3.3378
3.33622
3.33376
3.33037
3.32598
3.32053
3.314
3.30661
3.29927
3.29458
3.29566
3.29965
3.30374
3.30686
3.30872
3.30924
3.30842
3.30625
3.30282
3.29844
3.29414
3.29274
3.29711
3.30418
3.31133
3.31764
3.3229
3.32712
3.33039
3.33278
3.33433
3.3351
3.37322
3.3724
3.37077
3.3684
3.36547
3.36237
3.35992
3.35941
3.36167
3.36583
3.37061
3.37523
3.37932
3.38273
3.3854
3.38733
3.38852
3.38897
3.3887
3.38771
3.38609
3.384
3.38187
3.38051
3.38126
3.38492
3.39057
3.39694
3.40327
3.40923
3.41466
3.41956
3.42394
3.42783
3.43128
3.4343
3.43694
3.43922
3.44117
3.4428
3.44412
3.44516
3.44592
3.4464
3.44663
3.44659
3.4463
3.44575
3.44495
3.4439
3.44259
3.44101
3.43918
3.43706
3.43467
3.43198
3.42899
3.42567
3.42202
3.41802
3.41362
3.40882
3.40356
3.39782
3.39155
3.38469
3.37718
3.36896
3.35999
3.35023
3.33977
3.32887
3.31823
3.30916
3.30308
3.30065
3.30183
3.30602
3.31191
3.31812
3.32391
3.32893
3.33308
3.33635
3.33877
3.34037
3.34119
3.34125
3.34056
3.33913
3.33694
3.33399
3.33028
3.32586
3.32085
3.31563
3.31093
3.30799
3.30769
3.30922
3.3113
3.31311
3.31425
3.31454
3.31393
3.31248
3.31035
3.30796
3.30612
3.30611
3.30874
3.31316
3.31812
3.32289
3.3271
3.33063
3.33343
3.33551
3.33689
3.33757
3.37788
3.37729
3.37614
3.37455
3.3727
3.37094
3.36978
3.36984
3.37143
3.37422
3.3776
3.38107
3.38431
3.38713
3.38944
3.39119
3.39236
3.39297
3.39303
3.39261
3.39182
3.39086
3.39008
3.39001
3.39128
3.39418
3.39839
3.40329
3.40839
3.41338
3.41809
3.42245
3.42641
3.42999
3.43318
3.43602
3.4385
3.44066
3.44251
3.44406
3.44533
3.44631
3.44703
3.44749
3.44769
3.44764
3.44734
3.44679
3.44599
3.44495
3.44365
3.4421
3.44029
3.43822
3.43587
3.43324
3.43032
3.42709
3.42354
3.41965
3.4154
3.41077
3.40574
3.40027
3.39434
3.38791
3.38096
3.37347
3.36546
3.35698
3.34819
3.33939
3.33113
3.32418
3.31932
3.31695
3.31707
3.31929
3.32287
3.32703
3.33117
3.33496
3.3382
3.34082
3.34279
3.34409
3.34473
3.34472
3.34407
3.34279
3.34088
3.33837
3.3353
3.33176
3.32793
3.32413
3.32083
3.31864
3.31787
3.31823
3.31912
3.32003
3.32062
3.32073
3.32029
3.31937
3.31814
3.31693
3.31625
3.3167
3.31859
3.32159
3.32512
3.32869
3.332
3.33486
3.33719
3.33896
3.34014
3.34073
3.38313
3.38273
3.38197
3.38095
3.37985
3.3789
3.37843
3.37875
3.37999
3.38201
3.3845
3.38715
3.38972
3.39205
3.39403
3.39561
3.39677
3.3975
3.39786
3.39789
3.39772
3.39753
3.39757
3.39818
3.39966
3.40215
3.40551
3.40944
3.41362
3.41782
3.42188
3.42571
3.42927
3.43251
3.43545
3.43807
3.44039
3.44242
3.44415
3.44561
3.4468
3.44773
3.4484
3.44882
3.449
3.44893
3.44862
3.44807
3.44728
3.44625
3.44497
3.44345
3.44168
3.43965
3.43736
3.43479
3.43195
3.42882
3.42539
3.42164
3.41756
3.41313
3.40834
3.40318
3.39761
3.39165
3.38527
3.37851
3.3714
3.36404
3.35661
3.34936
3.34271
3.33713
3.33305
3.33075
3.33021
3.33119
3.33327
3.33594
3.33879
3.34152
3.34395
3.34595
3.34747
3.34846
3.34892
3.34883
3.34821
3.34707
3.34542
3.34331
3.34079
3.33796
3.33499
3.33211
3.32964
3.32786
3.32693
3.32672
3.32693
3.32726
3.32748
3.32745
3.32714
3.32658
3.32592
3.32537
3.32525
3.32586
3.32731
3.32948
3.33206
3.33476
3.33733
3.33962
3.34152
3.34298
3.34397
3.34447
3.38878
3.38852
3.38805
3.38744
3.38683
3.38638
3.3863
3.38673
3.38777
3.38932
3.39123
3.39331
3.39538
3.39731
3.39902
3.40046
3.40159
3.40242
3.403
3.40337
3.40364
3.40396
3.4045
3.40546
3.40703
3.40925
3.41207
3.41533
3.41882
3.42239
3.4259
3.42926
3.43243
3.43536
3.43803
3.44044
3.44258
3.44446
3.44607
3.44743
3.44854
3.44941
3.45003
3.45041
3.45055
3.45047
3.45014
3.44959
3.44881
3.44779
3.44654
3.44505
3.44332
3.44134
3.43911
3.43663
3.43388
3.43085
3.42755
3.42396
3.42006
3.41585
3.41133
3.40648
3.4013
3.39579
3.38998
3.38389
3.37759
3.37119
3.36483
3.35875
3.35322
3.34855
3.34502
3.34278
3.34182
3.34201
3.34306
3.34466
3.34652
3.3484
3.35012
3.35157
3.35267
3.35337
3.35364
3.35348
3.35288
3.35186
3.35044
3.34865
3.34657
3.34429
3.34194
3.33969
3.33774
3.33624
3.33527
3.33478
3.33462
3.3346
3.33458
3.33447
3.33423
3.3339
3.33357
3.33339
3.33354
3.33416
3.33533
3.33696
3.3389
3.34095
3.34295
3.34476
3.34629
3.34748
3.3483
3.34871
3.39469
3.39454
3.39426
3.39394
3.39364
3.3935
3.39363
3.39413
3.39502
3.39628
3.3978
3.39947
3.40117
3.4028
3.40429
3.4056
3.4067
3.40761
3.40834
3.40895
3.40953
3.41017
3.411
3.41216
3.41373
3.41576
3.4182
3.42097
3.42395
3.42701
3.43006
3.43302
3.43583
3.43845
3.44087
3.44306
3.44503
3.44675
3.44825
3.4495
3.45053
3.45132
3.45189
3.45223
3.45234
3.45223
3.4519
3.45135
3.45057
3.44957
3.44834
3.44689
3.4452
3.44328
3.44112
3.43872
3.43607
3.43317
3.43
3.42657
3.42287
3.4189
3.41464
3.41011
3.4053
3.40024
3.39495
3.38948
3.38389
3.37828
3.37279
3.36758
3.36287
3.35885
3.3557
3.35352
3.3523
3.35195
3.3523
3.35313
3.35424
3.35543
3.35657
3.35754
3.35826
3.35869
3.3588
3.35856
3.35797
3.35704
3.35581
3.35429
3.35257
3.3507
3.3488
3.34698
3.34538
3.34408
3.34314
3.34252
3.34216
3.34194
3.34177
3.3416
3.34141
3.34121
3.34107
3.34108
3.34133
3.34192
3.34287
3.34414
3.34562
3.3472
3.34875
3.35018
3.3514
3.35236
3.35302
3.35336
3.40075
3.40067
3.40054
3.40039
3.40031
3.40035
3.4006
3.40112
3.40191
3.40297
3.40422
3.40561
3.40703
3.40843
3.40975
3.41095
3.41202
3.41296
3.4138
3.41457
3.41534
3.41618
3.41718
3.41843
3.41997
3.42184
3.42401
3.42642
3.42899
3.43165
3.43431
3.43691
3.43941
3.44175
3.44393
3.44592
3.44771
3.44929
3.45065
3.45181
3.45274
3.45347
3.45397
3.45427
3.45435
3.45422
3.45388
3.45332
3.45255
3.45157
3.45037
3.44895
3.44732
3.44546
3.44338
3.44107
3.43852
3.43574
3.43272
3.42946
3.42596
3.42221
3.41823
3.41401
3.40956
3.40492
3.40012
3.39519
3.3902
3.38525
3.38045
3.37592
3.37182
3.36828
3.36541
3.36329
3.36191
3.3612
3.36106
3.36133
3.36186
3.36252
3.36318
3.36375
3.36416
3.36435
3.3643
3.36398
3.36339
3.36254
3.36145
3.36015
3.35869
3.35714
3.35557
3.35406
3.35271
3.35157
3.35067
3.35001
3.34955
3.34922
3.34897
3.34877
3.34859
3.34847
3.34842
3.34851
3.3488
3.34933
3.3501
3.3511
3.35225
3.35347
3.35468
3.3558
3.35677
3.35754
3.35807
3.35834
3.40688
3.40686
3.40681
3.40679
3.40683
3.40699
3.40731
3.40782
3.40854
3.40946
3.41052
3.41169
3.41291
3.41414
3.41532
3.41643
3.41746
3.41842
3.41932
3.42019
3.42107
3.42203
3.42312
3.4244
3.42589
3.42762
3.42957
3.4317
3.43396
3.43628
3.43862
3.44092
3.44313
3.44523
3.44718
3.44898
3.4506
3.45203
3.45328
3.45432
3.45517
3.45582
3.45627
3.45652
3.45657
3.45642
3.45606
3.45551
3.45475
3.45378
3.45261
3.45124
3.44966
3.44786
3.44586
3.44364
3.44121
3.43855
3.43568
3.4326
3.42929
3.42577
3.42205
3.41812
3.41403
3.40977
3.4054
3.40095
3.39648
3.39208
3.38783
3.38384
3.3802
3.37703
3.37439
3.37232
3.37084
3.36989
3.3694
3.36926
3.36936
3.3696
3.36988
3.37012
3.37026
3.37025
3.37006
3.36967
3.36908
3.36828
3.3673
3.36617
3.36491
3.36359
3.36226
3.36099
3.35982
3.35881
3.35797
3.35731
3.3568
3.35642
3.35612
3.3559
3.35573
3.35564
3.35563
3.35575
3.35603
3.35648
3.35711
3.3579
3.3588
3.35975
3.3607
3.36158
3.36234
3.36295
3.36338
3.36359
3.41305
3.41305
3.41307
3.41313
3.41325
3.41347
3.41382
3.41432
3.41498
3.41579
3.41671
3.41773
3.4188
3.41988
3.42095
3.42199
3.42298
3.42394
3.42486
3.42579
3.42674
3.42776
3.42888
3.43015
3.43158
3.43318
3.43495
3.43685
3.43885
3.4409
3.44297
3.445
3.44697
3.44884
3.4506
3.45221
3.45367
3.45497
3.45609
3.45704
3.4578
3.45838
3.45877
3.45898
3.45899
3.45882
3.45845
3.4579
3.45715
3.4562
3.45507
3.45373
3.4522
3.45048
3.44855
3.44643
3.44411
3.44158
3.43886
3.43594
3.43283
3.42953
3.42606
3.42242
3.41864
3.41474
3.41075
3.40672
3.4027
3.39876
3.39496
3.39139
3.38813
3.38524
3.38278
3.38078
3.37924
3.37812
3.37739
3.37695
3.37673
3.37664
3.37662
3.3766
3.37651
3.37633
3.37603
3.37557
3.37496
3.3742
3.37331
3.3723
3.3712
3.37006
3.36891
3.36781
3.36678
3.36587
3.36509
3.36445
3.36393
3.36352
3.36321
3.36297
3.3628
3.36272
3.36272
3.36284
3.36308
3.36345
3.36396
3.36459
3.36529
3.36604
3.36678
3.36747
3.36807
3.36855
3.36889
3.36906
3.41921
3.41923
3.41929
3.41939
3.41956
3.41982
3.42018
3.42067
3.42127
3.422
3.42282
3.42372
3.42466
3.42564
3.42662
3.42759
3.42854
3.42948
3.43041
3.43136
3.43233
3.43337
3.4345
3.43573
3.43709
3.43858
3.44019
3.4419
3.44368
3.44551
3.44734
3.44915
3.45091
3.45258
3.45415
3.45559
3.45691
3.45807
3.45908
3.45993
3.46061
3.46112
3.46146
3.46162
3.4616
3.46141
3.46103
3.46048
3.45974
3.45882
3.45771
3.45642
3.45495
3.45329
3.45145
3.44942
3.44721
3.44481
3.44223
3.43948
3.43656
3.43347
3.43024
3.42686
3.42337
3.41979
3.41615
3.41248
3.40884
3.40528
3.40186
3.39864
3.39567
3.39302
3.39071
3.38877
3.3872
3.38598
3.38507
3.38441
3.38395
3.38362
3.38336
3.38313
3.38286
3.38254
3.38213
3.38162
3.381
3.38026
3.37943
3.37851
3.37753
3.37652
3.37552
3.37454
3.37363
3.3728
3.37208
3.37146
3.37095
3.37054
3.37021
3.36996
3.36979
3.3697
3.3697
3.36979
3.36999
3.3703
3.3707
3.37119
3.37174
3.37233
3.3729
3.37345
3.37392
3.3743
3.37456
3.3747
3.42535
3.42538
3.42546
3.42559
3.42579
3.42606
3.42642
3.42688
3.42745
3.4281
3.42884
3.42965
3.4305
3.43139
3.4323
3.43321
3.43412
3.43503
3.43595
3.43689
3.43787
3.4389
3.44
3.44119
3.44247
3.44386
3.44533
3.44688
3.44848
3.45011
3.45174
3.45336
3.45492
3.45641
3.45782
3.45911
3.46029
3.46133
3.46224
3.46299
3.4636
3.46404
3.46432
3.46444
3.46439
3.46418
3.46379
3.46324
3.46251
3.46161
3.46054
3.4593
3.45788
3.45629
3.45453
3.45259
3.45049
3.44822
3.44578
3.44319
3.44045
3.43756
3.43455
3.43142
3.42819
3.4249
3.42156
3.41822
3.41491
3.41167
3.40856
3.40563
3.40291
3.40045
3.39827
3.3964
3.39482
3.39353
3.3925
3.39169
3.39104
3.39053
3.39009
3.38968
3.38927
3.38884
3.38834
3.38778
3.38714
3.38642
3.38563
3.38479
3.3839
3.38299
3.38209
3.38121
3.38039
3.37963
3.37896
3.37837
3.37787
3.37746
3.37713
3.37688
3.3767
3.3766
3.37658
3.37664
3.3768
3.37703
3.37735
3.37773
3.37816
3.37862
3.37907
3.37949
3.37986
3.38016
3.38037
3.38047
3.43145
3.43149
3.43158
3.43172
3.43193
3.43221
3.43256
3.433
3.43352
3.43413
3.4348
3.43553
3.43631
3.43713
3.43797
3.43882
3.43969
3.44057
3.44147
3.44239
3.44335
3.44435
3.44542
3.44655
3.44776
3.44904
3.45039
3.4518
3.45324
3.45471
3.45617
3.45761
3.45901
3.46034
3.46159
3.46275
3.4638
3.46474
3.46554
3.46621
3.46674
3.46712
3.46735
3.46743
3.46735
3.46712
3.46672
3.46617
3.46545
3.46458
3.46354
3.46234
3.46098
3.45946
3.45777
3.45593
3.45394
3.45179
3.44949
3.44705
3.44448
3.44178
3.43897
3.43607
3.43309
3.43005
3.42698
3.42392
3.42089
3.41794
3.41509
3.4124
3.40989
3.40759
3.40553
3.40372
3.40215
3.40082
3.39971
3.39878
3.39801
3.39735
3.39677
3.39624
3.39571
3.39518
3.39462
3.39402
3.39336
3.39265
3.3919
3.3911
3.39028
3.38945
3.38863
3.38783
3.38707
3.38638
3.38575
3.38519
3.38471
3.38431
3.38397
3.38372
3.38353
3.38342
3.38338
3.38341
3.38352
3.38369
3.38393
3.38423
3.38456
3.38491
3.38526
3.38559
3.38588
3.38611
3.38627
3.38635
3.4375
3.43755
3.43764
3.4378
3.438
3.43828
3.43862
3.43904
3.43952
3.44008
3.4407
3.44137
3.44208
3.44284
3.44362
3.44442
3.44525
3.44609
3.44696
3.44785
3.44878
3.44975
3.45077
3.45184
3.45297
3.45416
3.4554
3.45668
3.45798
3.4593
3.46061
3.4619
3.46315
3.46435
3.46547
3.4665
3.46744
3.46826
3.46898
3.46956
3.47002
3.47034
3.47053
3.47057
3.47046
3.47021
3.46981
3.46926
3.46856
3.46771
3.4667
3.46555
3.46424
3.46278
3.46118
3.45943
3.45754
3.4555
3.45334
3.45104
3.44863
3.44611
3.4435
3.4408
3.43803
3.43523
3.4324
3.42959
3.4268
3.42409
3.42147
3.41898
3.41665
3.4145
3.41254
3.41079
3.40924
3.4079
3.40673
3.40573
3.40486
3.4041
3.40341
3.40278
3.40217
3.40156
3.40094
3.4003
3.39963
3.39893
3.3982
3.39744
3.39667
3.3959
3.39514
3.3944
3.3937
3.39305
3.39246
3.39193
3.39147
3.39107
3.39074
3.39048
3.39029
3.39016
3.3901
3.3901
3.39016
3.39029
3.39046
3.39069
3.39094
3.3912
3.39147
3.39172
3.39195
3.39213
3.39225
3.39232
3.44351
3.44356
3.44365
3.44381
3.44401
3.44428
3.44461
3.445
3.44545
3.44597
3.44654
3.44716
3.44782
3.44852
3.44925
3.45001
3.45079
3.45159
3.45242
3.45327
3.45416
3.45509
3.45606
3.45707
3.45813
3.45923
3.46036
3.46153
3.46271
3.4639
3.46508
3.46624
3.46736
3.46842
3.46942
3.47034
3.47117
3.47191
3.47253
3.47305
3.47344
3.47371
3.47385
3.47385
3.47372
3.47346
3.47305
3.4725
3.47182
3.47099
3.47002
3.4689
3.46765
3.46626
3.46473
3.46307
3.46127
3.45935
3.45731
3.45516
3.45289
3.45054
3.4481
3.44559
3.44302
3.44043
3.43782
3.43521
3.43265
3.43014
3.42772
3.42541
3.42323
3.42121
3.41935
3.41766
3.41614
3.41479
3.41359
3.41254
3.4116
3.41076
3.41
3.40929
3.40861
3.40795
3.40729
3.40662
3.40594
3.40524
3.40452
3.4038
3.40306
3.40234
3.40163
3.40094
3.40028
3.39967
3.39911
3.39861
3.39816
3.39777
3.39745
3.39718
3.39698
3.39683
3.39675
3.39672
3.39675
3.39683
3.39695
3.39711
3.3973
3.3975
3.3977
3.39789
3.39806
3.3982
3.39829
3.39834
3.44947
3.44951
3.44961
3.44976
3.44996
3.45021
3.45053
3.4509
3.45132
3.4518
3.45233
3.4529
3.45352
3.45417
3.45485
3.45556
3.4563
3.45706
3.45785
3.45867
3.45951
3.46039
3.4613
3.46225
3.46324
3.46425
3.4653
3.46636
3.46744
3.46851
3.46957
3.47061
3.47161
3.47256
3.47346
3.47427
3.47501
3.47566
3.47621
3.47665
3.47698
3.4772
3.4773
3.47727
3.47712
3.47684
3.47643
3.47589
3.47521
3.47441
3.47347
3.4724
3.4712
3.46987
3.46841
3.46684
3.46514
3.46332
3.4614
3.45937
3.45725
3.45505
3.45277
3.45043
3.44805
3.44564
3.44322
3.44081
3.43843
3.43611
3.43386
3.4317
3.42966
3.42775
3.42598
3.42435
3.42287
3.42152
3.42032
3.41923
3.41825
3.41736
3.41653
3.41577
3.41504
3.41433
3.41364
3.41295
3.41226
3.41156
3.41086
3.41015
3.40945
3.40876
3.40809
3.40744
3.40682
3.40624
3.40571
3.40522
3.40479
3.40441
3.40409
3.40382
3.40361
3.40345
3.40334
3.40329
3.40328
3.40332
3.4034
3.40351
3.40364
3.40379
3.40393
3.40408
3.4042
3.40431
3.40438
3.40442
3.45537
3.45542
3.45552
3.45566
3.45585
3.45609
3.45639
3.45674
3.45713
3.45758
3.45807
3.4586
3.45918
3.45979
3.46042
3.46109
3.46179
3.46251
3.46325
3.46403
3.46483
3.46566
3.46651
3.4674
3.46831
3.46925
3.47021
3.47118
3.47216
3.47313
3.47409
3.47502
3.47592
3.47677
3.47756
3.47829
3.47894
3.47951
3.47998
3.48036
3.48064
3.48081
3.48087
3.48081
3.48064
3.48035
3.47994
3.4794
3.47874
3.47796
3.47705
3.47602
3.47488
3.47361
3.47222
3.47072
3.46911
3.4674
3.46559
3.46368
3.46169
3.45963
3.4575
3.45532
3.4531
3.45085
3.44861
3.44637
3.44416
3.442
3.4399
3.43789
3.43597
3.43416
3.43246
3.43089
3.42945
3.42813
3.42692
3.42581
3.4248
3.42388
3.42302
3.42221
3.42144
3.4207
3.41998
3.41928
3.41858
3.41788
3.41719
3.41651
3.41583
3.41517
3.41452
3.4139
3.41332
3.41276
3.41225
3.41179
3.41137
3.41099
3.41067
3.4104
3.41018
3.41001
3.40989
3.40981
3.40977
3.40978
3.40982
3.40988
3.40997
3.41007
3.41018
3.41028
3.41037
3.41045
3.4105
3.41053
3.46124
3.46128
3.46137
3.46151
3.46169
3.46192
3.4622
3.46253
3.4629
3.46331
3.46377
3.46427
3.4648
3.46537
3.46597
3.4666
3.46725
3.46793
3.46863
3.46936
3.47011
3.47089
3.47169
3.47252
3.47337
3.47423
3.47511
3.476
3.47688
3.47776
3.47863
3.47946
3.48027
3.48103
3.48173
3.48237
3.48295
3.48344
3.48386
3.48418
3.4844
3.48453
3.48456
3.48448
3.48428
3.48398
3.48357
3.48304
3.48239
3.48163
3.48076
3.47977
3.47867
3.47746
3.47614
3.47472
3.4732
3.47158
3.46987
3.46807
3.46621
3.46427
3.46228
3.46024
3.45817
3.45608
3.45398
3.4519
3.44984
3.44782
3.44586
3.44397
3.44216
3.44044
3.43883
3.43732
3.43591
3.43461
3.43341
3.4323
3.43128
3.43033
3.42944
3.42861
3.42781
3.42705
3.42632
3.4256
3.4249
3.4242
3.42352
3.42285
3.42219
3.42155
3.42093
3.42034
3.41978
3.41924
3.41875
3.4183
3.41789
3.41753
3.41721
3.41693
3.41671
3.41652
3.41638
3.41628
3.41622
3.4162
3.4162
3.41624
3.41629
3.41635
3.41642
3.41649
3.41655
3.41661
3.41664
3.41666
3.46705
3.46709
3.46718
3.46731
3.46748
3.4677
3.46796
3.46827
3.46861
3.469
3.46943
3.46989
3.47039
3.47092
3.47148
3.47207
3.47268
3.47332
3.47398
3.47467
3.47537
3.4761
3.47685
3.47762
3.4784
3.4792
3.48
3.48081
3.48162
3.48241
3.48319
3.48394
3.48466
3.48534
3.48596
3.48653
3.48703
3.48746
3.48782
3.48809
3.48827
3.48836
3.48835
3.48824
3.48804
3.48773
3.48731
3.48679
3.48616
3.48542
3.48458
3.48363
3.48258
3.48142
3.48017
3.47882
3.47737
3.47584
3.47423
3.47254
3.47079
3.46897
3.4671
3.4652
3.46326
3.46131
3.45935
3.4574
3.45548
3.45359
3.45175
3.44997
3.44826
3.44663
3.44508
3.44363
3.44227
3.44099
3.43981
3.43871
3.43768
3.43672
3.43581
3.43496
3.43415
3.43338
3.43263
3.43191
3.4312
3.43051
3.42984
3.42918
3.42854
3.42792
3.42732
3.42674
3.4262
3.42569
3.42521
3.42477
3.42437
3.42401
3.42369
3.42342
3.42318
3.42299
3.42284
3.42272
3.42264
3.42259
3.42257
3.42257
3.42259
3.42262
3.42266
3.4227
3.42275
3.42278
3.42281
3.42282
3.47282
3.47286
3.47294
3.47307
3.47323
3.47344
3.47368
3.47397
3.47429
3.47465
3.47505
3.47549
3.47595
3.47645
3.47697
3.47752
3.47809
3.47869
3.47931
3.47995
3.48061
3.48129
3.48199
3.4827
3.48342
3.48415
3.48489
3.48563
3.48636
3.48708
3.48778
3.48845
3.4891
3.4897
3.49025
3.49075
3.49119
3.49156
3.49186
3.49208
3.49222
3.49228
3.49224
3.49211
3.49189
3.49157
3.49116
3.49064
3.49003
3.48931
3.4885
3.48759
3.48658
3.48548
3.48429
3.483
3.48164
3.48019
3.47867
3.47708
3.47542
3.47372
3.47197
3.47018
3.46837
3.46654
3.46471
3.46288
3.46108
3.45931
3.45758
3.4559
3.45428
3.45273
3.45125
3.44985
3.44853
3.44729
3.44612
3.44503
3.44401
3.44305
3.44214
3.44128
3.44046
3.43968
3.43892
3.43819
3.43749
3.4368
3.43614
3.43549
3.43486
3.43426
3.43368
3.43312
3.43259
3.43209
3.43163
3.4312
3.43081
3.43045
3.43014
3.42986
3.42962
3.42942
3.42925
3.42912
3.42902
3.42895
3.4289
3.42888
3.42887
3.42888
3.4289
3.42892
3.42894
3.42896
3.42898
3.42899
3.47855
3.47859
3.47867
3.47878
3.47894
3.47913
3.47936
3.47963
3.47993
3.48027
3.48064
3.48104
3.48148
3.48194
3.48243
3.48294
3.48348
3.48404
3.48462
3.48522
3.48583
3.48646
3.48711
3.48776
3.48843
3.4891
3.48978
3.49045
3.49111
3.49176
3.49239
3.493
3.49357
3.4941
3.49459
3.49503
3.49541
3.49573
3.49598
3.49616
3.49626
3.49629
3.49623
3.49608
3.49584
3.49552
3.4951
3.4946
3.494
3.4933
3.49252
3.49165
3.49068
3.48963
3.48849
3.48727
3.48598
3.48461
3.48317
3.48167
3.48012
3.47851
3.47687
3.47519
3.47349
3.47177
3.47006
3.46834
3.46665
3.46498
3.46335
3.46176
3.46023
3.45875
3.45734
3.45599
3.45472
3.45351
3.45237
3.45129
3.45028
3.44932
3.44841
3.44755
3.44673
3.44594
3.44519
3.44446
3.44376
3.44308
3.44242
3.44178
3.44117
3.44057
3.44001
3.43946
3.43895
3.43847
3.43801
3.43759
3.43721
3.43686
3.43654
3.43626
3.43602
3.43581
3.43563
3.43549
3.43537
3.43528
3.43522
3.43517
3.43515
3.43514
3.43513
3.43514
3.43514
3.43515
3.43516
3.43516
3.48424
3.48428
3.48435
3.48446
3.4846
3.48478
3.485
3.48525
3.48553
3.48585
3.48619
3.48657
3.48698
3.48741
3.48786
3.48834
3.48884
3.48936
3.4899
3.49046
3.49103
3.49162
3.49222
3.49282
3.49343
3.49405
3.49467
3.49528
3.49588
3.49646
3.49703
3.49757
3.49808
3.49856
3.49899
3.49937
3.4997
3.49997
3.50017
3.50031
3.50038
3.50038
3.50029
3.50013
3.49989
3.49956
3.49914
3.49864
3.49806
3.49739
3.49663
3.49579
3.49487
3.49386
3.49278
3.49162
3.49039
3.4891
3.48774
3.48632
3.48486
3.48335
3.4818
3.48022
3.47862
3.47701
3.4754
3.47379
3.47219
3.47062
3.46908
3.46758
3.46612
3.46471
3.46336
3.46207
3.46083
3.45966
3.45854
3.45749
3.45649
3.45554
3.45464
3.45378
3.45296
3.45217
3.45142
3.4507
3.45
3.44933
3.44868
3.44805
3.44745
3.44687
3.44631
3.44578
3.44528
3.44481
3.44436
3.44395
3.44357
3.44323
3.44291
3.44263
3.44238
3.44217
3.44198
3.44182
3.4417
3.44159
3.44151
3.44145
3.44141
3.44138
3.44136
3.44135
3.44134
3.44134
3.44134
3.44134
3.48989
3.48993
3.49
3.4901
3.49023
3.4904
3.4906
3.49084
3.4911
3.4914
3.49172
3.49207
3.49245
3.49285
3.49327
3.49372
3.49419
3.49467
3.49517
3.49569
3.49622
3.49676
3.49731
3.49787
3.49843
3.499
3.49956
3.50011
3.50066
3.50119
3.50169
3.50218
3.50263
3.50305
3.50343
3.50376
3.50404
3.50426
3.50443
3.50454
3.50458
3.50454
3.50444
3.50426
3.50401
3.50368
3.50327
3.50278
3.5022
3.50155
3.50082
3.50002
3.49913
3.49817
3.49714
3.49604
3.49488
3.49365
3.49236
3.49103
3.48964
3.48822
3.48676
3.48527
3.48377
3.48225
3.48073
3.47922
3.47771
3.47623
3.47477
3.47334
3.47196
3.47061
3.46932
3.46808
3.46689
3.46575
3.46466
3.46363
3.46265
3.46171
3.46082
3.45997
3.45916
3.45838
3.45763
3.45691
3.45622
3.45555
3.45491
3.45429
3.4537
3.45313
3.45259
3.45207
3.45158
3.45112
3.45068
3.45028
3.4499
3.44956
3.44925
3.44896
3.44871
3.44849
3.4483
3.44813
3.44799
3.44788
3.44778
3.44771
3.44765
3.44761
3.44757
3.44755
3.44754
3.44753
3.44752
3.44752
3.49551
3.49554
3.49561
3.4957
3.49583
3.49599
3.49617
3.49639
3.49664
3.49691
3.49721
3.49754
3.49789
3.49827
3.49866
3.49908
3.49951
3.49996
3.50043
3.5009
3.5014
3.5019
3.5024
3.50292
3.50343
3.50395
3.50446
3.50496
3.50545
3.50593
3.50638
3.50681
3.50721
3.50758
3.50791
3.5082
3.50843
3.50862
3.50875
3.50883
3.50884
3.50878
3.50866
3.50847
3.50821
3.50788
3.50747
3.50699
3.50643
3.5058
3.5051
3.50432
3.50347
3.50256
3.50157
3.50053
3.49942
3.49826
3.49704
3.49577
3.49447
3.49312
3.49175
3.49034
3.48893
3.4875
3.48606
3.48463
3.48321
3.4818
3.48042
3.47907
3.47775
3.47647
3.47523
3.47403
3.47289
3.47178
3.47073
3.46972
3.46876
3.46784
3.46696
3.46612
3.46532
3.46455
3.46381
3.46309
3.46241
3.46175
3.46112
3.46051
3.45993
3.45937
3.45884
3.45833
3.45785
3.45739
3.45697
3.45657
3.4562
3.45586
3.45555
3.45527
3.45501
3.45479
3.45459
3.45442
3.45427
3.45414
3.45404
3.45395
3.45388
3.45382
3.45378
3.45375
3.45373
3.45371
3.4537
3.45369
3.5011
3.50113
3.50119
3.50128
3.50139
3.50154
3.50172
3.50192
3.50215
3.5024
3.50268
3.50299
3.50331
3.50366
3.50403
3.50441
3.50482
3.50523
3.50566
3.50611
3.50656
3.50702
3.50749
3.50796
3.50843
3.5089
3.50936
3.50982
3.51026
3.51069
3.51109
3.51148
3.51183
3.51215
3.51244
3.51268
3.51288
3.51303
3.51313
3.51318
3.51316
3.51309
3.51295
3.51275
3.51248
3.51215
3.51174
3.51127
3.51073
3.51012
3.50944
3.50869
3.50788
3.50701
3.50607
3.50507
3.50402
3.50291
3.50176
3.50056
3.49933
3.49806
3.49676
3.49543
3.49409
3.49274
3.49139
3.49004
3.48869
3.48736
3.48605
3.48476
3.48351
3.48228
3.48109
3.47995
3.47884
3.47777
3.47675
3.47577
3.47483
3.47393
3.47306
3.47224
3.47144
3.47068
3.46995
3.46925
3.46858
3.46793
3.46731
3.46671
3.46613
3.46559
3.46506
3.46456
3.46409
3.46365
3.46323
3.46283
3.46247
3.46213
3.46182
3.46154
3.46128
3.46106
3.46085
3.46067
3.46052
3.46038
3.46027
3.46017
3.46009
3.46003
3.45998
3.45994
3.45991
3.45988
3.45987
3.45986
3.50665
3.50668
3.50674
3.50682
3.50693
3.50707
3.50723
3.50742
3.50763
3.50787
3.50813
3.50841
3.50871
3.50904
3.50938
3.50973
3.51011
3.51049
3.51089
3.5113
3.51172
3.51214
3.51257
3.513
3.51343
3.51385
3.51428
3.51469
3.51508
3.51547
3.51583
3.51617
3.51648
3.51676
3.517
3.51721
3.51737
3.51749
3.51756
3.51758
3.51755
3.51746
3.51731
3.51709
3.51682
3.51649
3.51609
3.51562
3.5151
3.5145
3.51385
3.51313
3.51235
3.51152
3.51062
3.50967
3.50867
3.50762
3.50653
3.50539
3.50422
3.50302
3.50179
3.50054
3.49927
3.49799
3.49671
3.49543
3.49416
3.4929
3.49165
3.49043
3.48923
3.48806
3.48692
3.48581
3.48475
3.48372
3.48273
3.48177
3.48085
3.47997
3.47913
3.47832
3.47754
3.47679
3.47607
3.47538
3.47471
3.47408
3.47346
3.47288
3.47231
3.47177
3.47126
3.47077
3.47031
3.46987
3.46946
3.46907
3.46871
3.46837
3.46807
3.46779
3.46753
3.4673
3.46709
3.46691
3.46674
3.4666
3.46648
3.46638
3.46629
3.46622
3.46616
3.46611
3.46608
3.46605
3.46603
3.46603
3.51218
3.51221
3.51226
3.51233
3.51244
3.51256
3.51272
3.51289
3.51309
3.51331
3.51355
3.51381
3.51409
3.51439
3.51471
3.51504
3.51538
3.51574
3.51611
3.51648
3.51687
3.51725
3.51765
3.51804
3.51843
3.51882
3.5192
3.51957
3.51992
3.52027
3.52059
3.52089
3.52116
3.5214
3.52161
3.52178
3.52191
3.522
3.52205
3.52204
3.52199
3.52188
3.52172
3.5215
3.52122
3.52089
3.52049
3.52004
3.51953
3.51895
3.51832
3.51763
3.51688
3.51608
3.51523
3.51432
3.51337
3.51237
3.51133
3.51025
3.50914
3.508
3.50684
3.50566
3.50446
3.50325
3.50203
3.50082
3.49961
3.49841
3.49723
3.49606
3.49492
3.4938
3.49271
3.49165
3.49062
3.48962
3.48866
3.48774
3.48684
3.48598
3.48516
3.48436
3.4836
3.48286
3.48216
3.48148
3.48083
3.4802
3.4796
3.47902
3.47847
3.47794
3.47743
3.47695
3.4765
3.47607
3.47566
3.47528
3.47492
3.47459
3.47429
3.474
3.47375
3.47351
3.4733
3.47312
3.47295
3.4728
3.47268
3.47256
3.47247
3.47239
3.47233
3.47228
3.47224
3.47221
3.47219
3.47218
3.51768
3.5177
3.51775
3.51782
3.51792
3.51804
3.51818
3.51834
3.51852
3.51873
3.51895
3.51919
3.51945
3.51973
3.52002
3.52033
3.52064
3.52097
3.52131
3.52166
3.52201
3.52236
3.52272
3.52308
3.52343
3.52379
3.52413
3.52446
3.52478
3.52508
3.52537
3.52563
3.52587
3.52607
3.52625
3.52639
3.52649
3.52656
3.52658
3.52655
3.52648
3.52636
3.52619
3.52596
3.52568
3.52535
3.52496
3.52452
3.52402
3.52346
3.52285
3.52218
3.52147
3.5207
3.51988
3.51902
3.51811
3.51716
3.51617
3.51515
3.5141
3.51302
3.51191
3.51079
3.50965
3.50851
3.50736
3.5062
3.50506
3.50392
3.50279
3.50168
3.50058
3.49951
3.49847
3.49745
3.49646
3.4955
3.49457
3.49367
3.4928
3.49196
3.49116
3.49038
3.48963
3.48891
3.48822
3.48755
3.48691
3.48629
3.4857
3.48514
3.48459
3.48407
3.48358
3.48311
3.48266
3.48224
3.48184
3.48146
3.48111
3.48078
3.48048
3.4802
3.47994
3.47971
3.4795
3.4793
3.47913
3.47898
3.47885
3.47874
3.47864
3.47855
3.47848
3.47843
3.47838
3.47835
3.47833
3.47832
3.52316
3.52318
3.52322
3.52329
3.52338
3.52349
3.52362
3.52377
3.52394
3.52413
3.52433
3.52456
3.5248
3.52505
3.52532
3.5256
3.5259
3.5262
3.52651
3.52682
3.52715
3.52747
3.5278
3.52812
3.52844
3.52876
3.52907
3.52937
3.52965
3.52992
3.53017
3.5304
3.5306
3.53078
3.53092
3.53104
3.53112
3.53116
3.53116
3.53111
3.53102
3.53089
3.53071
3.53048
3.5302
3.52987
3.52948
3.52905
3.52856
3.52802
3.52743
3.52679
3.5261
3.52537
3.52458
3.52376
3.52289
3.52199
3.52105
3.52008
3.51908
3.51805
3.517
3.51594
3.51486
3.51377
3.51268
3.51158
3.51049
3.50941
3.50833
3.50727
3.50622
3.5052
3.5042
3.50322
3.50226
3.50134
3.50044
3.49957
3.49872
3.49791
3.49712
3.49636
3.49563
3.49493
3.49425
3.4936
3.49297
3.49237
3.49179
3.49123
3.4907
3.49019
3.4897
3.48924
3.4888
3.48838
3.48799
3.48762
3.48727
3.48695
3.48665
3.48637
3.48611
3.48588
3.48566
3.48547
3.4853
3.48514
3.48501
3.48489
3.48479
3.4847
3.48463
3.48457
3.48452
3.48449
3.48446
3.48445
3.52861
3.52863
3.52867
3.52873
3.52881
3.52891
3.52904
3.52917
3.52933
3.52951
3.5297
3.5299
3.53013
3.53036
3.53061
3.53087
3.53114
3.53141
3.5317
3.53199
3.53228
3.53258
3.53287
3.53317
3.53346
3.53374
3.53402
3.53428
3.53454
3.53477
3.53499
3.53519
3.53536
3.53551
3.53563
3.53572
3.53577
3.53579
3.53577
3.53571
3.53561
3.53547
3.53528
3.53504
3.53476
3.53443
3.53405
3.53363
3.53315
3.53263
3.53206
3.53144
3.53078
3.53008
3.52933
3.52854
3.52771
3.52685
3.52596
3.52503
3.52408
3.5231
3.52211
3.5211
3.52007
3.51904
3.518
3.51696
3.51592
3.51488
3.51386
3.51284
3.51185
3.51086
3.5099
3.50896
3.50804
3.50715
3.50628
3.50544
3.50462
3.50383
3.50306
3.50232
3.50161
3.50092
3.50026
3.49962
3.499