/*--------------------------------*- C++ -*----------------------------------*\
| =========                 |                                                 |
| \\      /  F ield         | OpenFOAM: The Open Source CFD Toolbox           |
|  \\    /   O peration     | Version:  2406                                  |
|   \\  /    A nd           | Website:  www.openfoam.com                      |
|    \\/     M anipulation  |                                                 |
\*---------------------------------------------------------------------------*/
FoamFile
{
    version     2.0;
    format      ascii;
    arch        "LSB;label=32;scalar=64";
    class       volScalarField;
    location    "1";
    object      C_0_0;
}
// * * * * * * * * * * * * * * * * * * * * * * * * * * * * * * * * * * * * * //

dimensions      [1 -3 0 0 0 0 0];

internalField   nonuniform List<scalar> 
14400
(
3.37177
3.37033
3.36732
3.36241
3.35492
3.34332
3.31944
3.3041
3.32181
3.34744
3.36058
3.36976
3.37648
3.38143
3.38497
3.3873
3.38849
3.38855
3.3874
3.38485
3.38051
3.3737
3.36282
3.33987
3.32613
3.34577
3.37306
3.38777
3.39872
3.40743
3.41462
3.42067
3.42584
3.43029
3.43414
3.43747
3.44034
3.4428
3.44489
3.44663
3.44804
3.44914
3.44996
3.45049
3.45074
3.45073
3.45045
3.44991
3.44912
3.44806
3.44673
3.44514
3.44327
3.44112
3.43867
3.43592
3.43285
3.42944
3.42566
3.4215
3.41692
3.41187
3.4063
3.40015
3.39334
3.38575
3.37724
3.3676
3.35653
3.34357
3.32797
3.30815
3.27348
3.23941
3.23266
3.23016
3.23133
3.25944
3.28954
3.30526
3.31647
3.32481
3.33106
3.33571
3.33902
3.3412
3.34234
3.34251
3.34173
3.33999
3.3372
3.33326
3.32793
3.32085
3.31133
3.29791
3.27197
3.2534
3.26737
3.28988
3.30018
3.30621
3.3094
3.31031
3.30911
3.30564
3.29933
3.28877
3.26598
3.25165
3.26984
3.29552
3.30874
3.31806
3.32498
3.33017
3.33402
3.33675
3.33851
3.33937
3.3732
3.37191
3.36923
3.36499
3.35888
3.35057
3.33989
3.32845
3.34204
3.35442
3.3644
3.37221
3.37826
3.38284
3.38619
3.38843
3.38962
3.38976
3.38881
3.38662
3.383
3.37762
3.37014
3.36042
3.35044
3.36579
3.37975
3.39135
3.40095
3.40897
3.41575
3.42155
3.42655
3.43089
3.43466
3.43793
3.44075
3.44318
3.44524
3.44695
3.44835
3.44944
3.45024
3.45076
3.45101
3.45099
3.45071
3.45017
3.44938
3.44832
3.447
3.44541
3.44355
3.44141
3.43898
3.43624
3.43319
3.4298
3.42605
3.42192
3.41738
3.41238
3.40688
3.40081
3.39411
3.38667
3.37837
3.36903
3.35842
3.34622
3.33197
3.31507
3.29461
3.26867
3.26512
3.26286
3.26091
3.28122
3.29714
3.30962
3.31935
3.32688
3.33267
3.33703
3.34017
3.34223
3.34331
3.34346
3.3427
3.34102
3.33836
3.33464
3.32969
3.32328
3.3151
3.30475
3.29194
3.27758
3.2878
3.29728
3.30435
3.30906
3.31168
3.31243
3.31138
3.30847
3.30348
3.29613
3.28636
3.27579
3.28982
3.30236
3.31249
3.32047
3.3267
3.3315
3.33513
3.33773
3.33941
3.34024
3.37593
3.37486
3.3727
3.36942
3.36506
3.35987
3.35487
3.35284
3.35675
3.36348
3.37036
3.37644
3.38149
3.38549
3.38851
3.3906
3.39179
3.39207
3.39144
3.38984
3.38724
3.38366
3.37938
3.37545
3.37473
3.38015
3.38843
3.39693
3.40477
3.41173
3.41786
3.42323
3.42793
3.43206
3.43568
3.43883
3.44157
3.44392
3.44592
3.44759
3.44895
3.45002
3.4508
3.4513
3.45154
3.45152
3.45123
3.45069
3.4499
3.44884
3.44753
3.44596
3.44411
3.44199
3.43958
3.43688
3.43386
3.43052
3.42682
3.42276
3.4183
3.4134
3.40802
3.40212
3.39562
3.38846
3.38053
3.37172
3.3619
3.35091
3.33862
3.32508
3.31089
3.29826
3.29055
3.28813
3.29078
3.29833
3.30779
3.31674
3.32441
3.33071
3.33572
3.33957
3.34238
3.34424
3.34521
3.34532
3.3446
3.34303
3.34059
3.33724
3.33289
3.3275
3.32103
3.31372
3.30645
3.30183
3.30289
3.30684
3.31088
3.31398
3.31582
3.31633
3.31552
3.31338
3.30998
3.30564
3.30138
3.3
3.30432
3.31132
3.31839
3.32463
3.32984
3.33403
3.33726
3.33962
3.34116
3.34192
3.37972
3.3789
3.37729
3.37495
3.37205
3.36898
3.36655
3.36605
3.36828
3.3724
3.37713
3.3817
3.38575
3.38913
3.39177
3.39368
3.39486
3.39531
3.39503
3.39406
3.39245
3.39039
3.38827
3.38693
3.38766
3.39129
3.39688
3.40318
3.40945
3.41534
3.42072
3.42556
3.4299
3.43375
3.43715
3.44014
3.44276
3.44501
3.44694
3.44855
3.44986
3.45088
3.45163
3.45211
3.45233
3.4523
3.45201
3.45147
3.45067
3.44963
3.44833
3.44677
3.44495
3.44286
3.44048
3.43782
3.43486
3.43158
3.42797
3.424
3.41965
3.41489
3.40969
3.40401
3.3978
3.391
3.38357
3.37544
3.36655
3.35689
3.34653
3.33575
3.32522
3.31624
3.31023
3.30783
3.309
3.31314
3.31897
3.32512
3.33084
3.33581
3.33992
3.34316
3.34555
3.34714
3.34795
3.34801
3.34733
3.34591
3.34374
3.34082
3.33715
3.33277
3.32782
3.32265
3.318
3.31509
3.31479
3.31631
3.31837
3.32016
3.32129
3.32157
3.32097
3.31954
3.31743
3.31506
3.31323
3.31322
3.31583
3.3202
3.32512
3.32983
3.33401
3.3375
3.34027
3.34233
3.34369
3.34437
3.38433
3.38374
3.38261
3.38103
3.3792
3.37746
3.37632
3.37637
3.37794
3.3807
3.38405
3.38749
3.39069
3.39348
3.39577
3.39749
3.39866
3.39926
3.39932
3.39891
3.39812
3.39717
3.39639
3.39633
3.39758
3.40046
3.40462
3.40946
3.41451
3.41945
3.42411
3.42842
3.43234
3.43588
3.43904
3.44184
3.4443
3.44644
3.44827
3.4498
3.45105
3.45202
3.45273
3.45319
3.45338
3.45333
3.45303
3.45249
3.4517
3.45067
3.44938
3.44785
3.44606
3.444
3.44168
3.43907
3.43618
3.43298
3.42946
3.42561
3.42141
3.41683
3.41184
3.40643
3.40055
3.39419
3.38731
3.3799
3.37197
3.36358
3.35487
3.34616
3.33799
3.33111
3.3263
3.32395
3.32408
3.32627
3.32982
3.33393
3.33803
3.34178
3.34499
3.34759
3.34953
3.35082
3.35145
3.35145
3.3508
3.34953
3.34764
3.34516
3.34212
3.33862
3.33483
3.33106
3.3278
3.32563
3.32487
3.32523
3.32611
3.32701
3.32759
3.3277
3.32727
3.32636
3.32514
3.32394
3.32327
3.32371
3.32558
3.32854
3.33204
3.33558
3.33885
3.34168
3.34399
3.34574
3.34691
3.34749
3.38952
3.38913
3.38837
3.38737
3.38627
3.38534
3.38487
3.38519
3.38641
3.38841
3.39087
3.3935
3.39605
3.39835
3.40031
3.40187
3.40302
3.40375
3.4041
3.40413
3.40396
3.40377
3.40381
3.40441
3.40587
3.40834
3.41167
3.41555
3.41968
3.42384
3.42786
3.43165
3.43517
3.43838
3.44128
3.44388
3.44617
3.44817
3.44989
3.45134
3.45251
3.45343
3.45409
3.45451
3.45468
3.45461
3.45431
3.45376
3.45298
3.45195
3.45069
3.44918
3.44743
3.44542
3.44315
3.44061
3.4378
3.43469
3.43129
3.42758
3.42354
3.41916
3.41442
3.40931
3.4038
3.39789
3.39158
3.38489
3.37785
3.37057
3.36321
3.35604
3.34945
3.34393
3.3399
3.33761
3.33708
3.33806
3.34011
3.34275
3.34557
3.34828
3.35068
3.35267
3.35416
3.35515
3.3556
3.35551
3.3549
3.35377
3.35214
3.35005
3.34755
3.34475
3.34181
3.33896
3.33651
3.33476
3.33384
3.33363
3.33384
3.33416
3.33438
3.33436
3.33405
3.33349
3.33284
3.3323
3.33218
3.33277
3.33421
3.33636
3.33892
3.34158
3.34413
3.34639
3.34828
3.34972
3.3507
3.35119
3.39512
3.39486
3.39439
3.39379
3.39318
3.39274
3.39265
3.39309
3.39411
3.39565
3.39754
3.39959
3.40164
3.40356
3.40525
3.40667
3.40779
3.40862
3.40918
3.40955
3.40982
3.41013
3.41067
3.41162
3.41316
3.41537
3.41816
3.42138
3.42483
3.42836
3.43183
3.43516
3.43829
3.44119
3.44383
3.44622
3.44833
3.45019
3.45179
3.45314
3.45423
3.45509
3.4557
3.45608
3.45622
3.45613
3.45581
3.45527
3.45449
3.45348
3.45224
3.45076
3.44905
3.44709
3.44488
3.44242
3.4397
3.43671
3.43344
3.42988
3.42602
3.42186
3.41738
3.41257
3.40745
3.402
3.39624
3.39021
3.38398
3.37764
3.37135
3.36533
3.35986
3.35524
3.35174
3.34952
3.34858
3.34876
3.3498
3.35139
3.35323
3.35509
3.35679
3.35823
3.35931
3.36
3.36027
3.36011
3.35952
3.35851
3.3571
3.35534
3.35328
3.35102
3.3487
3.34647
3.34453
3.34305
3.34209
3.34161
3.34145
3.34143
3.34141
3.3413
3.34106
3.34073
3.34041
3.34023
3.34037
3.34099
3.34215
3.34377
3.34568
3.34771
3.34969
3.35148
3.353
3.35418
3.35498
3.35539
3.40096
3.40081
3.40054
3.40022
3.39993
3.39979
3.39991
3.4004
3.40129
3.40253
3.40404
3.40569
3.40738
3.40899
3.41047
3.41176
3.41285
3.41374
3.41447
3.41507
3.41564
3.41627
3.4171
3.41824
3.4198
3.4218
3.42422
3.42696
3.42991
3.43294
3.43595
3.43888
3.44166
3.44425
3.44665
3.44882
3.45076
3.45247
3.45394
3.45519
3.4562
3.45698
3.45754
3.45788
3.45799
3.45788
3.45755
3.457
3.45623
3.45524
3.45402
3.45258
3.45091
3.44901
3.44688
3.4445
3.44187
3.439
3.43587
3.43247
3.42881
3.42487
3.42065
3.41617
3.41141
3.4064
3.40117
3.39575
3.39021
3.38466
3.37922
3.37407
3.36941
3.36543
3.36231
3.36015
3.35895
3.35861
3.35895
3.35977
3.36087
3.36205
3.36317
3.36413
3.36485
3.36528
3.36538
3.36514
3.36456
3.36364
3.36242
3.36092
3.35921
3.35736
3.35548
3.35368
3.35209
3.35081
3.34988
3.34927
3.34891
3.34869
3.34853
3.34836
3.34817
3.34797
3.34783
3.34784
3.34809
3.34868
3.34962
3.35087
3.35234
3.3539
3.35543
3.35685
3.35806
3.35901
3.35966
3.35999
3.40696
3.40688
3.40675
3.40661
3.40652
3.40656
3.40681
3.40732
3.40811
3.40915
3.4104
3.41176
3.41317
3.41456
3.41586
3.41705
3.41811
3.41904
3.41987
3.42063
3.42139
3.42223
3.42322
3.42445
3.42597
3.42782
3.42997
3.43235
3.4349
3.43753
3.44016
3.44273
3.4452
3.44752
3.44968
3.45164
3.45341
3.45497
3.45633
3.45746
3.45839
3.45911
3.45961
3.4599
3.45998
3.45985
3.45951
3.45895
3.45819
3.45722
3.45603
3.45463
3.45301
3.45117
3.44911
3.44682
3.4443
3.44155
3.43856
3.43533
3.43186
3.42815
3.4242
3.42003
3.41563
3.41104
3.40628
3.4014
3.39646
3.39156
3.38681
3.38233
3.37826
3.37476
3.37193
3.36983
3.36846
3.36776
3.36762
3.36788
3.36841
3.36906
3.36972
3.37028
3.37068
3.37087
3.37082
3.37051
3.36993
3.36908
3.368
3.36672
3.36527
3.36374
3.36218
3.36069
3.35935
3.35822
3.35734
3.35668
3.35622
3.3559
3.35565
3.35545
3.35528
3.35515
3.35511
3.3552
3.35548
3.356
3.35677
3.35776
3.35889
3.3601
3.3613
3.36241
3.36337
3.36413
3.36466
3.36492
3.41303
3.413
3.41296
3.41294
3.41298
3.41314
3.41345
3.41396
3.41467
3.41557
3.41663
3.41779
3.419
3.4202
3.42137
3.42247
3.4235
3.42444
3.42533
3.42619
3.42707
3.42802
3.4291
3.43036
3.43183
3.43354
3.43547
3.43758
3.43981
3.44211
3.44442
3.44669
3.44888
3.45096
3.45289
3.45467
3.45627
3.45769
3.45892
3.45996
3.4608
3.46144
3.46188
3.46213
3.46218
3.46202
3.46167
3.46112
3.46037
3.45941
3.45825
3.45689
3.45532
3.45355
3.45156
3.44937
3.44696
3.44433
3.44149
3.43843
3.43516
3.43167
3.42799
3.4241
3.42005
3.41583
3.4115
3.4071
3.40268
3.39832
3.39412
3.39016
3.38656
3.38342
3.38081
3.37877
3.3773
3.37636
3.37587
3.37573
3.37584
3.37607
3.37635
3.37659
3.37673
3.37672
3.37653
3.37614
3.37555
3.37477
3.3738
3.37267
3.37143
3.37013
3.36881
3.36755
3.36639
3.36539
3.36456
3.3639
3.3634
3.36302
3.36273
3.36251
3.36235
3.36225
3.36225
3.36237
3.36264
3.36308
3.36371
3.36449
3.36538
3.36632
3.36726
3.36813
3.36889
3.36949
3.36991
3.37012
3.41913
3.41913
3.41915
3.41921
3.41933
3.41955
3.41989
3.42039
3.42104
3.42184
3.42276
3.42376
3.42482
3.42589
3.42695
3.42797
3.42896
3.4299
3.43082
3.43173
3.43267
3.43368
3.43479
3.43604
3.43746
3.43905
3.44079
3.44267
3.44465
3.44668
3.44872
3.45074
3.45268
3.45454
3.45627
3.45787
3.45931
3.46059
3.46171
3.46264
3.4634
3.46397
3.46436
3.46456
3.46457
3.4644
3.46403
3.46348
3.46274
3.46181
3.46068
3.45936
3.45785
3.45614
3.45423
3.45213
3.44983
3.44733
3.44463
3.44174
3.43866
3.4354
3.43196
3.42836
3.42461
3.42075
3.4168
3.41281
3.40884
3.40493
3.40117
3.39764
3.39441
3.39155
3.38911
3.38713
3.38561
3.38451
3.38378
3.38334
3.38312
3.38304
3.38302
3.383
3.38291
3.38274
3.38243
3.38198
3.38138
3.38063
3.37974
3.37874
3.37765
3.37652
3.37539
3.37429
3.37328
3.37238
3.37161
3.37097
3.37046
3.37006
3.36974
3.36951
3.36934
3.36926
3.36926
3.36938
3.36961
3.36999
3.37049
3.37111
3.3718
3.37254
3.37327
3.37396
3.37456
3.37503
3.37537
3.37554
3.42523
3.42525
3.42531
3.42541
3.42557
3.42583
3.42619
3.42667
3.42727
3.42798
3.42879
3.42968
3.43062
3.43159
3.43256
3.43352
3.43446
3.43539
3.43631
3.43724
3.43821
3.43924
3.44035
3.44157
3.44292
3.44439
3.44598
3.44767
3.44944
3.45124
3.45306
3.45484
3.45658
3.45823
3.45979
3.46122
3.46252
3.46367
3.46467
3.46551
3.46618
3.46668
3.46702
3.46717
3.46716
3.46696
3.46659
3.46604
3.4653
3.46439
3.4633
3.46202
3.46056
3.45892
3.45709
3.45509
3.45289
3.45052
3.44797
3.44525
3.44235
3.4393
3.43609
3.43275
3.4293
3.42575
3.42214
3.41852
3.41492
3.41139
3.408
3.40481
3.40188
3.39925
3.39696
3.39505
3.39349
3.39229
3.39138
3.39073
3.39028
3.38995
3.38969
3.38946
3.3892
3.38888
3.38848
3.38797
3.38735
3.38663
3.3858
3.38489
3.38392
3.38292
3.38193
3.38096
3.38006
3.37924
3.37852
3.37791
3.37741
3.377
3.37667
3.37643
3.37626
3.37617
3.37617
3.37626
3.37646
3.37676
3.37716
3.37764
3.37819
3.37877
3.37934
3.37988
3.38035
3.38072
3.38098
3.38112
3.4313
3.43134
3.43141
3.43154
3.43173
3.432
3.43236
3.43282
3.43338
3.43403
3.43476
3.43555
3.4364
3.43728
3.43817
3.43907
3.43998
3.44088
3.44179
3.44272
3.44368
3.4447
3.4458
3.44697
3.44824
3.44961
3.45106
3.45259
3.45418
3.45579
3.45741
3.45901
3.46055
3.46203
3.46342
3.4647
3.46586
3.4669
3.46779
3.46854
3.46913
3.46957
3.46985
3.46996
3.46992
3.4697
3.46932
3.46877
3.46805
3.46716
3.4661
3.46486
3.46346
3.46189
3.46014
3.45823
3.45614
3.45389
3.45148
3.44892
3.4462
3.44335
3.44036
3.43726
3.43407
3.43081
3.42751
3.4242
3.42092
3.41772
3.41464
3.41173
3.40904
3.4066
3.40445
3.40259
3.40103
3.39976
3.39874
3.39793
3.3973
3.39678
3.39635
3.39595
3.39554
3.39511
3.39462
3.39407
3.39343
3.39272
3.39194
3.3911
3.39022
3.38932
3.38843
3.38756
3.38675
3.386
3.38533
3.38475
3.38426
3.38385
3.38352
3.38327
3.3831
3.383
3.38298
3.38304
3.38319
3.38343
3.38374
3.38412
3.38455
3.38499
3.38544
3.38586
3.38623
3.38652
3.38673
3.38683
3.43733
3.43738
3.43747
3.43761
3.43781
3.43809
3.43844
3.43887
3.43939
3.43999
3.44065
3.44138
3.44215
3.44296
3.44379
3.44463
3.44549
3.44636
3.44725
3.44816
3.44911
3.4501
3.45116
3.45228
3.45347
3.45474
3.45607
3.45746
3.45889
3.46034
3.46179
3.46321
3.4646
3.46592
3.46716
3.4683
3.46934
3.47026
3.47106
3.47172
3.47224
3.47261
3.47284
3.47292
3.47284
3.47261
3.47222
3.47167
3.47096
3.4701
3.46907
3.46788
3.46653
3.46502
3.46336
3.46153
3.45956
3.45743
3.45515
3.45274
3.45019
3.44752
3.44474
3.44187
3.43891
3.43591
3.43287
3.42984
3.42684
3.42392
3.4211
3.41843
3.41595
3.41367
3.41163
3.40984
3.40829
3.40698
3.40587
3.40496
3.40419
3.40354
3.40296
3.40243
3.40192
3.40139
3.40084
3.40024
3.39959
3.39889
3.39814
3.39735
3.39654
3.39572
3.3949
3.39411
3.39337
3.39268
3.39205
3.3915
3.39103
3.39063
3.3903
3.39004
3.38986
3.38975
3.3897
3.38974
3.38984
3.39002
3.39026
3.39055
3.39088
3.39122
3.39157
3.39189
3.39218
3.39241
3.39257
3.39265
3.44333
3.44337
3.44347
3.44362
3.44382
3.44409
3.44443
3.44484
3.44533
3.44588
3.44649
3.44715
3.44786
3.44861
3.44938
3.45017
3.45099
3.45182
3.45268
3.45356
3.45448
3.45544
3.45645
3.45751
3.45863
3.4598
3.46103
3.46229
3.46359
3.46489
3.46619
3.46746
3.4687
3.46988
3.47099
3.47201
3.47293
3.47375
3.47446
3.47504
3.47549
3.47581
3.47599
3.47603
3.47592
3.47567
3.47528
3.47473
3.47404
3.47319
3.4722
3.47105
3.46976
3.46832
3.46673
3.46499
3.46312
3.46111
3.45896
3.45669
3.4543
3.45181
3.44922
3.44655
3.44381
3.44103
3.43824
3.43545
3.43269
3.43001
3.42741
3.42495
3.42264
3.42051
3.41857
3.41684
3.41531
3.41398
3.41283
3.41183
3.41097
3.41022
3.40954
3.40891
3.4083
3.4077
3.40709
3.40646
3.4058
3.4051
3.40438
3.40363
3.40287
3.4021
3.40135
3.40062
3.39993
3.39928
3.3987
3.39817
3.39772
3.39732
3.397
3.39674
3.39655
3.39642
3.39636
3.39636
3.39642
3.39655
3.39672
3.39694
3.39719
3.39745
3.39772
3.39797
3.39819
3.39836
3.39849
3.39855
3.44927
3.44932
3.44942
3.44956
3.44977
3.45003
3.45036
3.45074
3.45119
3.4517
3.45227
3.45288
3.45354
3.45423
3.45495
3.4557
3.45647
3.45726
3.45808
3.45893
3.45981
3.46073
3.46168
3.46268
3.46373
3.46482
3.46594
3.46709
3.46827
3.46944
3.47061
3.47175
3.47286
3.47391
3.4749
3.47581
3.47663
3.47736
3.47798
3.47848
3.47887
3.47914
3.47927
3.47928
3.47915
3.47888
3.47848
3.47794
3.47726
3.47644
3.47548
3.47437
3.47313
3.47175
3.47024
3.46859
3.46682
3.46492
3.46289
3.46076
3.45852
3.45619
3.45377
3.45129
3.44875
3.44618
3.44359
3.44102
3.43848
3.436
3.4336
3.43131
3.42916
3.42715
3.42531
3.42364
3.42214
3.4208
3.41962
3.41857
3.41765
3.41681
3.41606
3.41535
3.41468
3.41403
3.41337
3.41271
3.41204
3.41134
3.41064
3.40992
3.40919
3.40847
3.40777
3.40709
3.40644
3.40584
3.40528
3.40478
3.40434
3.40396
3.40363
3.40337
3.40317
3.40303
3.40294
3.40291
3.40294
3.40302
3.40314
3.4033
3.40348
3.40368
3.40388
3.40407
3.40424
3.40437
3.40447
3.40452
3.45517
3.45521
3.45531
3.45546
3.45565
3.45591
3.45622
3.45658
3.457
3.45747
3.458
3.45856
3.45917
3.45982
3.46049
3.4612
3.46193
3.46268
3.46346
3.46427
3.4651
3.46597
3.46688
3.46781
3.46879
3.46979
3.47083
3.47188
3.47294
3.474
3.47505
3.47608
3.47707
3.47801
3.47889
3.4797
3.48043
3.48107
3.48161
3.48205
3.48238
3.48259
3.48269
3.48266
3.48251
3.48223
3.48182
3.48129
3.48062
3.47982
3.47889
3.47783
3.47664
3.47533
3.47389
3.47232
3.47064
3.46884
3.46694
3.46493
3.46283
3.46065
3.45839
3.45608
3.45372
3.45134
3.44894
3.44655
3.4442
3.4419
3.43968
3.43754
3.43552
3.43363
3.43187
3.43026
3.42879
3.42747
3.42627
3.42519
3.42422
3.42334
3.42253
3.42177
3.42104
3.42035
3.41966
3.41898
3.41829
3.4176
3.41691
3.41621
3.41552
3.41483
3.41416
3.41352
3.41291
3.41234
3.41181
3.41133
3.4109
3.41053
3.41021
3.40994
3.40973
3.40957
3.40947
3.40942
3.40941
3.40945
3.40952
3.40963
3.40976
3.40991
3.41005
3.41019
3.41032
3.41042
3.41049
3.41053
3.46101
3.46106
3.46115
3.46129
3.46148
3.46173
3.46202
3.46236
3.46275
3.46319
3.46368
3.46421
3.46478
3.46538
3.46601
3.46667
3.46736
3.46807
3.46881
3.46957
3.47036
3.47118
3.47203
3.47291
3.47381
3.47474
3.47569
3.47665
3.47761
3.47857
3.47952
3.48044
3.48133
3.48217
3.48296
3.48367
3.48432
3.48488
3.48535
3.48573
3.486
3.48617
3.48622
3.48617
3.486
3.48571
3.4853
3.48477
3.48411
3.48334
3.48244
3.48142
3.48028
3.47903
3.47766
3.47617
3.47458
3.47288
3.47109
3.4692
3.46723
3.46518
3.46308
3.46092
3.45872
3.4565
3.45427
3.45206
3.44987
3.44773
3.44566
3.44366
3.44176
3.43997
3.43829
3.43674
3.43531
3.434
3.4328
3.43171
3.43071
3.42979
3.42894
3.42814
3.42738
3.42665
3.42594
3.42524
3.42455
3.42386
3.42318
3.4225
3.42183
3.42117
3.42053
3.41992
3.41934
3.41879
3.41829
3.41782
3.41741
3.41704
3.41672
3.41646
3.41624
3.41607
3.41594
3.41587
3.41583
3.41584
3.41588
3.41594
3.41603
3.41613
3.41623
3.41633
3.41642
3.4165
3.41655
3.41658
3.46681
3.46686
3.46695
3.46708
3.46726
3.46749
3.46777
3.46809
3.46846
3.46887
3.46932
3.46981
3.47034
3.4709
3.4715
3.47212
3.47276
3.47343
3.47413
3.47485
3.47559
3.47636
3.47716
3.47797
3.47881
3.47967
3.48054
3.48141
3.48229
3.48316
3.48401
3.48484
3.48564
3.48639
3.48708
3.48772
3.48828
3.48878
3.48918
3.4895
3.48972
3.48985
3.48987
3.48979
3.4896
3.4893
3.48889
3.48836
3.48773
3.48697
3.48611
3.48513
3.48404
3.48284
3.48154
3.48013
3.47862
3.47701
3.47532
3.47355
3.4717
3.46978
3.46781
3.46579
3.46374
3.46167
3.4596
3.45753
3.45549
3.4535
3.45155
3.44968
3.44789
3.44619
3.44459
3.4431
3.44171
3.44042
3.43923
3.43813
3.43712
3.43618
3.4353
3.43448
3.43369
3.43294
3.43221
3.4315
3.4308
3.43012
3.42944
3.42878
3.42813
3.42749
3.42688
3.42629
3.42573
3.42521
3.42472
3.42427
3.42387
3.42351
3.42319
3.42292
3.42269
3.42251
3.42237
3.42228
3.42222
3.42219
3.4222
3.42223
3.42228
3.42234
3.42241
3.42248
3.42254
3.42259
3.42263
3.42265
3.47257
3.47261
3.4727
3.47282
3.473
3.47321
3.47347
3.47377
3.47411
3.4745
3.47492
3.47538
3.47587
3.4764
3.47695
3.47753
3.47814
3.47877
3.47942
3.4801
3.4808
3.48152
3.48226
3.48302
3.48379
3.48458
3.48538
3.48618
3.48697
3.48776
3.48853
3.48927
3.48998
3.49065
3.49127
3.49183
3.49233
3.49275
3.4931
3.49337
3.49355
3.49364
3.49363
3.49352
3.49332
3.49301
3.49259
3.49208
3.49145
3.49072
3.48989
3.48895
3.4879
3.48676
3.48552
3.48418
3.48275
3.48124
3.47964
3.47797
3.47623
3.47443
3.47258
3.4707
3.46878
3.46685
3.46491
3.46298
3.46108
3.4592
3.45738
3.45562
3.45393
3.45231
3.45079
3.44935
3.448
3.44674
3.44556
3.44447
3.44345
3.4425
3.44161
3.44077
3.43997
3.4392
3.43846
3.43774
3.43704
3.43636
3.43569
3.43504
3.43441
3.43379
3.4332
3.43263
3.43209
3.43158
3.43111
3.43068
3.43028
3.42993
3.42961
3.42934
3.42911
3.42891
3.42876
3.42865
3.42857
3.42852
3.42849
3.4285
3.42852
3.42855
3.42859
3.42863
3.42867
3.42871
3.42873
3.42874
3.47828
3.47832
3.4784
3.47852
3.47868
3.47889
3.47913
3.47941
3.47973
3.48009
3.48049
3.48091
3.48137
3.48186
3.48238
3.48293
3.48349
3.48408
3.4847
3.48533
3.48598
3.48665
3.48734
3.48805
3.48876
3.48949
3.49021
3.49094
3.49167
3.49238
3.49307
3.49374
3.49437
3.49497
3.49551
3.49601
3.49644
3.49681
3.4971
3.49732
3.49746
3.49751
3.49748
3.49735
3.49713
3.49682
3.4964
3.49589
3.49528
3.49458
3.49377
3.49287
3.49187
3.49078
3.4896
3.48833
3.48697
3.48554
3.48403
3.48246
3.48082
3.47913
3.4774
3.47563
3.47383
3.47202
3.47021
3.46841
3.46662
3.46486
3.46315
3.46149
3.45989
3.45835
3.45689
3.4555
3.4542
3.45297
3.45181
3.45073
3.44972
3.44877
3.44787
3.44702
3.44621
3.44543
3.44468
3.44396
3.44327
3.44259
3.44193
3.44129
3.44067
3.44007
3.43949
3.43894
3.43842
3.43793
3.43747
3.43704
3.43665
3.4363
3.43599
3.43571
3.43548
3.43528
3.43511
3.43498
3.43488
3.43481
3.43477
3.43474
3.43474
3.43475
3.43476
3.43478
3.43481
3.43483
3.43484
3.43485
3.48395
3.48399
3.48406
3.48418
3.48433
3.48452
3.48475
3.48501
3.48531
3.48565
3.48601
3.48641
3.48684
3.4873
3.48778
3.48829
3.48882
3.48938
3.48995
3.49054
3.49115
3.49177
3.49241
3.49306
3.49372
3.49438
3.49505
3.49571
3.49637
3.49701
3.49764
3.49823
3.4988
3.49933
3.49981
3.50024
3.50062
3.50094
3.50118
3.50136
3.50146
3.50148
3.50142
3.50128
3.50104
3.50072
3.50031
3.49981
3.49921
3.49853
3.49775
3.49688
3.49593
3.49489
3.49376
3.49255
3.49127
3.48991
3.48849
3.48701
3.48547
3.48388
3.48225
3.48059
3.4789
3.47721
3.47551
3.47381
3.47213
3.47048
3.46887
3.46729
3.46577
3.46431
3.46291
3.46158
3.46032
3.45912
3.45799
3.45693
3.45592
3.45497
3.45408
3.45322
3.45241
3.45163
3.45088
3.45016
3.44947
3.4488
3.44814
3.44751
3.44691
3.44632
3.44576
3.44522
3.44471
3.44423
3.44378
3.44337
3.44299
3.44264
3.44233
3.44205
3.44181
3.4416
3.44143
3.44128
3.44117
3.44108
3.44102
3.44097
3.44095
3.44093
3.44093
3.44094
3.44094
3.44095
3.44096
3.44096
3.48958
3.48961
3.48969
3.48979
3.48994
3.49011
3.49033
3.49057
3.49086
3.49117
3.49151
3.49188
3.49228
3.49271
3.49316
3.49364
3.49413
3.49465
3.49518
3.49573
3.4963
3.49687
3.49747
3.49806
3.49867
3.49928
3.49989
3.50049
3.50109
3.50167
3.50223
3.50276
3.50327
3.50373
3.50416
3.50454
3.50486
3.50513
3.50533
3.50547
3.50554
3.50553
3.50545
3.50529
3.50504
3.50472
3.50431
3.50381
3.50323
3.50257
3.50182
3.50098
3.50007
3.49908
3.498
3.49686
3.49564
3.49436
3.49301
3.49161
3.49016
3.48866
3.48713
3.48557
3.48399
3.48239
3.48079
3.4792
3.47762
3.47606
3.47454
3.47305
3.4716
3.47021
3.46887
3.46759
3.46637
3.46521
3.46411
3.46306
3.46207
3.46113
3.46024
3.45939
3.45858
3.4578
3.45706
3.45634
3.45565
3.45498
3.45434
3.45372
3.45312
3.45255
3.452
3.45147
3.45098
3.45051
3.45007
3.44966
3.44929
3.44894
3.44863
3.44835
3.44811
3.44789
3.44771
3.44756
3.44743
3.44733
3.44725
3.44719
3.44714
3.44711
3.44709
3.44708
3.44708
3.44708
3.44708
3.44708
3.49517
3.49521
3.49527
3.49537
3.49551
3.49567
3.49587
3.4961
3.49637
3.49666
3.49698
3.49732
3.4977
3.49809
3.49852
3.49896
3.49942
3.4999
3.50039
3.5009
3.50143
3.50197
3.50251
3.50306
3.50362
3.50418
3.50473
3.50528
3.50582
3.50634
3.50684
3.50732
3.50777
3.50818
3.50855
3.50888
3.50916
3.50938
3.50955
3.50965
3.50969
3.50966
3.50955
3.50938
3.50912
3.50879
3.50839
3.5079
3.50734
3.50669
3.50597
3.50517
3.50429
3.50334
3.50232
3.50123
3.50008
3.49886
3.49759
3.49626
3.49489
3.49348
3.49204
3.49057
3.48908
3.48758
3.48607
3.48457
3.48308
3.48161
3.48017
3.47876
3.47738
3.47606
3.47477
3.47354
3.47236
3.47124
3.47016
3.46914
3.46817
3.46724
3.46636
3.46552
3.46471
3.46394
3.4632
3.46249
3.4618
3.46114
3.46051
3.4599
3.45931
3.45875
3.45821
3.4577
3.45721
3.45675
3.45632
3.45592
3.45555
3.45521
3.4549
3.45462
3.45437
3.45415
3.45396
3.4538
3.45366
3.45355
3.45345
3.45338
3.45332
3.45328
3.45325
3.45322
3.45321
3.4532
3.4532
3.45319
3.50073
3.50076
3.50083
3.50092
3.50105
3.5012
3.50139
3.5016
3.50185
3.50212
3.50242
3.50274
3.50309
3.50346
3.50385
3.50426
3.50469
3.50513
3.50559
3.50607
3.50655
3.50705
3.50755
3.50805
3.50856
3.50907
3.50958
3.51007
3.51056
3.51103
3.51148
3.51191
3.5123
3.51267
3.51299
3.51327
3.51351
3.51369
3.51382
3.51389
3.5139
3.51385
3.51373
3.51354
3.51328
3.51295
3.51255
3.51207
3.51152
3.51089
3.5102
3.50943
3.50859
3.50768
3.50671
3.50567
3.50457
3.50342
3.50222
3.50096
3.49967
3.49834
3.49697
3.49559
3.49418
3.49277
3.49135
3.48993
3.48852
3.48713
3.48576
3.48442
3.48312
3.48185
3.48062
3.47944
3.4783
3.47721
3.47617
3.47517
3.47422
3.47331
3.47244
3.47161
3.47081
3.47005
3.46931
3.46861
3.46793
3.46728
3.46666
3.46605
3.46548
3.46492
3.4644
3.46389
3.46342
3.46297
3.46254
3.46215
3.46178
3.46145
3.46114
3.46086
3.46061
3.46039
3.46019
3.46002
3.45987
3.45975
3.45964
3.45956
3.45949
3.45943
3.45939
3.45936
3.45933
3.45932
3.45931
3.4593
3.50626
3.50629
3.50635
3.50644
3.50655
3.5067
3.50687
3.50707
3.5073
3.50755
3.50783
3.50813
3.50845
3.50879
3.50916
3.50954
3.50994
3.51035
3.51078
3.51121
3.51166
3.51212
3.51258
3.51304
3.51351
3.51397
3.51443
3.51488
3.51532
3.51574
3.51614
3.51652
3.51687
3.51719
3.51747
3.51771
3.51791
3.51806
3.51816
3.5182
3.51819
3.51811
3.51798
3.51778
3.51751
3.51718
3.51678
3.51631
3.51577
3.51517
3.51449
3.51375
3.51295
3.51208
3.51115
3.51017
3.50913
3.50803
3.50689
3.5057
3.50448
3.50322
3.50193
3.50062
3.4993
3.49796
3.49662
3.49528
3.49395
3.49263
3.49133
3.49006
3.48881
3.4876
3.48643
3.48529
3.48419
3.48314
3.48213
3.48115
3.48022
3.47933
3.47848
3.47766
3.47687
3.47612
3.4754
3.4747
3.47404
3.47339
3.47278
3.47219
3.47162
3.47107
3.47056
3.47006
3.4696
3.46915
3.46874
3.46835
3.46799
3.46766
3.46735
3.46707
3.46682
3.46659
3.46639
3.46621
3.46606
3.46592
3.46581
3.46571
3.46564
3.46557
3.46552
3.46548
3.46545
3.46543
3.46542
3.46541
3.51176
3.51178
3.51184
3.51192
3.51203
3.51217
3.51233
3.51251
3.51272
3.51296
3.51322
3.51349
3.51379
3.51411
3.51445
3.5148
3.51517
3.51555
3.51595
3.51635
3.51676
3.51718
3.51761
3.51803
3.51846
3.51888
3.51929
3.5197
3.52009
3.52047
3.52083
3.52116
3.52147
3.52175
3.52199
3.52219
3.52236
3.52247
3.52254
3.52256
3.52253
3.52243
3.52228
3.52208
3.5218
3.52147
3.52108
3.52062
3.52009
3.51951
3.51886
3.51815
3.51738
3.51655
3.51566
3.51472
3.51373
3.51269
3.51161
3.51048
3.50932
3.50813
3.50691
3.50568
3.50442
3.50316
3.50189
3.50062
3.49936
3.49811
3.49688
3.49566
3.49448
3.49332
3.49219
3.4911
3.49004
3.48902
3.48804
3.4871
3.48619
3.48532
3.48448
3.48368
3.4829
3.48216
3.48145
3.48077
3.48011
3.47948
3.47887
3.47829
3.47773
3.4772
3.47669
3.47621
3.47575
3.47531
3.4749
3.47452
3.47417
3.47383
3.47353
3.47325
3.473
3.47277
3.47256
3.47238
3.47222
3.47208
3.47196
3.47186
3.47177
3.4717
3.47164
3.47159
3.47156
3.47153
3.47152
3.47151
3.51723
3.51725
3.5173
3.51738
3.51748
3.51761
3.51776
3.51793
3.51812
3.51834
3.51858
3.51884
3.51912
3.51941
3.51973
3.52005
3.52039
3.52075
3.52111
3.52148
3.52186
3.52224
3.52263
3.52302
3.52341
3.52379
3.52416
3.52453
3.52488
3.52522
3.52554
3.52583
3.5261
3.52634
3.52655
3.52672
3.52685
3.52694
3.52698
3.52698
3.52692
3.52681
3.52665
3.52644
3.52616
3.52583
3.52544
3.52499
3.52448
3.52391
3.52328
3.5226
3.52186
3.52107
3.52022
3.51932
3.51838
3.51739
3.51636
3.5153
3.5142
3.51307
3.51192
3.51074
3.50956
3.50836
3.50716
3.50595
3.50476
3.50357
3.5024
3.50124
3.50011
3.499
3.49792
3.49687
3.49585
3.49487
3.49392
3.493
3.49212
3.49127
3.49045
3.48966
3.4889
3.48818
3.48748
3.48681
3.48616
3.48554
3.48494
3.48437
3.48382
3.4833
3.4828
3.48232
3.48187
3.48145
3.48104
3.48067
3.48032
3.47999
3.47968
3.47941
3.47915
3.47892
3.47871
3.47853
3.47836
3.47822
3.47809
3.47798
3.47789
3.47781
3.47775
3.4777
3.47766
3.47763
3.47761
3.4776
3.52267
3.52269
3.52274
3.52281
3.52291
3.52302
3.52316
3.52332
3.5235
3.52371
3.52393
3.52417
3.52442
3.5247
3.52498
3.52529
3.5256
3.52593
3.52626
3.5266
3.52695
3.5273
3.52765
3.52801
3.52836
3.52871
3.52904
3.52937
3.52969
3.52999
3.53027
3.53053
3.53076
3.53097
3.53114
3.53128
3.53138
3.53144
3.53146
3.53144
3.53137
3.53125
3.53108
3.53085
3.53057
3.53024
3.52986
3.52942
3.52892
3.52837
3.52777
3.52711
3.5264
3.52564
3.52483
3.52397
3.52307
3.52213
3.52115
3.52014
3.5191
3.51803
3.51694
3.51582
3.5147
3.51356
3.51242
3.51128
3.51015
3.50902
3.5079
3.5068
3.50572
3.50466
3.50362
3.50261
3.50163
3.50068
3.49976
3.49887
3.49801
3.49718
3.49638
3.49562
3.49487
3.49416
3.49348
3.49282
3.49218
3.49157
3.49099
3.49043
3.48989
3.48937
3.48888
3.48842
3.48797
3.48755
3.48716
3.48679
3.48644
3.48611
3.48581
3.48554
3.48528
3.48505
3.48484
3.48465
3.48448
3.48433
3.4842
3.48409
3.48399
3.48391
3.48384
3.48378
3.48374
3.48371
3.48369
3.48368
3.52809
3.52811
3.52815
3.52822
3.52831
3.52842
3.52854
3.52869
3.52886
3.52905
3.52925
3.52947
3.52971
3.52996
3.53023
3.53051
3.5308
3.5311
3.5314
3.53172
3.53203
3.53236
3.53268
3.533
3.53332
3.53363
3.53393
3.53423
3.53451
3.53477
3.53502
3.53525
3.53545
3.53562
3.53577
3.53588
3.53595
3.53599
3.53599
3.53595
3.53586
3.53573
3.53555
3.53532
3.53504
3.53471
3.53433
3.5339
3.53342
3.53288
3.5323
3.53167
3.53098
3.53025
3.52948
3.52866
3.52781
3.52691
3.52598
3.52502
3.52403
3.52301
3.52197
3.52092
3.51985
3.51877
3.51769
3.51661
3.51553
3.51445
3.51339
3.51234
3.5113
3.51029
3.50929
3.50832
3.50738
3.50646
3.50557
3.50471
3.50388
3.50307
3.50229
3.50154
3.50082
3.50012
3.49945
3.4988
3.49818
3.49758
3.49701
3.49646
3.49593
3.49543
3.49494
3.49449
3.49405
3.49364
3.49325
3.49288
3.49254
3.49222
3.49192
3.49164
3.49139
3.49116
3.49095
3.49076
3.49059
3.49043
3.4903
3.49018
3.49008
3.48999
3.48992
3.48986
3.48981
3.48978
3.48976
3.48975
3.53348
3.5335
3.53355
3.53361
3.53369
3.53379
3.53391
3.53404
3.5342
3.53437
3.53456
3.53477
3.53498
3.53522
3.53546
3.53572
3.53598
3.53626
3.53654
3.53682
3.53712
3.53741
3.5377
3.53799
3.53828
3.53856
3.53883
3.5391
3.53934
3.53958
3.53979
3.53999
3.54016
3.54031
3.54042
3.54051
3.54056
3.54058
3.54056
3.5405
3.5404
3.54026
3.54007
3.53984
3.53956
3.53923
3.53886
3.53843
3.53796
3.53745
3.53688
3.53627
3.53562
3.53492
3.53418
3.5334
3.53258
3.53172
3.53084
3.52992
3.52898
3.52801
3.52703
3.52603
3.52501
3.52399
3.52296
3.52193
3.5209
3.51987
3.51886
3.51785
3.51687
3.51589
3.51494
3.51401
3.5131
3.51221
3.51135
3.51052
3.50971
3.50893