/*--------------------------------*- C++ -*----------------------------------*\
| =========                 |                                                 |
| \\      /  F ield         | OpenFOAM: The Open Source CFD Toolbox           |
|  \\    /   O peration     | Version:  2406                                  |
|   \\  /    A nd           | Website:  www.openfoam.com                      |
|    \\/     M anipulation  |                                                 |
\*---------------------------------------------------------------------------*/
FoamFile
{
    version     2.0;
    format      ascii;
    arch        "LSB;label=32;scalar=64";
    class       volScalarField;
    location    "4.65";
    object      C;
}
// * * * * * * * * * * * * * * * * * * * * * * * * * * * * * * * * * * * * * //

dimensions      [1 -3 0 0 0 0 0];

internalField   nonuniform List<scalar> 
14400
(
0.354559
0.350741
0.344792
0.33832
0.332534
0.328269
0.326076
0.326289
0.329071
0.334437
0.342251
0.352198
0.363715
0.375848
0.386917
0.393696
0.38973
0.380729
0.370225
0.360361
0.352452
0.347354
0.345677
0.34789
0.354393
0.365554
0.381731
0.403291
0.430608
0.464058
0.503984
0.550618
0.603839
0.661911
0.709863
0.742044
0.767096
0.789082
0.80835
0.825171
0.839757
0.852273
0.862851
0.871595
0.878586
0.883886
0.887543
0.889588
0.890043
0.888915
0.886201
0.881886
0.875942
0.868331
0.858996
0.847869
0.834859
0.819854
0.802714
0.783264
0.761283
0.736491
0.70848
0.66749
0.609829
0.55178
0.499277
0.453309
0.413824
0.380491
0.352912
0.330696
0.313488
0.300982
0.29292
0.289101
0.289368
0.293609
0.301744
0.313716
0.329476
0.348945
0.371961
0.398131
0.426244
0.450654
0.464816
0.470317
0.469763
0.461911
0.444195
0.421566
0.4
0.380794
0.364412
0.351028
0.340635
0.333091
0.328131
0.325366
0.32429
0.32431
0.32481
0.325289
0.325553
0.325841
0.326696
0.328774
0.33271
0.339055
0.348248
0.360619
0.376382
0.39563
0.418292
0.444014
0.471561
0.494417
0.506995
0.512214
0.369032
0.363622
0.356108
0.348425
0.341773
0.336928
0.334392
0.334466
0.337301
0.342905
0.351151
0.361747
0.374184
0.387598
0.400387
0.408436
0.404159
0.393128
0.381005
0.36999
0.361264
0.355591
0.353521
0.355495
0.361894
0.373076
0.389393
0.411205
0.438883
0.472793
0.513259
0.560449
0.614025
0.671599
0.715926
0.745544
0.770161
0.7918
0.810797
0.827406
0.841826
0.854211
0.864685
0.873348
0.880276
0.88553
0.889154
0.891179
0.891626
0.890502
0.887802
0.883514
0.877611
0.870053
0.860789
0.849751
0.836854
0.821989
0.805025
0.785795
0.764092
0.739658
0.71216
0.674673
0.620288
0.561358
0.508061
0.461445
0.421405
0.387599
0.359626
0.337096
0.319652
0.306988
0.298847
0.295027
0.295371
0.299768
0.308139
0.320429
0.336588
0.356536
0.380101
0.406865
0.435513
0.458796
0.471107
0.476372
0.476156
0.470034
0.454262
0.431582
0.409555
0.389872
0.373108
0.359475
0.348986
0.341514
0.336795
0.334432
0.333887
0.334491
0.335483
0.336162
0.336212
0.336
0.336266
0.337811
0.341342
0.347442
0.35656
0.369017
0.385015
0.404624
0.427727
0.453862
0.481457
0.502179
0.512653
0.517433
0.398452
0.389149
0.378458
0.368459
0.360174
0.354229
0.35104
0.350857
0.3538
0.359868
0.36894
0.380753
0.394857
0.410407
0.425351
0.431904
0.429404
0.416799
0.402103
0.389073
0.378853
0.372094
0.369272
0.370784
0.376985
0.388214
0.404812
0.427129
0.455524
0.490346
0.531889
0.580218
0.634459
0.68837
0.725745
0.752511
0.776205
0.797159
0.815632
0.831832
0.845929
0.858059
0.868331
0.876835
0.883641
0.888803
0.892363
0.894349
0.89478
0.893662
0.890993
0.886758
0.880933
0.873481
0.864356
0.853493
0.840815
0.826224
0.809601
0.790798
0.769635
0.745884
0.719253
0.686875
0.639
0.579837
0.52551
0.47776
0.436659
0.401922
0.373166
0.350008
0.332092
0.319112
0.310811
0.306988
0.307487
0.312196
0.32104
0.333964
0.350915
0.371805
0.396423
0.424181
0.453053
0.473092
0.483031
0.487908
0.488163
0.483868
0.472723
0.451475
0.428658
0.408057
0.39054
0.376415
0.365736
0.358406
0.35418
0.352655
0.353243
0.355147
0.3573
0.358496
0.357998
0.356609
0.355568
0.355976
0.358666
0.364265
0.373229
0.385861
0.402328
0.422649
0.446602
0.473387
0.499486
0.515156
0.523347
0.527432
0.433881
0.425011
0.410881
0.398001
0.387577
0.380142
0.376058
0.375527
0.37864
0.385379
0.395613
0.409064
0.425289
0.44314
0.456745
0.45983
0.45898
0.449533
0.432736
0.417344
0.405183
0.396943
0.393064
0.393919
0.39984
0.411151
0.428174
0.451244
0.480696
0.516837
0.559899
0.609761
0.664377
0.707736
0.737412
0.762527
0.784989
0.804999
0.822738
0.838361
0.852
0.863764
0.873746
0.882021
0.888649
0.893678
0.897145
0.899074
0.899482
0.898374
0.895748
0.891591
0.885881
0.878584
0.86966
0.859051
0.846689
0.832492
0.816356
0.798162
0.777764
0.754991
0.729644
0.701454
0.662651
0.606914
0.551715
0.502423
0.459786
0.423675
0.393754
0.369655
0.35103
0.337574
0.329033
0.325205
0.325935
0.331114
0.340665
0.354531
0.372653
0.394924
0.421063
0.450134
0.47686
0.491496
0.499661
0.504068
0.504716
0.501719
0.495116
0.480105
0.457068
0.435339
0.41676
0.401919
0.39095
0.383832
0.380363
0.380153
0.382573
0.386737
0.391115
0.393491
0.391753
0.388119
0.384813
0.383385
0.384755
0.389589
0.398325
0.411222
0.428373
0.449714
0.474765
0.501815
0.521144
0.531443
0.538138
0.541516
0.467901
0.464306
0.451515
0.43641
0.423777
0.414622
0.409488
0.40856
0.411914
0.419501
0.431153
0.446399
0.464487
0.482014
0.489121
0.490641
0.490331
0.486418
0.471975
0.454538
0.44026
0.430278
0.425096
0.425131
0.43071
0.442145
0.459738
0.483797
0.514614
0.552363
0.597057
0.647729
0.694284
0.726386
0.751935
0.775196
0.796223
0.815111
0.831961
0.846874
0.859944
0.871252
0.880868
0.888853
0.895256
0.900116
0.903464
0.905321
0.905699
0.904605
0.902035
0.897977
0.892414
0.885316
0.876647
0.866361
0.8544
0.840696
0.82517
0.807729
0.788268
0.766672
0.742825
0.716623
0.686433
0.642599
0.58685
0.535651
0.491056
0.453164
0.42171
0.396364
0.376792
0.362699
0.353835
0.349999
0.351038
0.356842
0.367329
0.382431
0.402063
0.42605
0.453861
0.483362
0.502957
0.5131
0.520048
0.523986
0.524914
0.522957
0.518371
0.510318
0.493752
0.471519
0.451734
0.436026
0.424665
0.417811
0.415345
0.41693
0.421861
0.42941
0.437334
0.442169
0.437866
0.430677
0.423986
0.420042
0.419613
0.423434
0.431882
0.445136
0.463116
0.485581
0.511006
0.531442
0.543059
0.550869
0.556245
0.558979
0.501997
0.501396
0.496036
0.482608
0.468478
0.457544
0.451332
0.449993
0.453664
0.462221
0.475457
0.492106
0.51018
0.519288
0.521836
0.523283
0.523529
0.522607
0.516335
0.49993
0.48403
0.472272
0.465603
0.464692
0.469886
0.481498
0.499797
0.525051
0.55749
0.596874
0.642297
0.688167
0.720795
0.745595
0.768746
0.790097
0.809598
0.82726
0.84312
0.857232
0.86965
0.88043
0.889622
0.897268
0.903406
0.908067
0.911274
0.913045
0.913389
0.912312
0.909808
0.90587
0.900481
0.893619
0.885252
0.875345
0.863853
0.850724
0.835899
0.819316
0.800906
0.780606
0.75836
0.734144
0.707974
0.675934
0.629489
0.577326
0.530703
0.490748
0.457435
0.430551
0.409799
0.394909
0.385638
0.38179
0.383212
0.389793
0.401433
0.418034
0.439429
0.465276
0.494268
0.517442
0.529454
0.537593
0.543445
0.546912
0.547999
0.546822
0.543615
0.538747
0.530465
0.515148
0.495003
0.478607
0.46676
0.460198
0.458893
0.462653
0.470222
0.481339
0.488297
0.490582
0.488837
0.482491
0.472222
0.465618
0.463016
0.465663
0.473785
0.487468
0.506125
0.52885
0.547449
0.558902
0.566585
0.572728
0.576994
0.579175
0.53669
0.536402
0.535895
0.530903
0.520469
0.508301
0.50134
0.4996
0.503666
0.513053
0.527542
0.542093
0.550673
0.55345
0.555616
0.557125
0.557894
0.557957
0.557425
0.550827
0.535955
0.522988
0.514723
0.512833
0.517619
0.529474
0.548583
0.57511
0.609317
0.64949
0.690504
0.721153
0.744287
0.766442
0.787357
0.806848
0.824813
0.841209
0.856028
0.869281
0.880995
0.891198
0.89992
0.90719
0.913033
0.917471
0.920521
0.922195
0.922502
0.921443
0.919016
0.915214
0.910023
0.903425
0.895398
0.885915
0.874943
0.862446
0.848387
0.832728
0.815435
0.796484
0.775868
0.753616
0.729809
0.704606
0.672227
0.626325
0.578774
0.53678
0.501364
0.472695
0.45054
0.434697
0.424938
0.421069
0.422942
0.430441
0.44342
0.46171
0.484854
0.511725
0.536162
0.549558
0.557755
0.564374
0.569227
0.572218
0.573349
0.572717
0.57052
0.56706
0.562738
0.555948
0.544251
0.528746
0.516575
0.510407
0.510113
0.516005
0.524067
0.529017
0.530676
0.530563
0.531309
0.530249
0.526009
0.51881
0.514089
0.515712
0.523401
0.537294
0.555169
0.569466
0.578911
0.58567
0.59165
0.596464
0.599827
0.601553
0.571672
0.571612
0.571577
0.571749
0.569201
0.563945
0.557993
0.555862
0.560379
0.569241
0.577764
0.583652
0.585861
0.588057
0.590052
0.591705
0.592966
0.593879
0.594576
0.595203
0.590767
0.58143
0.572017
0.569492
0.573868
0.586071
0.606001
0.63329
0.668483
0.701189
0.727437
0.748251
0.768725
0.788529
0.807393
0.825125
0.841598
0.856736
0.870499
0.882871
0.893851
0.903446
0.91167
0.918538
0.924064
0.928262
0.931143
0.932714
0.93298
0.931943
0.9296
0.925946
0.92097
0.91466
0.907001
0.897973
0.887557
0.875731
0.862475
0.847775
0.831623
0.814025
0.795011
0.774644
0.753035
0.730355
0.706838
0.676195
0.634346
0.591391
0.553827
0.523267
0.499513
0.482585
0.472269
0.468359
0.470723
0.47926
0.493668
0.513667
0.537689
0.560508
0.573734
0.581159
0.587631
0.592923
0.596869
0.599384
0.600461
0.600176
0.598688
0.596235
0.593136
0.58978
0.585633
0.57863
0.571203
0.56619
0.565564
0.567102
0.568563
0.56768
0.56693
0.566893
0.567609
0.569064
0.570648
0.569994
0.569485
0.571375
0.577934
0.587257
0.59628
0.602553
0.607979
0.613218
0.617881
0.621652
0.624296
0.625657
0.606713
0.606797
0.607031
0.607556
0.608594
0.609317
0.60858
0.608867
0.611511
0.615195
0.617552
0.619022
0.620874
0.622865
0.624831
0.626678
0.628387
0.630015
0.631701
0.633677
0.636275
0.636142
0.634395
0.633193
0.637184
0.649903
0.670346
0.695314
0.719087
0.739215
0.757311
0.775648
0.793835
0.811556
0.82856
0.84466
0.859717
0.873638
0.886363
0.897854
0.908091
0.917065
0.924777
0.931228
0.936425
0.940371
0.943074
0.944537
0.944762
0.943748
0.941495
0.937999
0.933251
0.927245
0.919972
0.91142
0.90158
0.890444
0.878008
0.864274
0.849256
0.832983
0.815508
0.796915
0.77733
0.756928
0.735938
0.714636
0.687831
0.653127
0.614519
0.582547
0.557053
0.539013
0.528113
0.524112
0.526913
0.536538
0.55208
0.572906
0.59095
0.602045
0.608077
0.613706
0.618688
0.622816
0.625944
0.627988
0.628936
0.628839
0.627819
0.626057
0.623792
0.621306
0.618907
0.616916
0.614228
0.611298
0.609257
0.606948
0.604578
0.60315
0.602467
0.60247
0.603164
0.604571
0.606777
0.610022
0.613282
0.6165
0.620858
0.625189
0.628836
0.632956
0.637232
0.641344
0.645003
0.647967
0.650049
0.651122
0.641671
0.641831
0.642195
0.642844
0.643878
0.645362
0.647341
0.649188
0.650366
0.651238
0.652443
0.653962
0.655748
0.657699
0.659728
0.661789
0.663888
0.666093
0.668537
0.671431
0.675077
0.679897
0.685033
0.689791
0.697365
0.709454
0.724767
0.740888
0.755584
0.77093
0.786926
0.803194
0.81941
0.835298
0.850633
0.865237
0.878972
0.891737
0.90346
0.914089
0.923592
0.931948
0.939144
0.945173
0.950034
0.953725
0.956246
0.957598
0.957781
0.956793
0.954635
0.951302
0.946791
0.941098
0.934221
0.926155
0.9169
0.906458
0.894838
0.882057
0.868143
0.853142
0.837122
0.820178
0.802443
0.784088
0.765332
0.746442
0.727739
0.70645
0.680066
0.649669
0.622717
0.60399
0.592611
0.588402
0.591216
0.601538
0.616134
0.627389
0.634487
0.638567
0.642807
0.6469
0.650598
0.653711
0.656101
0.65769
0.658454
0.658426
0.657691
0.656383
0.65467
0.652745
0.650796
0.648955
0.647161
0.645263
0.642953
0.640793
0.639037
0.637875
0.637317
0.637358
0.638006
0.639277
0.641202
0.6438
0.64691
0.650305
0.65342
0.656535
0.659783
0.663202
0.666648
0.669922
0.672821
0.675165
0.676811
0.677659
0.676468
0.676662
0.677074
0.677745
0.678714
0.679989
0.681509
0.68303
0.684363
0.685618
0.687021
0.688634
0.690456
0.692454
0.694593
0.696861
0.699284
0.701932
0.704923
0.708432
0.712686
0.717961
0.724519
0.732712
0.742155
0.752383
0.763346
0.775279
0.788244
0.801992
0.816267
0.830794
0.845313
0.859593
0.873437
0.886683
0.899197
0.910879
0.92165
0.931451
0.940241
0.94799
0.954677
0.960287
0.964813
0.968247
0.970586
0.971828
0.971969
0.97101
0.968948
0.965782
0.961512
0.956136
0.949658
0.942079
0.933406
0.92365
0.91283
0.900972
0.888118
0.874321
0.859659
0.844234
0.828175
0.81165
0.794861
0.778053
0.761515
0.74559
0.729842
0.711524
0.692431
0.675411
0.663959
0.659326
0.660427
0.664271
0.668563
0.670682
0.672458
0.674913
0.677686
0.680489
0.683095
0.685327
0.68706
0.688216
0.688764
0.688719
0.688138
0.687112
0.685759
0.684208
0.682577
0.680943
0.679305
0.677623
0.675865
0.674234
0.672902
0.671996
0.671567
0.671639
0.672224
0.67333
0.674954
0.677064
0.679553
0.682261
0.684985
0.687742
0.690559
0.693421
0.696237
0.698875
0.701194
0.703061
0.70437
0.705044
0.711071
0.711275
0.711695
0.712347
0.713243
0.714371
0.715676
0.717056
0.718436
0.719852
0.721388
0.723096
0.72499
0.727068
0.729327
0.731778
0.734456
0.737427
0.740792
0.744686
0.749276
0.75474
0.761241
0.768886
0.777549
0.787038
0.797289
0.808327
0.820121
0.832527
0.845357
0.858401
0.871454
0.884324
0.896841
0.908859
0.920255
0.930932
0.940808
0.949824
0.957931
0.965094
0.971286
0.976487
0.980683
0.983865
0.986025
0.987157
0.987259
0.986329
0.984365
0.981367
0.977337
0.972278
0.966195
0.959096
0.950994
0.941906
0.931859
0.920885
0.909034
0.896365
0.88296
0.868921
0.854374
0.839475
0.824409
0.809393
0.794676
0.780539
0.767289
0.755303
0.743909
0.732542
0.723233
0.717261
0.714159
0.711824
0.70978
0.709243
0.709746
0.710942
0.712535
0.714275
0.715964
0.717443
0.718596
0.719349
0.719666
0.719548
0.719028
0.718168
0.717047
0.715751
0.714361
0.712934
0.711496
0.710057
0.70865
0.707375
0.706343
0.705638
0.705316
0.705406
0.705922
0.706864
0.70822
0.709949
0.711976
0.7142
0.716517
0.718888
0.72129
0.723686
0.726002
0.728147
0.730017
0.731516
0.732564
0.733102
0.745469
0.745672
0.746083
0.746706
0.747541
0.748574
0.74977
0.75108
0.752475
0.753964
0.755585
0.75737
0.759338
0.761501
0.763871
0.766469
0.769335
0.772528
0.776131
0.780246
0.784991
0.790483
0.796819
0.804043
0.812108
0.820929
0.830444
0.840617
0.851386
0.862639
0.874231
0.885999
0.897777
0.909407
0.920743
0.931656
0.942034
0.951784
0.960829
0.969106
0.976566
0.983169
0.988885
0.993691
0.997568
1.0005
1.00249
1.00352
1.00358
1.00268
1.00082
0.997984
0.994192
0.989444
0.983748
0.977117
0.969568
0.961123
0.951813
0.941677
0.930766
0.919146
0.906896
0.894116
0.880926
0.867468
0.853908
0.840434
0.827256
0.8146
0.802699
0.791769
0.78191
0.773328
0.765892
0.759513
0.754325
0.750582
0.748095
0.746763
0.746341
0.746576
0.747234
0.748114
0.749043
0.749884
0.750533
0.750919
0.751004
0.750779
0.75026
0.749485
0.748508
0.747388
0.746182
0.744937
0.743686
0.742461
0.741302
0.740276
0.739454
0.738899
0.738654
0.738748
0.739192
0.739985
0.741112
0.742536
0.744204
0.746046
0.747995
0.750002
0.752029
0.754029
0.755941
0.757694
0.759212
0.760423
0.761266
0.761699
0.779664
0.779862
0.780258
0.780853
0.781642
0.782614
0.783748
0.785021
0.786418
0.787944
0.789619
0.791462
0.793493
0.795727
0.798185
0.800892
0.803886
0.807219
0.810957
0.815175
0.819958
0.825383
0.831508
0.838358
0.845913
0.854124
0.862942
0.872312
0.882168
0.892413
0.902929
0.913587
0.924249
0.934785
0.945069
0.954987
0.96444
0.973341
0.981616
0.989205
0.996057
1.00213
1.00739
1.01182
1.01539
1.0181
1.01991
1.02084
1.02087
1.02
1.01823
1.01556
1.012
1.00756
1.00224
0.996056
0.989037
0.981204
0.972592
0.963243
0.953209
0.942555
0.931361
0.91972
0.907745
0.895563
0.88332
0.871179
0.859314
0.847907
0.837138
0.827164
0.818101
0.810045
0.802995
0.796948
0.791956
0.788081
0.785255
0.783375
0.782278
0.781784
0.781714
0.781903
0.78221
0.782517
0.782732
0.782791
0.782653
0.782303
0.781746
0.781005
0.780113
0.779111
0.778042
0.776944
0.775851
0.774797
0.773821
0.772971
0.772298
0.771848
0.771654
0.771739
0.772113
0.772774
0.773705
0.77488
0.776256
0.777785
0.779413
0.781098
0.782795
0.784459
0.786038
0.787476
0.788714
0.789697
0.79038
0.79073
0.813662
0.813853
0.814235
0.814805
0.815561
0.816492
0.817588
0.818836
0.820231
0.821776
0.823483
0.825366
0.827442
0.82973
0.83225
0.835028
0.838099
0.841507
0.845301
0.849541
0.854283
0.859581
0.865472
0.871969
0.87906
0.886714
0.894885
0.903523
0.91256
0.921914
0.931486
0.941169
0.950849
0.960415
0.96976
0.978784
0.987398
0.995523
1.00309
1.01004
1.01632
1.0219
1.02674
1.03081
1.03409
1.03657
1.03823
1.03906
1.03906
1.03822
1.03654
1.03403
1.0307
1.02654
1.02158
1.01583
1.00932
1.00207
0.994109
0.985493
0.976271
0.966505
0.956272
0.94566
0.93477
0.923718
0.91263
0.901647
0.890913
0.880577
0.870781
0.86165
0.853284
0.845756
0.839097
0.833327
0.828468
0.82453
0.821469
0.819201
0.817613
0.816569
0.815933
0.815574
0.815377
0.815241
0.815087
0.814858
0.814513
0.814034
0.813417
0.812674
0.811827
0.810902
0.809932
0.808947
0.807978
0.807055
0.806213
0.80549
0.804921
0.804541
0.804375
0.804442
0.804748
0.80529
0.806056
0.807023
0.808157
0.809422
0.810777
0.81218
0.813593
0.814974
0.816277
0.817458
0.81847
0.819271
0.819826
0.82011
0.847469
0.847653
0.848022
0.848573
0.849303
0.850206
0.851275
0.852505
0.853895
0.855447
0.85717
0.859077
0.861181
0.863501
0.866056
0.868871
0.871976
0.875406
0.8792
0.883403
0.888053
0.893188
0.898829
0.904985
0.911646
0.918784
0.926363
0.934334
0.942636
0.951197
0.959932
0.968753
0.977562
0.986266
0.994771
1.00299
1.01085
1.01826
1.02518
1.03154
1.0373
1.04241
1.04685
1.05059
1.0536
1.05586
1.05737
1.05811
1.05808
1.05727
1.05569
1.05333
1.05021
1.04634
1.04172
1.03638
1.03034
1.02363
1.01629
1.00835
0.999875
0.990923
0.981563
0.971877
0.961958
0.951908
0.941837
0.931865
0.922114
0.912707
0.903758
0.895371
0.887629
0.880596
0.87431
0.868794
0.864061
0.860104
0.856888
0.85435
0.852403
0.850947
0.849875
0.849085
0.848481
0.847982
0.847519
0.84704
0.846508
0.845902
0.845215
0.844449
0.843617
0.842739
0.841836
0.840934
0.840057
0.839233
0.838488
0.837853
0.837355
0.837019
0.836864
0.836905
0.837146
0.837583
0.838206
0.838997
0.839928
0.840971
0.842091
0.843254
0.844424
0.845565
0.846639
0.847609
0.848437
0.849091
0.849543
0.849774
0.881091
0.88127
0.881627
0.882162
0.882871
0.883752
0.884801
0.886016
0.887396
0.888947
0.890674
0.892589
0.894705
0.897036
0.899603
0.902425
0.905528
0.90894
0.912692
0.916816
0.92134
0.926287
0.931672
0.937498
0.943753
0.950415
0.95745
0.964814
0.972453
0.980304
0.988294
0.996347
1.00438
1.01231
1.02007
1.02756
1.03473
1.0415
1.04783
1.05365
1.05892
1.0636
1.06767
1.07109
1.07384
1.07591
1.07728
1.07793
1.07788
1.0771
1.07561
1.0734
1.07048
1.06687
1.06258
1.05762
1.05203
1.04583
1.03905
1.03175
1.02396
1.01575
1.00718
0.998329
0.989278
0.980118
0.970945
0.961862
0.952972
0.944377
0.936173
0.928446
0.921267
0.91469
0.908753
0.903479
0.898876
0.894936
0.891629
0.888906
0.886702
0.884939
0.883535
0.882409
0.881482
0.880687
0.879967
0.879275
0.878577
0.877853
0.87709
0.876289
0.875454
0.874599
0.87374
0.872895
0.872084
0.87133
0.870654
0.870079
0.869626
0.869315
0.869159
0.869168
0.869346
0.86969
0.870189
0.870829
0.871588
0.872442
0.873362
0.87432
0.875284
0.876223
0.877106
0.877901
0.878578
0.879112
0.879481
0.879669
0.914533
0.914708
0.915056
0.915577
0.916269
0.917131
0.918161
0.91936
0.920727
0.922269
0.92399
0.925901
0.928012
0.930338
0.932893
0.935697
0.93877
0.942134
0.945813
0.949829
0.954203
0.958949
0.964075
0.96958
0.975452
0.981672
0.988207
0.995018
1.00206
1.00927
1.01659
1.02396
1.0313
1.03854
1.04562
1.05246
1.05901
1.0652
1.07098
1.0763
1.08112
1.08541
1.08913
1.09226
1.09477
1.09666
1.09789
1.09847
1.09839
1.09765
1.09624
1.09417
1.09145
1.08809
1.0841
1.07951
1.07433
1.0686
1.06235
1.05562
1.04846
1.04093
1.03308
1.02498
1.01671
1.00834
0.999963
0.991666
0.983535
0.975657
0.968112
0.960973
0.954301
0.948143
0.942533
0.937493
0.93303
0.929135
0.925786
0.922944
0.92056
0.918573
0.916919
0.915532
0.914351
0.913318
0.912386
0.911515
0.910673
0.909841
0.909005
0.908161
0.907312
0.906464
0.905629
0.904821
0.904055
0.903348
0.902718
0.902182
0.901756
0.901455
0.901288
0.901263
0.901382
0.901641
0.902032
0.902542
0.903154
0.903846
0.904596
0.905379
0.906169
0.906938
0.90766
0.90831
0.908863
0.909299
0.909599
0.909752
0.947802
0.947971
0.948311
0.948819
0.949496
0.950341
0.951353
0.952534
0.953885
0.955411
0.957117
0.959012
0.961105
0.963408
0.965935
0.968701
0.971721
0.975014
0.978597
0.982485
0.986693
0.99123
0.996098
1.00129
1.00681
1.01261
1.01869
1.02499
1.03149
1.03813
1.04485
1.0516
1.05832
1.06494
1.07141
1.07766
1.08364
1.0893
1.09458
1.09945
1.10386
1.10778
1.11119
1.11405
1.11634
1.11805
1.11916
1.11967
1.11957
1.11886
1.11753
1.1156
1.11306
1.10993
1.10623
1.10197
1.09718
1.09189
1.08612
1.07993
1.07335
1.06643
1.05923
1.0518
1.04423
1.03657
1.0289
1.0213
1.01385
1.0066
0.999646
0.993034
0.98682
0.981047
0.975744
0.970931
0.966614
0.962788
0.959435
0.956525
0.954021
0.951874
0.950034
0.94845
0.94707
0.945849
0.944746
0.943725
0.94276
0.941832
0.940927
0.940039
0.939168
0.938316
0.937492
0.936705
0.935967
0.93529
0.934689
0.934175
0.933762
0.93346
0.933276
0.933214
0.933277
0.93346
0.933756
0.934153
0.934638
0.935193
0.935798
0.936432
0.937074
0.937699
0.938287
0.938816
0.939266
0.93962
0.939864
0.939989
0.9809
0.981066
0.981397
0.981894
0.982556
0.983384
0.984377
0.985538
0.986869
0.988373
0.990056
0.991925
0.993988
0.996256
0.998739
1.00145
1.0044
1.0076
1.01107
1.01482
1.01886
1.02318
1.02779
1.03269
1.03786
1.04329
1.04894
1.05478
1.06078
1.0669
1.07308
1.07927
1.08543
1.09149
1.09741
1.10313
1.1086
1.11377
1.1186
1.12306
1.12709
1.13068
1.13379
1.1364
1.13849
1.14004
1.14104
1.14149
1.14137
1.14068
1.13943
1.13762
1.13526
1.13235
1.12891
1.12497
1.12054
1.11565
1.11033
1.10462
1.09857
1.09221
1.08559
1.07878
1.07183
1.06481
1.05778
1.0508
1.04394
1.03727
1.03083
1.0247
1.0189
1.01348
1.00847
1.00387
0.999707
0.995968
0.99264
0.989702
0.987123
0.984867
0.982894
0.981162
0.979631
0.978262
0.977021
0.975879
0.974811
0.973799
0.972832
0.971901
0.971004
0.970141
0.969318
0.96854
0.967817
0.967157
0.966571
0.966068
0.965657
0.965346
0.96514
0.965042
0.965052
0.965166
0.965377
0.965677
0.966053
0.966489
0.96697
0.967478
0.967994
0.968499
0.968974
0.969401
0.969765
0.970052
0.970249
0.97035
1.01383
1.01399
1.01432
1.0148
1.01545
1.01626
1.01723
1.01837
1.01968
1.02116
1.02281
1.02464
1.02667
1.02889
1.03131
1.03396
1.03682
1.03993
1.04327
1.04687
1.05073
1.05484
1.0592
1.06382
1.06867
1.07373
1.07899
1.08441
1.08996
1.0956
1.10129
1.10698
1.11263
1.11819
1.12361
1.12885
1.13385
1.13859
1.14301
1.14708
1.15077
1.15405
1.15689
1.15927
1.16117
1.16258
1.16348
1.16386
1.16373
1.16307
1.16189
1.1602
1.158
1.15529
1.1521
1.14845
1.14435
1.13983
1.13493
1.12967
1.12409
1.11824
1.11216
1.1059
1.09951
1.09306
1.08659
1.08017
1.07385
1.06768
1.06173
1.05602
1.0506
1.04551
1.04077
1.03638
1.03237
1.02874
1.02546
1.02252
1.0199
1.01758
1.01551
1.01367
1.01203
1.01055
1.0092
1.00796
1.00681
1.00572
1.0047
1.00373
1.0028
1.00193
1.0011
1.00032
0.999603
0.998951
0.99837
0.997868
0.997453
0.997127
0.996897
0.996762
0.996722
0.996773
0.996911
0.997125
0.997406
0.997741
0.998116
0.998516
0.998925
0.999327
0.999707
1.00005
1.00034
1.00057
1.00073
1.00081
1.0466
1.04676
1.04708
1.04755
1.04818
1.04897
1.04993
1.05104
1.05232
1.05376
1.05538
1.05717
1.05915
1.06131
1.06367
1.06624
1.06901
1.07201
1.07522
1.07867
1.08234
1.08624
1.09037
1.09471
1.09926
1.10399
1.10888
1.11391
1.11905
1.12426
1.1295
1.13474
1.13993
1.14503
1.15
1.1548
1.15938
1.16371
1.16776
1.17148
1.17486
1.17785
1.18045
1.18262
1.18434
1.18562
1.18643
1.18676
1.18661
1.18598
1.18487
1.18329
1.18123
1.17872
1.17576
1.17238
1.16859
1.16441
1.15988
1.15503
1.14989
1.1445
1.1389
1.13314
1.12727
1.12132
1.11537
1.10944
1.10361
1.0979
1.09237
1.08705
1.08198
1.07719
1.0727
1.06853
1.06467
1.06114
1.05793
1.05502
1.05239
1.05003
1.0479
1.04599
1.04427
1.0427
1.04127
1.03995
1.03873
1.03759
1.03652
1.03551
1.03456
1.03366
1.03282
1.03204
1.03132
1.03067
1.03009
1.02958
1.02916
1.02881
1.02856
1.02839
1.0283
1.0283
1.02837
1.02851
1.02871
1.02895
1.02924
1.02954
1.02986
1.03018
1.03048
1.03075
1.03098
1.03116
1.03129
1.03135
1.07922
1.07937
1.07968
1.08014
1.08075
1.08153
1.08245
1.08354
1.08479
1.0862
1.08777
1.08952
1.09144
1.09354
1.09583
1.09831
1.10099
1.10386
1.10694
1.11023
1.11372
1.11742
1.12132
1.1254
1.12966
1.13408
1.13864
1.14331
1.14807
1.15288
1.15772
1.16254
1.16731
1.172
1.17656
1.18096
1.18516
1.18913
1.19283
1.19624
1.19933
1.20206
1.20443
1.20641
1.20798
1.20913
1.20985
1.21013
1.20998
1.20937
1.20833
1.20685
1.20493
1.20259
1.19985
1.19671
1.1932
1.18934
1.18516
1.18068
1.17593
1.17097
1.16581
1.1605
1.15508
1.1496
1.14411
1.13863
1.13323
1.12794
1.12279
1.11783
1.11308
1.10857
1.10432
1.10035
1.09665
1.09323
1.0901
1.08723
1.08462
1.08224
1.08008
1.07813
1.07634
1.07472
1.07322
1.07185
1.07057
1.06938
1.06827
1.06723
1.06626
1.06534
1.06449
1.0637
1.06298
1.06232
1.06173
1.06122
1.06078
1.06042
1.06013
1.05993
1.0598
1.05974
1.05975
1.05983
1.05996
1.06013
1.06033
1.06056
1.0608
1.06105
1.06128
1.06149
1.06167
1.06181
1.06191
1.06196
1.11168
1.11182
1.11212
1.11257
1.11317
1.11392
1.11483
1.11588
1.11709
1.11846
1.12
1.12169
1.12355
1.12559
1.1278
1.13019
1.13276
1.13551
1.13846
1.14159
1.1449
1.1484
1.15207
1.15591
1.1599
1.16403
1.16828
1.17262
1.17703
1.18148
1.18594
1.19039
1.19478
1.19909
1.20328
1.20732
1.21117
1.21481
1.2182
1.22132
1.22414
1.22664
1.2288
1.2306
1.23203
1.23307
1.23371
1.23395
1.23378
1.23321
1.23222
1.23084
1.22905
1.22688
1.22433
1.22142
1.21817
1.2146
1.21073
1.20659
1.20221
1.19762
1.19286
1.18796
1.18296
1.1779
1.17282
1.16775
1.16274
1.15782
1.15303
1.1484
1.14394
1.13969
1.13567
1.13188
1.12834
1.12505
1.122
1.11918
1.1166
1.11423
1.11207
1.11008
1.10827
1.1066
1.10506
1.10364
1.10232
1.1011
1.09996
1.09889
1.09789
1.09696
1.0961
1.0953
1.09457
1.0939
1.0933
1.09278
1.09232
1.09194
1.09163
1.09139
1.09122
1.09112
1.09108
1.0911
1.09116
1.09127
1.09141
1.09157
1.09174
1.09192
1.0921
1.09226
1.09239
1.0925
1.09258
1.09262
1.14399
1.14413
1.14442
1.14486
1.14544
1.14617
1.14704
1.14807
1.14924
1.15057
1.15205
1.15369
1.15549
1.15746
1.15958
1.16188
1.16434
1.16698
1.16978
1.17276
1.1759
1.17921
1.18267
1.18627
1.19001
1.19387
1.19782
1.20185
1.20594
1.21006
1.21419
1.21829
1.22234
1.2263
1.23015
1.23386
1.2374
1.24073
1.24384
1.2467
1.24928
1.25156
1.25353
1.25517
1.25647
1.2574
1.25798
1.25818
1.258
1.25745
1.25652
1.25522
1.25356
1.25153
1.24917
1.24647
1.24345
1.24015
1.23657
1.23274
1.22869
1.22445
1.22005
1.21552
1.2109
1.20622
1.20151
1.19682
1.19216
1.18759
1.18312
1.17878
1.1746
1.17059
1.16678
1.16318
1.15979
1.15661
1.15366
1.15091
1.14837
1.14603
1.14387
1.14188
1.14004
1.13835
1.13678
1.13533
1.13398
1.13273
1.13156
1.13048
1.12946
1.12852
1.12764
1.12683
1.12609
1.12541
1.1248
1.12426
1.12379
1.12339
1.12305
1.12278
1.12258
1.12244
1.12235
1.12232
1.12233
1.12238
1.12246
1.12256
1.12268
1.12281
1.12293
1.12305
1.12315
1.12323
1.12329
1.12331
1.17615
1.17629
1.17657
1.17699
1.17756
1.17826
1.17911
1.1801
1.18124
1.18252
1.18396
1.18554
1.18727
1.18916
1.1912
1.1934
1.19576
1.19827
1.20094
1.20377
1.20674
1.20986
1.21312
1.2165
1.22
1.2236
1.22728
1.23103
1.23483
1.23865
1.24246
1.24625
1.24998
1.25363
1.25717
1.26058
1.26382
1.26688
1.26973
1.27235
1.27471
1.2768
1.27859
1.28009
1.28126
1.2821
1.28261
1.28278
1.2826
1.28207
1.28119
1.27997
1.27842
1.27653
1.27433
1.27183
1.26903
1.26597
1.26266
1.25911
1.25537
1.25144
1.24737
1.24318
1.2389
1.23456
1.2302
1.22584
1.22151
1.21725
1.21307
1.209
1.20508
1.2013
1.19769
1.19426
1.19102
1.18796
1.1851
1.18243
1.17995
1.17764
1.1755
1.17351
1.17167
1.16997
1.16839
1.16692
1.16555
1.16428
1.16309
1.16199
1.16096
1.16
1.15912
1.1583
1.15754
1.15686
1.15624
1.15568
1.15519
1.15477
1.15441
1.15411
1.15388
1.1537
1.15357
1.15349
1.15345
1.15345
1.15348
1.15354
1.15361
1.15369
1.15377
1.15385
1.15392
1.15398
1.15402
1.15404
1.20817
1.20831
1.20858
1.20899
1.20953
1.21022
1.21104
1.21199
1.21309
1.21433
1.21571
1.21723
1.2189
1.22071
1.22266
1.22477
1.22702
1.22941
1.23195
1.23462
1.23743
1.24037
1.24344
1.24661
1.24989
1.25325
1.25668
1.26017
1.26369
1.26723
1.27076
1.27426
1.2777
1.28106
1.28432
1.28746
1.29044
1.29325
1.29586
1.29825
1.30041
1.30232
1.30396
1.30532
1.30638
1.30714
1.30759
1.30773
1.30754
1.30703
1.30621
1.30506
1.30361
1.30185
1.29981
1.29748
1.29489
1.29204
1.28897
1.28569
1.28222
1.27858
1.27481
1.27093
1.26696
1.26294
1.25888
1.25483
1.25079
1.24681
1.24291
1.2391
1.2354
1.23184
1.22842
1.22515
1.22205
1.21912
1.21636
1.21377
1.21135
1.20908
1.20697
1.205
1.20317
1.20146
1.19988
1.1984
1.19702
1.19574
1.19454
1.19343
1.19239
1.19142
1.19052
1.18969
1.18893
1.18824
1.1876
1.18703
1.18653
1.18609
1.1857
1.18538
1.18512
1.1849
1.18474
1.18462
1.18454
1.1845
1.18449
1.1845
1.18453
1.18457
1.18462
1.18466
1.18471
1.18475
1.18477
1.18479
1.24006
1.24019
1.24046
1.24085
1.24137
1.24203
1.24282
1.24374
1.2448
1.24599
1.24732
1.24878
1.25038
1.25211
1.25398
1.25599
1.25813
1.2604
1.26281
1.26534
1.268
1.27077
1.27365
1.27662
1.27969
1.28283
1.28603
1.28927
1.29254
1.29582
1.29909
1.30232
1.3055
1.3086
1.3116
1.31449
1.31723
1.3198
1.3222
1.3244
1.32637
1.32812
1.32961
1.33085
1.33181
1.33249
1.33289
1.33299
1.3328
1.33232
1.33153
1.33046
1.3291
1.32747
1.32556
1.3234
1.32099
1.31835
1.3155
1.31245
1.30923
1.30586
1.30236
1.29876
1.29508
1.29134
1.28757
1.28379
1.28003
1.27631
1.27265
1.26907
1.26559
1.26223
1.25899
1.25588
1.25292
1.25011
1.24745
1.24494
1.24258
1.24037
1.23829
1.23635
1.23454
1.23284
1.23126
1.22978
1.2284
1.22712
1.22591
1.22479
1.22374
1.22277
1.22186
1.22103
1.22025
1.21955
1.21891
1.21832
1.2178
1.21734
1.21694
1.21659
1.2163
1.21606
1.21586
1.21571
1.2156
1.21552
1.21547
1.21544
1.21544
1.21544
1.21546
1.21548
1.2155
1.21552
1.21554
1.21555
1.27182
1.27195
1.2722
1.27258
1.27308
1.27372
1.27447
1.27536
1.27638
1.27752
1.27879
1.28019
1.28172
1.28338
1.28516
1.28707
1.28911
1.29127
1.29355
1.29594
1.29844
1.30105
1.30376
1.30655
1.30942
1.31235
1.31533
1.31835
1.32139
1.32443
1.32745
1.33044
1.33338
1.33624
1.339
1.34166
1.34418
1.34654
1.34874
1.35075
1.35256
1.35416
1.35552
1.35664
1.35751
1.35813
1.35848
1.35855
1.35836
1.35789
1.35715
1.35615
1.35488
1.35335
1.35157