/*--------------------------------*- C++ -*----------------------------------*\
| =========                 |                                                 |
| \\      /  F ield         | OpenFOAM: The Open Source CFD Toolbox           |
|  \\    /   O peration     | Version:  2406                                  |
|   \\  /    A nd           | Website:  www.openfoam.com                      |
|    \\/     M anipulation  |                                                 |
\*---------------------------------------------------------------------------*/
FoamFile
{
    version     2.0;
    format      ascii;
    arch        "LSB;label=32;scalar=64";
    class       volScalarField;
    location    "7.15";
    object      C_0;
}
// * * * * * * * * * * * * * * * * * * * * * * * * * * * * * * * * * * * * * //

dimensions      [1 -3 0 0 0 0 0];

internalField   nonuniform List<scalar> 
14400
(
0.237658
0.236503
0.234496
0.23208
0.229707
0.227757
0.226513
0.226155
0.226751
0.228266
0.230552
0.233338
0.236226
0.238687
0.240105
0.2399
0.237807
0.234225
0.229848
0.225389
0.221472
0.218609
0.217217
0.217645
0.220197
0.225155
0.232795
0.243394
0.257246
0.274662
0.295976
0.321541
0.351715
0.386826
0.42709
0.472371
0.520991
0.558818
0.58387
0.604285
0.62191
0.637001
0.649756
0.66033
0.668841
0.67538
0.680014
0.682793
0.683746
0.682887
0.680217
0.675719
0.669361
0.661094
0.650849
0.638535
0.624035
0.607197
0.587828
0.565678
0.536797
0.494977
0.445954
0.400858
0.361003
0.326357
0.296611
0.271385
0.250295
0.232975
0.219089
0.208336
0.200445
0.195183
0.192349
0.191783
0.193365
0.197016
0.202687
0.210355
0.220001
0.231585
0.245016
0.260098
0.276422
0.293023
0.306755
0.313451
0.312494
0.304485
0.293066
0.281272
0.270093
0.260006
0.251259
0.243965
0.238132
0.233692
0.230514
0.228414
0.227175
0.226567
0.226385
0.226489
0.226842
0.227526
0.228728
0.230696
0.2337
0.238005
0.243844
0.251407
0.260831
0.272185
0.285455
0.300503
0.316969
0.333966
0.348641
0.3563
0.245242
0.243774
0.241298
0.238399
0.235607
0.233343
0.231902
0.231469
0.232114
0.233805
0.236397
0.23962
0.243066
0.246163
0.248165
0.248222
0.245732
0.241454
0.236351
0.231256
0.226828
0.223578
0.22191
0.222159
0.22462
0.229566
0.237265
0.247992
0.262036
0.279708
0.301341
0.327288
0.357905
0.393514
0.434285
0.479861
0.527761
0.563277
0.586988
0.607075
0.624444
0.639336
0.651938
0.662393
0.670813
0.677284
0.681871
0.684618
0.685556
0.684699
0.682045
0.677579
0.67127
0.663072
0.652917
0.640721
0.626372
0.609728
0.590608
0.568781
0.541669
0.501769
0.452647
0.407172
0.366849
0.331734
0.301554
0.27594
0.25451
0.236896
0.222762
0.211807
0.203762
0.198393
0.195504
0.194937
0.196577
0.200345
0.206197
0.214112
0.224072
0.236043
0.24994
0.265573
0.28254
0.299865
0.313774
0.319971
0.319752
0.312178
0.300398
0.288116
0.276485
0.266026
0.256996
0.24951
0.243576
0.239121
0.236004
0.23403
0.232953
0.232512
0.232456
0.232606
0.232909
0.233467
0.234507
0.236317
0.239205
0.243457
0.249321
0.256994
0.266616
0.278256
0.291901
0.30741
0.324424
0.342007
0.356297
0.362574
0.260935
0.258699
0.255165
0.25123
0.24757
0.244662
0.242823
0.242236
0.242977
0.245016
0.248215
0.252316
0.256907
0.261367
0.264746
0.265604
0.262022
0.256132
0.249483
0.24309
0.237638
0.233617
0.231399
0.231294
0.233573
0.238494
0.246311
0.257291
0.271719
0.289901
0.312168
0.338871
0.370362
0.406955
0.448791
0.495209
0.54004
0.570953
0.593163
0.612584
0.629453
0.643962
0.656267
0.666491
0.674734
0.681073
0.685565
0.688253
0.689163
0.688307
0.685685
0.681282
0.67507
0.667005
0.657028
0.645061
0.631005
0.614735
0.596095
0.574887
0.550262
0.514376
0.466033
0.419912
0.378643
0.342585
0.311538
0.28515
0.263041
0.244843
0.230219
0.218865
0.210515
0.204939
0.201945
0.201382
0.20314
0.207144
0.213357
0.22176
0.232343
0.245078
0.259886
0.276577
0.294706
0.313081
0.326664
0.332144
0.332761
0.327237
0.315071
0.301866
0.289361
0.278176
0.268594
0.260736
0.254609
0.250136
0.247164
0.245468
0.244756
0.244691
0.244926
0.245183
0.245367
0.245631
0.246299
0.247757
0.250383
0.254508
0.260407
0.26829
0.278298
0.2905
0.304871
0.321243
0.339166
0.357292
0.369727
0.374307
0.285776
0.281937
0.276512
0.270875
0.265853
0.261961
0.259517
0.258698
0.259576
0.262124
0.266217
0.271619
0.277949
0.284594
0.290482
0.293425
0.287265
0.278495
0.269388
0.261036
0.254068
0.24891
0.245882
0.245251
0.24726
0.252141
0.260134
0.271493
0.286495
0.30544
0.328651
0.356468
0.38922
0.427166
0.470285
0.517183
0.555449
0.58107
0.602116
0.620645
0.636823
0.650793
0.662675
0.67257
0.68056
0.686708
0.691065
0.693666
0.694535
0.693682
0.691106
0.686794
0.680721
0.67285
0.663128
0.651489
0.63785
0.622111
0.604151
0.583834
0.561023
0.530843
0.486605
0.43931
0.396555
0.359084
0.326748
0.299209
0.27609
0.257023
0.24167
0.229728
0.220933
0.215058
0.211919
0.211371
0.213311
0.217672
0.224422
0.233549
0.24505
0.258906
0.275045
0.293262
0.312986
0.332298
0.343939
0.348833
0.350078
0.347461
0.336795
0.322549
0.308863
0.296653
0.286277
0.277883
0.27149
0.267022
0.264314
0.263104
0.263034
0.263652
0.264434
0.2649
0.264844
0.26455
0.264541
0.265374
0.267535
0.271422
0.277343
0.285519
0.296088
0.309106
0.324518
0.342089
0.361109
0.378437
0.387036
0.390405
0.320886
0.314013
0.305645
0.297594
0.290721
0.285516
0.282271
0.281144
0.282195
0.285396
0.290634
0.297689
0.306224
0.315675
0.3247
0.32737
0.320751
0.308298
0.296043
0.285211
0.27632
0.269705
0.265629
0.264314
0.265967
0.270798
0.279027
0.290892
0.306658
0.326616
0.351076
0.38035
0.414708
0.45425
0.498354
0.541997
0.571906
0.593899
0.613586
0.631056
0.646401
0.659711
0.671071
0.680555
0.688226
0.694134
0.698319
0.700811
0.701629
0.700779
0.698263
0.694067
0.688172
0.680545
0.671145
0.659917
0.646797
0.631709
0.614565
0.595272
0.573728
0.548762
0.512372
0.46498
0.420661
0.381449
0.347453
0.318405
0.293951
0.273735
0.257421
0.244708
0.235333
0.229076
0.225759
0.225245
0.227437
0.232278
0.23974
0.249818
0.262517
0.277821
0.295657
0.315785
0.337375
0.355715
0.36446
0.369126
0.370922
0.370027
0.364012
0.349986
0.335147
0.321709
0.310332
0.301262
0.294548
0.290132
0.287851
0.287408
0.28837
0.290139
0.291906
0.29278
0.292245
0.290947
0.289795
0.289619
0.291041
0.294533
0.300436
0.308971
0.320254
0.334313
0.351008
0.3699
0.38946
0.401946
0.407234
0.40987
0.360727
0.353807
0.342294
0.331428
0.322353
0.315575
0.31137
0.309874
0.311128
0.315102
0.321676
0.330587
0.341423
0.353222
0.360926
0.361014
0.357284
0.344292
0.329184
0.315703
0.304626
0.296303
0.290974
0.288833
0.290059
0.294835
0.303362
0.315861
0.332584
0.353805
0.37981
0.410861
0.447116
0.488357
0.532555
0.565921
0.588811
0.609015
0.627273
0.643594
0.658013
0.670579
0.681343
0.690354
0.697655
0.703283
0.707268
0.709632
0.710388
0.709544
0.707098
0.70304
0.697354
0.690015
0.680989
0.670237
0.657712
0.643361
0.627129
0.608961
0.588814
0.566674
0.538659
0.496773
0.451146
0.409981
0.374008
0.343112
0.317007
0.295365
0.277859
0.264194
0.254109
0.247391
0.243867
0.24341
0.245929
0.251373
0.259721
0.270972
0.285128
0.302164
0.321961
0.344074
0.366711
0.380906
0.387824
0.392288
0.394456
0.394466
0.392431
0.383747
0.368335
0.353586
0.341048
0.331198
0.324121
0.319821
0.318172
0.318848
0.321348
0.324959
0.328457
0.330183
0.328643
0.325609
0.322631
0.32095
0.321286
0.324183
0.33001
0.338957
0.351075
0.36634
0.384382
0.40405
0.41898
0.425914
0.429914
0.431973
0.397183
0.39446
0.38498
0.372065
0.360792
0.352316
0.347061
0.345163
0.346647
0.351477
0.359513
0.370247
0.382699
0.393016
0.395436
0.39444
0.392591
0.385043
0.36859
0.352658
0.339276
0.329057
0.322308
0.319221
0.319961
0.324688
0.333582
0.346848
0.364717
0.387436
0.415255
0.448319
0.486521
0.528555
0.56366
0.587538
0.6076
0.626077
0.642898
0.658032
0.671478
0.683249
0.693368
0.701862
0.708756
0.714075
0.717837
0.720059
0.720749
0.719911
0.717544
0.713642
0.708189
0.70117
0.692559
0.682331
0.670453
0.656895
0.641627
0.624628
0.605892
0.585443
0.563206
0.53215
0.48778
0.444982
0.406835
0.373783
0.345718
0.322374
0.303447
0.288647
0.27772
0.27046
0.266704
0.266329
0.269252
0.275427
0.284833
0.29747
0.313324
0.332329
0.354252
0.378163
0.397966
0.407378
0.413504
0.417745
0.420148
0.420833
0.420008
0.417054
0.407513
0.392244
0.378575
0.367954
0.360479
0.356351
0.355565
0.357738
0.362287
0.368586
0.374697
0.378117
0.374604
0.369022
0.363374
0.359691
0.358558
0.360639
0.366332
0.375744
0.388722
0.405182
0.423786
0.439086
0.447033
0.451438
0.454536
0.456134
0.431247
0.431019
0.427776
0.418382
0.405815
0.39575
0.389487
0.38721
0.388929
0.394608
0.40414
0.416036
0.426474
0.430152
0.429679
0.428704
0.427118
0.424395
0.413691
0.396203
0.380578
0.36835
0.360059
0.355935
0.35615
0.360847
0.370183
0.384347
0.403541
0.427947
0.457765
0.492789
0.531773
0.566495
0.590562
0.609848
0.627975
0.644794
0.660208
0.67416
0.686618
0.69757
0.707018
0.714969
0.721433
0.726423
0.729948
0.732018
0.732637
0.731807
0.729527
0.725792
0.720592
0.713916
0.705748
0.696073
0.684875
0.672139
0.657857
0.642032
0.624683
0.605852
0.585614
0.563144
0.530275
0.48679
0.446383
0.410912
0.380596
0.355289
0.334715
0.318596
0.30669
0.298804
0.294784
0.294516
0.297922
0.304955
0.315592
0.32982
0.347581
0.368675
0.39244
0.415892
0.428658
0.435595
0.441068
0.445043
0.447555
0.448711
0.448687
0.447732
0.444749
0.436318
0.422508
0.411581
0.403667
0.399712
0.400023
0.403978
0.410555
0.419672
0.424922
0.426587
0.425193
0.420049
0.41149
0.405813
0.402876
0.403937
0.409464
0.419423
0.432951
0.449836
0.463145
0.470725
0.474881
0.478267
0.480657
0.481892
0.465539
0.465498
0.465485
0.462901
0.455916
0.445244
0.438459
0.435946
0.437842
0.443965
0.454437
0.462158
0.465406
0.464985
0.464419
0.463581
0.462382
0.460783
0.457051
0.445365
0.428605
0.414483
0.404637
0.399433
0.399121
0.403825
0.413679
0.428854
0.449524
0.475654
0.507425
0.543233
0.57519
0.598047
0.616049
0.633318
0.649657
0.664915
0.678982
0.691781
0.703263
0.713397
0.722166
0.729562
0.735585
0.740235
0.743515
0.745427
0.745973
0.745153
0.742966
0.739407
0.734471
0.728153
0.720444
0.711339
0.700834
0.688928
0.675631
0.660961
0.644955
0.627669
0.609186
0.589609
0.566991
0.534031
0.492741
0.454905
0.42215
0.394673
0.372248
0.354629
0.3416
0.332995
0.328676
0.328537
0.332504
0.34052
0.352546
0.368551
0.388387
0.411553
0.436199
0.451766
0.459217
0.465262
0.470129
0.473804
0.47632
0.477769
0.478297
0.478111
0.477479
0.475619
0.469809
0.46113
0.452896
0.449084
0.450594
0.456129
0.461742
0.465282
0.466499
0.466516
0.467231
0.466439
0.463375
0.458138
0.453425
0.453495
0.458787
0.469237
0.481571
0.491121
0.496855
0.500333
0.503497
0.506094
0.507934
0.508886
0.499872
0.499948
0.500162
0.500652
0.499934
0.496515
0.49225
0.489939
0.491809
0.496162
0.499887
0.501182
0.500469
0.499946
0.499433
0.498819
0.498048
0.497117
0.496087
0.49248
0.482293
0.467368
0.456288
0.45007
0.449309
0.454084
0.464506
0.480726
0.502962
0.530274
0.562775
0.589803
0.609924
0.626261
0.642267
0.657716
0.67242
0.686228
0.699023
0.71072
0.721256
0.730588
0.738685
0.74553
0.751109
0.755417
0.758449
0.760202
0.760675
0.759867
0.757775
0.754398
0.749734
0.74378
0.736537
0.728006
0.718192
0.707109
0.694776
0.681226
0.666506
0.650685
0.63385
0.616117
0.597632
0.57579
0.544531
0.505826
0.470758
0.441075
0.416659
0.397376
0.383072
0.37365
0.368991
0.368997
0.373594
0.382704
0.396226
0.414107
0.435953
0.460057
0.476741
0.484837
0.490912
0.496108
0.500383
0.503722
0.506153
0.507746
0.50862
0.508936
0.508901
0.508762
0.508577
0.506028
0.502829
0.500812
0.500939
0.502239
0.50306
0.502089
0.501565
0.501685
0.502463
0.503936
0.505702
0.505625
0.505388
0.506674
0.510712
0.516407
0.521811
0.524982
0.527605
0.530255
0.53268
0.534678
0.536097
0.536833
0.53413
0.534259
0.53456
0.535117
0.536045
0.537312
0.537029
0.536632
0.537173
0.537837
0.536881
0.535944
0.535327
0.534897
0.534547
0.534214
0.533874
0.533551
0.533325
0.53334
0.531445
0.525013
0.514426
0.507723
0.506829
0.511786
0.522741
0.539652
0.563149
0.588696
0.609808
0.625963
0.640358
0.654803
0.669043
0.682861
0.69608
0.708553
0.720163
0.73082
0.740454
0.749013
0.756458
0.762762
0.767905
0.771875
0.774661
0.776257
0.776659
0.775864
0.773871
0.770677
0.766285
0.760697
0.753917
0.745954
0.736821
0.72654
0.715139
0.70266
0.68916
0.674712
0.659412
0.643378
0.626754
0.609718
0.589846
0.562058
0.526246
0.494883
0.468504
0.447452
0.43172
0.421388
0.416345
0.416492
0.421771
0.432055
0.447
0.466542
0.489109
0.504876
0.512888
0.518458
0.523486
0.527877
0.531571
0.534549
0.536823
0.538444
0.5395
0.540112
0.540427
0.540611
0.540827
0.54124
0.541537
0.541075
0.54003
0.538432
0.53708
0.536275
0.535973
0.536198
0.53697
0.538312
0.540238
0.542889
0.54585
0.548336
0.550808
0.552698
0.554299
0.556238
0.558328
0.560402
0.562289
0.563841
0.564944
0.565515
0.568257
0.568399
0.568705
0.569209
0.569943
0.570879
0.571886
0.57254
0.572336
0.571636
0.570946
0.570384
0.57
0.569766
0.569645
0.569615
0.569682
0.569887
0.570321
0.571128
0.572524
0.573593
0.572005
0.570099
0.570156
0.57545
0.58667
0.602177
0.618551
0.633525
0.645693
0.658031
0.67074
0.683552
0.696239
0.708605
0.720484
0.73174
0.742257
0.751944
0.760728
0.768551
0.775372
0.781155
0.785876
0.789516
0.792063
0.793506
0.79384
0.79306
0.791165
0.788155
0.784033
0.778805
0.77248
0.765071
0.756599
0.74709
0.736579
0.725116
0.712761
0.699593
0.685709
0.671226
0.65629
0.641068
0.625765
0.608951
0.5858
0.55558
0.527948
0.505278
0.487989
0.476728
0.471274
0.471502
0.477434
0.488918
0.50454
0.524162
0.536988
0.543619
0.54821
0.55262
0.556699
0.56034
0.563477
0.566079
0.568145
0.569707
0.570826
0.571584
0.572084
0.572429
0.572708
0.572958
0.573058
0.572809
0.572109
0.571216
0.570434
0.569958
0.569854
0.570163
0.570909
0.572103
0.573742
0.575803
0.578105
0.580391
0.582317
0.584017
0.585644
0.587341
0.589069
0.590735
0.592232
0.593455
0.594321
0.59477
0.602242
0.602376
0.60265
0.603073
0.603638
0.604297
0.604936
0.605359
0.605401
0.605173
0.604884
0.604647
0.604521
0.604522
0.604653
0.604921
0.605351
0.605996
0.606944
0.608324
0.610316
0.613154
0.617135
0.62052
0.624365
0.6306
0.639392
0.649415
0.658831
0.668378
0.678772
0.689729
0.701019
0.712427
0.723756
0.734835
0.745514
0.755665
0.76518
0.77397
0.781961
0.789094
0.795322
0.800609
0.804926
0.808251
0.810568
0.811865
0.812134
0.811371
0.809574
0.806745
0.802887
0.79801
0.792127
0.785253
0.777414
0.76864
0.758973
0.748463
0.737176
0.72519
0.712603
0.69953
0.686109
0.6725
0.658894
0.645509
0.632088
0.61432
0.59297
0.570173
0.551622
0.539778
0.533952
0.534013
0.540104
0.552417
0.564553
0.573037
0.577066
0.580298
0.583714
0.587114
0.590348
0.593307
0.595919
0.598144
0.599971
0.601414
0.602511
0.603316
0.603895
0.604313
0.604619
0.604825
0.604885
0.604732
0.60436
0.603889
0.603481
0.603267
0.603323
0.603692
0.604399
0.605448
0.606824
0.608476
0.610293
0.612122
0.613825
0.615407
0.616921
0.618414
0.619871
0.621239
0.622447
0.623427
0.624116
0.624472
0.636094
0.636212
0.636447
0.636796
0.637238
0.637733
0.638204
0.638558
0.638735
0.638773
0.638769
0.638798
0.638914
0.639149
0.639524
0.640063
0.640804
0.641801
0.643134
0.64491
0.647261
0.650342
0.654297
0.659165
0.664949
0.671217
0.677878
0.685128
0.693194
0.701934
0.711286
0.721093
0.731182
0.741379
0.751523
0.761465
0.771071
0.780226
0.788829
0.796794
0.804051
0.810541
0.816215
0.821034
0.824969
0.827994
0.830093
0.831252
0.831461
0.830716
0.829016
0.826362
0.822761
0.818223
0.812763
0.8064
0.799163
0.791085
0.782208
0.772588
0.762288
0.751389
0.739983
0.728182
0.716115
0.703931
0.691802
0.679924
0.668515
0.657841
0.645962
0.632534
0.619326
0.608608
0.60261
0.601793
0.604594
0.608658
0.612004
0.612989
0.614633
0.616793
0.619235
0.621775
0.624272
0.626621
0.628748
0.630608
0.632181
0.633467
0.634487
0.635273
0.635868
0.63631
0.636629
0.636837
0.636924
0.636875
0.63671
0.636498
0.636336
0.636308
0.636477
0.636883
0.637546
0.638467
0.639628
0.640986
0.642466
0.643981
0.645454
0.646865
0.648219
0.649523
0.650762
0.651901
0.652892
0.653688
0.654244
0.654531
0.669827
0.66993
0.670132
0.670424
0.670787
0.671191
0.67159
0.671936
0.672206
0.672417
0.672619
0.672862
0.67319
0.673636
0.67423
0.675005
0.676001
0.67727
0.678882
0.680919
0.683478
0.686657
0.690534
0.695135
0.700423
0.706255
0.712575
0.719432
0.726882
0.734877
0.743346
0.752176
0.761235
0.770386
0.779493
0.78843
0.79708
0.805339
0.813115
0.820327
0.82691
0.832803
0.837961
0.842344
0.84592
0.848665
0.850558
0.851587
0.851742
0.851017
0.849411
0.846927
0.843572
0.839357
0.834301
0.828423
0.821753
0.814327
0.806188
0.797391
0.788001
0.778093
0.767758
0.7571
0.746237
0.735306
0.72446
0.713869
0.703718
0.694213
0.685551
0.678001
0.670586
0.663491
0.658217
0.655277
0.653691
0.651816
0.650827
0.650883
0.651684
0.653006
0.654657
0.656478
0.658344
0.660156
0.661844
0.66336
0.664676
0.665786
0.666696
0.667423
0.667992
0.668428
0.668751
0.668972
0.669098
0.669134
0.669105
0.669059
0.669055
0.669152
0.669395
0.669818
0.670434
0.671246
0.672237
0.673373
0.674606
0.67588
0.677147
0.678379
0.679566
0.680696
0.681754
0.682711
0.683533
0.684188
0.684643
0.684876
0.703459
0.703549
0.703725
0.70398
0.704297
0.704655
0.705027
0.70539
0.705734
0.706071
0.706429
0.706842
0.707347
0.707974
0.708756
0.709726
0.710924
0.712398
0.714203
0.716406
0.719074
0.722273
0.726048
0.730416
0.735355
0.740806
0.746735
0.753142
0.760025
0.767347
0.775044
0.783029
0.791196
0.799435
0.807633
0.815682
0.82348
0.830935
0.837963
0.844492
0.850456
0.855802
0.860483
0.86446
0.867703
0.870186
0.871889
0.872797
0.872902
0.872198
0.870683
0.868362
0.865242
0.861335
0.856659
0.851237
0.845099
0.838281
0.830826
0.822789
0.814231
0.805226
0.795857
0.786221
0.776427
0.766597
0.756864
0.747373
0.738278
0.729736
0.721898
0.714892
0.708725
0.703474
0.69893
0.695021
0.691928
0.689777
0.688499
0.688031
0.688215
0.688891
0.689909
0.691138
0.692469
0.693816
0.695112
0.69631
0.697379
0.698306
0.699088
0.699732
0.70025
0.700659
0.700973
0.701204
0.701361
0.701458
0.701519
0.701577
0.701673
0.701848
0.702135
0.702558
0.703128
0.703846
0.704699
0.705664
0.706705
0.707787
0.708873
0.70994
0.710968
0.711943
0.712846
0.713655
0.714343
0.714886
0.715262
0.715455
0.737
0.737081
0.737241
0.737473
0.737765
0.738104
0.738474
0.738864
0.739271
0.739704
0.740182
0.740731
0.74138
0.742158
0.743093
0.744219
0.745572
0.747193
0.749128
0.751428
0.754141
0.757311
0.76097
0.765128
0.769773
0.774878
0.780417
0.786375
0.792729
0.799441
0.806456
0.813699
0.821087
0.828526
0.835923
0.843185
0.850224
0.856958
0.863312
0.869219
0.874621
0.879465
0.883708
0.887312
0.890246
0.892486
0.894013
0.894811
0.894872
0.894189
0.892763
0.890596
0.887698
0.884081
0.879764
0.874769
0.869126
0.862871
0.856048
0.848707
0.840908
0.832721
0.824222
0.815501
0.806654
0.797791
0.789025
0.780481
0.772283
0.764557
0.757412
0.750938
0.745173
0.740138
0.73578
0.73208
0.729095
0.726865
0.725362
0.724526
0.724255
0.724434
0.724949
0.725694
0.726579
0.727527
0.728478
0.729388
0.730225
0.730971
0.731617
0.732164
0.732618
0.732986
0.73328
0.733508
0.733683
0.733819
0.733935
0.734057
0.734213
0.734432
0.734739
0.73515
0.735674
0.736311
0.737051
0.737877
0.738765
0.739688
0.74062
0.741538
0.742425
0.743262
0.744033
0.744718
0.745298
0.745753
0.746066
0.746226
0.770459
0.770536
0.770686
0.770905
0.771187
0.771521
0.771901
0.772321
0.772781
0.773291
0.773864
0.774521
0.775286
0.776183
0.77724
0.778486
0.779952
0.781674
0.783689
0.786035
0.788749
0.791861
0.795393
0.799352
0.803731
0.808515
0.813682
0.819211
0.825074
0.831234
0.837638
0.844226
0.850925
0.857659
0.864347
0.87091
0.877272
0.88336
0.889107
0.894453
0.899343
0.90373
0.907571
0.910832
0.913483
0.915501
0.916865
0.917563
0.917584
0.916924
0.915582
0.913563
0.910874
0.907529
0.903546
0.898948
0.893764
0.888029
0.881786
0.875083
0.867975
0.860527
0.852811
0.844905
0.836899
0.828886
0.820966
0.813242
0.805818
0.798794
0.792257
0.786276
0.780892
0.776125
0.77197
0.768425
0.765508
0.763227
0.761558
0.760455
0.759844
0.759642
0.759759
0.760112
0.760625
0.761235
0.761886
0.762539
0.763162
0.763735
0.764246
0.764691
0.76507
0.765388
0.765651
0.765866
0.766045
0.766199
0.766345
0.766502
0.76669
0.76693
0.767239
0.767629
0.768107
0.768672
0.769317
0.770029
0.77079
0.77158
0.772379
0.773168
0.77393
0.774648
0.775306
0.775888
0.776377
0.77676
0.777023
0.777157
0.803842
0.803916
0.804061
0.804276
0.804555
0.804894
0.805288
0.805737
0.806243
0.806814
0.807461
0.808203
0.809058
0.810049
0.811198
0.812531
0.814076
0.815862
0.817919
0.820275
0.822959
0.825992
0.829389
0.833155
0.837286
0.841768
0.846585
0.851713
0.857124
0.86278
0.868637
0.874641
0.880729
0.886837
0.892896
0.898837
0.904594
0.910103
0.915304
0.920143
0.924569
0.928539
0.932015
0.934963
0.937355
0.939168
0.940384
0.94099
0.940977
0.94034
0.939079
0.937198
0.934705
0.931614
0.927942
0.923712
0.918953
0.913697
0.907985
0.901863
0.895382
0.888602
0.881587
0.874411
0.86715
0.859888
0.852709
0.845702
0.838954
0.832544
0.826546
0.821015
0.815993
0.811501
0.807549
0.804142
0.801285
0.798975
0.79719
0.795892
0.795026
0.794529
0.794332
0.794368
0.794576
0.7949
0.795293
0.795719
0.796149
0.79656
0.796941
0.797284
0.797584
0.797845
0.798068
0.798261
0.798431
0.798588
0.798745
0.798915
0.799115
0.799358
0.799657
0.80002
0.800453
0.800953
0.801516
0.802131
0.802786
0.803464
0.804149
0.804826
0.805479
0.806093
0.806654
0.807149
0.807564
0.807887
0.808109
0.808221
0.837151
0.837224
0.837368
0.837582
0.837864
0.83821
0.838621
0.839096
0.83964
0.840259
0.840965
0.841772
0.842696
0.843755
0.844971
0.846365
0.84796
0.84978
0.851848
0.854188
0.85682
0.859759
0.863016
0.866594
0.870488
0.874688
0.879177
0.883932
0.888927
0.894127
0.899491
0.904971
0.910514
0.916065
0.921563
0.926949
0.932165
0.937154
0.941863
0.946244
0.950251
0.953844
0.956987
0.959649
0.961805
0.963432
0.964514
0.965037
0.964994
0.964381
0.963196
0.961445
0.959135
0.95628
0.952896
0.949007
0.944638
0.939821
0.934595
0.929001
0.923088
0.91691
0.910526
0.904001
0.897404
0.890805
0.884281
0.877905
0.87175
0.865884
0.860367
0.855248
0.850562
0.846336
0.842582
0.839309
0.836516
0.834197
0.832334
0.830896
0.82984
0.829116
0.828672
0.828454
0.82841
0.828495
0.828668
0.828896
0.829153
0.829417
0.829675
0.829917
0.830139
0.830338
0.830517
0.830679
0.83083
0.830977
0.83113
0.8313
0.831496
0.83173
0.832011
0.832343
0.83273
0.833172
0.833662
0.834195
0.834758
0.83534
0.835927
0.836507
0.837066
0.837591
0.83807
0.838491
0.838843
0.839116
0.839303
0.839398
0.870388
0.87046
0.870605
0.870821
0.871107
0.871463
0.871889
0.872387
0.872961
0.873618
0.874369
0.875224
0.876197
0.877306
0.878567
0.879998
0.881619
0.883449
0.885506
0.887809
0.890373
0.893208
0.896322
0.899716
0.903385
0.907318
0.911501
0.915912
0.920525
0.925309
0.930227
0.935237
0.940293
0.945344
0.950341
0.95523
0.959961
0.964484
0.968752
0.972719
0.976347
0.979598
0.982439
0.984842
0.986783
0.988241
0.989201
0.989651
0.989582
0.988992
0.98788
0.98625
0.984111
0.981474
0.978357
0.97478
0.97077
0.966355
0.961571
0.956458
0.951059
0.945424
0.939607
0.933664
0.927657
0.921649
0.915704
0.909886
0.904257
0.898875
0.89379
0.889045
0.884674
0.880699
0.877137
0.873994
0.871272
0.868964
0.867054
0.865517
0.86432
0.863424
0.862787
0.862364
0.862116
0.862002
0.861988
0.862045
0.862149
0.86228
0.862424
0.862571
0.862715
0.862852
0.862983
0.863108
0.863232
0.863361
0.8635
0.863657
0.86384
0.864057
0.864312
0.864611
0.864954
0.865341
0.865767
0.866227
0.866711
0.86721
0.867714
0.868209
0.868687
0.869135
0.869543
0.869901
0.8702
0.870432
0.87059
0.87067
0.903552
0.903625
0.903771
0.903989
0.904281
0.904646
0.905085
0.905601
0.906199
0.906884
0.907667
0.908556
0.909564
0.910705
0.911992
0.913441
0.915069
0.91689
0.918919
0.92117
0.923654
0.926379
0.929348
0.932563
0.936017
0.9397
0.943597
0.94769
0.951953
0.956358
0.960872
0.965458
0.970075
0.974679
0.979226
0.98367
0.987966
0.99207
0.995939
0.999535
1.00282
1.00576
1.00833
1.0105
1.01224
1.01355
1.0144
1.01478
1.01469
1.01413
1.01308
1.01156
1.00958
1.00715
1.00428
1.00099
0.997306
0.993258
0.988877
0.9842
0.979266
0.974121
0.968813
0.963392
0.957912
0.95243
0.947
0.941679
0.936518
0.931568
0.926873
0.922469
0.918388
0.91465
0.911271
0.908259
0.905615
0.903333
0.901401
0.899799
0.8985
0.897474
0.896686
0.896101
0.895686
0.895408
0.895237
0.895148
0.895118
0.89513
0.895171
0.895229
0.895298
0.895373
0.895453
0.895538
0.895631
0.895733
0.895851
0.895988
0.896151
0.896344
0.896571
0.896834
0.897134
0.897471
0.897839
0.898234
0.89865
0.899077
0.899507
0.89993
0.900337
0.900719
0.901066
0.901371
0.901624
0.901821
0.901955
0.902023
0.936642
0.936716
0.936864
0.937085
0.937382
0.937754
0.938203
0.938733
0.939348
0.940054
0.940859
0.94177
0.942799
0.943956
0.945255
0.946707
0.948325
0.950122
0.95211
0.954297
0.956694
0.959304
0.96213
0.965171
0.968419
0.971867
0.975498
0.979296
0.983238
0.987298
0.991446
0.995648
0.99987
1.00407
1.00821
1.01226
1.01616
1.01989
1.0234
1.02666
1.02964
1.0323
1.03462
1.03657
1.03814
1.03931
1.04006
1.04039
1.04028
1.03974
1.03876
1.03734
1.03551
1.03326
1.03062
1.02759
1.02421
1.02049
1.01648
1.0122
1.00769
1.00298
0.99813
0.993178
0.98817
0.983158
0.978188
0.97331
0.968568
0.964007
0.959664
0.955572
0.951758
0.948242
0.945038
0.942155
0.939595
0.937353
0.935419
0.933777
0.932407
0.931284
0.930381
0.929669
0.92912
0.928707
0.928405
0.92819
0.928045
0.927952
0.927899
0.927875
0.927873
0.927889
0.927919
0.927961
0.928018
0.928091
0.928182
0.928294
0.928432
0.928597
0.928793
0.92902
0.929279
0.929568
0.929884
0.930222
0.930577
0.930941
0.931307
0.931667
0.932013
0.932338
0.932633
0.932891
0.933106
0.933272
0.933385
0.933443
0.969659
0.969733
0.969882
0.970107
0.970407
0.970784
0.971241
0.971781
0.972407
0.973126
0.973943
0.974866
0.975904
0.977067
0.978364
0.979806
0.981403
0.983164
0.9851
0.987216
0.98952
0.992014
0.994698
0.99757
1.00062
1.00385
1.00723
1.01076
1.01441
1.01815
1.02196
1.02582
1.02968
1.03352
1.0373
1.04099
1.04454
1.04793
1.05111
1.05407
1.05677
1.05918
1.06127
1.06304
1.06445
1.06549
1.06615
1.06643
1.0663
1.06578
1.06486
1.06355
1.06185
1.05977
1.05733
1.05455
1.05144
1.04803
1.04435
1.04043
1.03629
1.03199
1.02755
1.02302
1.01843
1.01384
1.00928
1.0048
1.00044
0.996228
0.992204
0.988397
0.984829
0.981521
0.978485
0.975729
0.973256
0.971064
0.969144
0.967484
0.966068
0.964876
0.963885
0.963074
0.962418
0.961895
0.961484
0.961164
0.960919
0.960735
0.960598
0.9605
0.960432
0.960391
0.960371
0.960371
0.960391
0.96043
0.960491
0.960575
0.960684
0.96082
0.960983
0.961174
0.961394
0.961639
0.961906
0.962193
0.962494
0.962802
0.963113
0.963418
0.963711
0.963986
0.964236
0.964454
0.964636
0.964776
0.964872
0.964921
1.0026
1.00268
1.00283
1.00305
1.00335
1.00374
1.0042
1.00474
1.00537
1.0061
1.00692
1.00785
1.00889
1.01004
1.01133
1.01275
1.01432
1.01603
1.01791
1.01995
1.02216
1.02453
1.02708
1.02979
1.03266
1.03567
1.03883
1.0421
1.04548
1.04893
1.05244
1.05598
1.05952
1.06303
1.06648
1.06984
1.07308
1.07616
1.07906
1.08174
1.08419
1.08637
1.08826
1.08985
1.09112
1.09205
1.09263
1.09286
1.09272
1.09222
1.09136
1.09014
1.08856
1.08664
1.08439
1.08183
1.07897
1.07584
1.07246
1.06886
1.06508
1.06113
1.05706
1.05291
1.04871
1.04449
1.0403
1.03618
1.03216
1.02826
1.02453
1.02098
1.01764
1.01453
1.01165
1.00902
1.00664
1.0045
1.00261
1.00095
0.999504
0.998265
0.997211
0.996324
0.995584
0.994972
0.994471
0.994063
0.993733
0.993469
0.993259
0.993093
0.992966
0.99287
0.992803
0.992761
0.992743
0.992748
0.992778
0.992831
0.99291
0.993014
0.993145
0.993301
0.993482
0.993686
0.99391
0.994151
0.994403
0.994663
0.994924
0.995181
0.995428
0.995659
0.99587
0.996054
0.996207
0.996325
0.996406
0.996447
1.03547
1.03554
1.03569
1.03592
1.03622
1.03661
1.03707
1.03762
1.03825
1.03897
1.03979
1.04072
1.04175
1.04289
1.04416
1.04555
1.04708
1.04874
1.05055
1.05251
1.05462
1.05688
1.05929
1.06185
1.06454
1.06736
1.0703
1.07334
1.07647
1.07966
1.08289
1.08614
1.08939
1.09261
1.09576
1.09883
1.10177
1.10458
1.10721
1.10965
1.11187
1.11384
1.11556
1.11699
1.11813
1.11896
1.11947
1.11965
1.11951
1.11903
1.11822
1.11708
1.11562
1.11385
1.11177
1.10941
1.10678
1.1039
1.1008
1.09749
1.09402
1.0904
1.08666
1.08285
1.07899
1.07512
1.07126
1.06746
1.06374
1.06013
1.05667
1.05336
1.05023
1.0473
1.04457
1.04206
1.03977
1.0377
1.03584
1.03419
1.03274
1.03147
1.03037
1.02943
1.02862
1.02794
1.02736
1.02688
1.02648
1.02615
1.02587
1.02565
1.02547
1.02532
1.02521
1.02513
1.02507
1.02504
1.02504
1.02506
1.02511
1.02518
1.02528
1.0254
1.02555
1.02571
1.0259
1.0261
1.02631
1.02652
1.02674
1.02695
1.02716
1.02735
1.02753
1.02768
1.02781
1.02791
1.02798
1.02801
1.06826
1.06834
1.06849
1.06871
1.06901
1.0694
1.06986
1.0704
1.07103
1.07175
1.07257
1.07348
1.07449
1.07562
1.07686
1.07822
1.0797
1.08131
1.08305
1.08493
1.08694
1.08908
1.09136
1.09377
1.09629
1.09893
1.10167
1.10449
1.10739
1.11034
1.11332
1.11631
1.11929
1.12224
1.12512
1.12792
1.13061
1.13317
1.13557
1.13778
1.13979
1.14158
1.14313
1.14442
1.14544
1.14618
1.14663
1.14678
1.14663
1.14617
1.14541
1.14435
1.14299
1.14135
1.13943
1.13725
1.13483
1.13218
1.12933
1.12629
1.1231
1.11977
1.11634
1.11284
1.10928
1.10572
1.10217
1.09866
1.09521
1.09187
1.08864
1.08555
1.08262
1.07986
1.07728
1.07489
1.07269
1.07068
1.06887
1.06724
1.06579
1.0645
1.06337
1.06239
1.06153
1.0608
1.06016
1.05962
1.05916
1.05877
1.05844
1.05816
1.05793
1.05774
1.05759
1.05746
1.05737
1.05731
1.05728
1.05727
1.05728
1.05733
1.05739
1.05748
1.05759
1.05772
1.05787
1.05803
1.0582
1.05838
1.05856
1.05873
1.05891
1.05907
1.05921
1.05934
1.05945
1.05953
1.05959
1.05961
1.10098
1.10105
1.1012
1.10143
1.10173
1.10211
1.10256
1.1031
1.10373
1.10444
1.10524
1.10614
1.10713
1.10823
1.10944
1.11076
1.11219
1.11374
1.11541
1.11721
1.11912
1.12115
1.12331
1.12557
1.12794
1.1304
1.13295
1.13558
1.13826
1.14099
1.14374
1.14649
1.14923
1.15193
1.15457
1.15713
1.15959
1.16192
1.1641
1.16611
1.16794
1.16956
1.17096
1.17213
1.17304
1.1737
1.17409
1.17421
1.17405
1.17361
1.1729
1.17191
1.17065
1.16913
1.16735
1.16535
1.16311
1.16067
1.15805
1.15525
1.15231
1.14925
1.1461
1.14287
1.1396
1.13631
1.13303
1.12978
1.12659
1.12349
1.12048
1.11759
1.11484
1.11224
1.1098
1.10752
1.10541
1.10347
1.10171
1.10011
1.09867
1.09738
1.09623
1.09522
1.09433
1.09355
1.09287