/*--------------------------------*- C++ -*----------------------------------*\
| =========                 |                                                 |
| \\      /  F ield         | OpenFOAM: The Open Source CFD Toolbox           |
|  \\    /   O peration     | Version:  2406                                  |
|   \\  /    A nd           | Website:  www.openfoam.com                      |
|    \\/     M anipulation  |                                                 |
\*---------------------------------------------------------------------------*/
FoamFile
{
    version     2.0;
    format      ascii;
    arch        "LSB;label=32;scalar=64";
    class       volScalarField;
    location    "7.15";
    object      D;
}
// * * * * * * * * * * * * * * * * * * * * * * * * * * * * * * * * * * * * * //

dimensions      [0 2 -1 0 0 0 0];

internalField   nonuniform List<scalar> 
14400
(
6.70771e-05
6.69874e-05
6.68484e-05
6.67024e-05
6.6576e-05
6.64805e-05
6.64192e-05
6.63933e-05
6.64054e-05
6.64612e-05
6.65683e-05
6.6732e-05
6.69457e-05
6.7172e-05
6.73209e-05
6.72593e-05
6.69163e-05
6.64077e-05
6.58504e-05
6.52979e-05
6.47603e-05
6.42319e-05
6.37062e-05
6.31832e-05
6.26692e-05
6.21755e-05
6.17155e-05
6.13025e-05
6.09493e-05
6.06685e-05
6.0475e-05
6.039e-05
6.04499e-05
6.07265e-05
6.13904e-05
6.29905e-05
6.86228e-05
0.000121204
0.00013824
0.00013824
0.00013824
0.00013824
0.00013824
0.00013824
0.00013824
0.00013824
0.00013824
0.00013824
0.00013824
0.00013824
0.00013824
0.00013824
0.00013824
0.00013824
0.00013824
0.00013824
0.00013824
0.00013824
0.00013824
0.000138238
0.000103214
6.76668e-05
6.30105e-05
6.16902e-05
6.12105e-05
6.11037e-05
6.12248e-05
6.1515e-05
6.1947e-05
6.25038e-05
6.31686e-05
6.39164e-05
6.4708e-05
6.54877e-05
6.61896e-05
6.67504e-05
6.71267e-05
6.73068e-05
6.7314e-05
6.72022e-05
6.70476e-05
6.69446e-05
6.70157e-05
6.74602e-05
6.87581e-05
7.29142e-05
9.54034e-05
0.00013817
0.000109185
7.35749e-05
6.81241e-05
6.63355e-05
6.55263e-05
6.5145e-05
6.49996e-05
6.49995e-05
6.50921e-05
6.52417e-05
6.54203e-05
6.56031e-05
6.57657e-05
6.58834e-05
6.59325e-05
6.58957e-05
6.57685e-05
6.55608e-05
6.52938e-05
6.49926e-05
6.46823e-05
6.43865e-05
6.41283e-05
6.39325e-05
6.38292e-05
6.38617e-05
6.4103e-05
6.47039e-05
6.60685e-05
6.98501e-05
8.77531e-05
0.000138033
6.69779e-05
6.6832e-05
6.66212e-05
6.64127e-05
6.62399e-05
6.61137e-05
6.60354e-05
6.60045e-05
6.60231e-05
6.60973e-05
6.62371e-05
6.64533e-05
6.67482e-05
6.70939e-05
6.73881e-05
6.74157e-05
6.69736e-05
6.63368e-05
6.56881e-05
6.50845e-05
6.45256e-05
6.39962e-05
6.34832e-05
6.29816e-05
6.24938e-05
6.20283e-05
6.15963e-05
6.121e-05
6.08819e-05
6.06251e-05
6.04556e-05
6.03973e-05
6.04919e-05
6.08235e-05
6.15984e-05
6.34893e-05
7.00656e-05
0.000131386
0.00013824
0.00013824
0.00013824
0.00013824
0.00013824
0.00013824
0.00013824
0.00013824
0.00013824
0.00013824
0.00013824
0.00013824
0.00013824
0.00013824
0.00013824
0.00013824
0.00013824
0.00013824
0.00013824
0.00013824
0.00013824
0.00013824
0.000114692
6.85222e-05
6.32642e-05
6.18044e-05
6.1259e-05
6.11095e-05
6.11959e-05
6.14529e-05
6.18488e-05
6.23641e-05
6.29802e-05
6.36718e-05
6.44017e-05
6.51195e-05
6.57663e-05
6.62867e-05
6.66429e-05
6.68252e-05
6.68554e-05
6.67834e-05
6.66805e-05
6.66376e-05
6.67767e-05
6.7306e-05
6.87556e-05
7.35851e-05
0.000104737
0.000138232
0.000122334
7.47689e-05
6.84184e-05
6.63803e-05
6.54567e-05
6.50078e-05
6.48154e-05
6.47794e-05
6.48437e-05
6.49721e-05
6.51374e-05
6.53156e-05
6.54822e-05
6.56101e-05
6.5671e-05
6.56419e-05
6.55156e-05
6.53055e-05
6.50382e-05
6.47428e-05
6.44455e-05
6.41695e-05
6.39365e-05
6.37704e-05
6.37015e-05
6.37747e-05
6.40697e-05
6.47572e-05
6.6327e-05
7.11341e-05
0.000102306
0.000138232
6.69789e-05
6.66738e-05
6.62909e-05
6.59497e-05
6.56863e-05
6.55032e-05
6.53939e-05
6.53537e-05
6.53829e-05
6.54889e-05
6.56867e-05
6.59992e-05
6.6454e-05
6.70657e-05
6.77632e-05
6.81599e-05
6.73096e-05
6.63059e-05
6.5441e-05
6.47276e-05
6.41235e-05
6.35884e-05
6.30946e-05
6.26278e-05
6.2184e-05
6.17667e-05
6.13837e-05
6.10451e-05
6.07628e-05
6.05508e-05
6.04275e-05
6.04222e-05
6.0588e-05
6.10414e-05
6.2112e-05
6.52835e-05
8.34331e-05
0.000138117
0.00013824
0.00013824
0.00013824
0.00013824
0.00013824
0.00013824
0.00013824
0.00013824
0.00013824
0.00013824
0.00013824
0.00013824
0.00013824
0.00013824
0.00013824
0.00013824
0.00013824
0.00013824
0.00013824
0.00013824
0.00013824
0.00013824
0.000131613
7.06548e-05
6.39657e-05
6.20931e-05
6.13794e-05
6.11346e-05
6.11502e-05
6.13428e-05
6.16718e-05
6.2112e-05
6.26419e-05
6.3236e-05
6.38607e-05
6.44736e-05
6.50278e-05
6.54802e-05
6.58021e-05
6.59877e-05
6.60567e-05
6.60529e-05
6.60405e-05
6.61056e-05
6.63735e-05
6.70754e-05
6.88374e-05
7.4769e-05
0.00012055
0.00013824
0.000136667
7.97052e-05
6.94396e-05
6.65912e-05
6.53852e-05
6.47941e-05
6.45118e-05
6.44108e-05
6.44262e-05
6.45198e-05
6.46651e-05
6.48397e-05
6.50192e-05
6.51726e-05
6.52615e-05
6.52482e-05
6.51193e-05
6.48964e-05
6.46202e-05
6.43281e-05
6.40488e-05
6.38039e-05
6.36132e-05
6.34994e-05
6.34936e-05
6.36466e-05
6.40538e-05
6.49357e-05
6.69711e-05
7.35473e-05
0.000125263
0.00013824
6.76145e-05
6.68207e-05
6.60626e-05
6.54888e-05
6.50866e-05
6.48227e-05
6.46712e-05
6.46177e-05
6.46598e-05
6.48064e-05
6.50812e-05
6.55297e-05
6.62343e-05
6.73504e-05
6.91795e-05
7.20376e-05
6.85893e-05
6.6538e-05
6.52368e-05
6.43353e-05
6.3656e-05
6.31038e-05
6.26265e-05
6.21968e-05
6.18029e-05
6.14424e-05
6.1119e-05
6.08407e-05
6.06186e-05
6.0468e-05
6.04115e-05
6.04864e-05
6.07655e-05
6.14208e-05
6.30043e-05
6.85158e-05
0.000117886
0.00013824
0.00013824
0.00013824
0.00013824
0.00013824
0.00013824
0.00013824
0.00013824
0.00013824
0.00013824
0.00013824
0.00013824
0.00013824
0.00013824
0.00013824
0.00013824
0.00013824
0.00013824
0.00013824
0.00013824
0.00013824
0.00013824
0.00013824
0.00013821
9.04748e-05
6.62864e-05
6.27157e-05
6.1618e-05
6.12039e-05
6.11094e-05
6.12097e-05
6.1448e-05
6.17913e-05
6.22141e-05
6.26908e-05
6.3192e-05
6.36843e-05
6.41331e-05
6.45082e-05
6.47912e-05
6.49804e-05
6.50944e-05
6.51715e-05
6.52701e-05
6.54758e-05
6.59288e-05
6.69286e-05
6.94099e-05
7.82015e-05
0.000135667
0.00013824
0.000138239
0.000113072
7.27237e-05
6.72282e-05
6.54363e-05
6.46078e-05
6.41929e-05
6.40044e-05
6.39589e-05
6.40129e-05
6.41404e-05
6.4321e-05
6.45319e-05
6.47381e-05
6.48844e-05
6.49001e-05
6.47539e-05
6.44901e-05
6.41799e-05
6.38753e-05
6.36064e-05
6.33926e-05
6.32511e-05
6.32037e-05
6.32854e-05
6.356e-05
6.41614e-05
6.54543e-05
6.9036e-05
8.8525e-05
0.000138129
0.00013824
7.12599e-05
6.79346e-05
6.62154e-05
6.52181e-05
6.46044e-05
6.42293e-05
6.40219e-05
6.39506e-05
6.40073e-05
6.42045e-05
6.45805e-05
6.52215e-05
6.63291e-05
6.85032e-05
7.46504e-05
0.000109216
7.34424e-05
6.7458e-05
6.52336e-05
6.40222e-05
6.32257e-05
6.26364e-05
6.21637e-05
6.17636e-05
6.14151e-05
6.111e-05
6.08482e-05
6.06355e-05
6.04829e-05
6.04081e-05
6.04404e-05
6.06317e-05
6.1092e-05
6.212e-05
6.49777e-05
7.97707e-05
0.00013798
0.00013824
0.00013824
0.00013824
0.00013824
0.00013824
0.00013824
0.00013824
0.00013824
0.00013824
0.00013824
0.00013824
0.00013824
0.00013824
0.00013824
0.00013824
0.00013824
0.00013824
0.00013824
0.00013824
0.00013824
0.00013824
0.00013824
0.00013824
0.00013824
0.000126504
7.00708e-05
6.37893e-05
6.20376e-05
6.13566e-05
6.11054e-05
6.10865e-05
6.12169e-05
6.14518e-05
6.1761e-05
6.21183e-05
6.24984e-05
6.28755e-05
6.32257e-05
6.35297e-05
6.37775e-05
6.39717e-05
6.41307e-05
6.42902e-05
6.45078e-05
6.48771e-05
6.5577e-05
6.70869e-05
7.17715e-05
0.000105053
0.000138236
0.00013824
0.00013824
0.000137573
8.14232e-05
6.88383e-05
6.58239e-05
6.45925e-05
6.39823e-05
6.36793e-05
6.35623e-05
6.35769e-05
6.36962e-05
6.39031e-05
6.41808e-05
6.44961e-05
6.4771e-05
6.485e-05
6.4642e-05
6.42651e-05
6.38645e-05
6.35121e-05
6.32331e-05
6.30403e-05
6.29478e-05
6.29781e-05
6.31757e-05
6.36361e-05
6.45787e-05
6.6695e-05
7.36837e-05
0.000129788
0.00013824
0.00013824
0.000101923
7.25965e-05
6.72942e-05
6.53696e-05
6.43922e-05
6.38486e-05
6.35611e-05
6.34639e-05
6.35395e-05
6.38068e-05
6.43333e-05
6.52927e-05
6.7216e-05
7.27999e-05
0.000111627
0.000138229
9.99101e-05
7.02817e-05
6.56497e-05
6.39066e-05
6.29249e-05
6.22651e-05
6.17757e-05
6.13898e-05
6.10755e-05
6.08185e-05
6.06151e-05
6.04695e-05
6.03941e-05
6.04117e-05
6.05646e-05
6.09358e-05
6.17214e-05
6.35597e-05
6.99943e-05
0.000128489
0.00013824
0.00013824
0.00013824
0.00013824
0.00013824
0.00013824
0.00013824
0.00013824
0.00013824
0.00013824
0.00013824
0.00013824
0.00013824
0.00013824
0.00013824
0.00013824
0.00013824
0.00013824
0.00013824
0.00013824
0.00013824
0.00013824
0.00013824
0.00013824
0.00013824
0.000138231
9.5691e-05
6.67768e-05
6.28675e-05
6.16733e-05
6.11874e-05
6.10146e-05
6.10202e-05
6.11406e-05
6.13375e-05
6.15833e-05
6.1855e-05
6.21329e-05
6.24008e-05
6.26475e-05
6.2869e-05
6.30718e-05
6.32753e-05
6.35168e-05
6.38606e-05
6.44241e-05
6.5464e-05
6.77458e-05
7.5203e-05
0.000132714
0.00013824
0.00013824
0.00013824
0.00013824
0.000129882
7.41521e-05
6.71418e-05
6.49969e-05
6.40381e-05
6.35626e-05
6.3352e-05
6.33255e-05
6.34538e-05
6.37245e-05
6.41416e-05
6.47043e-05
6.53434e-05
6.56331e-05
6.51805e-05
6.4464e-05
6.38364e-05
6.33656e-05
6.30374e-05
6.28463e-05
6.2802e-05
6.29296e-05
6.32966e-05
6.40938e-05
6.58655e-05
7.13962e-05
0.000112009
0.00013824
0.00013824
0.00013824
0.000138229
0.000103015
7.16364e-05
6.64724e-05
6.46708e-05
6.3819e-05
6.33961e-05
6.32567e-05
6.33608e-05
6.37436e-05
6.45456e-05
6.61964e-05
7.06282e-05
9.49542e-05
0.00013821
0.00013824
0.000136083
7.59273e-05
6.68556e-05
6.41643e-05
6.28575e-05
6.20626e-05
6.15207e-05
6.11258e-05
6.083e-05
6.06109e-05
6.04613e-05
6.03852e-05
6.03986e-05
6.05357e-05
6.08705e-05
6.15697e-05
6.31467e-05
6.83224e-05
0.000110304
0.00013824
0.00013824
0.00013824
0.00013824
0.00013824
0.00013824
0.00013824
0.00013824
0.00013824
0.00013824
0.00013824
0.00013824
0.00013824
0.00013824
0.00013824
0.00013824
0.00013824
0.00013824
0.00013824
0.00013824
0.00013824
0.00013824
0.00013824
0.00013824
0.00013824
0.00013824
0.00013824
0.000136315
7.29685e-05
6.44865e-05
6.23052e-05
6.14369e-05
6.10494e-05
6.09038e-05
6.09006e-05
6.09872e-05
6.11307e-05
6.13087e-05
6.1505e-05
6.17084e-05
6.19129e-05
6.21194e-05
6.23373e-05
6.25892e-05
6.29191e-05
6.34098e-05
6.42394e-05
6.59186e-05
7.09656e-05
0.000108221
0.000138239
0.00013824
0.00013824
0.00013824
0.00013824
0.00013824
0.00011914
7.26709e-05
6.65133e-05
6.46558e-05
6.38457e-05
6.34777e-05
6.33958e-05
6.35669e-05
6.39831e-05
6.47204e-05
6.59817e-05
6.8264e-05
7.00244e-05
6.78372e-05
6.56636e-05
6.43705e-05
6.36183e-05
6.31579e-05
6.29313e-05
6.29424e-05
6.32213e-05
6.38869e-05
6.549e-05
7.03443e-05
9.9607e-05
0.000138232
0.00013824
0.00013824
0.00013824
0.00013824
0.000138226
9.92133e-05
7.10552e-05
6.60525e-05
6.44278e-05
6.37125e-05
6.34908e-05
6.36476e-05
6.42681e-05
6.57665e-05
6.98849e-05
8.81491e-05
0.000138103
0.00013824
0.00013824
0.00013824
0.000124347
7.19016e-05
6.53673e-05
6.32196e-05
6.21279e-05
6.14654e-05
6.10244e-05
6.07257e-05
6.05333e-05
6.0435e-05
6.04369e-05
6.05649e-05
6.0878e-05
6.15394e-05
6.3012e-05
6.75289e-05
9.74221e-05
0.000138234
0.00013824
0.00013824
0.00013824
0.00013824
0.00013824
0.00013824
0.00013824
0.00013824
0.00013824
0.00013824
0.00013824
0.00013824
0.00013824
0.00013824
0.00013824
0.00013824
0.00013824
0.00013824
0.00013824
0.00013824
0.00013824
0.00013824
0.00013824
0.00013824
0.00013824
0.00013824
0.00013824
0.00013824
0.000126619
7.00257e-05
6.38205e-05
6.20426e-05
6.12827e-05
6.09259e-05
6.07768e-05
6.07476e-05
6.07935e-05
6.08883e-05
6.10168e-05
6.11707e-05
6.13476e-05
6.15515e-05
6.17956e-05
6.21088e-05
6.25495e-05
6.32397e-05
6.44839e-05
6.74321e-05
8.00854e-05
0.000137655
0.00013824
0.00013824
0.00013824
0.00013824
0.00013824
0.00013824
0.00013824
0.000117273
7.2646e-05
6.67754e-05
6.50298e-05
6.42702e-05
6.40634e-05
6.43856e-05
6.52051e-05
6.69355e-05
7.14197e-05
8.7227e-05
0.000109942
8.37136e-05
7.07405e-05
6.63062e-05
6.47478e-05
6.38943e-05
6.35273e-05
6.36361e-05
6.42734e-05
6.56556e-05
7.06511e-05
9.9525e-05
0.000138225
0.00013824
0.00013824
0.00013824
0.00013824
0.00013824
0.00013824
0.000138228
0.000105405
7.18627e-05
6.67645e-05
6.50746e-05
6.4645e-05
6.49309e-05
6.62366e-05
7.09301e-05
9.43417e-05
0.000138108
0.00013824
0.00013824
0.00013824
0.00013824
0.000138239
0.000110021
7.02152e-05
6.45671e-05
6.26665e-05
6.17284e-05
6.11684e-05
6.08333e-05
6.06548e-05
6.06115e-05
6.07183e-05
6.10301e-05
6.16607e-05
6.31269e-05
6.76508e-05
9.44494e-05
0.000138224
0.00013824
0.00013824
0.00013824
0.00013824
0.00013824
0.00013824
0.00013824
0.00013824
0.00013824
0.00013824
0.00013824
0.00013824
0.00013824
0.00013824
0.00013824
0.00013824
0.00013824
0.00013824
0.00013824
0.00013824
0.00013824
0.00013824
0.00013824
0.00013824
0.00013824
0.00013824
0.00013824
0.00013824
0.00013824
0.00013824
0.000114454
6.90923e-05
6.35614e-05
6.19068e-05
6.11829e-05
6.08309e-05
6.0663e-05
6.06043e-05
6.0618e-05
6.06864e-05
6.0802e-05
6.09644e-05
6.11812e-05
6.1471e-05
6.18754e-05
6.24866e-05
6.35268e-05
6.56772e-05
7.26283e-05
0.000130533
0.00013824
0.00013824
0.00013824
0.00013824
0.00013824
0.00013824
0.00013824
0.00013824
0.00013824
0.000126913
7.60905e-05
6.97566e-05
6.70344e-05
6.62324e-05
6.73904e-05
7.02118e-05
7.74084e-05
0.00012172
0.000138132
0.000138239
0.000138012
0.000117077
7.44457e-05
6.93075e-05
6.63718e-05
6.5335e-05
6.57801e-05
6.82045e-05
7.24406e-05
0.000112903
0.000138232
0.00013824
0.00013824
0.00013824
0.00013824
0.00013824
0.00013824
0.00013824
0.00013824
0.000138238
0.000123718
7.84421e-05
7.05895e-05
6.93277e-05
7.0181e-05
7.46892e-05
0.000116254
0.000138215
0.00013824
0.00013824
0.00013824
0.00013824
0.00013824
0.00013824
0.000138238
0.000105374
6.97728e-05
6.4333e-05
6.26324e-05
6.17468e-05
6.13057e-05
6.11237e-05
6.11545e-05
6.14475e-05
6.21953e-05
6.36189e-05
6.86663e-05
0.000101588
0.000138227
0.00013824
0.00013824
0.00013824
0.00013824
0.00013824
0.00013824
0.00013824
0.00013824
0.00013824
0.00013824
0.00013824
0.00013824
0.00013824
0.00013824
0.00013824
0.00013824
0.00013824
0.00013824
0.00013824
0.00013824
0.00013824
0.00013824
0.00013824
0.00013824
0.00013824
0.00013824
0.00013824
0.00013824
0.00013824
0.00013824
0.00013824
0.00013824
0.000108947
6.88523e-05
6.35071e-05
6.18908e-05
6.11847e-05
6.0809e-05
6.06147e-05
6.05336e-05
6.05407e-05
6.06249e-05
6.07871e-05
6.10401e-05
6.14136e-05
6.19774e-05
6.2919e-05
6.48519e-05
7.09121e-05
0.000118686
0.00013824
0.00013824
0.00013824
0.00013824
0.00013824
0.00013824
0.00013824
0.00013824
0.00013824
0.00013824
0.00013824
0.00013673
0.000109707
8.11555e-05
7.46359e-05
8.441e-05
0.0001139
0.000137224
0.00013824
0.00013824
0.00013824
0.00013824
0.00013824
0.000135695
0.000107989
7.80902e-05
7.19566e-05
7.44283e-05
9.80044e-05
0.000131291
0.00013824
0.00013824
0.00013824
0.00013824
0.00013824
0.00013824
0.00013824
0.00013824
0.00013824
0.00013824
0.00013824
0.00013824
0.000137556
0.000120949
0.000107634
0.000117666
0.000136114
0.00013824
0.00013824
0.00013824
0.00013824
0.00013824
0.00013824
0.00013824
0.00013824
0.00013824
0.000138238
0.000113365
7.07831e-05
6.56664e-05
6.33737e-05
6.2618e-05
6.23974e-05
6.25758e-05
6.3346e-05
6.62128e-05
7.09127e-05
0.000118734
0.000138238
0.00013824
0.00013824
0.00013824
0.00013824
0.00013824
0.00013824
0.00013824
0.00013824
0.00013824
0.00013824
0.00013824
0.00013824
0.00013824
0.00013824
0.00013824
0.00013824
0.00013824
0.00013824
0.00013824
0.00013824
0.00013824
0.00013824
0.00013824
0.00013824
0.00013824
0.00013824
0.00013824
0.00013824
0.00013824
0.00013824
0.00013824
0.00013824
0.00013824
0.000138239
0.000111801
6.93079e-05
6.37664e-05
6.21839e-05
6.13653e-05
6.09388e-05
6.07114e-05
6.06389e-05
6.06942e-05
6.08761e-05
6.12119e-05
6.1759e-05
6.26631e-05
6.44672e-05
7.02293e-05
0.000112426
0.00013824
0.00013824
0.00013824
0.00013824
0.00013824
0.00013824
0.00013824
0.00013824
0.00013824
0.00013824
0.00013824
0.00013824
0.00013824
0.000138239
0.000137835
0.000135887
0.000138044
0.00013824
0.00013824
0.00013824
0.00013824
0.00013824
0.00013824
0.00013824
0.00013824
0.000138239
0.000137495
0.000132212
0.000136162
0.00013823
0.00013824
0.00013824
0.00013824
0.00013824
0.00013824
0.00013824
0.00013824
0.00013824
0.00013824
0.00013824
0.00013824
0.00013824
0.00013824
0.00013824
0.00013824
0.000138239
0.00013824
0.00013824
0.00013824
0.00013824
0.00013824
0.00013824
0.00013824
0.00013824
0.00013824
0.00013824
0.00013824
0.00013824
0.00013824
0.000129456
8.4432e-05
6.93581e-05
6.7342e-05
6.69255e-05
6.77325e-05
7.02881e-05
9.91134e-05
0.000134489
0.00013824
0.00013824
0.00013824
0.00013824
0.00013824
0.00013824
0.00013824
0.00013824
0.00013824
0.00013824
0.00013824
0.00013824
0.00013824
0.00013824
0.00013824
0.00013824
0.00013824
0.00013824
0.00013824
0.00013824
0.00013824
0.00013824
0.00013824
0.00013824
0.00013824
0.00013824
0.00013824
0.00013824
0.00013824
0.00013824
0.00013824
0.00013824
0.00013824
0.00013824
0.00013824
0.00013824
0.00013824
0.00012274
7.09063e-05
6.55308e-05
6.2924e-05
6.1916e-05
6.13481e-05
6.11353e-05
6.11567e-05
6.13971e-05
6.19426e-05
6.29689e-05
6.49289e-05
7.0653e-05
0.000116075
0.00013824
0.00013824
0.00013824
0.00013824
0.00013824
0.00013824
0.00013824
0.00013824
0.00013824
0.00013824
0.00013824
0.00013824
0.00013824
0.00013824
0.00013824
0.00013824
0.00013824
0.00013824
0.00013824
0.00013824
0.00013824
0.00013824
0.00013824
0.00013824
0.00013824
0.00013824
0.00013824
0.00013824
0.00013824
0.00013824
0.00013824
0.00013824
0.00013824
0.00013824
0.00013824
0.00013824
0.00013824
0.00013824
0.00013824
0.00013824
0.00013824
0.00013824
0.00013824
0.00013824
0.00013824
0.00013824
0.00013824
0.00013824
0.00013824
0.00013824
0.00013824
0.00013824
0.00013824
0.00013824
0.00013824
0.00013824
0.00013824
0.00013824
0.00013824
0.00013824
0.00013824
0.000138143
0.000125404
0.000106385
0.000102596
0.000114903
0.000133442
0.000138236
0.00013824
0.00013824
0.00013824
0.00013824
0.00013824
0.00013824
0.00013824
0.00013824
0.00013824
0.00013824
0.00013824
0.00013824
0.00013824
0.00013824
0.00013824
0.00013824
0.00013824
0.00013824
0.00013824
0.00013824
0.00013824
0.00013824
0.00013824
0.00013824
0.00013824
0.00013824
0.00013824
0.00013824
0.00013824
0.00013824
0.00013824
0.00013824
0.00013824
0.00013824
0.00013824
0.00013824
0.00013824
0.00013824
0.00013824
0.000134367
8.87491e-05
6.87374e-05
6.52111e-05
6.31123e-05
6.25499e-05
6.25133e-05
6.29163e-05
6.42087e-05
6.76694e-05
7.56509e-05
0.000128355
0.00013824
0.00013824
0.00013824
0.00013824
0.00013824
0.00013824
0.00013824
0.00013824
0.00013824
0.00013824
0.00013824
0.00013824
0.00013824
0.00013824
0.00013824
0.00013824
0.00013824
0.00013824
0.00013824
0.00013824
0.00013824
0.00013824
0.00013824
0.00013824
0.00013824
0.00013824
0.00013824
0.00013824
0.00013824
0.00013824
0.00013824
0.00013824
0.00013824
0.00013824
0.00013824
0.00013824
0.00013824
0.00013824
0.00013824
0.00013824
0.00013824
0.00013824
0.00013824
0.00013824
0.00013824
0.00013824
0.00013824
0.00013824
0.00013824
0.00013824
0.00013824
0.00013824
0.00013824
0.00013824
0.00013824
0.00013824
0.00013824
0.00013824
0.00013824
0.00013824
0.00013824
0.00013824
0.00013824
0.00013824
0.000138239
0.000138238
0.00013824
0.00013824
0.00013824
0.00013824
0.00013824
0.00013824
0.00013824
0.00013824
0.00013824
0.00013824
0.00013824
0.00013824
0.00013824
0.00013824
0.00013824
0.00013824
0.00013824
0.00013824
0.00013824
0.00013824
0.00013824
0.00013824
0.00013824
0.00013824
0.00013824
0.00013824
0.00013824
0.00013824
0.00013824
0.00013824
0.00013824
0.00013824
0.00013824
0.00013824
0.00013824
0.00013824
0.00013824
0.00013824
0.00013824
0.00013824
0.00013824
0.00013824
0.00013824
0.000138209
0.000123079
8.7344e-05
6.9639e-05
6.79034e-05
6.76736e-05
6.86332e-05
7.44207e-05
0.000110233
0.000137436
0.00013824
0.00013824
0.00013824
0.00013824
0.00013824
0.00013824
0.00013824
0.00013824
0.00013824
0.00013824
0.00013824
0.00013824
0.00013824
0.00013824
0.00013824
0.00013824
0.00013824
0.00013824
0.00013824
0.00013824
0.00013824
0.00013824
0.00013824
0.00013824
0.00013824
0.00013824
0.00013824
0.00013824
0.00013824
0.00013824
0.00013824
0.00013824
0.00013824
0.00013824
0.00013824
0.00013824
0.00013824
0.00013824
0.00013824
0.00013824
0.00013824
0.00013824
0.00013824
0.00013824
0.00013824
0.00013824
0.00013824
0.00013824
0.00013824
0.00013824
0.00013824
0.00013824
0.00013824
0.00013824
0.00013824
0.00013824
0.00013824
0.00013824
0.00013824
0.00013824
0.00013824
0.00013824
0.00013824
0.00013824
0.00013824
0.00013824
0.00013824
0.00013824
0.00013824
0.00013824
0.00013824
0.00013824
0.00013824
0.00013824
0.00013824
0.00013824
0.00013824
0.00013824
0.00013824
0.00013824
0.00013824
0.00013824
0.00013824
0.00013824
0.00013824
0.00013824
0.00013824
0.00013824
0.00013824
0.00013824
0.00013824
0.00013824
0.00013824
0.00013824
0.00013824
0.00013824
0.00013824
0.00013824
0.00013824
0.00013824
0.00013824
0.00013824
0.00013824
0.00013824
0.00013824
0.00013824
0.00013824
0.00013824
0.00013824
0.00013824
0.00013824
0.00013824
0.000138196
0.000132386
0.000119829
0.000115954
0.000124929
0.000137258
0.00013824
0.00013824
0.00013824
0.00013824
0.00013824
0.00013824
0.00013824
0.00013824
0.00013824
0.00013824
0.00013824
0.00013824
0.00013824
0.00013824
0.00013824
0.00013824
0.00013824
0.00013824
0.00013824
0.00013824
0.00013824
0.00013824
0.00013824
0.00013824
0.00013824
0.00013824
0.00013824
0.00013824
0.00013824
0.00013824
0.00013824
0.00013824
0.00013824
0.00013824
0.00013824
0.00013824
0.00013824
0.00013824
0.00013824
0.00013824
0.00013824
0.00013824
0.00013824
0.00013824
0.00013824
0.00013824
0.00013824
0.00013824
0.00013824
0.00013824
0.00013824
0.00013824
0.00013824
0.00013824
0.00013824
0.00013824
0.00013824
0.00013824
0.00013824
0.00013824
0.00013824
0.00013824
0.00013824
0.00013824
0.00013824
0.00013824
0.00013824
0.00013824
0.00013824
0.00013824
0.00013824
0.00013824
0.00013824
0.00013824
0.00013824
0.00013824
0.00013824
0.00013824
0.00013824
0.00013824
0.00013824
0.00013824
0.00013824
0.00013824
0.00013824
0.00013824
0.00013824
0.00013824
0.00013824
0.00013824
0.00013824
0.00013824
0.00013824
0.00013824
0.00013824
0.00013824
0.00013824
0.00013824
0.00013824
0.00013824
0.00013824
0.00013824
0.00013824
0.00013824
0.00013824
0.00013824
0.00013824
0.00013824
0.00013824
0.00013824
0.00013824
0.00013824
0.00013824
0.00013824
0.00013824
0.00013824
0.00013824
0.00013824
0.00013824
0.00013824
0.00013824
0.00013824
0.00013824
0.00013824
0.00013824
0.00013824
0.00013824
0.00013824
0.00013824
0.00013824
0.00013824
0.00013824
0.00013824
0.00013824
0.00013824
0.00013824
0.00013824
0.00013824
0.00013824
0.00013824
0.00013824
0.00013824
0.00013824
0.00013824
0.00013824
0.00013824
0.00013824
0.00013824
0.00013824
0.00013824
0.00013824
0.00013824
0.00013824
0.00013824
0.00013824
0.00013824
0.00013824
0.00013824
0.00013824
0.00013824
0.00013824
0.00013824
0.00013824
0.00013824
0.00013824
0.00013824
0.00013824
0.00013824
0.00013824
0.00013824
0.00013824
0.00013824
0.00013824
0.00013824
0.00013824
0.00013824
0.00013824
0.00013824
0.00013824
0.00013824
0.00013824
0.00013824
0.00013824
0.00013824
0.00013824
0.00013824
0.00013824
0.00013824
0.00013824
0.00013824
0.00013824
0.00013824
0.00013824
0.00013824
0.00013824
0.00013824
0.00013824
0.00013824
0.00013824
0.00013824
0.00013824
0.00013824
0.00013824
0.00013824
0.00013824
0.00013824
0.00013824
0.00013824
0.00013824
0.00013824
0.00013824
0.00013824
0.00013824
0.00013824
0.00013824
0.00013824
0.00013824
0.00013824
0.00013824
0.00013824
0.00013824
0.00013824
0.00013824
0.00013824
0.00013824
0.00013824
0.00013824
0.00013824
0.00013824
0.00013824
0.00013824
0.00013824
0.00013824
0.00013824
0.00013824
0.00013824
0.00013824
0.00013824
0.00013824
0.00013824
0.00013824
0.00013824
0.00013824
0.00013824
0.00013824
0.00013824
0.00013824
0.00013824
0.00013824
0.00013824
0.00013824
0.00013824
0.00013824
0.00013824
0.00013824
0.00013824
0.00013824
0.00013824
0.00013824
0.00013824
0.00013824
0.00013824
0.00013824
0.00013824
0.00013824
0.00013824
0.00013824
0.00013824
0.00013824
0.00013824
0.00013824
0.00013824
0.00013824
0.00013824
0.00013824
0.00013824
0.00013824
0.00013824
0.00013824
0.00013824
0.00013824
0.00013824
0.00013824
0.00013824
0.00013824
0.00013824
0.00013824
0.00013824
0.00013824
0.00013824
0.00013824
0.00013824
0.00013824
0.00013824
0.00013824
0.00013824
0.00013824
0.00013824
0.00013824
0.00013824
0.00013824
0.00013824
0.00013824
0.00013824
0.00013824
0.00013824
0.00013824
0.00013824
0.00013824
0.00013824
0.00013824
0.00013824
0.00013824
0.00013824
0.00013824
0.00013824
0.00013824
0.00013824
0.00013824
0.00013824
0.00013824
0.00013824
0.00013824
0.00013824
0.00013824
0.00013824
0.00013824
0.00013824
0.00013824
0.00013824
0.00013824
0.00013824
0.00013824
0.00013824
0.00013824
0.00013824
0.00013824
0.00013824
0.00013824
0.00013824
0.00013824
0.00013824
0.00013824
0.00013824
0.00013824
0.00013824
0.00013824
0.00013824
0.00013824
0.00013824
0.00013824
0.00013824
0.00013824
0.00013824
0.00013824
0.00013824
0.00013824
0.00013824
0.00013824
0.00013824
0.00013824
0.00013824
0.00013824
0.00013824
0.00013824
0.00013824
0.00013824
0.00013824
0.00013824
0.00013824
0.00013824
0.00013824
0.00013824
0.00013824
0.00013824
0.00013824
0.00013824
0.00013824
0.00013824
0.00013824
0.00013824
0.00013824
0.00013824
0.00013824
0.00013824
0.00013824
0.00013824
0.00013824
0.00013824
0.00013824
0.00013824
0.00013824
0.00013824
0.00013824
0.00013824
0.00013824
0.00013824
0.00013824
0.00013824
0.00013824
0.00013824
0.00013824
0.00013824
0.00013824
0.00013824
0.00013824
0.00013824
0.00013824
0.00013824
0.00013824
0.00013824
0.00013824
0.00013824
0.00013824
0.00013824
0.00013824
0.00013824
0.00013824
0.00013824
0.00013824
0.00013824
0.00013824
0.00013824
0.00013824
0.00013824
0.00013824
0.00013824
0.00013824
0.00013824
0.00013824
0.00013824
0.00013824
0.00013824
0.00013824
0.00013824
0.00013824
0.00013824
0.00013824
0.00013824
0.00013824
0.00013824
0.00013824
0.00013824
0.00013824
0.00013824
0.00013824
0.00013824
0.00013824
0.00013824
0.00013824
0.00013824
0.00013824
0.00013824
0.00013824
0.00013824
0.00013824
0.00013824
0.00013824
0.00013824
0.00013824
0.00013824
0.00013824
0.00013824
0.00013824
0.00013824
0.00013824
0.00013824
0.00013824
0.00013824
0.00013824
0.00013824
0.00013824
0.00013824
0.00013824
0.00013824
0.00013824
0.00013824
0.00013824
0.00013824
0.00013824
0.00013824
0.00013824
0.00013824
0.00013824
0.00013824
0.00013824
0.00013824
0.00013824
0.00013824
0.00013824
0.00013824
0.00013824
0.00013824
0.00013824
0.00013824
0.00013824
0.00013824
0.00013824
0.00013824
0.00013824
0.00013824
0.00013824
0.00013824
0.00013824
0.00013824
0.00013824
0.00013824
0.00013824
0.00013824
0.00013824
0.00013824
0.00013824
0.00013824
0.00013824
0.00013824
0.00013824
0.00013824
0.00013824
0.00013824
0.00013824
0.00013824
0.00013824
0.00013824
0.00013824
0.00013824
0.00013824
0.00013824
0.00013824
0.00013824
0.00013824
0.00013824
0.00013824
0.00013824
0.00013824
0.00013824
0.00013824
0.00013824
0.00013824
0.00013824
0.00013824
0.00013824
0.00013824
0.00013824
0.00013824
0.00013824
0.00013824
0.00013824
0.00013824
0.00013824
0.00013824
0.00013824
0.00013824
0.00013824
0.00013824
0.00013824
0.00013824
0.00013824
0.00013824
0.00013824
0.00013824
0.00013824
0.00013824
0.00013824
0.00013824
0.00013824
0.00013824
0.00013824
0.00013824
0.00013824
0.00013824
0.00013824
0.00013824
0.00013824
0.00013824
0.00013824
0.00013824
0.00013824
0.00013824
0.00013824
0.00013824
0.00013824
0.00013824
0.00013824
0.00013824
0.00013824
0.00013824
0.00013824
0.00013824
0.00013824
0.00013824
0.00013824
0.00013824
0.00013824
0.00013824
0.00013824
0.00013824
0.00013824
0.00013824
0.00013824
0.00013824
0.00013824
0.00013824
0.00013824
0.00013824
0.00013824
0.00013824
0.00013824
0.00013824
0.00013824
0.00013824
0.00013824
0.00013824
0.00013824
0.00013824
0.00013824
0.00013824
0.00013824
0.00013824
0.00013824
0.00013824
0.00013824
0.00013824
0.00013824
0.00013824
0.00013824
0.00013824
0.00013824
0.00013824
0.00013824
0.00013824
0.00013824
0.00013824
0.00013824
0.00013824
0.00013824
0.00013824
0.00013824
0.00013824
0.00013824
0.00013824
0.00013824
0.00013824
0.00013824
0.00013824
0.00013824
0.00013824
0.00013824
0.00013824
0.00013824
0.00013824
0.00013824
0.00013824
0.00013824
0.00013824
0.00013824
0.00013824
0.00013824
0.00013824
0.00013824
0.00013824
0.00013824
0.00013824
0.00013824
0.00013824
0.00013824
0.00013824
0.00013824
0.00013824
0.00013824
0.00013824
0.00013824
0.00013824
0.00013824
0.00013824
0.00013824
0.00013824
0.00013824
0.00013824
0.00013824
0.00013824
0.00013824
0.00013824
0.00013824
0.00013824
0.00013824
0.00013824
0.00013824
0.00013824
0.00013824
0.00013824
0.00013824
0.00013824
0.00013824
0.00013824
0.00013824
0.00013824
0.00013824
0.00013824
0.00013824
0.00013824
0.00013824
0.00013824
0.00013824
0.00013824
0.00013824
0.00013824
0.00013824
0.00013824
0.00013824
0.00013824
0.00013824
0.00013824
0.00013824
0.00013824
0.00013824
0.00013824
0.00013824
0.00013824
0.00013824
0.00013824
0.00013824
0.00013824
0.00013824
0.00013824
0.00013824
0.00013824
0.00013824
0.00013824
0.00013824
0.00013824
0.00013824
0.00013824
0.00013824
0.00013824
0.00013824
0.00013824
0.00013824
0.00013824
0.00013824
0.00013824
0.00013824
0.00013824
0.00013824
0.00013824
0.00013824
0.00013824
0.00013824
0.00013824
0.00013824
0.00013824
0.00013824
0.00013824
0.00013824
0.00013824
0.00013824
0.00013824
0.00013824
0.00013824
0.00013824
0.00013824
0.00013824
0.00013824
0.00013824
0.00013824
0.00013824
0.00013824
0.00013824
0.00013824
0.00013824
0.00013824
0.00013824
0.00013824
0.00013824
0.00013824
0.00013824
0.00013824
0.00013824
0.00013824
0.00013824
0.00013824
0.00013824
0.00013824
0.00013824
0.00013824
0.00013824
0.00013824
0.00013824
0.00013824
0.00013824
0.00013824
0.00013824
0.00013824
0.00013824
0.00013824
0.00013824
0.00013824
0.00013824
0.00013824
0.00013824
0.00013824
0.00013824
0.00013824
0.00013824
0.00013824
0.00013824
0.00013824
0.00013824
0.00013824
0.00013824
0.00013824
0.00013824