/*--------------------------------*- C++ -*----------------------------------*\
| =========                 |                                                 |
| \\      /  F ield         | OpenFOAM: The Open Source CFD Toolbox           |
|  \\    /   O peration     | Version:  2406                                  |
|   \\  /    A nd           | Website:  www.openfoam.com                      |
|    \\/     M anipulation  |                                                 |
\*---------------------------------------------------------------------------*/
FoamFile
{
    version     2.0;
    format      ascii;
    arch        "LSB;label=32;scalar=64";
    class       volScalarField;
    location    "2.55";
    object      C;
}
// * * * * * * * * * * * * * * * * * * * * * * * * * * * * * * * * * * * * * //

dimensions      [1 -3 0 0 0 0 0];

internalField   nonuniform List<scalar> 
14400
(
1.00747
0.998941
0.975114
0.940627
0.910233
0.888117
0.875983
0.874621
0.884337
0.905022
0.936071
0.975926
1.02039
1.05249
1.0686
1.07742
1.0798
1.07555
1.06304
1.03493
0.999434
0.971086
0.953177
0.94727
0.954247
0.974575
1.00832
1.05513
1.11396
1.18172
1.23703
1.27287
1.30136
1.32628
1.34818
1.36748
1.3845
1.39948
1.41261
1.42404
1.43389
1.44226
1.44921
1.45482
1.45912
1.46216
1.46396
1.46454
1.46391
1.46208
1.45904
1.45477
1.44926
1.44248
1.43438
1.42492
1.41405
1.40167
1.38771
1.37205
1.35454
1.33503
1.3133
1.28907
1.262
1.23165
1.19747
1.14985
1.0804
1.00509
0.938564
0.883247
0.839674
0.807894
0.787795
0.779204
0.781918
0.7957
0.820257
0.85516
0.899555
0.950975
0.995274
1.02237
1.03937
1.05099
1.05786
1.06032
1.05851
1.05233
1.04149
1.02534
0.996074
0.953306
0.912058
0.878696
0.855013
0.841609
0.838443
0.844907
0.859724
0.880507
0.901049
0.909651
0.901108
0.880548
0.859665
0.844755
0.838237
0.841413
0.854917
0.878812
0.912518
0.954246
0.997449
1.02718
1.0441
1.05605
1.06371
1.06745
1.01584
1.00881
0.991526
0.960014
0.928187
0.904979
0.892225
0.890653
0.900584
0.921893
0.954026
0.995221
1.03594
1.06113
1.07549
1.08385
1.08643
1.08311
1.07344
1.05193
1.01823
0.988954
0.970082
0.96358
0.97038
0.990993
1.02542
1.07316
1.13251
1.19767
1.24511
1.2772
1.30494
1.32929
1.35077
1.36976
1.38654
1.40133
1.41431
1.42562
1.43538
1.44367
1.45056
1.45612
1.46038
1.46339
1.46518
1.46575
1.46512
1.46329
1.46026
1.45601
1.45053
1.44379
1.43574
1.42634
1.41554
1.40326
1.38941
1.37389
1.35656
1.33726
1.31579
1.2919
1.26527
1.23549
1.20195
1.16037
1.09846
1.02259
0.9551
0.898913
0.854655
0.822385
0.802014
0.793384
0.796289
0.81048
0.835634
0.871296
0.916448
0.967541
1.00597
1.02876
1.04475
1.05575
1.06227
1.0646
1.06286
1.057
1.04678
1.03174
1.00888
0.971755
0.929413
0.895112
0.870858
0.857338
0.854557
0.86192
0.878075
0.900431
0.918365
0.923197
0.91836
0.900439
0.877986
0.861717
0.854274
0.857041
0.870637
0.89508
0.929687
0.972431
1.00986
1.03323
1.04904
1.06034
1.06762
1.0712
1.03124
1.02595
1.01544
0.994306
0.962708
0.938091
0.924343
0.922378
0.93271
0.955013
0.988547
1.02934
1.05847
1.07594
1.08839
1.09606
1.09896
1.09703
1.0902
1.07794
1.05421
1.02405
1.00345
0.995858
1.00229
1.02349
1.05923
1.10889
1.16925
1.22031
1.25603
1.28567
1.3119
1.33518
1.35586
1.37425
1.39056
1.40499
1.41768
1.42876
1.43833
1.44647
1.45324
1.45871
1.4629
1.46586
1.4676
1.46816
1.46752
1.4657
1.4627
1.45849
1.45307
1.4464
1.43845
1.42917
1.41852
1.40641
1.39279
1.37753
1.36053
1.34165
1.3207
1.29748
1.27171
1.24307
1.21113
1.17533
1.12636
1.05628
0.987839
0.930152
0.884617
0.851388
0.83048
0.821769
0.825055
0.840046
0.866307
0.903319
0.949634
0.994296
1.02222
1.04097
1.05511
1.06498
1.07086
1.07296
1.07135
1.06602
1.05688
1.04374
1.02644
1.00023
0.96206
0.927201
0.902056
0.888334
0.88626
0.895204
0.912957
0.933166
0.943192
0.945627
0.943101
0.933037
0.912805
0.894895
0.885816
0.88783
0.901583
0.926875
0.961977
1.00026
1.02679
1.04463
1.0585
1.06863
1.07525
1.07852
1.05194
1.04821
1.04105
1.03086
1.01164
0.986159
0.971511
0.968926
0.979883
1.00308
1.03746
1.06449
1.08167
1.09554
1.10609
1.11304
1.1163
1.11587
1.11187
1.10465
1.09344
1.07385
1.05203
1.04327
1.04905
1.07116
1.10833
1.15888
1.20577
1.24115
1.2707
1.29756
1.32182
1.34365
1.36325
1.3808
1.39647
1.41038
1.42266
1.43341
1.44272
1.45064
1.45724
1.46257
1.46665
1.46953
1.47123
1.47175
1.47111
1.46931
1.46634
1.46219
1.45685
1.45029
1.44248
1.43338
1.42294
1.4111
1.39779
1.38292
1.3664
1.3481
1.32789
1.3056
1.28103
1.25396
1.22414
1.19135
1.15486
1.10394
1.03616
0.976711
0.929528
0.894896
0.873191
0.86436
0.868206
0.884367
0.911956
0.949917
0.993841
1.02337
1.0423
1.05779
1.06973
1.07819
1.08325
1.08501
1.08354
1.07885
1.07097
1.05992
1.04586
1.02927
1.00475
0.973288
0.947434
0.933487
0.932254
0.942853
0.958184
0.968196
0.971749
0.973017
0.971582
0.967862
0.957762
0.942361
0.931553
0.932663
0.946564
0.972493
1.00388
1.02853
1.04548
1.06001
1.0717
1.08044
1.08623
1.08911
1.07638
1.07388
1.06921
1.06304
1.05586
1.04326
1.03118
1.02766
1.03955
1.06028
1.0805
1.09455
1.10731
1.11847
1.12738
1.13371
1.13733
1.13827
1.13675
1.13326
1.12865
1.12223
1.11181
1.10371
1.1083
1.13177
1.16847
1.20513
1.23538
1.26233
1.28805
1.31206
1.33417
1.35436
1.37269
1.38925
1.40412
1.4174
1.42918
1.43951
1.44848
1.45613
1.46251
1.46766
1.47162
1.4744
1.47602
1.47651
1.47586
1.47407
1.47115
1.46708
1.46185
1.45543
1.4478
1.43892
1.42876
1.41725
1.40434
1.38996
1.37404
1.35647
1.33716
1.31599
1.29284
1.26759
1.24014
1.21046
1.17864
1.144
1.09704
1.03747
0.989122
0.952664
0.929976
0.920978
0.925498
0.943229
0.971663
1.00806
1.03447
1.0511
1.0658
1.07814
1.08785
1.09478
1.09894
1.10031
1.09895
1.09489
1.08822
1.07909
1.06778
1.05483
1.04107
1.02287
1.00337
0.98981
0.988787
0.994055
0.999259
1.00106
1.00259
1.00311
1.00234
1.00057
0.99853
0.993166
0.987703
0.988556
1.00193
1.02128
1.03942
1.05336
1.06657
1.07823
1.08786
1.09519
1.10011
1.10258
1.10332
1.10174
1.09886
1.09524
1.09173
1.08938
1.08597
1.08619
1.09423
1.10511
1.11441
1.12453
1.13454
1.14363
1.15126
1.1571
1.16103
1.16312
1.16362
1.163
1.16204
1.16185
1.16289
1.16404
1.17254
1.19246
1.21655
1.23907
1.26177
1.28473
1.30713
1.32845
1.34843
1.36693
1.38391
1.39938
1.41337
1.42594
1.43712
1.44698
1.45556
1.46289
1.46901
1.47396
1.47775
1.48041
1.48196
1.4824
1.48174
1.47998
1.47711
1.47314
1.46803
1.46179
1.45437
1.44576
1.43592
1.4248
1.41236
1.39856
1.38332
1.36658
1.34828
1.32836
1.30675
1.28342
1.25837
1.2317
1.20363
1.1746
1.14462
1.10602
1.06169
1.02344
1.00006
0.990828
0.995576
1.01476
1.03719
1.05611
1.06853
1.08058
1.09164
1.10114
1.10872
1.11417
1.11739
1.11835
1.11705
1.11354
1.10794
1.10044
1.09135
1.08116
1.07058
1.06055
1.05029
1.04116
1.03731
1.0355
1.03421
1.03416
1.03444
1.03449
1.03412
1.03352
1.03325
1.03421
1.03576
1.03934
1.0482
1.05827
1.06827
1.0789
1.0892
1.0985
1.10631
1.11235
1.11645
1.11852
1.13182
1.1309
1.12926
1.12732
1.12569
1.1251
1.12633
1.1295
1.13364
1.13939
1.14662
1.15462
1.1627
1.17027
1.17692
1.18239
1.18658
1.18958
1.1916
1.19308
1.19466
1.19719
1.20176
1.20966
1.22082
1.23462
1.25054
1.2686
1.28792
1.30769
1.32727
1.34619
1.36417
1.38101
1.39663
1.41098
1.42405
1.43585
1.4464
1.45574
1.46388
1.47085
1.47669
1.4814
1.48502
1.48754
1.489
1.48939
1.48872
1.48699
1.48419
1.48032
1.47536
1.46931
1.46214
1.45383
1.44435
1.43367
1.42176
1.40858
1.39409
1.37825
1.36104
1.34242
1.32238
1.30096
1.27823
1.25434
1.22959
1.20439
1.17941
1.15534
1.12838
1.10122
1.08011
1.07056
1.07172
1.07937
1.08777
1.09457
1.10266
1.11107
1.11905
1.12606
1.13172
1.13579
1.13812
1.13864
1.13734
1.13428
1.12956
1.12338
1.11602
1.10788
1.09951
1.0915
1.08443
1.07859
1.0734
1.0699
1.0679
1.06694
1.06652
1.06628
1.06612
1.06615
1.06671
1.06831
1.07143
1.07624
1.08179
1.08864
1.09648
1.10476
1.11285
1.12024
1.12653
1.13145
1.13481
1.13652
1.16125
1.16077
1.15996
1.1591
1.15861
1.15892
1.16043
1.16323
1.16709
1.17209
1.17806
1.18463
1.19135
1.19783
1.20376
1.20895
1.21334
1.21699
1.22012
1.22306
1.22632
1.23049
1.23628
1.24428
1.25462
1.26698
1.28115
1.29687
1.31362
1.33084
1.34806
1.36489
1.38104
1.39632
1.41062
1.42386
1.43599
1.44701
1.4569
1.46568
1.47336
1.47996
1.48548
1.48995
1.49337
1.49575
1.49711
1.49744
1.49676
1.49506
1.49233
1.48858
1.48379
1.47795
1.47105
1.46306
1.45398
1.44377
1.43242
1.41991
1.40621
1.39131
1.3752
1.35788
1.3394
1.31981
1.29924
1.27786
1.25597
1.23398
1.21241
1.19196
1.17342
1.15711
1.14259
1.13311
1.12887
1.1269
1.12802
1.13155
1.13647
1.14198
1.14743
1.15233
1.15632
1.15915
1.16065
1.16075
1.15941
1.15668
1.15265
1.1475
1.14145
1.13485
1.12806
1.12151
1.11555
1.1104
1.10604
1.10277
1.10056
1.09919
1.09841
1.09801
1.09793
1.09824
1.09914
1.10089
1.1037
1.10762
1.11239
1.11801
1.12426
1.13079
1.13719
1.14308
1.14813
1.1521
1.15484
1.15623
1.19117
1.19097
1.19069
1.19052
1.19071
1.19155
1.19324
1.19588
1.19941
1.2038
1.2089
1.21448
1.22025
1.22594
1.23134
1.23632
1.24083
1.24494
1.24882
1.25274
1.25705
1.26219
1.26857
1.27655
1.28624
1.29752
1.31023
1.32412
1.33884
1.35401
1.36925
1.38425
1.39877
1.41262
1.42568
1.43784
1.44905
1.45928
1.46851
1.47673
1.48394
1.49014
1.49533
1.49954
1.50275
1.50498
1.50624
1.50651
1.50582
1.50415
1.50151
1.49788
1.49326
1.48765
1.48103
1.4734
1.46473
1.45502
1.44425
1.43243
1.41953
1.40557
1.39056
1.37452
1.35753
1.33965
1.32104
1.30189
1.28247
1.26313
1.24431
1.22655
1.21039
1.19633
1.1848
1.17587
1.16976
1.16655
1.16586
1.16713
1.16969
1.17294
1.17635
1.17951
1.18208
1.18383
1.1846
1.18429
1.18287
1.18037
1.17686
1.1725
1.16746
1.16199
1.15639
1.15093
1.14588
1.1414
1.1376
1.13459
1.13238
1.13086
1.1299
1.12941
1.12935
1.12975
1.13072
1.1324
1.13487
1.13815
1.14214
1.14673
1.15176
1.15696
1.16205
1.16675
1.17079
1.17399
1.17621
1.17733
1.22127
1.22127
1.22132
1.22157
1.22218
1.22331
1.22511
1.22764
1.23088
1.23479
1.23927
1.24414
1.24923
1.25434
1.25934
1.26414
1.26872
1.27312
1.27748
1.28201
1.28696
1.29263
1.29928
1.30713
1.31626
1.32663
1.33812
1.35054
1.36362
1.37709
1.39067
1.4041
1.41717
1.42972
1.44162
1.45277
1.4631
1.47256
1.48113
1.48879
1.49551
1.50131
1.50618
1.51011
1.51312
1.51519
1.51634
1.51656
1.51585
1.51422
1.51166
1.50817
1.50373
1.49836
1.49204
1.48476
1.47652
1.46732
1.45715
1.44601
1.43392
1.42088
1.40694
1.39213
1.37653
1.36023
1.34339
1.32619
1.30887
1.29175
1.27517
1.25954
1.24526
1.2327
1.22215
1.21375
1.2076
1.20368
1.20174
1.20141
1.20222
1.20374
1.20554
1.20727
1.20867
1.2095
1.20962
1.20893
1.20741
1.20506
1.20194
1.19817
1.19388
1.18928
1.18456
1.17994
1.17562
1.17172
1.16837
1.16562
1.16349
1.16195
1.16094
1.16039
1.16031
1.16069
1.1616
1.1631
1.16523
1.16798
1.17128
1.17503
1.17908
1.18325
1.18731
1.19106
1.1943
1.19688
1.19866
1.19957
1.25138
1.25149
1.25176
1.25226
1.25311
1.25442
1.25626
1.25868
1.26168
1.26523
1.26923
1.27359
1.27817
1.28286
1.28755
1.29219
1.29677
1.30134
1.30599
1.31087
1.31616
1.32207
1.32878
1.33642
1.34504
1.35463
1.36509
1.37628
1.38801
1.40007
1.41223
1.4243
1.4361
1.44748
1.45831
1.46851
1.478
1.48673
1.49466
1.50177
1.50802
1.51342
1.51796
1.52162
1.52441
1.52633
1.52737
1.52753
1.52682
1.52522
1.52275
1.51939
1.51515
1.51002
1.504
1.49708
1.48928
1.48058
1.471
1.46055
1.44924
1.43711
1.42418
1.41052
1.39621
1.38136
1.3661
1.3506
1.33509
1.31982
1.30508
1.29117
1.27841
1.26706
1.25734
1.24937
1.24322
1.23882
1.23601
1.23454
1.23406
1.23425
1.23479
1.23538
1.23581
1.23587
1.23544
1.23442
1.23278
1.23052
1.22768
1.22435
1.22063
1.21667
1.21263
1.20867
1.20492
1.20151
1.19852
1.19602
1.19402
1.19252
1.1915
1.19092
1.19079
1.1911
1.19189
1.19318
1.19497
1.19726
1.19997
1.20302
1.20629
1.20964
1.21289
1.21589
1.21848
1.22055
1.22198
1.22271
1.28138
1.28156
1.28195
1.28261
1.28359
1.28498
1.28682
1.28914
1.29194
1.2952
1.29884
1.30281
1.30702
1.31137
1.31581
1.3203
1.32484
1.32947
1.33425
1.33931
1.34475
1.35073
1.35735
1.36472
1.37285
1.38175
1.39133
1.40149
1.41208
1.42293
1.43389
1.44478
1.45545
1.46577
1.47564
1.48497
1.49367
1.50171
1.50902
1.51559
1.52139
1.5264
1.53061
1.534
1.53658
1.53834
1.53927
1.53938
1.53866
1.5371
1.53472
1.5315
1.52745
1.52256
1.51685
1.5103
1.50293
1.49473
1.48574
1.47595
1.4654
1.45412
1.44215
1.42957
1.41645
1.40289
1.38904
1.37503
1.36107
1.34736
1.33415
1.32166
1.31014
1.2998
1.29078
1.28319
1.27707
1.27237
1.26896
1.26666
1.26523
1.26442
1.26397
1.26367
1.26331
1.26274
1.26184
1.26053
1.25877
1.25656
1.25391
1.25091
1.24762
1.24415
1.24063
1.23718
1.23389
1.23087
1.2282
1.22592
1.22406
1.22262
1.22161
1.22101
1.22081
1.22104
1.22168
1.22274
1.22423
1.2261
1.22831
1.23079
1.23343
1.23611
1.23872
1.24112
1.2432
1.24485
1.246
1.24658
1.3112
1.31143
1.31189
1.31262
1.31367
1.31509
1.3169
1.31912
1.32175
1.32477
1.32814
1.3318
1.33571
1.33979
1.34402
1.34836
1.35283
1.35744
1.36225
1.36735
1.37281
1.37873
1.38519
1.39224
1.39991
1.40818
1.41699
1.42626
1.43587
1.4457
1.45561
1.46547
1.47514
1.48453
1.49352
1.50204
1.51002
1.5174
1.52413
1.53019
1.53555
1.54018
1.54407
1.5472
1.54957
1.55117
1.552
1.55205
1.55132
1.54981
1.54752
1.54444
1.54058
1.53594
1.53053
1.52434
1.51739
1.50969
1.50126
1.49211
1.48228
1.47181
1.46075
1.44916
1.43712
1.42473
1.41212
1.39942
1.38679
1.37442
1.36249
1.35119
1.34071
1.3312
1.32279
1.31555
1.3095
1.30462
1.30081
1.29792
1.29579
1.29422
1.29301
1.292
1.29102
1.28994
1.28865
1.28709
1.28522
1.28302
1.28051
1.27775
1.27478
1.27169
1.26857
1.26551
1.26259
1.2599
1.25748
1.25539
1.25366
1.2523
1.2513
1.25068
1.25043
1.25055
1.25104
1.25189
1.25309
1.25461
1.2564
1.25839
1.26051
1.26267
1.26475
1.26667
1.26833
1.26966
1.27057
1.27104
1.3408
1.34105
1.34154
1.34232
1.34339
1.3448
1.34656
1.34868
1.35117
1.35399
1.35713
1.36055
1.36421
1.36807
1.37211
1.37631
1.38066
1.38521
1.38998
1.39502
1.40041
1.40619
1.41243
1.41915
1.42637
1.43407
1.4422
1.45069
1.45946
1.46839
1.47739
1.48633
1.49513
1.50367
1.51187
1.51965
1.52696
1.53373
1.53992
1.5455
1.55043
1.5547
1.55828
1.56116
1.56333
1.56478
1.56551
1.56551
1.56478
1.56331
1.5611
1.55817
1.5545
1.5501
1.54498
1.53914
1.53261
1.52538
1.51749
1.50895
1.49981
1.4901
1.47987
1.46919
1.45813
1.4468
1.43529
1.42373
1.41226
1.40103
1.39019
1.3799
1.37029
1.3615
1.35362
1.34671
1.34078
1.3358
1.33172
1.32842
1.32578
1.32364
1.32187
1.32031
1.31883
1.31734
1.31574
1.31397
1.31199
1.30979
1.30738
1.30478
1.30206
1.29926
1.29644
1.29369
1.29107
1.28863
1.28644
1.28452
1.2829
1.2816
1.28063
1.27999
1.27968
1.2797
1.28004
1.28069
1.28164
1.28285
1.28428
1.28587
1.28757
1.28929
1.29095
1.29249
1.29381
1.29487
1.2956
1.29597
1.37016
1.37041
1.37092
1.37171
1.37278
1.37416
1.37586
1.37789
1.38024
1.3829
1.38585
1.38906
1.39252
1.39618
1.40004
1.40408
1.40832
1.41275
1.41742
1.42236
1.42761
1.4332
1.43918
1.44557
1.45235
1.45952
1.46704
1.47484
1.48287
1.49102
1.49921
1.50736
1.51536
1.52315
1.53063
1.53774
1.54443
1.55063
1.55632
1.56144
1.56598
1.5699
1.57319
1.57583
1.57781
1.57912
1.57975
1.5797
1.57896
1.57754
1.57542
1.57262
1.56914
1.56498
1.56014
1.55465
1.54851
1.54174
1.53436
1.5264
1.5179
1.5089
1.49944
1.48959
1.47943
1.46904
1.45851
1.44796
1.43749
1.42725
1.41735
1.40791
1.39907
1.3909
1.38349
1.37688
1.37109
1.3661
1.36185
1.35827
1.35526
1.35271
1.3505
1.34852
1.34667
1.34485
1.34299
1.34105
1.33898
1.33677
1.33442
1.33196
1.32941
1.32683
1.32426
1.32175
1.31936
1.31714
1.31512
1.31333
1.31181
1.31057
1.30962
1.30896
1.3086
1.30852
1.30872
1.3092
1.30992
1.31086
1.31199
1.31325
1.3146
1.31596
1.31729
1.3185
1.31956
1.3204
1.32098
1.32128
1.39926
1.39952
1.40003
1.40081
1.40186
1.4032
1.40484
1.40678
1.409
1.41152
1.4143
1.41734
1.42061
1.42409
1.42778
1.43167
1.43576
1.44006
1.44459
1.44938
1.45445
1.45983
1.46553
1.47157
1.47795
1.48463
1.49159
1.49878
1.50614
1.5136
1.52109
1.52852
1.53582
1.54293
1.54976
1.55626
1.56238
1.56807
1.57328
1.57798
1.58214
1.58573
1.58875
1.59116
1.59296
1.59413
1.59467
1.59457
1.59383
1.59245
1.59043
1.58776
1.58446
1.58052
1.57597
1.5708
1.56504
1.5587
1.55181
1.5444
1.5365
1.52815
1.5194
1.51031
1.50096
1.49141
1.48175
1.47209
1.46251
1.45312
1.44403
1.43535
1.42716
1.41954
1.41255
1.40624
1.4006
1.39564
1.39131
1.38755
1.38429
1.38144
1.37891
1.37662
1.37447
1.3724
1.37034
1.36825
1.3661
1.36388
1.36158
1.35921
1.35681
1.35439
1.35201
1.34969
1.34749
1.34543
1.34356
1.34189
1.34045
1.33926
1.33832
1.33764
1.33722
1.33706
1.33714
1.33745
1.33798
1.3387
1.33957
1.34055
1.34161
1.34268
1.34373
1.34469
1.34552
1.34618
1.34664
1.34688
1.42812
1.42837
1.42887
1.42963
1.43065
1.43195
1.43352
1.43536
1.43748
1.43986
1.4425
1.44538
1.44848
1.4518
1.45533
1.45906
1.463
1.46714
1.47151
1.47612
1.48099
1.48613
1.49155
1.49725
1.50323
1.50946
1.51592
1.52255
1.52932
1.53616
1.54302
1.54981
1.55648
1.56297
1.56922
1.57517
1.58077
1.58597
1.59074
1.59505
1.59886
1.60215
1.60491
1.6071
1.60873
1.60977
1.61023
1.61009
1.60935
1.60801
1.60607
1.60354
1.60041
1.59669
1.5924
1.58755
1.58215
1.57622
1.56979
1.56288
1.55554
1.54779
1.5397
1.53131
1.52268
1.51389
1.50501
1.49613
1.48733
1.47869
1.47032
1.46229
1.45468
1.44755
1.44095
1.43491
1.42945
1.42455
1.4202
1.41633
1.4129
1.40985
1.40709
1.40456
1.40219
1.39993
1.39772
1.39552
1.39331
1.39107
1.3888
1.38651
1.38421
1.38193
1.37969
1.37752
1.37547
1.37354
1.37179
1.37021
1.36884
1.36769
1.36676
1.36607
1.3656
1.36535
1.36532
1.36549
1.36585
1.36637
1.36703
1.36778
1.3686
1.36943
1.37025
1.371
1.37165
1.37217
1.37253
1.37272
1.45672
1.45696
1.45745
1.45819
1.45918
1.46042
1.46192
1.46368
1.46569
1.46796
1.47046
1.47319
1.47614
1.4793
1.48267
1.48624
1.49002
1.494
1.49819
1.50261
1.50726
1.51215
1.51728
1.52265
1.52825
1.53406
1.54006
1.54619
1.55243
1.55871
1.565
1.57122
1.57733
1.58327
1.58898
1.59442
1.59954
1.60431
1.60868
1.61262
1.6161
1.61911
1.62162
1.62361
1.62508
1.626
1.62638
1.6262
1.62547
1.62417
1.62232
1.6199
1.61694
1.61344
1.6094
1.60484
1.59978
1.59424
1.58824
1.58181
1.57498
1.56779
1.56029
1.55253
1.54457
1.53646
1.52827
1.52009
1.51197
1.50401
1.49626
1.48881
1.48171
1.47502
1.46878
1.46301
1.45773
1.45293
1.44859
1.44468
1.44115
1.43795
1.43503
1.43234
1.42981
1.4274
1.42508
1.4228
1.42054
1.41829
1.41605
1.41381
1.4116
1.40941
1.40729
1.40525
1.40331
1.40149
1.39983
1.39833
1.39702
1.3959
1.39498
1.39426
1.39374
1.39343
1.3933
1.39335
1.39356
1.39392
1.39439
1.39495
1.39556
1.3962
1.39683
1.39741
1.39791
1.39832
1.3986
1.39875
1.48507
1.48531
1.48578
1.48649
1.48744
1.48863
1.49007
1.49174
1.49366
1.49581
1.49818
1.50078
1.50358
1.5066
1.50981
1.51322
1.51683
1.52064
1.52465
1.52886
1.53329
1.53793
1.54277
1.54783
1.55307
1.55849
1.56405
1.56973
1.57548
1.58127
1.58704
1.59275
1.59834
1.60378
1.60901
1.61399
1.61868
1.62304
1.62704
1.63064
1.63383
1.63657
1.63885
1.64066
1.64197
1.64278
1.64309
1.64287
1.64214
1.64089
1.63911
1.63682
1.63402
1.63072
1.62692
1.62264
1.6179
1.61272
1.60712
1.60113
1.59477
1.5881
1.58115
1.57396
1.56659
1.5591
1.55154
1.54398
1.53648
1.5291
1.52191
1.51498
1.50834
1.50205
1.49613
1.49063
1.48553
1.48084
1.47655
1.47263
1.46906
1.46578
1.46276
1.45995
1.45731
1.4548
1.45239
1.45005
1.44776
1.44551
1.44329
1.4411
1.43894
1.43685
1.43481
1.43286
1.43102
1.42929
1.42771
1.42627
1.425
1.4239
1.42298
1.42225
1.42169
1.42131
1.4211
1.42104
1.42113
1.42135
1.42166
1.42206
1.42251
1.42298
1.42345
1.42389
1.42428
1.42459
1.4248
1.42491
1.51319
1.51342
1.51387
1.51455
1.51547
1.5166
1.51797
1.51957
1.52139
1.52343
1.52569
1.52815
1.53082
1.53369
1.53675
1.54
1.54345
1.54708
1.55089
1.5549
1.5591
1.56349
1.56806
1.57281
1.57771
1.58276
1.58793
1.59319
1.5985
1.60384
1.60914
1.61439
1.61952
1.6245
1.62929
1.63385
1.63815
1.64213
1.64579
1.64908
1.65199
1.65449
1.65656
1.65819
1.65936
1.66007
1.66031
1.66006
1.65934
1.65812
1.65643
1.65425
1.6516
1.64849
1.64491
1.6409
1.63646
1.63162
1.62639
1.6208
1.61489
1.60869
1.60224
1.59557
1.58875
1.58181
1.57481
1.5678
1.56085
1.554
1.54732
1.54084
1.53462
1.52869
1.52309
1.51783
1.51292
1.50836
1.50414
1.50026
1.49667
1.49335
1.49027
1.48739
1.48468
1.4821
1.47963
1.47726
1.47495
1.47269
1.47049
1.46834
1.46624
1.46421
1.46225
1.46038
1.45861
1.45696
1.45543
1.45404
1.45281
1.45173
1.45081
1.45006
1.44946
1.44903
1.44874
1.44859
1.44858
1.44867
1.44886
1.44912
1.44943
1.44976
1.45011
1.45043
1.45072
1.45095
1.45111
1.45119
1.54109
1.5413
1.54174
1.54239
1.54326
1.54435
1.54565
1.54717
1.5489
1.55084
1.55298
1.55532
1.55786
1.56059
1.5635
1.5666
1.56987
1.57332
1.57695
1.58075
1.58473
1.58887
1.59317
1.59763
1.60221
1.60692
1.61172
1.6166
1.62151
1.62642
1.63131
1.63613
1.64084
1.64542
1.64981
1.65398
1.65791
1.66156
1.6649
1.66791
1.67056
1.67283
1.67471
1.67618
1.67722
1.67784
1.67801
1.67774
1.67701
1.67584
1.67422
1.67216
1.66965
1.66671
1.66335
1.65959
1.65543
1.6509
1.64601
1.64081
1.6353
1.62953
1.62354
1.61735
1.61101
1.60457
1.59808
1.59158
1.58512
1.57875
1.57251
1.56645
1.56061
1.55502
1.5497
1.54467
1.53995
1.53553
1.53141
1.52757
1.52401
1.52068
1.51757
1.51466
1.5119
1.50929
1.50679
1.50439
1.50207
1.49982
1.49764
1.49553
1.49348
1.4915
1.4896
1.48779
1.48609
1.48449
1.48301
1.48167
1.48046
1.47939
1.47848
1.4777
1.47708
1.47659
1.47624
1.47602
1.47591
1.4759
1.47598
1.47612
1.47632
1.47654
1.47678
1.47701
1.47721
1.47738
1.4775
1.47756
1.56876
1.56897
1.56938
1.57001
1.57084
1.57187
1.57311
1.57455
1.5762
1.57804
1.58008
1.5823
1.58471
1.5873
1.59007
1.59301
1.59612
1.5994
1.60283
1.60643
1.61019
1.61409
1.61813
1.62231
1.6266
1.63098
1.63545
1.63996
1.64451
1.64904
1.65355
1.65798
1.66231
1.66651
1.67054
1.67436
1.67796
1.6813
1.68435
1.68709
1.68951
1.69157
1.69327
1.69459
1.69551
1.69604
1.69616
1.69586
1.69514
1.69401
1.69246
1.6905
1.68813
1.68536
1.6822
1.67866
1.67477
1.67053
1.66596
1.66111
1.65597
1.6506
1.64502
1.63927
1.63338
1.6274
1.62136
1.61531
1.60929
1.60335
1.59752
1.59184
1.58635
1.58106
1.57602
1.57122
1.56668
1.5624
1.55839
1.55463
1.5511
1.5478
1.54469
1.54176
1.53899
1.53636
1.53385
1.53144
1.52913
1.52689
1.52473
1.52265
1.52064
1.51871
1.51686
1.51511
1.51345
1.5119
1.51047
1.50915
1.50797
1.50691
1.50599
1.5052
1.50455
1.50402
1.50362
1.50333
1.50314
1.50305
1.50303
1.50308
1.50318
1.50331
1.50346
1.5036
1.50374
1.50386
1.50394
1.50398
1.59623
1.59643
1.59682
1.59742
1.5982
1.59919
1.60037
1.60174
1.6033
1.60505
1.60698
1.60909
1.61138
1.61384
1.61646
1.61925
1.6222
1.6253
1.62856
1.63196
1.6355
1.63917
1.64297
1.64687
1.65088
1.65497
1.65912
1.6633
1.66751
1.6717
1.67585
1.67993
1.68392
1.68777
1.69146
1.69497
1.69826
1.70132
1.7041
1.70661
1.7088
1.71067
1.71221
1.71339
1.71421
1.71465
1.71472
1.7144
1.71369
1.71259
1.71111
1.70925
1.707
1.70439
1.70142
1.6981
1.69445
1.69048
1.68621
1.68168
1.67689
1.67188
1.66668
1.66133
1.65584
1.65027
1.64465
1.63901
1.6334
1.62784
1.62238
1.61705
1.61187
1.60688
1.60208
1.5975
1.59315
1.58902
1.58512
1.58144
1.57798
1.57471
1.57163
1.56871
1.56595
1.56332
1.56081
1.5584
1.5561
1.55388
1.55175
1.54969
1.54772
1.54583
1.54403
1.54232
1.54071
1.5392
1.5378
1.53651
1.53534
1.5343
1.53337
1.53257
1.53189
1.53133
1.53088
1.53053
1.53028
1.53011
1.53002
1.52999
1.53
1.53006
1.53013
1.53022
1.5303
1.53037
1.53042
1.53045
1.6235
1.62369
1.62406
1.62463
1.62538
1.62631
1.62743
1.62874
1.63022
1.63188
1.63371
1.63571
1.63788
1.64021
1.6427
1.64534
1.64813
1.65106
1.65413
1.65734
1.66067
1.66412
1.66768
1.67134
1.67508
1.67889
1.68274
1.68663
1.69052
1.69439
1.69822
1.70198
1.70565
1.70919
1.71258
1.71579
1.71881
1.7216
1.72414
1.72642
1.72842
1.73012
1.7315
1.73255
1.73327
1.73364
1.73366
1.73332
1.73262
1.73156
1.73015
1.72837
1.72625
1.72379
1.72099
1.71787
1.71444
1.71072
1.70674
1.70249
1.69802
1.69335
1.6885
1.68351
1.67839
1.6732
1.66795
1.66269
1.65744
1.65224
1.64712
1.6421
1.63722
1.63249
1.62793
1.62356
1.61938
1.6154
1.61163
1.60804
1.60465
1.60144
1.5984
1.59551
1.59276
1.59015
1.58766
1.58527
1.58298
1.58079
1.57868
1.57666
1.57472
1.57287
1.57111
1.56944
1.56786
1.56638
1.56501
1.56375
1.5626
1.56156
1.56063
1.55982
1.55912
1.55852
1.55803
1.55764
1.55733
1.5571
1.55694
1.55685
1.5568
1.55678
1.5568
1.55683
1.55686
1.5569
1.55692
1.55694
1.65058
1.65076
1.65112
1.65165
1.65236
1.65325
1.65431
1.65555
1.65696
1.65853
1.66026
1.66216
1.66421
1.66642
1.66877
1.67127
1.67391
1.67668
1.67958
1.6826
1.68573
1.68897
1.6923
1.69572
1.69921
1.70276
1.70634
1.70995
1.71355
1.71713
1.72067
1.72413
1.7275
1.73076
1.73387
1.73681
1.73957
1.74213
1.74445
1.74653
1.74834
1.74987
1.75112
1.75205
1.75268
1.75298
1.75296
1.75261
1.75192
1.75089
1.74954
1.74785
1.74584
1.74351
1.74088
1.73795
1.73473
1.73124
1.72751
1.72354
1.71936
1.71499
1.71047
1.7058
1.70103
1.69618
1.69127
1.68635
1.68144
1.67656
1.67175
1.66702
1.66241
1.65793
1.6536
1.64942
1.64542
1.64159
1.63794
1.63446
1.63115
1.628
1.62501
1.62216
1.61945
1.61687
1.6144
1.61203
1.60977
1.6076
1.60553
1.60354
1.60163
1.59982
1.59809
1.59645
1.59491
1.59347
1.59212
1.59088
1.58974
1.58871
1.58778
1.58696
1.58624
1.58561
1.58509
1.58465
1.5843
1.58402
1.58381
1.58366
1.58355
1.58348
1.58345
1.58343
1.58343
1.58343
1.58344
1.58344
1.67748
1.67765
1.67799
1.6785
1.67917
1.68002
1.68102
1.68219
1.68353
1.68501
1.68666
1.68845
1.6904
1.69248
1.69471
1.69707
1.69955
1.70217
1.7049
1.70774
1.71068
1.71372
1.71684
1.72004
1.72329
1.72659
1.72992
1.73327
1.7366
1.73991
1.74318
1.74637
1.74947
1.75246
1.75532
1.75802
1.76055
1.76288
1.765
1.76689
1.76854
1.76992
1.77104
1.77187
1.77241
1.77265
1.77259
1.77222
1.77154
1.77055
1.76926
1.76765
1.76575
1.76355
1.76106
1.75831
1.75528
1.75201
1.74851
1.7448
1.74089
1.7368
1.73257
1.72821
1.72374
1.7192
1.71461
1.71
1.70539
1.70081
1.69629
1.69183
1.68747
1.68322
1.6791
1.67512
1.67128
1.6676
1.66407
1.6607
1.65748
1.65441
1.65148
1.64868
1.64601
1.64346
1.64103
1.6387
1.63647
1.63433
1.63228
1.63033
1.62846
1.62668
1.62498
1.62338
1.62187
1.62045
1.61913
1.6179
1.61678
1.61575
1.61482
1.61399
1.61325
1.61261
1.61206
1.61159
1.6112
1.61087
1.61062
1.61042
1.61027
1.61015
1.61008
1.61002
1.60999
1.60997
1.60996
1.60995
1.70421
1.70438
1.7047
1.70518
1.70582
1.70662
1.70757
1.70868
1.70994
1.71135
1.7129
1.7146
1.71643
1.7184
1.7205
1.72273
1.72508
1.72754
1.7301
1.73277
1.73554
1.73838
1.7413
1.74429
1.74732
1.7504
1.75349
1.75659
1.75968
1.76274
1.76576
1.7687
1.77156
1.77431
1.77693
1.77941
1.78172
1.78385
1.78578
1.7875
1.78899
1.79024
1.79124
1.79197
1.79244
1.79263
1.79253
1.79215
1.79148
1.79052
1.78928
1.78775
1.78595
1.78387
1.78152
1.77893
1.77609
1.77302
1.76973
1.76625
1.76258
1.75876
1.75479
1.75071
1.74653
1.74228
1.73798
1.73365
1.72932
1.72502
1.72075
1.71654
1.71242
1.70839
1.70447
1.70066
1.69699
1.69345
1.69005
1.68679
1.68366
1.68067
1.67781
1.67507
1.67245
1.66995
1.66755
1.66526
1.66307
1.66096
1.65895
1.65703
1.6552
1.65345
1.65179
1.65021
1.64873
1.64734
1.64604
1.64483
1.64371
1.64269
1.64176
1.64092
1.64018
1.63952
1.63894
1.63844
1.63802
1.63766
1.63737
1.63713
1.63694
1.63679
1.63668
1.6366
1.63654
1.63649
1.63647
1.63646
1.73079
1.73094
1.73124
1.7317
1.7323
1.73306
1.73396
1.73501
1.7362
1.73753
1.739
1.7406
1.74234
1.7442
1.74618
1.74827
1.75048
1.7528
1.75521
1.75772
1.76031
1.76297
1.7657
1.76849
1.77132
1.77418
1.77705
1.77993
1.78279
1.78562
1.7884
1.79112
1.79375
1.79628
1.79868
1.80096
1.80307
1.80502
1.80678
1.80834
1.80969
1.81081
1.8117
1.81235
1.81274
1.81288
1.81276
1.81237
1.81171
1.81078
1.80959
1.80813
1.80642
1.80445
1.80224
1.79979
1.79712
1.79423
1.79115
1.78788
1.78444
1.78086
1.77714
1.77331
1.76939
1.7654
1.76137
1.7573
1.75323
1.74918
1.74515
1.74118
1.73727
1.73344
1.72971
1.72608
1.72257
1.71917
1.71589
1.71274
1.70971
1.7068
1.70401
1.70134
1.69878
1.69633
1.69398
1.69173
1.68957
1.68751
1.68553
1.68365
1.68184
1.68013
1.6785
1.67696
1.6755
1.67413
1.67285
1.67166
1.67055
1.66954
1.66861
1.66777
1.66701
1.66634
1.66575
1.66523
1.66478
1.66439
1.66407
1.66379
1.66357
1.66339
1.66325
1.66314
1.66306
1.663
1.66297
1.66295
1.7572
1.75735
1.75764
1.75807
1.75864
1.75935
1.76021
1.7612
1.76232
1.76358
1.76497
1.76648
1.76811
1.76987
1.77173
1.77371
1.77579
1.77796
1.78023
1.78258
1.785
1.7875
1.79005
1.79265
1.79528
1.79794
1.80061
1.80328
1.80593
1.80855
1.81112
1.81362
1.81604
1.81837
1.82058
1.82266
1.82459
1.82637
1.82797
1.82939
1.83061
1.83162
1.83241
1.83298
1.83331
1.8334
1.83325
1.83285
1.8322
1.8313
1.83016
1.82877
1.82714
1.82528
1.82319
1.82088
1.81836
1.81565
1.81275
1.80968
1.80645
1.80308
1.79959
1.796
1.79232
1.78858
1.78478
1.78096
1.77713
1.7733
1.7695
1.76574
1.76204
1.75841
1.75485
1.75139
1.74802
1.74476
1.74161
1.73856
1.73563
1.73281
1.7301
1.7275
1.725
1.7226
1.7203
1.7181
1.71598
1.71396
1.71202
1.71017
1.70841
1.70673
1.70513
1.70361
1.70218
1.70084
1.69958
1.6984
1.69731
1.6963
1.69537
1.69453
1.69377
1.69308
1.69247
1.69194
1.69146
1.69106
1.69071
1.69041
1.69016
1.68996
1.68979
1.68966
1.68956
1.68949
1.68945
1.68942
1.78348
1.78361
1.78389
1.78429
1.78483
1.78551
1.78631
1.78725
1.78831
1.7895
1.79081
1.79223
1.79377
1.79542
1.79718
1.79904
1.80099
1.80303
1.80516
1.80736
1.80963
1.81196
1.81435
1.81677
1.81922
1.8217
1.82418
1.82665
1.8291
1.83152
1.83389
1.8362
1.83843
1.84057
1.8426
1.8445
1.84627
1.8479
1.84935
1.85064
1.85174
1.85264
1.85335
1.85384
1.85411
1.85416
1.85398
1.85358
1.85294
1.85207
1.85097
1.84965
1.8481
1.84633
1.84436
1.84218
1.8398
1.83725
1.83452
1.83163
1.8286
1.82543
1.82215
1.81878
1.81532
1.8118
1.80823
1.80463
1.80101
1.7974
1.79381
1.79025
1.78674
1.78329
1.7799
1.7766
1.77338
1.77025
1.76721
1.76428
1.76145
1.75872
1.75608
1.75355
1.75112
1.74878
1.74653
1.74438
1.74231
1.74033
1.73843
1.73662
1.73489
1.73324
1.73167
1.73019
1.72878
1.72746
1.72622
1.72505
1.72397
1.72298
1.72205
1.72121
1.72045
1.71975
1.71913
1.71858
1.71809
1.71766
1.71729
1.71698
1.71671
1.71648
1.7163
1.71615
1.71604
1.71595
1.7159
1.71587
1.80961
1.80974
1.81
1.81038
1.81089
1.81153
1.81229
1.81317
1.81417
1.81529
1.81653
1.81787
1.81932
1.82087
1.82252
1.82427
1.8261
1.82802
1.83001
1.83208
1.8342
1.83638
1.8386
1.84086
1.84314
1.84544
1.84774
1.85004
1.85231
1.85454
1.85673
1.85886
1.86091
1.86288
1.86474
1.86649
1.8681
1.86958
1.87091
1.87207
1.87306
1.87387
1.87449
1.87491
1.87513
1.87515
1.87495
1.87454
1.87391
1.87307
1.87201
1.87075
1.86928
1.8676
1.86573
1.86367
1.86143
1.85902
1.85645
1.85373
1.85087
1.8479
1.84481
1.84164
1.83838
1.83506
1.8317
1.82831