/*--------------------------------*- C++ -*----------------------------------*\
| =========                 |                                                 |
| \\      /  F ield         | OpenFOAM: The Open Source CFD Toolbox           |
|  \\    /   O peration     | Version:  2406                                  |
|   \\  /    A nd           | Website:  www.openfoam.com                      |
|    \\/     M anipulation  |                                                 |
\*---------------------------------------------------------------------------*/
FoamFile
{
    version     2.0;
    format      ascii;
    arch        "LSB;label=32;scalar=64";
    class       volScalarField;
    location    "9.95";
    object      D;
}
// * * * * * * * * * * * * * * * * * * * * * * * * * * * * * * * * * * * * * //

dimensions      [0 2 -1 0 0 0 0];

internalField   nonuniform List<scalar> 
14400
(
8.12799e-05
8.13107e-05
8.13847e-05
8.15036e-05
8.16501e-05
8.17956e-05
8.19107e-05
8.19746e-05
8.19813e-05
8.19413e-05
8.1881e-05
8.18367e-05
8.18446e-05
8.19241e-05
8.20578e-05
8.21886e-05
8.22663e-05
8.2327e-05
8.23931e-05
8.24334e-05
8.23772e-05
8.21381e-05
8.16314e-05
8.07857e-05
7.9553e-05
7.79213e-05
7.5932e-05
7.37024e-05
7.14238e-05
6.93018e-05
6.74791e-05
6.60121e-05
6.48995e-05
6.4124e-05
6.36853e-05
6.36364e-05
6.41688e-05
6.59781e-05
7.29025e-05
0.000132976
0.00013824
0.00013824
0.00013824
0.00013824
0.00013824
0.00013824
0.00013824
0.00013824
0.00013824
0.00013824
0.00013824
0.00013824
0.00013824
0.00013824
0.00013824
0.00013824
0.00013824
0.00013824
0.00012888
7.22499e-05
6.61495e-05
6.46854e-05
6.44076e-05
6.47352e-05
6.55318e-05
6.67936e-05
6.85692e-05
7.09036e-05
7.37557e-05
7.6923e-05
8.00785e-05
8.29178e-05
8.52601e-05
8.70336e-05
8.82235e-05
8.88403e-05
8.89089e-05
8.84637e-05
8.75516e-05
8.62421e-05
8.4641e-05
8.29066e-05
8.12609e-05
8.00068e-05
7.96189e-05
8.12935e-05
9.11403e-05
0.000136853
9.8305e-05
8.02927e-05
7.66216e-05
7.56562e-05
7.56377e-05
7.60873e-05
7.67891e-05
7.76097e-05
7.84536e-05
7.92518e-05
7.99567e-05
8.05384e-05
8.09786e-05
8.12648e-05
8.1386e-05
8.13314e-05
8.10939e-05
8.06719e-05
8.00684e-05
7.92891e-05
7.83453e-05
7.726e-05
7.60757e-05
7.48577e-05
7.36922e-05
7.26781e-05
7.19235e-05
7.15638e-05
7.18353e-05
7.33846e-05
7.94857e-05
0.000125819
8.01209e-05
8.00827e-05
8.00586e-05
8.00822e-05
8.01519e-05
8.02437e-05
8.03289e-05
8.03864e-05
8.04096e-05
8.04093e-05
8.04133e-05
8.04609e-05
8.05915e-05
8.0822e-05
8.111e-05
8.13245e-05
8.1329e-05
8.12643e-05
8.12212e-05
8.11849e-05
8.10817e-05
8.0819e-05
8.03079e-05
7.94771e-05
7.82823e-05
7.67188e-05
7.48384e-05
7.27631e-05
7.067e-05
6.87337e-05
6.70713e-05
6.573e-05
6.47132e-05
6.40135e-05
6.36435e-05
6.36787e-05
6.43771e-05
6.67901e-05
7.75676e-05
0.000137158
0.00013824
0.00013824
0.00013824
0.00013824
0.00013824
0.00013824
0.00013824
0.00013824
0.00013824
0.00013824
0.00013824
0.00013824
0.00013824
0.00013824
0.00013824
0.00013824
0.00013824
0.00013824
0.000134935
7.44138e-05
6.67099e-05
6.48476e-05
6.44227e-05
6.46601e-05
6.53725e-05
6.65332e-05
6.81762e-05
7.03415e-05
7.30035e-05
7.59983e-05
7.90336e-05
8.18096e-05
8.41267e-05
8.58921e-05
8.70789e-05
8.7693e-05
8.77569e-05
8.73057e-05
8.63902e-05
8.50867e-05
8.35109e-05
8.18314e-05
8.0278e-05
7.91607e-05
7.89962e-05
8.13442e-05
9.61871e-05
0.00013792
0.00010847
8.07833e-05
7.62192e-05
7.49896e-05
7.47882e-05
7.50776e-05
7.56349e-05
7.63301e-05
7.70737e-05
7.7801e-05
7.84664e-05
7.90378e-05
7.94906e-05
7.98013e-05
7.9945e-05
7.98984e-05
7.96501e-05
7.92062e-05
7.85843e-05
7.78047e-05
7.68896e-05
7.58688e-05
7.47863e-05
7.37029e-05
7.26947e-05
7.18481e-05
7.12643e-05
7.10856e-05
7.15912e-05
7.35936e-05
8.10249e-05
0.000133341
7.8142e-05
7.7937e-05
7.76957e-05
7.75218e-05
7.74367e-05
7.74206e-05
7.74444e-05
7.74861e-05
7.75387e-05
7.76132e-05
7.77391e-05
7.79621e-05
7.83345e-05
7.88862e-05
7.95445e-05
7.99913e-05
7.97521e-05
7.93593e-05
7.90595e-05
7.88495e-05
7.86394e-05
7.83234e-05
7.78065e-05
7.70174e-05
7.59186e-05
7.4517e-05
7.28744e-05
7.11056e-05
6.93516e-05
6.77391e-05
6.63516e-05
6.52281e-05
6.43807e-05
6.38187e-05
6.35775e-05
6.37725e-05
6.4799e-05
6.87186e-05
9.61325e-05
0.000138222
0.00013824
0.00013824
0.00013824
0.00013824
0.00013824
0.00013824
0.00013824
0.00013824
0.00013824
0.00013824
0.00013824
0.00013824
0.00013824
0.00013824
0.00013824
0.00013824
0.00013824
0.00013824
0.000138127
8.79182e-05
6.8382e-05
6.52079e-05
6.44627e-05
6.45276e-05
6.50848e-05
6.6063e-05
6.74695e-05
6.93299e-05
7.16348e-05
7.42788e-05
7.70389e-05
7.96433e-05
8.18724e-05
8.35987e-05
8.4768e-05
8.53721e-05
8.54288e-05
8.49757e-05
8.40721e-05
8.28096e-05
8.13224e-05
7.97944e-05
7.84605e-05
7.76317e-05
7.78795e-05
8.14276e-05
0.000107491
0.000138223
0.00012463
8.17237e-05
7.56764e-05
7.39123e-05
7.33592e-05
7.33563e-05
7.36533e-05
7.41191e-05
7.4671e-05
7.5253e-05
7.58254e-05
7.6357e-05
7.68166e-05
7.71646e-05
7.73502e-05
7.73225e-05
7.70608e-05
7.65883e-05
7.5953e-05
7.5201e-05
7.43698e-05
7.34943e-05
7.26141e-05
7.17771e-05
7.10406e-05
7.04746e-05
7.0175e-05
7.03082e-05
7.12795e-05
7.47109e-05
9.28972e-05
0.000138063
7.6016e-05
7.54913e-05
7.49067e-05
7.4459e-05
7.41722e-05
7.4017e-05
7.39594e-05
7.39759e-05
7.40592e-05
7.42204e-05
7.44912e-05
7.49274e-05
7.56129e-05
7.6648e-05
7.80304e-05
7.91426e-05
7.81315e-05
7.7058e-05
7.63233e-05
7.58429e-05
7.54706e-05
7.50763e-05
7.45584e-05
7.38482e-05
7.29156e-05
7.17731e-05
7.04755e-05
6.91082e-05
6.77663e-05
6.65327e-05
6.54665e-05
6.46035e-05
6.39674e-05
6.35878e-05
6.35296e-05
6.39668e-05
6.54837e-05
7.12685e-05
0.000122082
0.00013824
0.00013824
0.00013824
0.00013824
0.00013824
0.00013824
0.00013824
0.00013824
0.00013824
0.00013824
0.00013824
0.00013824
0.00013824
0.00013824
0.00013824
0.00013824
0.00013824
0.00013824
0.00013824
0.00013824
0.000113569
7.07244e-05
6.5733e-05
6.45508e-05
6.43761e-05
6.47243e-05
6.54677e-05
6.65783e-05
6.80585e-05
6.99007e-05
7.20458e-05
7.43536e-05
7.66173e-05
7.86268e-05
8.0227e-05
8.13307e-05
8.19057e-05
8.196e-05
8.15342e-05
8.07015e-05
7.95732e-05
7.8301e-05
7.70742e-05
7.61195e-05
7.57453e-05
7.65974e-05
8.16004e-05
0.000122375
0.00013824
0.000137345
8.76002e-05
7.58046e-05
7.28542e-05
7.17703e-05
7.13975e-05
7.13862e-05
7.15827e-05
7.1904e-05
7.23009e-05
7.2742e-05
7.32013e-05
7.36475e-05
7.40304e-05
7.42699e-05
7.42739e-05
7.40038e-05
7.35117e-05
7.28872e-05
7.22035e-05
7.15069e-05
7.08293e-05
7.01988e-05
6.96467e-05
6.92139e-05
6.89602e-05
6.89867e-05
6.95027e-05
7.10998e-05
7.66968e-05
0.000118462
0.00013824
7.47696e-05
7.35428e-05
7.24419e-05
7.16697e-05
7.11727e-05
7.08804e-05
7.07424e-05
7.07291e-05
7.08315e-05
7.10623e-05
7.14592e-05
7.20961e-05
7.31168e-05
7.48118e-05
7.77551e-05
8.23767e-05
7.74526e-05
7.4969e-05
7.36058e-05
7.27943e-05
7.2236e-05
7.17561e-05
7.12455e-05
7.06387e-05
6.99073e-05
6.90563e-05
6.81183e-05
6.71442e-05
6.61917e-05
6.53144e-05
6.4557e-05
6.39557e-05
6.35466e-05
6.33828e-05
6.35754e-05
6.44313e-05
6.72358e-05
8.19497e-05
0.000137924
0.00013824
0.00013824
0.00013824
0.00013824
0.00013824
0.00013824
0.00013824
0.00013824
0.00013824
0.00013824
0.00013824
0.00013824
0.00013824
0.00013824
0.00013824
0.00013824
0.00013824
0.00013824
0.00013824
0.00013824
0.000135284
7.47221e-05
6.67596e-05
6.4806e-05
6.42771e-05
6.43629e-05
6.48414e-05
6.56388e-05
6.67285e-05
6.80906e-05
6.96844e-05
7.14275e-05
7.31891e-05
7.48109e-05
7.61466e-05
7.70933e-05
7.76003e-05
7.76655e-05
7.73301e-05
7.66758e-05
7.58205e-05
7.49124e-05
7.41251e-05
7.36739e-05
7.39105e-05
7.57734e-05
8.38337e-05
0.000135589
0.00013824
0.00013824
0.000118378
7.79989e-05
7.22727e-05
7.04224e-05
6.96408e-05
6.93309e-05
6.92818e-05
6.93961e-05
6.96259e-05
6.99452e-05
7.03344e-05
7.07674e-05
7.11933e-05
7.15057e-05
7.15553e-05
7.12672e-05
7.07464e-05
7.01329e-05
6.9521e-05
6.89559e-05
6.84606e-05
6.80515e-05
6.77493e-05
6.75878e-05
6.76293e-05
6.80012e-05
6.9015e-05
7.17386e-05
8.26921e-05
0.000137094
0.00013824
7.73672e-05
7.30247e-05
7.08623e-05
6.96322e-05
6.88975e-05
6.8469e-05
6.82558e-05
6.8212e-05
6.83239e-05
6.86075e-05
6.91143e-05
6.99554e-05
7.13951e-05
7.42314e-05
8.25342e-05
0.000123583
8.01844e-05
7.3743e-05
7.14128e-05
7.02211e-05
6.94764e-05
6.89179e-05
6.84181e-05
6.79076e-05
6.73529e-05
6.67464e-05
6.61005e-05
6.54411e-05
6.48016e-05
6.42182e-05
6.37272e-05
6.33672e-05
6.31878e-05
6.32739e-05
6.38184e-05
6.54311e-05
7.13803e-05
0.000123381
0.00013824
0.00013824
0.00013824
0.00013824
0.00013824
0.00013824
0.00013824
0.00013824
0.00013824
0.00013824
0.00013824
0.00013824
0.00013824
0.00013824
0.00013824
0.00013824
0.00013824
0.00013824
0.00013824
0.00013824
0.00013824
0.000138239
0.000109287
7.01065e-05
6.54905e-05
6.43293e-05
6.40764e-05
6.42682e-05
6.47606e-05
6.54926e-05
6.64267e-05
6.75231e-05
6.87251e-05
6.99527e-05
7.11063e-05
7.2083e-05
7.27988e-05
7.32056e-05
7.32973e-05
7.31097e-05
7.2715e-05
7.22145e-05
7.17326e-05
7.14219e-05
7.15065e-05
7.24822e-05
7.65233e-05
0.000104755
0.000138227
0.00013824
0.00013824
0.000137765
8.70166e-05
7.29133e-05
6.96647e-05
6.83732e-05
6.77641e-05
6.75006e-05
6.7449e-05
6.7554e-05
6.77912e-05
6.81465e-05
6.86024e-05
6.91198e-05
6.9567e-05
6.96965e-05
6.93338e-05
6.87208e-05
6.80676e-05
6.74832e-05
6.70015e-05
6.66334e-05
6.63868e-05
6.62786e-05
6.63467e-05
6.66729e-05
6.74587e-05
6.93181e-05
7.5336e-05
0.000121263
0.00013824
0.00013824
0.000114441
7.66379e-05
7.06688e-05
6.8525e-05
6.74344e-05
6.68345e-05
6.65373e-05
6.64609e-05
6.65821e-05
6.69227e-05
6.75629e-05
6.8695e-05
7.09095e-05
7.71169e-05
0.000120047
0.000138188
9.72027e-05
7.42199e-05
7.00013e-05
6.83314e-05
6.73915e-05
6.67558e-05
6.62571e-05
6.58132e-05
6.53824e-05
6.49472e-05
6.45072e-05
6.40737e-05
6.36666e-05
6.3312e-05
6.30426e-05
6.29025e-05
6.29609e-05
6.33576e-05
6.44869e-05
6.82555e-05
9.41337e-05
0.00013822
0.00013824
0.00013824
0.00013824
0.00013824
0.00013824
0.00013824
0.00013824
0.00013824
0.00013824
0.00013824
0.00013824
0.00013824
0.00013824
0.00013824
0.00013824
0.00013824
0.00013824
0.00013824
0.00013824
0.00013824
0.00013824
0.00013824
0.000136951
7.67407e-05
6.69196e-05
6.46652e-05
6.39479e-05
6.38187e-05
6.40168e-05
6.44369e-05
6.50204e-05
6.5722e-05
6.64954e-05
6.72871e-05
6.80365e-05
6.86824e-05
6.91735e-05
6.94794e-05
6.95977e-05
6.95554e-05
6.9407e-05
6.92305e-05
6.91291e-05
6.92492e-05
6.98569e-05
7.16628e-05
7.80096e-05
0.000128376
0.00013824
0.00013824
0.00013824
0.00013824
0.000129283
7.69982e-05
7.00294e-05
6.78187e-05
6.68057e-05
6.63152e-05
6.6115e-05
6.61282e-05
6.63271e-05
6.67037e-05
6.72564e-05
6.79942e-05
6.87737e-05
6.91394e-05
6.84778e-05
6.75893e-05
6.67723e-05
6.61321e-05
6.56677e-05
6.53693e-05
6.52346e-05
6.52832e-05
6.55711e-05
6.62299e-05
6.767e-05
7.17988e-05
9.5993e-05
0.000138205
0.00013824
0.00013824
0.000138231
0.00010327
7.35936e-05
6.86203e-05
6.6807e-05
6.59216e-05
6.55038e-05
6.53858e-05
6.55251e-05
6.59553e-05
6.68213e-05
6.85212e-05
7.29309e-05
9.68598e-05
0.000138201
0.00013824
0.000127715
7.63448e-05
6.94957e-05
6.71516e-05
6.59626e-05
6.52277e-05
6.47069e-05
6.42945e-05
6.39382e-05
6.36128e-05
6.33104e-05
6.30346e-05
6.27986e-05
6.26246e-05
6.25469e-05
6.26226e-05
6.29572e-05
6.37992e-05
6.59972e-05
7.45955e-05
0.000136238
0.00013824
0.00013824
0.00013824
0.00013824
0.00013824
0.00013824
0.00013824
0.00013824
0.00013824
0.00013824
0.00013824
0.00013824
0.00013824
0.00013824
0.00013824
0.00013824
0.00013824
0.00013824
0.00013824
0.00013824
0.00013824
0.00013824
0.00013824
0.00013824
0.000122863
7.1559e-05
6.57077e-05
6.41153e-05
6.35626e-05
6.34554e-05
6.35983e-05
6.39003e-05
6.43051e-05
6.47689e-05
6.5252e-05
6.57159e-05
6.61251e-05
6.64519e-05
6.66817e-05
6.68172e-05
6.68807e-05
6.69146e-05
6.69834e-05
6.71852e-05
6.76914e-05
6.89135e-05
7.25859e-05
9.39915e-05
0.000138166
0.00013824
0.00013824
0.00013824
0.00013824
0.00013824
0.00011452
7.43752e-05
6.85194e-05
6.66125e-05
6.57756e-05
6.53909e-05
6.53232e-05
6.55295e-05
6.60179e-05
6.68207e-05
6.81702e-05
7.01359e-05
7.20936e-05
6.94493e-05
6.7633e-05
6.63177e-05
6.54644e-05
6.49291e-05
6.46467e-05
6.45933e-05
6.47988e-05
6.53715e-05
6.65645e-05
6.94092e-05
8.08128e-05
0.00013738
0.00013824
0.00013824
0.00013824
0.00013824
0.00013813
9.06563e-05
7.1394e-05
6.73313e-05
6.57921e-05
6.51532e-05
6.49652e-05
6.51473e-05
6.57565e-05
6.71343e-05
7.03379e-05
8.27622e-05
0.000137579
0.00013824
0.00013824
0.000138216
9.72812e-05
7.11245e-05
6.67782e-05
6.5141e-05
6.4243e-05
6.3662e-05
6.32459e-05
6.29252e-05
6.26665e-05
6.24563e-05
6.22946e-05
6.21927e-05
6.21749e-05
6.22857e-05
6.26161e-05
6.3371e-05
6.51822e-05
7.15277e-05
0.000127343
0.00013824
0.00013824
0.00013824
0.00013824
0.00013824
0.00013824
0.00013824
0.00013824
0.00013824
0.00013824
0.00013824
0.00013824
0.00013824
0.00013824
0.00013824
0.00013824
0.00013824
0.00013824
0.00013824
0.00013824
0.00013824
0.00013824
0.00013824
0.00013824
0.00013824
0.000138233
9.90049e-05
6.90705e-05
6.4858e-05
6.35912e-05
6.31181e-05
6.29938e-05
6.30598e-05
6.32378e-05
6.34803e-05
6.3753e-05
6.40283e-05
6.42843e-05
6.45061e-05
6.46881e-05
6.48371e-05
6.49742e-05
6.51378e-05
6.53919e-05
6.58489e-05
6.67473e-05
6.87738e-05
7.53169e-05
0.000127386
0.00013824
0.00013824
0.00013824
0.00013824
0.00013824
0.00013824
0.000138237
0.000106715
7.32213e-05
6.77654e-05
6.61326e-05
6.5383e-05
6.52091e-05
6.54951e-05
6.63334e-05
6.78384e-05
7.19212e-05
8.10324e-05
0.00010452
7.70289e-05
7.06013e-05
6.71674e-05
6.56463e-05
6.48643e-05
6.45317e-05
6.45504e-05
6.49832e-05
6.6155e-05
6.88272e-05
7.73214e-05
0.000135653
0.00013824
0.00013824
0.00013824
0.00013824
0.00013824
0.00013824
0.000138014
8.86117e-05
7.11474e-05
6.69826e-05
6.57874e-05
6.5421e-05
6.57322e-05
6.68232e-05
7.01898e-05
8.07593e-05
0.000136857
0.00013824
0.00013824
0.00013824
0.00013824
0.000134437
7.54441e-05
6.74456e-05
6.49695e-05
6.37653e-05
6.30557e-05
6.25938e-05
6.22753e-05
6.20529e-05
6.19075e-05
6.18373e-05
6.18567e-05
6.20011e-05
6.23423e-05
6.30725e-05
6.47727e-05
7.04815e-05
0.000116293
0.00013824
0.00013824
0.00013824
0.00013824
0.00013824
0.00013824
0.00013824
0.00013824
0.00013824
0.00013824
0.00013824
0.00013824
0.00013824
0.00013824
0.00013824
0.00013824
0.00013824
0.00013824
0.00013824
0.00013824
0.00013824
0.00013824
0.00013824
0.00013824
0.00013824
0.00013824
0.00013824
0.000137843
8.03359e-05
6.68588e-05
6.40742e-05
6.3072e-05
6.26476e-05
6.24915e-05
6.24806e-05
6.25544e-05
6.26773e-05
6.28253e-05
6.29822e-05
6.3139e-05
6.32951e-05
6.34601e-05
6.36571e-05
6.39281e-05
6.4349e-05
6.50754e-05
6.65358e-05
7.0754e-05
9.80276e-05
0.000138223
0.00013824
0.00013824
0.00013824
0.00013824
0.00013824
0.00013824
0.00013824
0.000138237
0.000111979
7.38135e-05
6.88008e-05
6.66558e-05
6.62461e-05
6.68128e-05
6.92909e-05
7.3914e-05
0.000106537
0.000137413
0.000138235
0.000135727
9.50119e-05
7.2398e-05
6.76165e-05
6.59546e-05
6.54242e-05
6.55458e-05
6.64946e-05
7.02395e-05
8.16367e-05
0.000136006
0.00013824
0.00013824
0.00013824
0.00013824
0.00013824
0.00013824
0.00013824
0.00013824
0.000138109
0.000101356
7.29115e-05
6.93391e-05
6.79805e-05
6.90345e-05
7.23274e-05
9.26807e-05
0.000137428
0.00013824
0.00013824
0.00013824
0.00013824
0.00013824
0.00013824
0.000121663
7.22574e-05
6.59523e-05
6.39063e-05
6.29035e-05
6.23264e-05
6.19711e-05
6.17596e-05
6.16652e-05
6.16845e-05
6.1843e-05
6.22122e-05
6.29315e-05
6.4588e-05
7.01205e-05
0.00011123
0.00013824
0.00013824
0.00013824
0.00013824
0.00013824
0.00013824
0.00013824
0.00013824
0.00013824
0.00013824
0.00013824
0.00013824
0.00013824
0.00013824
0.00013824
0.00013824
0.00013824
0.00013824
0.00013824
0.00013824
0.00013824
0.00013824
0.00013824
0.00013824
0.00013824
0.00013824
0.00013824
0.00013824
0.00013824
0.000134744
7.31249e-05
6.55735e-05
6.34959e-05
6.26295e-05
6.22142e-05
6.20152e-05
6.19398e-05
6.19427e-05
6.19966e-05
6.20851e-05
6.22014e-05
6.23476e-05
6.25366e-05
6.27971e-05
6.3184e-05
6.38051e-05
6.49087e-05
6.72968e-05
7.54594e-05
0.000135157
0.00013824
0.00013824
0.00013824
0.00013824
0.00013824
0.00013824
0.00013824
0.00013824
0.00013824
0.000138239
0.000127929
8.64482e-05
7.25965e-05
7.14035e-05
7.30392e-05
9.125e-05
0.000129197
0.000138238
0.00013824
0.00013824
0.00013824
0.000138212
0.000120709
7.79641e-05
7.12048e-05
6.9744e-05
7.02696e-05
7.31198e-05
0.00010412
0.00013778
0.00013824
0.00013824
0.00013824
0.00013824
0.00013824
0.00013824
0.00013824
0.00013824
0.00013824
0.00013824
0.000138233
0.00012583
9.52637e-05
8.10186e-05
9.14473e-05
0.000121377
0.000138196
0.00013824
0.00013824
0.00013824
0.00013824
0.00013824
0.00013824
0.00013824
0.000138239
0.000109986
7.0853e-05
6.52065e-05
6.33903e-05
6.25428e-05
6.20804e-05
6.18473e-05
6.18053e-05
6.19464e-05
6.23267e-05
6.31737e-05
6.48228e-05
7.051e-05
0.000114227
0.00013824
0.00013824
0.00013824
0.00013824
0.00013824
0.00013824
0.00013824
0.00013824
0.00013824
0.00013824
0.00013824
0.00013824
0.00013824
0.00013824
0.00013824
0.00013824
0.00013824
0.00013824
0.00013824
0.00013824
0.00013824
0.00013824
0.00013824
0.00013824
0.00013824
0.00013824
0.00013824
0.00013824
0.00013824
0.00013824
0.00013824
0.000129308
7.16193e-05
6.50374e-05
6.31489e-05
6.23151e-05
6.18677e-05
6.16242e-05
6.15097e-05
6.14812e-05
6.1516e-05
6.16065e-05
6.17569e-05
6.19848e-05
6.23318e-05
6.2886e-05
6.38494e-05
6.5825e-05
7.20372e-05
0.000122312
0.00013824
0.00013824
0.00013824
0.00013824
0.00013824
0.00013824
0.00013824
0.00013824
0.00013824
0.00013824
0.00013824
0.00013824
0.000138087
0.000127971
0.00011951
0.000130378
0.000138184
0.00013824
0.00013824
0.00013824
0.00013824
0.00013824
0.00013824
0.00013824
0.000137188
0.00011906
0.000103651
0.000110957
0.000131655
0.000138237
0.00013824
0.00013824
0.00013824
0.00013824
0.00013824
0.00013824
0.00013824
0.00013824
0.00013824
0.00013824
0.00013824
0.00013824
0.00013824
0.000138214
0.000137692
0.000138182
0.00013824
0.00013824
0.00013824
0.00013824
0.00013824
0.00013824
0.00013824
0.00013824
0.00013824
0.00013824
0.000138239
0.000110143
7.09085e-05
6.5325e-05
6.36845e-05
6.28997e-05
6.25573e-05
6.2614e-05
6.303e-05
6.39405e-05
6.68459e-05
7.2585e-05
0.00012516
0.00013824
0.00013824
0.00013824
0.00013824
0.00013824
0.00013824
0.00013824
0.00013824
0.00013824
0.00013824
0.00013824
0.00013824
0.00013824
0.00013824
0.00013824
0.00013824
0.00013824
0.00013824
0.00013824
0.00013824
0.00013824
0.00013824
0.00013824
0.00013824
0.00013824
0.00013824
0.00013824
0.00013824
0.00013824
0.00013824
0.00013824
0.00013824
0.00013824
0.000126651
7.13201e-05
6.49583e-05
6.30914e-05
6.21647e-05
6.1657e-05
6.13918e-05
6.12718e-05
6.12536e-05
6.13275e-05
6.15e-05
6.17958e-05
6.2287e-05
6.31527e-05
6.49376e-05
7.02954e-05
0.000107523
0.000138239
0.00013824
0.00013824
0.00013824
0.00013824
0.00013824
0.00013824
0.00013824
0.00013824
0.00013824
0.00013824
0.00013824
0.00013824
0.00013824
0.00013824
0.00013824
0.00013824
0.00013824
0.00013824
0.00013824
0.00013824
0.00013824
0.00013824
0.00013824
0.00013824
0.00013824
0.00013824
0.000138236
0.000138239
0.00013824
0.00013824
0.00013824
0.00013824
0.00013824
0.00013824
0.00013824
0.00013824
0.00013824
0.00013824
0.00013824
0.00013824
0.00013824
0.00013824
0.00013824
0.00013824
0.00013824
0.00013824
0.00013824
0.00013824
0.00013824
0.00013824
0.00013824
0.00013824
0.00013824
0.00013824
0.00013824
0.00013824
0.00013824
0.00013824
0.000123253
7.37135e-05
6.83741e-05
6.58561e-05
6.48643e-05
6.53886e-05
6.72028e-05
7.01834e-05
9.51323e-05
0.000135602
0.00013824
0.00013824
0.00013824
0.00013824
0.00013824
0.00013824
0.00013824
0.00013824
0.00013824
0.00013824
0.00013824
0.00013824
0.00013824
0.00013824
0.00013824
0.00013824
0.00013824
0.00013824
0.00013824
0.00013824
0.00013824
0.00013824
0.00013824
0.00013824
0.00013824
0.00013824
0.00013824
0.00013824
0.00013824
0.00013824
0.00013824
0.00013824
0.00013824
0.00013824
0.00013824
0.000129787
7.24968e-05
6.59491e-05
6.33779e-05
6.22323e-05
6.17039e-05
6.14445e-05
6.13509e-05
6.1414e-05
6.16447e-05
6.20772e-05
6.28674e-05
6.45327e-05
6.96689e-05
0.000101722
0.000138235
0.00013824
0.00013824
0.00013824
0.00013824
0.00013824
0.00013824
0.00013824
0.00013824
0.00013824
0.00013824
0.00013824
0.00013824
0.00013824
0.00013824
0.00013824
0.00013824
0.00013824
0.00013824
0.00013824
0.00013824
0.00013824
0.00013824
0.00013824
0.00013824
0.00013824
0.00013824
0.00013824
0.00013824
0.00013824
0.00013824
0.00013824
0.00013824
0.00013824
0.00013824
0.00013824
0.00013824
0.00013824
0.00013824
0.00013824
0.00013824
0.00013824
0.00013824
0.00013824
0.00013824
0.00013824
0.00013824
0.00013824
0.00013824
0.00013824
0.00013824
0.00013824
0.00013824
0.00013824
0.00013824
0.00013824
0.00013824
0.00013824
0.00013824
0.00013824
0.00013824
0.000136188
0.000109444
8.23872e-05
7.45189e-05
7.97682e-05
0.000100329
0.000127884
0.000138229
0.00013824
0.00013824
0.00013824
0.00013824
0.00013824
0.00013824
0.00013824
0.00013824
0.00013824
0.00013824
0.00013824
0.00013824
0.00013824
0.00013824
0.00013824
0.00013824
0.00013824
0.00013824
0.00013824
0.00013824
0.00013824
0.00013824
0.00013824
0.00013824
0.00013824
0.00013824
0.00013824
0.00013824
0.00013824
0.00013824
0.00013824
0.00013824
0.00013824
0.00013824
0.00013824
0.00013824
0.00013824
0.000135466
8.34055e-05
6.81782e-05
6.40815e-05
6.28934e-05
6.23078e-05
6.20297e-05
6.20842e-05
6.24961e-05
6.32958e-05
6.49811e-05
7.03117e-05
0.000107472
0.000138236
0.00013824
0.00013824
0.00013824
0.00013824
0.00013824
0.00013824
0.00013824
0.00013824
0.00013824
0.00013824
0.00013824
0.00013824
0.00013824
0.00013824
0.00013824
0.00013824
0.00013824
0.00013824
0.00013824
0.00013824
0.00013824
0.00013824
0.00013824
0.00013824
0.00013824
0.00013824
0.00013824
0.00013824
0.00013824
0.00013824
0.00013824
0.00013824
0.00013824
0.00013824
0.00013824
0.00013824
0.00013824
0.00013824
0.00013824
0.00013824
0.00013824
0.00013824
0.00013824
0.00013824
0.00013824
0.00013824
0.00013824
0.00013824
0.00013824
0.00013824
0.00013824
0.00013824
0.00013824
0.00013824
0.00013824
0.00013824
0.00013824
0.00013824
0.00013824
0.00013824
0.00013824
0.00013824
0.000138239
0.000138036
0.000136891
0.000137896
0.000138236
0.00013824
0.00013824
0.00013824
0.00013824
0.00013824
0.00013824
0.00013824
0.00013824
0.00013824
0.00013824
0.00013824
0.00013824
0.00013824
0.00013824
0.00013824
0.00013824
0.00013824
0.00013824
0.00013824
0.00013824
0.00013824
0.00013824
0.00013824
0.00013824
0.00013824
0.00013824
0.00013824
0.00013824
0.00013824
0.00013824
0.00013824
0.00013824
0.00013824
0.00013824
0.00013824
0.00013824
0.00013824
0.00013824
0.00013824
0.00013824
0.000138115
0.000111561
7.14148e-05
6.75994e-05
6.53988e-05
6.41759e-05
6.42102e-05
6.55895e-05
6.82191e-05
7.46457e-05
0.000124168
0.000138239
0.00013824
0.00013824
0.00013824
0.00013824
0.00013824
0.00013824
0.00013824
0.00013824
0.00013824
0.00013824
0.00013824
0.00013824
0.00013824
0.00013824
0.00013824
0.00013824
0.00013824
0.00013824
0.00013824
0.00013824
0.00013824
0.00013824
0.00013824
0.00013824
0.00013824
0.00013824
0.00013824
0.00013824
0.00013824
0.00013824
0.00013824
0.00013824
0.00013824
0.00013824
0.00013824
0.00013824
0.00013824
0.00013824
0.00013824
0.00013824
0.00013824
0.00013824
0.00013824
0.00013824
0.00013824
0.00013824
0.00013824
0.00013824
0.00013824
0.00013824
0.00013824
0.00013824
0.00013824
0.00013824
0.00013824
0.00013824
0.00013824
0.00013824
0.00013824
0.00013824
0.00013824
0.00013824
0.00013824
0.00013824
0.00013824
0.00013824
0.00013824
0.00013824
0.00013824
0.00013824
0.00013824
0.00013824
0.00013824
0.00013824
0.00013824
0.00013824
0.00013824
0.00013824
0.00013824
0.00013824
0.00013824
0.00013824
0.00013824
0.00013824
0.00013824
0.00013824
0.00013824
0.00013824
0.00013824
0.00013824
0.00013824
0.00013824
0.00013824
0.00013824
0.00013824
0.00013824
0.00013824
0.00013824
0.00013824
0.00013824
0.00013824
0.00013824
0.00013824
0.00013824
0.00013824
0.00013824
0.00013824
0.00013824
0.00013824
0.00013824
0.00013468
0.000109661
8.40255e-05
7.30084e-05
7.28715e-05
8.43206e-05
0.000112876
0.000137064
0.00013824
0.00013824
0.00013824
0.00013824
0.00013824
0.00013824
0.00013824
0.00013824
0.00013824
0.00013824
0.00013824
0.00013824
0.00013824
0.00013824
0.00013824
0.00013824
0.00013824
0.00013824
0.00013824
0.00013824
0.00013824
0.00013824
0.00013824
0.00013824
0.00013824
0.00013824
0.00013824
0.00013824
0.00013824
0.00013824
0.00013824
0.00013824
0.00013824
0.00013824
0.00013824
0.00013824
0.00013824
0.00013824
0.00013824
0.00013824
0.00013824
0.00013824
0.00013824
0.00013824
0.00013824
0.00013824
0.00013824
0.00013824
0.00013824
0.00013824
0.00013824
0.00013824
0.00013824
0.00013824
0.00013824
0.00013824
0.00013824
0.00013824
0.00013824
0.00013824
0.00013824
0.00013824
0.00013824
0.00013824
0.00013824
0.00013824
0.00013824
0.00013824
0.00013824
0.00013824
0.00013824
0.00013824
0.00013824
0.00013824
0.00013824
0.00013824
0.00013824
0.00013824
0.00013824
0.00013824
0.00013824
0.00013824
0.00013824
0.00013824
0.00013824
0.00013824
0.00013824
0.00013824
0.00013824
0.00013824
0.00013824
0.00013824
0.00013824
0.00013824
0.00013824
0.00013824
0.00013824
0.00013824
0.00013824
0.00013824
0.00013824
0.00013824
0.00013824
0.00013824
0.00013824
0.00013824
0.00013824
0.00013824
0.00013824
0.00013824
0.00013824
0.00013824
0.00013824
0.00013824
0.000138124
0.000136515
0.000136386
0.000138126
0.00013824
0.00013824
0.00013824
0.00013824
0.00013824
0.00013824
0.00013824
0.00013824
0.00013824
0.00013824
0.00013824
0.00013824
0.00013824
0.00013824
0.00013824
0.00013824
0.00013824
0.00013824
0.00013824
0.00013824
0.00013824
0.00013824
0.00013824
0.00013824
0.00013824
0.00013824
0.00013824
0.00013824
0.00013824
0.00013824
0.00013824
0.00013824
0.00013824
0.00013824
0.00013824
0.00013824
0.00013824
0.00013824
0.00013824
0.00013824
0.00013824
0.00013824
0.00013824
0.00013824
0.00013824
0.00013824
0.00013824
0.00013824
0.00013824
0.00013824
0.00013824
0.00013824
0.00013824
0.00013824
0.00013824
0.00013824
0.00013824
0.00013824
0.00013824
0.00013824
0.00013824
0.00013824
0.00013824
0.00013824
0.00013824
0.00013824
0.00013824
0.00013824
0.00013824
0.00013824
0.00013824
0.00013824
0.00013824
0.00013824
0.00013824
0.00013824
0.00013824
0.00013824
0.00013824
0.00013824
0.00013824
0.00013824
0.00013824
0.00013824
0.00013824
0.00013824
0.00013824
0.00013824
0.00013824
0.00013824
0.00013824
0.00013824
0.00013824
0.00013824
0.00013824
0.00013824
0.00013824
0.00013824
0.00013824
0.00013824
0.00013824
0.00013824
0.00013824
0.00013824
0.00013824
0.00013824
0.00013824
0.00013824
0.00013824
0.00013824
0.00013824
0.00013824
0.00013824
0.00013824
0.00013824
0.00013824
0.00013824
0.00013824
0.00013824
0.00013824
0.00013824
0.00013824
0.00013824
0.00013824
0.00013824
0.00013824
0.00013824
0.00013824
0.00013824
0.00013824
0.00013824
0.00013824
0.00013824
0.00013824
0.00013824
0.00013824
0.00013824
0.00013824
0.00013824
0.00013824
0.00013824
0.00013824
0.00013824
0.00013824
0.00013824
0.00013824
0.00013824
0.00013824
0.00013824
0.00013824
0.00013824
0.00013824
0.00013824
0.00013824
0.00013824
0.00013824
0.00013824
0.00013824
0.00013824
0.00013824
0.00013824
0.00013824
0.00013824
0.00013824
0.00013824
0.00013824
0.00013824
0.00013824
0.00013824
0.00013824
0.00013824
0.00013824
0.00013824
0.00013824
0.00013824
0.00013824
0.00013824
0.00013824
0.00013824
0.00013824
0.00013824
0.00013824
0.00013824
0.00013824
0.00013824
0.00013824
0.00013824
0.00013824
0.00013824
0.00013824
0.00013824
0.00013824
0.00013824
0.00013824
0.00013824
0.00013824
0.00013824
0.00013824
0.00013824
0.00013824
0.00013824
0.00013824
0.00013824
0.00013824
0.00013824
0.00013824
0.00013824
0.00013824
0.00013824
0.00013824
0.00013824
0.00013824
0.00013824
0.00013824
0.00013824
0.00013824
0.00013824
0.00013824
0.00013824
0.00013824
0.00013824
0.00013824
0.00013824
0.00013824
0.00013824
0.00013824
0.00013824
0.00013824
0.00013824
0.00013824
0.00013824
0.00013824
0.00013824
0.00013824
0.00013824
0.00013824
0.00013824
0.00013824
0.00013824
0.00013824
0.00013824
0.00013824
0.00013824
0.00013824
0.00013824
0.00013824
0.00013824
0.00013824
0.00013824
0.00013824
0.00013824
0.00013824
0.00013824
0.00013824
0.00013824
0.00013824
0.00013824
0.00013824
0.00013824
0.00013824
0.00013824
0.00013824
0.00013824
0.00013824
0.00013824
0.00013824
0.00013824
0.00013824
0.00013824
0.00013824
0.00013824
0.00013824
0.00013824
0.00013824
0.00013824
0.00013824
0.00013824
0.00013824
0.00013824
0.00013824
0.00013824
0.00013824
0.00013824
0.00013824
0.00013824
0.00013824
0.00013824
0.00013824
0.00013824
0.00013824
0.00013824
0.00013824
0.00013824
0.00013824
0.00013824
0.00013824
0.00013824
0.00013824
0.00013824
0.00013824
0.00013824
0.00013824
0.00013824
0.00013824
0.00013824
0.00013824
0.00013824
0.00013824
0.00013824
0.00013824
0.00013824
0.00013824
0.00013824
0.00013824
0.00013824
0.00013824
0.00013824
0.00013824
0.00013824
0.00013824
0.00013824
0.00013824
0.00013824
0.00013824
0.00013824
0.00013824
0.00013824
0.00013824
0.00013824
0.00013824
0.00013824
0.00013824
0.00013824
0.00013824
0.00013824
0.00013824
0.00013824
0.00013824
0.00013824
0.00013824
0.00013824
0.00013824
0.00013824
0.00013824
0.00013824
0.00013824
0.00013824
0.00013824
0.00013824
0.00013824
0.00013824
0.00013824
0.00013824
0.00013824
0.00013824
0.00013824
0.00013824
0.00013824
0.00013824
0.00013824
0.00013824
0.00013824
0.00013824
0.00013824
0.00013824
0.00013824
0.00013824
0.00013824
0.00013824
0.00013824
0.00013824
0.00013824
0.00013824
0.00013824
0.00013824
0.00013824
0.00013824
0.00013824
0.00013824
0.00013824
0.00013824
0.00013824
0.00013824
0.00013824
0.00013824
0.00013824
0.00013824
0.00013824
0.00013824
0.00013824
0.00013824
0.00013824
0.00013824
0.00013824
0.00013824
0.00013824
0.00013824
0.00013824
0.00013824
0.00013824
0.00013824
0.00013824
0.00013824
0.00013824
0.00013824
0.00013824
0.00013824
0.00013824
0.00013824
0.00013824
0.00013824
0.00013824
0.00013824
0.00013824
0.00013824
0.00013824
0.00013824
0.00013824
0.00013824
0.00013824
0.00013824
0.00013824
0.00013824
0.00013824
0.00013824
0.00013824
0.00013824
0.00013824
0.00013824
0.00013824
0.00013824
0.00013824
0.00013824
0.00013824
0.00013824
0.00013824