/*--------------------------------*- C++ -*----------------------------------*\
| =========                 |                                                 |
| \\      /  F ield         | OpenFOAM: The Open Source CFD Toolbox           |
|  \\    /   O peration     | Version:  2406                                  |
|   \\  /    A nd           | Website:  www.openfoam.com                      |
|    \\/     M anipulation  |                                                 |
\*---------------------------------------------------------------------------*/
FoamFile
{
    version     2.0;
    format      ascii;
    arch        "LSB;label=32;scalar=64";
    class       volScalarField;
    location    "5";
    object      C;
}
// * * * * * * * * * * * * * * * * * * * * * * * * * * * * * * * * * * * * * //

dimensions      [1 -3 0 0 0 0 0];

internalField   nonuniform List<scalar> 
14400
(
0.323154
0.320265
0.315619
0.310444
0.305737
0.302224
0.300399
0.300567
0.302873
0.307317
0.313749
0.321838
0.33101
0.34033
0.348303
0.352595
0.349547
0.342553
0.334143
0.326078
0.319539
0.315336
0.31406
0.316173
0.322065
0.332094
0.346609
0.365965
0.390527
0.420668
0.45675
0.499053
0.547599
0.601531
0.656419
0.695709
0.721848
0.74464
0.764594
0.782
0.797086
0.81003
0.820973
0.830024
0.83727
0.842779
0.846599
0.848766
0.849301
0.848213
0.8455
0.841145
0.835122
0.827387
0.817885
0.806542
0.793262
0.777929
0.760392
0.740464
0.717909
0.692427
0.66087
0.613886
0.555076
0.500766
0.452744
0.41108
0.375478
0.34554
0.320857
0.301045
0.285763
0.274718
0.267671
0.264429
0.264849
0.268825
0.276285
0.287177
0.301451
0.319032
0.339763
0.363283
0.388674
0.413047
0.428629
0.434303
0.433734
0.425046
0.407768
0.387531
0.36832
0.351189
0.336537
0.324505
0.315082
0.308136
0.30343
0.300627
0.299303
0.298977
0.299175
0.299529
0.299904
0.300481
0.301669
0.303985
0.30795
0.314034
0.322627
0.334032
0.348455
0.366002
0.386629
0.410037
0.435241
0.458416
0.472566
0.477978
0.33588
0.33189
0.326022
0.319824
0.314353
0.310315
0.308175
0.308217
0.310577
0.315255
0.322113
0.330852
0.340962
0.35162
0.361469
0.367899
0.363121
0.354143
0.344207
0.335044
0.327717
0.322952
0.321291
0.323164
0.328946
0.338982
0.353615
0.373193
0.398077
0.42864
0.46524
0.508176
0.557518
0.612329
0.663982
0.699556
0.725067
0.747479
0.76714
0.78432
0.799228
0.812032
0.822864
0.831829
0.839008
0.844467
0.848252
0.850397
0.850923
0.849839
0.847141
0.842815
0.836833
0.829154
0.819726
0.808477
0.795317
0.780132
0.762782
0.743091
0.720836
0.695725
0.666124
0.622084
0.563869
0.509234
0.460662
0.418445
0.382346
0.351982
0.326946
0.306853
0.291361
0.280178
0.273061
0.269821
0.270312
0.274432
0.28211
0.293298
0.30795
0.325998
0.347298
0.371516
0.3977
0.421455
0.435109
0.440522
0.44034
0.43373
0.41763
0.396958
0.37723
0.359645
0.344645
0.33239
0.32288
0.315989
0.311479
0.308999
0.308093
0.308208
0.308762
0.309257
0.309479
0.309692
0.310435
0.312332
0.315972
0.321857
0.33039
0.341871
0.356506
0.374387
0.395467
0.419434
0.445199
0.466855
0.478463
0.483385
0.362003
0.355221
0.346748
0.338513
0.331558
0.326507
0.323759
0.323558
0.326026
0.331157
0.33883
0.348789
0.360591
0.373509
0.386097
0.393117
0.388819
0.376624
0.364001
0.352847
0.344053
0.338221
0.335817
0.337226
0.342795
0.352852
0.367723
0.387746
0.413273
0.444662
0.482247
0.526269
0.576647
0.631747
0.676615
0.706809
0.731382
0.753069
0.772169
0.78891
0.803474
0.816006
0.826622
0.835418
0.842467
0.847828
0.851545
0.853648
0.854156
0.853078
0.850411
0.846139
0.840239
0.832672
0.823389
0.812324
0.799395
0.7845
0.767514
0.748283
0.726617
0.702283
0.674967
0.636758
0.581744
0.526326
0.476593
0.433269
0.396185
0.364973
0.339232
0.318578
0.302667
0.291205
0.28395
0.280712
0.281348
0.285755
0.293867
0.305641
0.321036
0.339989
0.362344
0.387711
0.414828
0.43649
0.447306
0.452335
0.45269
0.448387
0.436194
0.415597
0.395034
0.376595
0.360917
0.348221
0.33854
0.331766
0.327664
0.325869
0.325864
0.326963
0.328347
0.3292
0.329039
0.328403
0.328156
0.329149
0.332104
0.337576
0.345981
0.357613
0.372658
0.391177
0.413072
0.437846
0.463533
0.48088
0.489531
0.493712
0.399593
0.389446
0.377339
0.366283
0.357276
0.350815
0.34721
0.346671
0.349301
0.355085
0.363903
0.375524
0.389495
0.404882
0.418601
0.422229
0.420449
0.40827
0.392896
0.379289
0.368541
0.361227
0.357771
0.358519
0.363788
0.373887
0.389125
0.40982
0.436305
0.468912
0.507907
0.553345
0.604484
0.655825
0.691405
0.717377
0.740582
0.761246
0.779556
0.795678
0.809752
0.821894
0.832202
0.840754
0.847614
0.852834
0.856451
0.858493
0.858976
0.857907
0.855284
0.851093
0.845311
0.837906
0.828833
0.818034
0.805439
0.790959
0.774491
0.75591
0.735067
0.71179
0.685883
0.654612
0.608188
0.55191
0.500607
0.455715
0.417194
0.384726
0.357933
0.336437
0.319896
0.308015
0.300552
0.297318
0.298169
0.303006
0.311767
0.32441
0.3409
0.36116
0.384984
0.41173
0.438942
0.455798
0.464246
0.468822
0.469629
0.466793
0.45969
0.443103
0.421662
0.402074
0.385443
0.372103
0.362174
0.355588
0.352128
0.351431
0.352933
0.355758
0.358718
0.360368
0.359364
0.357121
0.355142
0.35463
0.356487
0.361313
0.369516
0.381366
0.397004
0.416403
0.439364
0.464938
0.486582
0.498076
0.504812
0.508221
0.436867
0.431193
0.416658
0.402689
0.391375
0.383257
0.37861
0.377655
0.380511
0.387127
0.397339
0.41093
0.427236
0.444293
0.452697
0.453708
0.453115
0.446639
0.430211
0.414221
0.401237
0.392124
0.387362
0.387276
0.392175
0.402352
0.418093
0.439687
0.467434
0.501632
0.542415
0.589474
0.640552
0.679605
0.706771
0.730681
0.752325
0.771776
0.789131
0.804495
0.817962
0.829618
0.839537
0.847781
0.854402
0.859442
0.862933
0.864896
0.865347
0.864291
0.861724
0.857636
0.852007
0.844809
0.836003
0.825541
0.813366
0.799407
0.783582
0.765798
0.745951
0.723928
0.69962
0.67292
0.637134
0.58508
0.532712
0.486014
0.445667
0.411554
0.383368
0.360752
0.34337
0.330928
0.323185
0.319954
0.321093
0.326503
0.336121
0.349906
0.367815
0.389738
0.415374
0.443583
0.466508
0.477834
0.484953
0.489077
0.49021
0.488494
0.484235
0.474863
0.456182
0.435928
0.418282
0.40413
0.393895
0.387568
0.384983
0.385825
0.389559
0.395074
0.400738
0.404059
0.401312
0.396312
0.391648
0.388913
0.389239
0.393186
0.401115
0.413238
0.429621
0.449943
0.473534
0.496871
0.51042
0.518088
0.523417
0.52614
0.470929
0.470136
0.462613
0.447028
0.433637
0.423834
0.418014
0.416578
0.41974
0.427348
0.43904
0.454651
0.472432
0.48302
0.485824
0.486752
0.486555
0.484963
0.475113
0.457543
0.44224
0.431103
0.42485
0.423789
0.428265
0.438568
0.454957
0.477667
0.506925
0.542995
0.585657
0.633212
0.672861
0.700692
0.724373
0.746251
0.766261
0.7844
0.800699
0.815208
0.827983
0.839078
0.848546
0.856431
0.862772
0.8676
0.870941
0.872813
0.873226
0.872184
0.869686
0.865721
0.860273
0.853319
0.844828
0.834762
0.823077
0.80972
0.794632
0.77775
0.75901
0.738351
0.715731
0.69114
0.663927
0.625185
0.573045
0.52448
0.481972
0.445848
0.415946
0.39194
0.373507
0.360358
0.352262
0.349036
0.350536
0.356659
0.367335
0.382511
0.402112
0.425891
0.453034
0.479747
0.494432
0.502646
0.508655
0.512322
0.513642
0.512737
0.509863
0.505392
0.495343
0.477469
0.459343
0.444268
0.433725
0.427723
0.426185
0.428878
0.435522
0.444367
0.453447
0.456401
0.453945
0.445425
0.437465
0.431838
0.430322
0.433219
0.440815
0.453225
0.470465
0.491226
0.513153
0.526916
0.534426
0.540434
0.544629
0.546782
0.505582
0.50529
0.504169
0.497029
0.483296
0.472361
0.4653
0.463297
0.466889
0.475642
0.48832
0.504799
0.514783
0.518335
0.519937
0.520922
0.521196
0.520753
0.518288
0.507903
0.491376
0.478254
0.470503
0.46835
0.472366
0.482858
0.500048
0.524063
0.554882
0.59279
0.635945
0.673
0.699921
0.722456
0.743779
0.763689
0.782069
0.798863
0.814056
0.827655
0.839683
0.850167
0.859138
0.866625
0.872653
0.877245
0.880419
0.882188
0.882559
0.881535
0.879114
0.875288
0.870045
0.863365
0.855228
0.845603
0.83446
0.821763
0.807475
0.79156
0.773987
0.754737
0.733812
0.711251
0.687141
0.659652
0.620367
0.571166
0.526428
0.488015
0.456133
0.430492
0.410806
0.396806
0.388279
0.385056
0.386991
0.393962
0.40588
0.42265
0.444158
0.469813
0.497351
0.514348
0.522875
0.529654
0.5347
0.537915
0.539298
0.538951
0.537078
0.533981
0.530012
0.52131
0.5075
0.491898
0.481373
0.475754
0.475274
0.479524
0.488838
0.495968
0.499702
0.500524
0.50028
0.497155
0.490698
0.482374
0.479299
0.481121
0.48834
0.500759
0.518503
0.535571
0.547424
0.554074
0.559895
0.564592
0.567884
0.569577
0.540526
0.54046
0.540408
0.540036
0.535245
0.527418
0.519474
0.516909
0.52102
0.530872
0.541511
0.548855
0.551601
0.553219
0.554669
0.555801
0.556555
0.556952
0.557107
0.555192
0.547044
0.533117
0.524454
0.521092
0.524667
0.535418
0.553535
0.578992
0.610709
0.649016
0.680652
0.704685
0.725361
0.74543
0.764598
0.782656
0.799462
0.814929
0.829006
0.841673
0.852926
0.862769
0.871214
0.878277
0.88397
0.888308
0.891302
0.89296
0.893286
0.892283
0.889947
0.886273
0.881252
0.874871
0.867114
0.857962
0.847397
0.835397
0.821945
0.807028
0.790641
0.772796
0.75353
0.732912
0.711058
0.688145
0.661508
0.624322
0.578928
0.538304
0.504386
0.476929
0.45582
0.44082
0.431775
0.428558
0.431004
0.438937
0.452235
0.470637
0.493998
0.520332
0.537549
0.54615
0.552875
0.558396
0.562576
0.565339
0.566683
0.566689
0.565518
0.563411
0.560678
0.557702
0.55209
0.543859
0.535149
0.52998
0.53033
0.533598
0.536603
0.537715
0.536971
0.536942
0.537685
0.539154
0.538712
0.536546
0.534307
0.535227
0.542016
0.552817
0.563446
0.571618
0.576879
0.581959
0.586487
0.590157
0.592736
0.594065
0.575537
0.575615
0.575836
0.576341
0.577317
0.576114
0.574135
0.573762
0.576389
0.580706
0.584424
0.585536
0.586823
0.588272
0.589717
0.591059
0.59227
0.593395
0.594558
0.595979
0.596331
0.592549
0.585921
0.581393
0.584876
0.595918
0.614745
0.641393
0.670264
0.69516
0.714765
0.733115
0.751409
0.769304
0.786528
0.802876
0.818195
0.832382
0.845367
0.857107
0.867578
0.876768
0.884674
0.891297
0.896643
0.900716
0.903522
0.905063
0.905344
0.904362
0.902117
0.898605
0.893819
0.887752
0.880394
0.871736
0.861768
0.850484
0.837881
0.823965
0.808752
0.792278
0.774599
0.755807
0.736033
0.71546
0.694329
0.670169
0.637503
0.59632
0.560997
0.531679
0.509071
0.492925
0.48325
0.480046
0.483086
0.492024
0.506727
0.526174
0.549865
0.565069
0.572824
0.578799
0.584079
0.588478
0.591869
0.594181
0.595407
0.595604
0.594895
0.593466
0.591554
0.589446
0.587472
0.585229
0.581484
0.578368
0.577086
0.576506
0.57462
0.573212
0.572549
0.572577
0.573301
0.574741
0.576993
0.579738
0.58132
0.583895
0.588608
0.594165
0.598427
0.602324
0.606425
0.610394
0.613938
0.616814
0.618838
0.619882
0.610471
0.610625
0.610979
0.61162
0.612668
0.614256
0.616228
0.617647
0.618725
0.619143
0.619661
0.620623
0.621884
0.623329
0.624867
0.626448
0.628072
0.629798
0.631752
0.634139
0.637254
0.641031
0.642638
0.645017
0.650667
0.661751
0.678147
0.696591
0.714248
0.729546
0.745379
0.7616
0.777856
0.793848
0.809336
0.824123
0.838061
0.851038
0.862973
0.87381
0.883511
0.892051
0.899415
0.905596
0.910588
0.914391
0.917005
0.918428
0.918662
0.917705
0.915555
0.912211
0.907668
0.901924
0.894975
0.886818
0.877455
0.866889
0.85513
0.842198
0.828126
0.812963
0.796782
0.779684
0.761808
0.743334
0.72449
0.705557
0.685273
0.658519
0.62523
0.5946
0.57082
0.553395
0.542927
0.539764
0.543497
0.553143
0.568759
0.586026
0.597431
0.603044
0.607693
0.612145
0.616163
0.619569
0.622242
0.62411
0.625158
0.625423
0.624994
0.624004
0.622625
0.62105
0.619469
0.617994
0.616683
0.615089
0.612902
0.610727
0.609059
0.607952
0.607437
0.607516
0.6082
0.609504
0.611457
0.614057
0.617304
0.620717
0.623693
0.626495
0.62956
0.632806
0.636105
0.639255
0.642055
0.644324
0.645919
0.646742
0.64525
0.645437
0.645836
0.646491
0.647447
0.648714
0.650171
0.651534
0.652546
0.653382
0.654286
0.655412
0.65676
0.658293
0.659976
0.661794
0.663771
0.665972
0.668514
0.671572
0.675383
0.680251
0.686631
0.694083
0.702111
0.712253
0.7239
0.735536
0.748042
0.761506
0.775606
0.790051
0.804564
0.818899
0.832842
0.846219
0.858887
0.870735
0.881677
0.891649
0.900604
0.908509
0.91534
0.921082
0.925723
0.929256
0.931678
0.932983
0.933171
0.93224
0.930188
0.927015
0.922719
0.917301
0.910762
0.903108
0.894344
0.884486
0.873552
0.861573
0.848591
0.834666
0.81988
0.804339
0.788181
0.771578
0.754741
0.737924
0.721427
0.705221
0.68521
0.662574
0.639815
0.621292
0.609914
0.606765
0.611103
0.619567
0.627786
0.634047
0.636665
0.639583
0.64276
0.645924
0.648857
0.651394
0.653419
0.65486
0.655693
0.655938
0.655652
0.654931
0.653891
0.652661
0.651358
0.650053
0.648751
0.647324
0.645725
0.644182
0.642938
0.642102
0.64173
0.641851
0.642477
0.643618
0.645271
0.647403
0.64993
0.652622
0.655249
0.657841
0.660511
0.663236
0.665931
0.668467
0.670703
0.672507
0.673773
0.674426
0.679842
0.680037
0.680437
0.68106
0.681915
0.682982
0.68418
0.685379
0.686486
0.687554
0.68869
0.689978
0.69145
0.693107
0.694948
0.696982
0.699246
0.701805
0.70476
0.708251
0.712454
0.717568
0.723785
0.731121
0.739554
0.748697
0.758544
0.769221
0.780679
0.792831
0.805488
0.818434
0.831452
0.84434
0.856916
0.869024
0.880534
0.891338
0.90135
0.910504
0.918747
0.926041
0.932355
0.937669
0.941965
0.945234
0.947466
0.948656
0.9488
0.947896
0.945943
0.942941
0.938891
0.933797
0.927666
0.920505
0.91233
0.903158
0.893019
0.881949
0.869998
0.857231
0.843734
0.829612
0.814999
0.800054
0.784971
0.769972
0.755311
0.74127
0.728179
0.714866
0.700702
0.687807
0.678273
0.67322
0.672119
0.673034
0.673344
0.673271
0.674243
0.675864
0.677841
0.679933
0.681947
0.683732
0.685179
0.686217
0.686817
0.686981
0.686747
0.686176
0.685347
0.684346
0.68325
0.68211
0.680943
0.679729
0.67849
0.677339
0.676407
0.675786
0.675532
0.675679
0.676241
0.677221
0.678606
0.680355
0.682391
0.684591
0.686841
0.68911
0.691405
0.693696
0.695918
0.69798
0.699782
0.701228
0.702241
0.702761
0.71424
0.71443
0.714815
0.715397
0.716172
0.717119
0.718187
0.719316
0.720467
0.721658
0.72294
0.724362
0.725955
0.727738
0.729725
0.731941
0.734426
0.737241
0.74047
0.74422
0.748615
0.753782
0.759821
0.766755
0.774547
0.783063
0.792256
0.802125
0.81262
0.823652
0.835081
0.846744
0.85847
0.870092
0.881457
0.892428
0.902887
0.912732
0.921882
0.93027
0.937841
0.944552
0.950371
0.955272
0.959236
0.962247
0.964296
0.965374
0.965477
0.964601
0.962746
0.959914
0.956107
0.951332
0.945598
0.938918
0.93131
0.922799
0.913417
0.903206
0.89222
0.880527
0.868211
0.855376
0.842147
0.82867
0.815117
0.801681
0.788576
0.776033
0.764289
0.753552
0.744168
0.735945
0.728751
0.722744
0.717832
0.714195
0.712117
0.71119
0.71117
0.711788
0.712806
0.714021
0.715267
0.716408
0.717346
0.718014
0.718375
0.718424
0.718179
0.717678
0.716975
0.716126
0.715186
0.714195
0.71318
0.712159
0.711168
0.710277
0.709566
0.709102
0.708934
0.709091
0.709586
0.71042
0.711576
0.713019
0.714689
0.716511
0.718414
0.720354
0.722304
0.724225
0.726064
0.727752
0.729216
0.730385
0.731199
0.731618
0.748447
0.74863
0.748995
0.74954
0.750259
0.751133
0.752133
0.75323
0.754407
0.755671
0.75705
0.758574
0.760271
0.762163
0.764274
0.766632
0.769277
0.772263
0.775658
0.779543
0.784004
0.789123
0.79496
0.801532
0.808815
0.816751
0.825293
0.834404
0.844025
0.854075
0.86444
0.874992
0.885591
0.896102
0.906392
0.916344
0.925851
0.934822
0.943177
0.950852
0.957793
0.963956
0.969305
0.973813
0.977458
0.980223
0.982096
0.983067
0.983131
0.982285
0.980528
0.977862
0.974292
0.969826
0.964476
0.958259
0.951194
0.943311
0.934644
0.925239
0.91515
0.904446
0.893208
0.881535
0.869542
0.857362
0.845146
0.833058
0.82128
0.809996
0.799393
0.78964
0.780892
0.773149
0.766396
0.760625
0.755886
0.752245
0.749738
0.748204
0.74746
0.747311
0.747573
0.74808
0.74869
0.749288
0.749784
0.750116
0.750246
0.750161
0.749866
0.749383
0.748747
0.747997
0.747171
0.746304
0.745424
0.74456
0.743746
0.743034
0.742477
0.742124
0.742011
0.742164
0.742593
0.743297
0.74426
0.745454
0.746835
0.74835
0.749948
0.751587
0.75323
0.754837
0.756362
0.757749
0.758945
0.759894
0.760554
0.760893
0.782472
0.782647
0.782994
0.783511
0.78419
0.78502
0.785983
0.787066
0.788259
0.78957
0.791014
0.792614
0.794392
0.796371
0.798575
0.801035
0.803786
0.806876
0.810357
0.814289
0.818735
0.823747
0.829364
0.835597
0.842432
0.849834
0.857762
0.866171
0.875003
0.884181
0.893613
0.903191
0.912802
0.922331
0.931666
0.940705
0.949353
0.957526
0.965152
0.972169
0.978524
0.984173
0.98908
0.993217
0.99656
0.999092
1.0008
1.00167
1.0017
1.00088
0.999218
0.996713
0.993372
0.989204
0.984222
0.978445
0.971897
0.964606
0.95661
0.947955
0.938695
0.928897
0.91864
0.908014
0.897125
0.886092
0.875045
0.864127
0.853488
0.843279
0.833648
0.824723
0.816609
0.809346
0.802954
0.797444
0.79284
0.78916
0.786386
0.784427
0.783154
0.782424
0.782095
0.782035
0.782125
0.782268
0.782386
0.78242
0.782333
0.782107
0.78174
0.781242
0.780635
0.779944
0.779198
0.778426
0.777653
0.776909
0.776224
0.775636
0.775184
0.774904
0.774823
0.774961
0.775325
0.775914
0.776714
0.777703
0.778846
0.780106
0.781442
0.782816
0.784192
0.785532
0.786796
0.787939
0.788919
0.789694
0.790231
0.790506
0.816323
0.81649
0.816823
0.817319
0.817971
0.818773
0.819715
0.82079
0.821995
0.823335
0.824823
0.826476
0.828312
0.830352
0.832621
0.835146
0.837958
0.841097
0.844603
0.848523
0.852899
0.857767
0.863152
0.86906
0.875481
0.882389
0.889749
0.897515
0.905633
0.914034
0.922639
0.931358
0.940095
0.948753
0.957237
0.965457
0.973329
0.980778
0.987737
0.994148
0.99996
1.00513
1.00963
1.01341
1.01647
1.01879
1.02033
1.02111
1.02111
1.02032
1.01875
1.0164
1.01328
1.0094
1.00476
0.999404
0.993341
0.986606
0.979235
0.971274
0.962778
0.953808
0.94444
0.934756
0.924852
0.914834
0.904815
0.894917
0.885266
0.875986
0.867194
0.858996
0.851473
0.844674
0.838629
0.833358
0.828871
0.825168
0.82222
0.819963
0.818304
0.817136
0.81635
0.815839
0.815508
0.815275
0.81507
0.814844
0.814559
0.814195
0.813745
0.813211
0.812605
0.811945
0.811252
0.810547
0.809855
0.809198
0.808604
0.808102
0.80772
0.807485
0.807417
0.807531
0.807833
0.808319
0.808979
0.809796
0.810741
0.811787
0.812898
0.814044
0.81519
0.816304
0.81735
0.818292
0.819097
0.819731
0.82017
0.820394
0.850007
0.850168
0.85049
0.85097
0.851603
0.852386
0.853314
0.854383
0.855594
0.856953
0.858468
0.860154
0.862027
0.864106
0.866412
0.868968
0.871804
0.87495
0.878437
0.882301
0.88657
0.89127
0.896416
0.90201
0.908044
0.914494
0.921329
0.928508
0.935979
0.943684
0.951552
0.959507
0.967467
0.975349
0.983072
0.990556
0.997728
1.00452
1.01087
1.01672
1.02204
1.02677
1.03088
1.03434
1.03714
1.03924
1.04064
1.04133
1.0413
1.04054
1.03906
1.03686
1.03395
1.03033
1.02603
1.02107
1.01546
1.00924
1.00245
0.99513
0.987333
0.979119
0.970555
0.961718
0.952694
0.943576
0.934463
0.92546
0.916672
0.908202
0.900148
0.892595
0.885612
0.879246
0.873531
0.868486
0.864118
0.86042
0.857364
0.854901
0.852962
0.851466
0.850328
0.849463
0.848794
0.848251
0.847777
0.847326
0.846864
0.84637
0.845833
0.845251
0.844629
0.84398
0.843317
0.842657
0.84202
0.841424
0.840893
0.840447
0.840109
0.839898
0.83983
0.839914
0.840155
0.84055
0.841089
0.841759
0.842537
0.8434
0.844321
0.84527
0.846221
0.847143
0.848007
0.848784
0.849444
0.849965
0.850324
0.850507
0.883529
0.883686
0.883999
0.884466
0.885085
0.885854
0.886771
0.887834
0.889047
0.890413
0.891942
0.893645
0.895536
0.897632
0.89995
0.902512
0.905341
0.90846
0.911896
0.915672
0.91981
0.924327
0.929231
0.934522
0.940189
0.946214
0.952565
0.959207
0.966093
0.97317
0.980378
0.98765
0.994916
1.00211
1.00915
1.01597
1.02251
1.0287
1.0345
1.03984
1.0447
1.04902
1.05277
1.05594
1.05849
1.0604
1.06167
1.06227
1.06222
1.06149
1.06009
1.05803
1.05532
1.05196
1.04797
1.04337
1.03819
1.03245
1.02619
1.01946
1.01231
1.00478
0.996942
0.988867
0.98063
0.972313
0.964003
0.955788
0.94776
0.940004
0.932602
0.925625
0.919132
0.913168
0.907764
0.902938
0.898695
0.895029
0.891915
0.889316
0.887178
0.885439
0.884033
0.882892
0.881953
0.88116
0.880462
0.879819
0.879202
0.878588
0.877966
0.87733
0.876682
0.876028
0.875378
0.874745
0.874142
0.873587
0.873095
0.872685
0.872371
0.872169
0.872089
0.87214
0.872323
0.872635
0.87307
0.873613
0.874249
0.874956
0.875713
0.876496
0.87728
0.878041
0.878752
0.879391
0.879933
0.880359
0.880653
0.880803
0.916895
0.917048
0.917353
0.91781
0.918418
0.919175
0.920081
0.921137
0.922345
0.923711
0.925242
0.926948
0.928841
0.930935
0.933245
0.93579
0.938586
0.941655
0.945014
0.948681
0.952672
0.956996
0.961659
0.966657
0.971979
0.977606
0.983511
0.989662
0.996016
1.00253
1.00914
1.0158
1.02244
1.02901
1.03544
1.04166
1.04763
1.05328
1.05857
1.06346
1.06789
1.07184
1.07527
1.07815
1.08047
1.08221
1.08335
1.08388
1.0838
1.0831
1.08179
1.07986
1.07733
1.07421
1.07051
1.06626
1.06147
1.05617
1.05041
1.04422
1.03765
1.03075
1.02357
1.01618
1.00865
1.00104
0.993446
0.985931
0.978575
0.971451
0.964629
0.95817
0.952124
0.946531
0.941419
0.936805
0.932696
0.929085
0.925952
0.923269
0.920994
0.919079
0.917472
0.916119
0.914968
0.913972
0.91309
0.912287
0.911535
0.910814
0.910112
0.909421
0.90874
0.908072
0.907423
0.906801
0.906218
0.905686
0.905217
0.904825
0.904521
0.904317
0.904219
0.904234
0.904362
0.9046
0.904941
0.905375
0.905888
0.906462
0.90708
0.907721
0.908364
0.908987
0.90957
0.910093
0.910537
0.910886
0.911126
0.911248
0.950107
0.950257
0.950556
0.951004
0.951601
0.952347
0.953241
0.954287
0.955486
0.956843
0.958367
0.960063
0.961944
0.964021
0.966307
0.968815
0.97156
0.974558
0.977823
0.981367
0.9852
0.989328
0.993752
0.998467
1.00346
1.00872
1.01421
1.01991
1.02578
1.03178
1.03786
1.04396
1.05005
1.05605
1.06193
1.06762
1.07307
1.07823
1.08306
1.08752
1.09157
1.09517
1.0983
1.10093
1.10304
1.10462
1.10564
1.10611
1.106
1.10534
1.1041
1.1023
1.09994
1.09704
1.09361
1.08967
1.08525
1.08037
1.07506
1.06937
1.06333
1.05699
1.0504
1.04363
1.03673
1.02977
1.02281
1.01591
1.00916
1.0026
0.996295
0.990302
0.984662
0.979411
0.974575
0.970169
0.966199
0.962661
0.959541
0.956814
0.954451
0.952412
0.950657
0.949142
0.947827
0.946671
0.945639
0.944703
0.943837
0.943023
0.942247
0.941503
0.940786
0.940097
0.939439
0.938819
0.938243
0.937721
0.937263
0.936877
0.936572
0.936357
0.936237
0.936214
0.93629
0.93646
0.936719
0.937058
0.937465
0.937926
0.938424
0.938943
0.939466
0.939974
0.940449
0.940875
0.941237
0.941521
0.941717
0.941816
0.98317
0.983317
0.98361
0.984049
0.984636
0.985369
0.986251
0.987283
0.988468
0.989811
0.991318
0.992995
0.994852
0.996899
0.999145
1.0016
1.00428
1.0072
1.01035
1.01376
1.01743
1.02136
1.02555
1.03
1.03468
1.0396
1.04471
1.04999
1.05542
1.06095
1.06654
1.07215
1.07773
1.08323
1.08861
1.09381
1.09879
1.10351
1.10792
1.11199
1.11569
1.11898
1.12183
1.12423
1.12615
1.12757
1.12849
1.12889
1.12878
1.12813
1.12697
1.12529
1.12309
1.1204
1.11722
1.11358
1.10949
1.10499
1.1001
1.09485
1.0893
1.08348
1.07743
1.07121
1.06488
1.05849
1.0521
1.04576
1.03954
1.03349
1.02765
1.02208
1.01681
1.01188
1.0073
1.0031
0.99927
0.995819
0.992734
0.989997
0.987582
0.985461
0.983601
0.981967
0.980526
0.979245
0.978094
0.977049
0.976087
0.975192
0.974351
0.973557
0.972803
0.97209
0.971418
0.970791
0.970214
0.969693
0.969235
0.968847
0.968534
0.968303
0.968157
0.968097
0.968123
0.968232
0.968418
0.968674
0.968989
0.969351
0.969747
0.970163
0.970583
0.970992
0.971377
0.971722
0.972015
0.972245
0.972403
0.972484
1.01609
1.01623
1.01652
1.01695
1.01752
1.01824
1.01911
1.02013
1.02129
1.02261
1.0241
1.02575
1.02757
1.02958
1.03177
1.03417
1.03677
1.03959
1.04263
1.0459
1.0494
1.05314
1.0571
1.06129
1.06568
1.07027
1.07503
1.07993
1.08496
1.09006
1.09521
1.10037
1.10549
1.11053
1.11546
1.12022
1.12477
1.12909
1.13312
1.13684
1.14022
1.14322
1.14582
1.148
1.14974
1.15103
1.15185
1.1522
1.15207
1.15146
1.15036
1.14879
1.14675
1.14425
1.1413
1.13793
1.13415
1.12999
1.12548
1.12065
1.11554
1.11018
1.10463
1.09891
1.09309
1.08722
1.08133
1.0755
1.06976
1.06416
1.05874
1.05355
1.04863
1.04399
1.03966
1.03565
1.03196
1.02861
1.02558
1.02286
1.02042
1.01825
1.01632
1.0146
1.01306
1.01169
1.01044
1.00931
1.00827
1.00731
1.00641
1.00557
1.00478
1.00404
1.00335
1.00271
1.00213
1.0016
1.00114
1.00074
1.00041
1.00016
0.99999
0.999893
0.999873
0.999926
1.00005
1.00023
1.00047
1.00074
1.00105
1.00138
1.00171
1.00204
1.00234
1.00262
1.00286
1.00304
1.00317
1.00323
1.04886
1.049
1.04928
1.0497
1.05027
1.05097
1.05182
1.05282
1.05396
1.05526
1.05671
1.05833
1.06011
1.06206
1.0642
1.06652
1.06904
1.07176
1.07468
1.07781
1.08114
1.08468
1.08843
1.09237
1.09649
1.10077
1.1052
1.10976
1.11441
1.11913
1.12387
1.12862
1.13333
1.13796
1.14247
1.14683
1.151
1.15495
1.15864
1.16204
1.16512
1.16786
1.17023
1.17221
1.1738
1.17496
1.17569
1.17599
1.17585
1.17526
1.17423
1.17276
1.17086
1.16853
1.1658
1.16268
1.15919
1.15535
1.15119
1.14674
1.14203
1.13709
1.13198
1.12672
1.12136
1.11595
1.11052
1.10514
1.09983
1.09464
1.08961
1.08477
1.08015
1.07579
1.07169
1.06787
1.06433
1.06108
1.05812
1.05543
1.05299
1.0508
1.04882
1.04705
1.04545
1.044
1.04268
1.04148
1.04038
1.03936
1.03841
1.03753
1.03671
1.03595
1.03524
1.03458
1.03399
1.03345
1.03297
1.03256
1.03222
1.03195
1.03175
1.03161
1.03155
1.03155
1.03162
1.03173
1.0319
1.0321
1.03234
1.03259
1.03284
1.0331
1.03334
1.03356
1.03375
1.03389
1.03399
1.03405
1.08149
1.08163
1.0819
1.08231
1.08287
1.08355
1.08439
1.08536
1.08648
1.08774
1.08916
1.09074
1.09247
1.09437
1.09644
1.09869
1.10111
1.10372
1.10652
1.1095
1.11267
1.11603
1.11956
1.12326
1.12713
1.13113
1.13526
1.13949
1.1438
1.14816
1.15254
1.15691
1.16124
1.16549
1.16964
1.17363
1.17746
1.18107
1.18444
1.18755
1.19037
1.19287
1.19503
1.19683
1.19827
1.19931
1.19997
1.20022
1.20007
1.1995
1.19853
1.19716
1.19539
1.19323
1.1907
1.18781
1.18458
1.18103
1.17719
1.17308
1.16873
1.16419
1.15947
1.15462
1.14968
1.14469
1.13968
1.1347
1.12978
1.12496
1.12028
1.11576
1.11144
1.10732
1.10344
1.0998
1.09641
1.09327
1.09039
1.08774
1.08533
1.08313
1.08113
1.07932
1.07767
1.07617
1.07481
1.07355
1.0724
1.07133
1.07035
1.06943
1.06858
1.06779
1.06706
1.06639
1.06578
1.06523
1.06474
1.06432
1.06396
1.06366
1.06343
1.06326
1.06316
1.06312
1.06313
1.06319
1.06329
1.06343
1.0636
1.06379
1.06398
1.06418
1.06436
1.06453
1.06468
1.06479
1.06487
1.06491
1.11399
1.11412
1.11439
1.11479
1.11533
1.116
1.11681
1.11776
1.11885
1.12008
1.12146
1.12299
1.12467
1.12651
1.12851
1.13067
1.133
1.1355
1.13817
1.14101
1.14402
1.14719
1.15052
1.154
1.15762
1.16136
1.16521
1.16914
1.17313
1.17717
1.18121
1.18525
1.18923
1.19314
1.19695
1.20061
1.20412
1.20743
1.21052
1.21336
1.21593
1.21821
1.22018
1.22182
1.22312
1.22407
1.22465
1.22486
1.22469
1.22415
1.22324
1.22196
1.2203
1.2183
1.21595
1.21327
1.21028
1.207
1.20345
1.19966
1.19564
1.19145
1.18709
1.18262
1.17806
1.17344
1.16881
1.16419
1.15963
1.15515
1.15079
1.14656
1.1425
1.13863
1.13495
1.13148
1.12824
1.12521
1.12241
1.11982
1.11744
1.11526
1.11326
1.11143
1.10975
1.10822
1.10681
1.10552
1.10433
1.10323
1.10221
1.10127
1.10039
1.09958
1.09883
1.09815
1.09752
1.09696
1.09645
1.09601
1.09563
1.09531
1.09505
1.09485
1.09471
1.09463
1.09459
1.0946
1.09465
1.09474
1.09485
1.09498
1.09512
1.09526
1.0954
1.09553
1.09564
1.09572
1.09578
1.09582
1.14635
1.14648
1.14674
1.14713
1.14765
1.1483
1.14909
1.15001
1.15107
1.15227
1.1536
1.15508
1.15671
1.15848
1.16041
1.16249
1.16472
1.16711
1.16965
1.17235
1.1752
1.1782
1.18134
1.18461
1.18799
1.19149
1.19507
1.19873
1.20243
1.20617
1.20991
1.21362
1.2173
1.22089
1.22439
1.22776
1.23097
1.23401
1.23683
1.23943
1.24178
1.24387
1.24566
1.24715
1.24833
1.24918
1.24969
1.24987
1.2497
1.24918
1.24832
1.24712
1.24558
1.24371
1.24153
1.23905
1.23628
1.23324
1.22996
1.22645
1.22274
1.21886
1.21484
1.2107
1.20648
1.20221
1.19792
1.19364
1.1894
1.18523
1.18115
1.1772
1.17338
1.16973
1.16625
1.16295
1.15984
1.15693
1.15422
1.15169
1.14936
1.1472
1.14521
1.14338
1.14169
1.14014
1.13871
1.13739
1.13617
1.13504
1.134
1.13303
1.13213
1.13131
1.13054
1.12984
1.1292
1.12862
1.1281
1.12764
1.12724
1.12689
1.12661
1.12638
1.12621
1.12609
1.12601
1.12598
1.12598
1.12602
1.12608
1.12616
1.12625
1.12635
1.12645
1.12654
1.12662
1.12668
1.12673
1.12675
1.17858
1.1787
1.17896
1.17934
1.17984
1.18048
1.18124
1.18213
1.18316
1.18431
1.18561
1.18703
1.1886
1.19031
1.19216
1.19415
1.19628
1.19856
1.20098
1.20354
1.20624
1.20907
1.21202
1.21509
1.21826
1.22152
1.22486
1.22826
1.2317
1.23516
1.23862
1.24205
1.24544
1.24875
1.25196
1.25506
1.25801
1.26079
1.26338
1.26576
1.26791
1.26981
1.27144
1.2728
1.27386
1.27463
1.27508
1.27523
1.27505
1.27455
1.27374
1.27261
1.27118
1.26944
1.26742
1.26511
1.26254
1.25973
1.25669
1.25344
1.25001
1.24642
1.2427
1.23887
1.23496
1.231
1.22702
1.22304
1.2191
1.21521
1.2114
1.20769
1.20411
1.20066
1.19736
1.19422
1.19125
1.18846
1.18583
1.18338
1.1811
1.17898
1.17701
1.17519
1.1735
1.17194
1.1705
1.16916
1.16792
1.16677
1.16571
1.16472
1.16381
1.16297
1.16219
1.16147
1.16081
1.16022
1.15968
1.15921
1.15879
1.15842
1.15811
1.15786
1.15765
1.1575
1.15739
1.15731
1.15728
1.15727
1.15729
1.15733
1.15738
1.15744
1.1575
1.15756
1.15762
1.15766
1.15769
1.15771
1.21068
1.21081
1.21105
1.21142
1.21191
1.21252
1.21326
1.21412
1.21511
1.21623
1.21747
1.21885
1.22035
1.22199
1.22376
1.22567
1.2277
1.22987
1.23217
1.2346
1.23715
1.23981
1.24259
1.24547
1.24844
1.25148
1.2546
1.25776
1.26095
1.26415
1.26735
1.27052
1.27365
1.2767
1.27966
1.2825
1.28521
1.28776
1.29014
1.29232
1.29428
1.29601
1.2975
1.29874
1.2997
1.30039
1.30079
1.3009
1.30072
1.30024
1.29948
1.29842
1.29708
1.29546
1.29358
1.29144
1.28905
1.28644
1.28363
1.28062
1.27744
1.27412
1.27067
1.26712
1.26349
1.25982
1.25612
1.25242
1.24874
1.24511
1.24155
1.23807
1.23469
1.23144
1.22831
1.22533
1.22249
1.21981
1.21728
1.2149
1.21268
1.2106
1.20866
1.20685
1.20518
1.20362
1.20217
1.20083
1.19958
1.19842
1.19735
1.19635
1.19542
1.19456
1.19377
1.19304
1.19237
1.19176
1.19121
1.19072
1.19028
1.1899
1.18957
1.18929
1.18905
1.18887
1.18872
1.18861
1.18854
1.1885
1.18848
1.18848
1.1885
1.18853
1.18856
1.1886
1.18863
1.18866
1.18868
1.18869
1.24267
1.24278
1.24302
1.24337
1.24385
1.24444
1.24515
1.24598
1.24694
1.24801
1.24921
1.25053
1.25197
1.25354
1.25523
1.25705
1.25899
1.26105
1.26323
1.26553
1.26793
1.27045
1.27306
1.27575
1.27853
1.28138
1.28428
1.28722
1.29018
1.29316
1.29612
1.29905
1.30193
1.30474
1.30747
1.31009
1.31257
1.31492