/*--------------------------------*- C++ -*----------------------------------*\
| =========                 |                                                 |
| \\      /  F ield         | OpenFOAM: The Open Source CFD Toolbox           |
|  \\    /   O peration     | Version:  2406                                  |
|   \\  /    A nd           | Website:  www.openfoam.com                      |
|    \\/     M anipulation  |                                                 |
\*---------------------------------------------------------------------------*/
FoamFile
{
    version     2.0;
    format      ascii;
    arch        "LSB;label=32;scalar=64";
    class       volScalarField;
    location    "5";
    object      C_0;
}
// * * * * * * * * * * * * * * * * * * * * * * * * * * * * * * * * * * * * * //

dimensions      [1 -3 0 0 0 0 0];

internalField   nonuniform List<scalar> 
14400
(
0.32355
0.320649
0.315986
0.310795
0.306074
0.302553
0.300724
0.300892
0.303205
0.307661
0.31411
0.322223
0.331425
0.340782
0.348793
0.353115
0.350053
0.343034
0.334597
0.32651
0.319954
0.315741
0.31446
0.316575
0.322476
0.332521
0.347059
0.366444
0.391044
0.421232
0.457368
0.499735
0.548349
0.602336
0.657143
0.696337
0.722452
0.745234
0.765178
0.782577
0.797657
0.810596
0.821534
0.830581
0.837824
0.84333
0.847148
0.849313
0.849847
0.84876
0.846046
0.841693
0.83567
0.827937
0.818438
0.807098
0.793822
0.778493
0.760962
0.741041
0.718495
0.693023
0.661539
0.614633
0.555783
0.501417
0.453337
0.411617
0.375964
0.345982
0.321262
0.301419
0.286113
0.275049
0.267989
0.26474
0.265157
0.269136
0.276604
0.287509
0.301803
0.319409
0.340169
0.363724
0.38915
0.413529
0.429097
0.434768
0.4342
0.425523
0.408237
0.387967
0.368726
0.351568
0.336893
0.324844
0.315408
0.308454
0.303744
0.30094
0.299618
0.299296
0.299497
0.299853
0.300227
0.3008
0.301985
0.304299
0.308265
0.314353
0.322955
0.334372
0.348814
0.366382
0.387037
0.410475
0.43571
0.458883
0.473011
0.47842
0.336299
0.33229
0.3264
0.320184
0.314699
0.310652
0.308507
0.308549
0.310915
0.315605
0.322481
0.331244
0.341384
0.352079
0.361968
0.368424
0.36364
0.354635
0.344671
0.335485
0.32814
0.323364
0.321698
0.323574
0.329364
0.339416
0.354072
0.37368
0.398603
0.429212
0.465868
0.508866
0.558276
0.613143
0.66469
0.70017
0.725669
0.748071
0.767724
0.784896
0.799798
0.812597
0.823424
0.832385
0.839561
0.845017
0.8488
0.850944
0.85147
0.850385
0.847687
0.843361
0.83738
0.829704
0.820278
0.809032
0.795876
0.780696
0.763352
0.743667
0.72142
0.696319
0.666771
0.622818
0.564592
0.509902
0.461268
0.418992
0.382841
0.352432
0.327358
0.307235
0.291718
0.280516
0.273386
0.270139
0.270628
0.27475
0.282437
0.293638
0.308309
0.326382
0.347712
0.371964
0.398183
0.421937
0.435574
0.440985
0.440803
0.434201
0.4181
0.397401
0.377644
0.360033
0.34501
0.332736
0.323213
0.316314
0.3118
0.309321
0.308418
0.308539
0.309097
0.309595
0.309815
0.310023
0.310762
0.312655
0.316294
0.322183
0.330724
0.342219
0.356872
0.374776
0.395882
0.419877
0.445668
0.467314
0.478905
0.483824
0.362466
0.35565
0.347147
0.33889
0.331919
0.326858
0.324105
0.323905
0.326378
0.331521
0.339212
0.349194
0.361026
0.37398
0.386604
0.39362
0.389346
0.377133
0.364483
0.353304
0.344492
0.338648
0.33624
0.337651
0.34323
0.353302
0.368197
0.388251
0.413816
0.445252
0.482892
0.526975
0.577413
0.632534
0.677285
0.707416
0.73198
0.753658
0.77275
0.789485
0.804042
0.816569
0.827181
0.835973
0.843019
0.848377
0.852092
0.854194
0.854701
0.853623
0.850955
0.846685
0.840786
0.833221
0.82394
0.812878
0.799952
0.785062
0.768081
0.748857
0.727198
0.702872
0.675572
0.637453
0.582516
0.527028
0.477224
0.433837
0.396698
0.36544
0.33966
0.318975
0.303039
0.291558
0.28429
0.281044
0.281677
0.286087
0.294208
0.305996
0.321411
0.340388
0.362773
0.388172
0.415315
0.436964
0.447768
0.452795
0.453149
0.448849
0.436668
0.416055
0.395466
0.377
0.361298
0.348583
0.338888
0.332106
0.328002
0.326209
0.326211
0.327318
0.32871
0.329568
0.329402
0.328758
0.328503
0.32949
0.332442
0.337917
0.34633
0.357976
0.37304
0.391582
0.413504
0.438303
0.464001
0.481326
0.489968
0.494148
0.400035
0.389895
0.37776
0.366681
0.357659
0.351187
0.347578
0.347039
0.349675
0.35547
0.364305
0.375948
0.389948
0.405368
0.419096
0.422715
0.420955
0.408799
0.393401
0.379769
0.369003
0.361678
0.358218
0.358967
0.364246
0.374362
0.389623
0.41035
0.436874
0.469528
0.508578
0.554078
0.60528
0.656542
0.692026
0.71798
0.741176
0.761831
0.780134
0.79625
0.810318
0.822455
0.832758
0.841307
0.848164
0.853381
0.856997
0.859037
0.859519
0.85845
0.855827
0.851636
0.845856
0.838453
0.829382
0.818586
0.805994
0.791518
0.775055
0.75648
0.735643
0.712373
0.686471
0.655255
0.608947
0.552636
0.501266
0.45631
0.417733
0.385218
0.358385
0.336857
0.32029
0.30839
0.300914
0.297671
0.29852
0.30336
0.312129
0.324787
0.341297
0.361583
0.385439
0.412215
0.439436
0.456264
0.464705
0.469278
0.470083
0.467245
0.460153
0.443586
0.422122
0.402505
0.385848
0.372486
0.362543
0.355949
0.352488
0.351797
0.35331
0.356149
0.359122
0.360786
0.359769
0.357513
0.355519
0.354996
0.356848
0.361675
0.369885
0.38175
0.397409
0.416834
0.439823
0.465419
0.487032
0.498506
0.505241
0.508651
0.437272
0.431626
0.417094
0.40311
0.391785
0.383657
0.379005
0.378051
0.380913
0.38754
0.397768
0.41138
0.427713
0.444789
0.453175
0.45419
0.4536
0.447163
0.430741
0.414731
0.40173
0.392606
0.387839
0.387756
0.392665
0.402859
0.418624
0.440251
0.468037
0.502282
0.543118
0.590226
0.641313
0.680259
0.707378
0.731278
0.752913
0.772356
0.789705
0.805062
0.818524
0.830176
0.84009
0.848331
0.85495
0.859988
0.863476
0.865439
0.865889
0.864832
0.862265
0.858178
0.85255
0.845353
0.836549
0.82609
0.813918
0.799963
0.784142
0.766363
0.746521
0.724504
0.700202
0.673511
0.637816
0.585841
0.533405
0.486642
0.446238
0.412077
0.383851
0.361203
0.343794
0.331332
0.323576
0.320336
0.321473
0.326886
0.336513
0.350312
0.368241
0.390192
0.415862
0.444101
0.466987
0.478291
0.485408
0.48953
0.49066
0.48894
0.484675
0.475322
0.45667
0.436392
0.418716
0.404541
0.39429
0.387956
0.385372
0.386222
0.389973
0.39551
0.40119
0.404549
0.401764
0.396748
0.392062
0.389311
0.389628
0.393574
0.40151
0.413649
0.430056
0.450405
0.474016
0.497318
0.51084
0.51851
0.52384
0.526564
0.471334
0.470551
0.463056
0.447472
0.43408
0.424268
0.418443
0.417008
0.420176
0.427795
0.439503
0.45513
0.472935
0.483502
0.486295
0.48723
0.48704
0.485467
0.475667
0.458089
0.44277
0.431623
0.425366
0.424308
0.428793
0.439114
0.45553
0.478274
0.507572
0.543689
0.586408
0.634004
0.673541
0.701296
0.724969
0.746839
0.766842
0.784974
0.801267
0.815771
0.828541
0.839632
0.849096
0.856978
0.863316
0.868142
0.871482
0.873352
0.873765
0.872723
0.870224
0.86626
0.860813
0.85386
0.845371
0.835308
0.823625
0.810271
0.795187
0.77831
0.759574
0.738921
0.716306
0.691721
0.664547
0.625907
0.573758
0.525144
0.482584
0.446412
0.416469
0.39243
0.373969
0.360801
0.35269
0.349455
0.350952
0.357078
0.367763
0.382952
0.402574
0.426379
0.453551
0.480243
0.494888
0.5031
0.509108
0.512771
0.514088
0.513179
0.510299
0.505823
0.495798
0.477962
0.459809
0.444708
0.43415
0.428141
0.426605
0.42931
0.435974
0.44485
0.453911
0.45685
0.454411
0.445909
0.437918
0.432269
0.430742
0.433638
0.44124
0.453664
0.470931
0.491716
0.513597
0.527329
0.53484
0.54085
0.545046
0.5472
0.505988
0.505696
0.504593
0.497478
0.483778
0.47283
0.465769
0.463765
0.467365
0.476126
0.488818
0.505297
0.51526
0.518794
0.520405
0.521396
0.521678
0.521242
0.518816
0.508488
0.491947
0.478817
0.471065
0.468914
0.472939
0.483451
0.500672
0.524721
0.555578
0.593528
0.636734
0.673679
0.700518
0.723047
0.744364
0.764268
0.782642
0.799431
0.814618
0.828213
0.840236
0.850717
0.859684
0.867168
0.873194
0.877784
0.880957
0.882724
0.883094
0.88207
0.879649
0.875824
0.870582
0.863904
0.855767
0.846145
0.835004
0.82231
0.808026
0.792114
0.774545
0.7553
0.73438
0.711824
0.68772
0.6603
0.621121
0.57188
0.527088
0.488626
0.456705
0.431029
0.411316
0.397295
0.388753
0.385521
0.387452
0.394426
0.406352
0.423134
0.444658
0.470332
0.497874
0.514819
0.523332
0.530108
0.53515
0.538361
0.53974
0.539389
0.537511
0.534409
0.530436
0.521761
0.507989
0.492363
0.481828
0.476205
0.475725
0.479985
0.489309
0.496405
0.500118
0.500919
0.500697
0.497592
0.491171
0.482832
0.479749
0.481572
0.488794
0.501222
0.518992
0.536012
0.547833
0.554481
0.560304
0.565003
0.568295
0.569989
0.540933
0.540866
0.540814
0.540459
0.535692
0.527905
0.519979
0.517407
0.521534
0.531382
0.541991
0.54932
0.55205
0.553676
0.555133
0.556272
0.557033
0.557438
0.5576
0.555732
0.547642
0.533721
0.525069
0.521707
0.525286
0.536061
0.554218
0.579704
0.611449
0.649765
0.681315
0.705271
0.725944
0.746009
0.765173
0.783226
0.800027
0.815489
0.829562
0.842225
0.853474
0.863314
0.871756
0.878816
0.884507
0.888844
0.891836
0.893493
0.893819
0.892815
0.890479
0.886805
0.881785
0.875405
0.86765
0.8585
0.847937
0.83594
0.822491
0.807576
0.791193
0.773352
0.75409
0.733476
0.711626
0.688718
0.662159
0.62508
0.579637
0.538969
0.505014
0.477521
0.456384
0.441365
0.432304
0.429077
0.431518
0.439453
0.45276
0.471171
0.49454
0.520886
0.538047
0.546612
0.553331
0.558848
0.563024
0.565783
0.567123
0.567124
0.565949
0.563837
0.561099
0.558119
0.552533
0.544321
0.535628
0.530462
0.530799
0.53404
0.537024
0.538105
0.537358
0.537331
0.538071
0.539544
0.539133
0.536988
0.534776
0.535709
0.542493
0.553276
0.563879
0.572019
0.57728
0.582362
0.586892
0.590564
0.593143
0.594472
0.575944
0.576021
0.576242
0.576747
0.577726
0.57655
0.574587
0.574226
0.576852
0.581162
0.584865
0.585974
0.587269
0.588726
0.590178
0.591527
0.592745
0.593877
0.595049
0.596478
0.596876
0.593141
0.586585
0.58205
0.58553
0.596599
0.615484
0.642139
0.670947
0.695788
0.715338
0.733687
0.751979
0.769871
0.787092
0.803436
0.818752
0.832935
0.845916
0.857653
0.86812
0.877307
0.885211
0.891832
0.897176
0.901248
0.904052
0.905593
0.905872
0.90489
0.902646
0.899134
0.894349
0.888282
0.880925
0.872269
0.862303
0.851021
0.838421
0.824507
0.809298
0.792826
0.775151
0.756362
0.736592
0.716022
0.694893
0.67081
0.638235
0.597032
0.56169
0.532331
0.509696
0.493533
0.483845
0.480629
0.48366
0.492596
0.507313
0.526758
0.550431
0.56558
0.573291
0.57926
0.584534
0.588928
0.592315
0.594623
0.595844
0.596036
0.595324
0.593889
0.591972
0.58986
0.587881
0.585652
0.581917
0.578802
0.577511
0.576912
0.575009
0.5736
0.572937
0.572965
0.573688
0.575128
0.577379
0.580143
0.581742
0.584325
0.589034
0.594578
0.598821
0.602719
0.606823
0.610794
0.614339
0.617216
0.619241
0.620285
0.610878
0.611032
0.611386
0.612026
0.613074
0.61466
0.616635
0.618066
0.619141
0.619561
0.62009
0.62106
0.622328
0.62378
0.625326
0.626913
0.628544
0.630277
0.632239
0.634633
0.637756
0.641569
0.643216
0.645627
0.651318
0.662422
0.678799
0.697205
0.714822
0.730103
0.745938
0.762159
0.778413
0.794405
0.80989
0.824674
0.838609
0.851583
0.863515
0.874349
0.884047
0.892585
0.899947
0.906126
0.911117
0.914919
0.917531
0.918953
0.919187
0.918229
0.91608
0.912735
0.908193
0.90245
0.895501
0.887346
0.877985
0.86742
0.855664
0.842735
0.828665
0.813504
0.797325
0.78023
0.762357
0.743885
0.725043
0.706111
0.685889
0.659199
0.625988
0.595304
0.571507
0.554075
0.543595
0.540418
0.544132
0.553765
0.569407
0.58659
0.597944
0.603515
0.608157
0.612603
0.616615
0.620017
0.622685
0.624549
0.625593
0.625853
0.625419
0.624425
0.623041
0.621462
0.619876
0.618396
0.617078
0.615481
0.613291
0.611117
0.609448
0.60834
0.607824
0.607903
0.608586
0.60989
0.611842
0.614443
0.617687
0.621099
0.624077
0.626883
0.62995
0.633199
0.636499
0.639651
0.642452
0.644722
0.646318
0.647141
0.645657
0.645844
0.646243
0.646898
0.647855
0.649122
0.65058
0.651944
0.652961
0.653803
0.654715
0.655847
0.657202
0.658742
0.660431
0.662256
0.664239
0.666447
0.668996
0.67206
0.675878
0.680753
0.687137
0.694624
0.702681
0.712822
0.724443
0.736067
0.748582
0.76205
0.776152
0.790598
0.805111
0.819445
0.833387
0.846762
0.859428
0.871273
0.882212
0.892182
0.901135
0.909038
0.915867
0.921607
0.926247
0.929779
0.932199
0.933504
0.933691
0.93276
0.930708
0.927535
0.923239
0.917822
0.911284
0.903631
0.894869
0.885012
0.87408
0.862102
0.849122
0.8352
0.820416
0.804877
0.78872
0.772118
0.755283
0.738467
0.72197
0.70579
0.68584
0.663269
0.640544
0.622037
0.610643
0.607482
0.611785
0.620187
0.628342
0.634549
0.637139
0.64005
0.643221
0.646379
0.649307
0.651839
0.653859
0.655296
0.656125
0.656365
0.656076
0.65535
0.654306
0.653072
0.651764
0.650454
0.649147
0.647717
0.646115
0.644572
0.643326
0.642489
0.642117
0.642237
0.642863
0.644004
0.645656
0.647788
0.650314
0.653006
0.655634
0.658228
0.660899
0.663626
0.666323
0.66886
0.671097
0.672902
0.674168
0.674821
0.68025
0.680445
0.680845
0.681468
0.682324
0.683392
0.684591
0.685792
0.686904
0.687977
0.689118
0.690413
0.691891
0.693554
0.6954
0.697441
0.699711
0.702276
0.705237
0.708735
0.712944
0.718063
0.724286
0.731627
0.740062
0.749209
0.759064
0.769745
0.781208
0.793364
0.806023
0.81897
0.831988
0.844876
0.857451
0.869558
0.881066
0.891868
0.901879
0.911031
0.919272
0.926564
0.932877
0.938189
0.942484
0.945751
0.947982
0.949172
0.949315
0.948411
0.946458
0.943456
0.939407
0.934314
0.928183
0.921023
0.912849
0.903679
0.893541
0.882472
0.870523
0.857758
0.844261
0.830141
0.815529
0.800585
0.785502
0.770503
0.755841
0.741797
0.728701
0.715431
0.701294
0.688412
0.678876
0.673808
0.672685
0.673565
0.673825
0.673746
0.674711
0.676326
0.678298
0.680385
0.682394
0.684174
0.685616
0.686651
0.687246
0.687407
0.687168
0.686593
0.68576
0.684755
0.683655
0.682511
0.681339
0.680123
0.678882
0.677729
0.676796
0.676173
0.675919
0.676064
0.676626
0.677606
0.67899
0.680738
0.682775
0.684975
0.687225
0.689496
0.691792
0.694084
0.696307
0.69837
0.700173
0.70162
0.702633
0.703154
0.714648
0.714838
0.715223
0.715806
0.716582
0.71753
0.7186
0.719731
0.720886
0.722081
0.723368
0.724795
0.726394
0.728182
0.730175
0.732397
0.734887
0.737708
0.740942
0.744698
0.749098
0.75427
0.760314
0.767253
0.775049
0.783569
0.792768
0.802641
0.81314
0.824174
0.835606
0.84727
0.858997
0.870619
0.881984
0.892954
0.903411
0.913255
0.922404
0.93079
0.938359
0.945069
0.950887
0.955787
0.959749
0.962759
0.964807
0.965885
0.965987
0.965111
0.963257
0.960424
0.956618
0.951843
0.94611
0.93943
0.931824
0.923314
0.913933
0.903723
0.892738
0.881046
0.868731
0.855897
0.842668
0.829192
0.815638
0.802201
0.789095
0.776548
0.7648
0.754056
0.744664
0.736437
0.729243
0.723226
0.718307
0.71467
0.71259
0.711659
0.711633
0.712246
0.713259
0.71447
0.71571
0.716847
0.717781
0.718444
0.718802
0.718847
0.718598
0.718093
0.717386
0.716533
0.715589
0.714595
0.713577
0.712553
0.71156
0.710666
0.709954
0.709489
0.70932
0.709476
0.70997
0.710804
0.711959
0.713401
0.715071
0.716894
0.718797
0.720738
0.722688
0.724611
0.726451
0.72814
0.729604
0.730773
0.731588
0.732007
0.748856
0.749038
0.749404
0.74995
0.75067
0.751544
0.752547
0.753647
0.754826
0.756094
0.757477
0.759006
0.760708
0.762605
0.764721
0.767084
0.769734
0.772725
0.776126
0.780016
0.784482
0.789606
0.795447
0.802023
0.809311
0.817251
0.825797
0.834911
0.844536
0.854588
0.864956
0.875509
0.886109
0.89662
0.90691
0.916862
0.926368
0.935338
0.943692
0.951366
0.958305
0.964467
0.969815
0.974322
0.977966
0.98073
0.982602
0.983573
0.983637
0.98279
0.981033
0.978367
0.974797
0.970332
0.964982
0.958765
0.951702
0.943819
0.935153
0.925749
0.915661
0.904957
0.89372
0.882048
0.870055
0.857875
0.845657
0.833569
0.821788
0.810502
0.799895
0.790136
0.781382
0.773634
0.766875
0.761101
0.756357
0.752714
0.750204
0.748666
0.747918
0.747765
0.748022
0.748524
0.74913
0.749724
0.750216
0.750544
0.75067
0.750581
0.750282
0.749796
0.749156
0.748403
0.747573
0.746703
0.74582
0.744953
0.744137
0.743423
0.742864
0.74251
0.742396
0.742548
0.742976
0.743679
0.744642
0.745836
0.747216
0.748732
0.75033
0.751969
0.753613
0.755221
0.756746
0.758134
0.75933
0.76028
0.76094
0.761279
0.782881
0.783055
0.783403
0.783921
0.784601
0.785432
0.786397
0.787482
0.788679
0.789993
0.791441
0.793045
0.794827
0.79681
0.799019
0.801484
0.80424
0.807334
0.81082
0.814757
0.819207
0.824224
0.829845
0.836082
0.842921
0.850326
0.858258
0.86667
0.875505
0.884686
0.89412
0.9037
0.913311
0.922841
0.932176
0.941215
0.949862
0.958035
0.96566
0.972676
0.97903
0.984678
0.989584
0.99372
0.997063
0.999594
1.0013
1.00217
1.0022
1.00138
0.999718
0.997213
0.993872
0.989704
0.984723
0.978946
0.972398
0.965108
0.957113
0.948458
0.939199
0.929401
0.919144
0.908519
0.89763
0.886595
0.875548
0.864629
0.853987
0.843776
0.834141
0.825212
0.817092
0.809825
0.803429
0.797915
0.793307
0.789624
0.786847
0.784884
0.783607
0.782873
0.78254
0.782476
0.782562
0.782701
0.782814
0.782844
0.782754
0.782525
0.782154
0.781653
0.781042
0.780347
0.779599
0.778823
0.778048
0.777301
0.776614
0.776024
0.775571
0.775289
0.775207
0.775344
0.775707
0.776295
0.777095
0.778083
0.779227
0.780487
0.781823
0.783197
0.784573
0.785914
0.787178
0.788321
0.789301
0.790077
0.790614
0.79089
0.816731
0.816899
0.817232
0.817728
0.818382
0.819185
0.820129
0.821206
0.822413
0.823757
0.825248
0.826905
0.828745
0.830789
0.833062
0.835591
0.838408
0.841551
0.845062
0.848986
0.853366
0.858238
0.863627
0.869539
0.875964
0.882875
0.890238
0.898007
0.906128
0.914531
0.923138
0.931858
0.940596
0.949255
0.957739
0.965959
0.973831
0.98128
0.988238
0.994648
1.00046
1.00563
1.01012
1.01391
1.01697
1.01928
1.02083
1.02161
1.0216
1.02081
1.01924
1.0169
1.01377
1.00989
1.00526
0.999899
0.993837
0.987102
0.979731
0.971771
0.963275
0.954305
0.944937
0.935253
0.925349
0.91533
0.905309
0.89541
0.885757
0.876474
0.86768
0.859478
0.85195
0.845147
0.839099
0.833823
0.829333
0.825627
0.822676
0.820415
0.818752
0.81758
0.81679
0.816276
0.815941
0.815704
0.815496
0.815266
0.814977
0.81461
0.814156
0.813619
0.81301
0.812347
0.811651
0.810943
0.810248
0.809589
0.808993
0.808489
0.808105
0.807869
0.8078
0.807913
0.808213
0.808699
0.809359
0.810175
0.81112
0.812165
0.813277
0.814423
0.815569
0.816683
0.817729
0.818672
0.819477
0.820112
0.820551
0.820775
0.850415
0.850576
0.850898
0.851379
0.852013
0.852798
0.853727
0.854798
0.856012
0.857373
0.858892
0.860581
0.862457
0.86454
0.86685
0.869411
0.87225
0.8754
0.878891
0.882759
0.887032
0.891736
0.896885
0.902483
0.90852
0.914973
0.921811
0.928992
0.936467
0.944174
0.952043
0.959999
0.967961
0.975844
0.983567
0.991051
0.998223
1.00501
1.01136
1.01722
1.02253
1.02726
1.03137
1.03483
1.03763
1.03973
1.04113
1.04182
1.04179
1.04103
1.03955
1.03735
1.03444
1.03082
1.02652
1.02156
1.01595
1.00973
1.00294
0.99562
0.987824
0.979609
0.971045
0.962208
0.953183
0.944064
0.93495
0.925945
0.917155
0.908683
0.900626
0.89307
0.886083
0.879714
0.873995
0.868947
0.864575
0.860874
0.857815
0.855349
0.853406
0.851906
0.850764
0.849896
0.849223
0.848677
0.848199
0.847745
0.84728
0.846782
0.846242
0.845656
0.845032
0.844379
0.843714
0.843051
0.842411
0.841814
0.84128
0.840833
0.840493
0.840281
0.840211
0.840294
0.840534
0.840928
0.841467
0.842136
0.842914
0.843777
0.844697
0.845647
0.846598
0.84752
0.848385
0.849161
0.849822
0.850343
0.850702
0.850885
0.883936
0.884093
0.884407
0.884875
0.885495
0.886265
0.887183
0.888249
0.889463
0.890832
0.892364
0.89407
0.895964
0.898063
0.900385
0.902951
0.905783
0.908906
0.912345
0.916125
0.920267
0.924787
0.929695
0.934989
0.940659
0.946686
0.953041
0.959685
0.966573
0.973653
0.980862
0.988135
0.995403
1.00259
1.00963
1.01646
1.023
1.02919
1.03499
1.04033
1.04518
1.04951
1.05326
1.05642
1.05897
1.06089
1.06215
1.06276
1.0627
1.06197
1.06058
1.05852
1.0558
1.05244
1.04845
1.04385
1.03867
1.03293
1.02668
1.01995
1.01279
1.00526
0.997425
0.98935
0.981112
0.972794
0.964482
0.956266
0.948236
0.940477
0.933073
0.926093
0.919597
0.91363
0.908223
0.903393
0.899147
0.895478
0.892361
0.889758
0.887617
0.885875
0.884465
0.883321
0.882379
0.881582
0.88088
0.880234
0.879614
0.878997
0.878372
0.877733
0.877082
0.876425
0.875773
0.875137
0.874532
0.873975
0.873481
0.873069
0.872753
0.87255
0.872469
0.872519
0.872701
0.873013
0.873446
0.873989
0.874624
0.875331
0.876088
0.876871
0.877655
0.878416
0.879127
0.879766
0.880308
0.880734
0.881028
0.881178
0.917301
0.917454
0.91776
0.918218
0.918826
0.919584
0.920492
0.92155
0.92276
0.924128
0.925662
0.92737
0.929266
0.931364
0.933677
0.936225
0.939025
0.942096
0.945459
0.94913
0.953124
0.957451
0.962117
0.967118
0.972443
0.978072
0.98398
0.990133
0.996489
1.003
1.00962
1.01628
1.02292
1.02949
1.03592
1.04214
1.04811
1.05377
1.05906
1.06394
1.06837
1.07232
1.07575
1.07863
1.08095
1.08269
1.08383
1.08436
1.08428
1.08358
1.08227
1.08034
1.07781
1.07469
1.07099
1.06673
1.06194
1.05665
1.05089
1.0447
1.03813
1.03122
1.02404
1.01665
1.00912
1.00152
0.993919
0.986402
0.979044
0.971918
0.965094
0.958632
0.952583
0.946987
0.941872
0.937255
0.933143
0.929528
0.926393
0.923707
0.921429
0.919511
0.9179
0.916543
0.915389
0.91439
0.913505
0.912699
0.911944
0.911221
0.910515
0.909822
0.909138
0.908467
0.907815
0.907191
0.906606
0.906072
0.905601
0.905207
0.904902
0.904696
0.904597
0.904611
0.904738
0.904975
0.905316
0.905749
0.906261
0.906836
0.907453
0.908094
0.908736
0.90936
0.909943
0.910466
0.91091
0.911259
0.911499
0.911621
0.950512
0.950662
0.950962
0.95141
0.952008
0.952755
0.953651
0.954698
0.955899
0.957259
0.958784
0.960484
0.962367
0.964447
0.966735
0.969246
0.971995
0.974996
0.978264
0.981811
0.985647
0.989778
0.994205
0.998923
1.00392
1.00918
1.01468
1.02038
1.02625
1.03225
1.03833
1.04443
1.05052
1.05653
1.0624
1.06809
1.07354
1.0787
1.08354
1.08799
1.09204
1.09564
1.09877
1.1014
1.10351
1.10509
1.10611
1.10658
1.10648
1.10581
1.10457
1.10277
1.10041
1.09751
1.09409
1.09015
1.08572
1.08084
1.07553
1.06984
1.0638
1.05746
1.05087
1.0441
1.0372
1.03024
1.02327
1.01638
1.00962
1.00306
0.996753
0.990757
0.985115
0.979862
0.975023
0.970614
0.966641
0.9631
0.959976
0.957247
0.954881
0.952839
0.951081
0.949563
0.948244
0.947085
0.946051
0.945112
0.944243
0.943426
0.942648
0.941901
0.941181
0.940489
0.939829
0.939207
0.938629
0.938105
0.937645
0.937257
0.936951
0.936735
0.936613
0.936589
0.936664
0.936834
0.937092
0.937431
0.937837
0.938297
0.938795
0.939314
0.939836
0.940344
0.940819
0.941246
0.941607
0.941891
0.942087
0.942187
0.983573
0.98372
0.984014
0.984454
0.985041
0.985776
0.986659
0.987692
0.988879
0.990224
0.991733
0.993413
0.995273
0.997321
0.99957
1.00203
1.00471
1.00763
1.01079
1.0142
1.01787
1.02181
1.026
1.03045
1.03514
1.04005
1.04516
1.05045
1.05588
1.06141
1.06701
1.07262
1.0782
1.0837
1.08907
1.09427
1.09926
1.10398
1.10839
1.11246
1.11616
1.11945
1.1223
1.12469
1.12661
1.12804
1.12896
1.12936
1.12924
1.1286
1.12744
1.12575
1.12356
1.12087
1.11769
1.11405
1.10996
1.10545
1.10056
1.09532
1.08976
1.08394
1.07789
1.07168
1.06534
1.05895
1.05256
1.04622
1.04
1.03394
1.0281
1.02253
1.01726
1.01232
1.00774
1.00354
0.999706
0.996253
0.993165
0.990425
0.988008
0.985884
0.984021
0.982384
0.98094
0.979656
0.978502
0.977454
0.976489
0.975592
0.974749
0.973952
0.973196
0.97248
0.971806
0.971177
0.970598
0.970075
0.969615
0.969225
0.968911
0.968679
0.968531
0.96847
0.968495
0.968603
0.968789
0.969044
0.969358
0.96972
0.970116
0.970531
0.970951
0.971361
0.971745
0.97209
0.972383
0.972613
0.972771
0.972852
1.01649
1.01663
1.01692
1.01735
1.01793
1.01865
1.01952
1.02053
1.0217
1.02303
1.02451
1.02616
1.02799
1.03
1.03219
1.03459
1.0372
1.04002
1.04306
1.04634
1.04984
1.05358
1.05754
1.06173
1.06613
1.07072
1.07548
1.08039
1.08541
1.09052
1.09567
1.10083
1.10595
1.11099
1.11592
1.12068
1.12524
1.12955
1.13359
1.13731
1.14068
1.14368
1.14628
1.14846
1.15021
1.15149
1.15232
1.15266
1.15253
1.15192
1.15082
1.14925
1.14721
1.14471
1.14176
1.13839
1.13461
1.13045
1.12594
1.12111
1.116
1.11064
1.10508
1.09937
1.09355
1.08767
1.08179
1.07595
1.0702
1.0646
1.05919
1.054
1.04907
1.04443
1.04009
1.03608
1.0324
1.02904
1.02601
1.02328
1.02084
1.01867
1.01673
1.01501
1.01347
1.01209
1.01085
1.00971
1.00867
1.0077
1.0068
1.00596
1.00517
1.00443
1.00374
1.0031
1.00251
1.00198
1.00152
1.00112
1.00079
1.00054
1.00036
1.00026
1.00024
1.0003
1.00042
1.0006
1.00083
1.00111
1.00142
1.00174
1.00208
1.0024
1.00271
1.00299
1.00322
1.00341
1.00353
1.0036
1.04926
1.0494
1.04968
1.0501
1.05067
1.05137
1.05222
1.05322
1.05437
1.05567
1.05712
1.05874
1.06052
1.06248
1.06462
1.06694
1.06946
1.07218
1.07511
1.07824
1.08157
1.08512
1.08887
1.09281
1.09693
1.10122
1.10565
1.11021
1.11486
1.11958
1.12433
1.12907
1.13378
1.13841
1.14292
1.14729
1.15146
1.15541
1.1591
1.1625
1.16558
1.16832
1.17069
1.17267
1.17425
1.17542
1.17615
1.17645
1.1763
1.17571
1.17468
1.17321
1.17131
1.16899
1.16626
1.16314
1.15964
1.1558
1.15164
1.14719
1.14248
1.13754
1.13243
1.12717
1.12181
1.1164
1.11097
1.10558
1.10027
1.09508
1.09005
1.08521
1.08059
1.07622
1.07212
1.0683
1.06476
1.06151
1.05854
1.05585
1.05341
1.05121
1.04924
1.04746
1.04585
1.0444
1.04308
1.04188
1.04077
1.03975
1.0388
1.03792
1.0371
1.03633
1.03562
1.03496
1.03436
1.03383
1.03335
1.03294
1.03259
1.03232
1.03212
1.03198
1.03192
1.03192
1.03198
1.0321
1.03226
1.03247
1.0327
1.03295
1.03321
1.03346
1.0337
1.03392
1.03411
1.03426
1.03436
1.03441
1.08189
1.08203
1.0823
1.08271
1.08326
1.08396
1.08479
1.08576
1.08688
1.08815
1.08957
1.09115
1.09288
1.09478
1.09686
1.0991
1.10153
1.10414
1.10694
1.10993
1.1131
1.11646
1.11999
1.1237
1.12756
1.13157
1.1357
1.13993
1.14424
1.1486
1.15298
1.15736
1.16169
1.16594
1.17008
1.17408
1.17791
1.18152
1.18489
1.188
1.19082
1.19332
1.19548
1.19728
1.19872
1.19977
1.20042
1.20067
1.20052
1.19995
1.19898
1.19761
1.19584
1.19368
1.19115
1.18826
1.18503
1.18148
1.17763
1.17353
1.16918
1.16463
1.15991
1.15507
1.15012
1.14513
1.14012
1.13514
1.13022
1.1254
1.12071
1.11619
1.11187
1.10775
1.10387
1.10022
1.09683
1.09369
1.0908
1.08815
1.08574
1.08354
1.08154
1.07972
1.07808
1.07657
1.0752
1.07395
1.07279
1.07172
1.07073
1.06982
1.06896
1.06817
1.06744
1.06677
1.06616
1.06561
1.06512
1.06469
1.06433
1.06403
1.0638
1.06363
1.06353
1.06348
1.06349
1.06355
1.06366
1.0638
1.06396
1.06415
1.06434
1.06454
1.06472
1.06489
1.06504
1.06515
1.06523
1.06527
1.11438
1.11451
1.11478
1.11519
1.11572
1.1164
1.11721
1.11816
1.11925
1.12048
1.12186
1.12339
1.12508
1.12692
1.12892
1.13108
1.13342
1.13592
1.13859
1.14143
1.14444
1.14762
1.15095
1.15443
1.15805
1.16179
1.16564
1.16957
1.17357
1.17761
1.18165
1.18569
1.18967
1.19358
1.19739
1.20106
1.20456
1.20787
1.21096
1.2138
1.21637
1.21866
1.22062
1.22227
1.22357
1.22451
1.22509
1.2253
1.22514
1.2246
1.22368
1.2224
1.22075
1.21874
1.21639
1.21371
1.21072
1.20744
1.20389
1.2001
1.19609
1.19189
1.18753
1.18306
1.17849
1.17388
1.16924
1.16463
1.16006
1.15558
1.15122
1.14699
1.14293
1.13905
1.13537
1.1319
1.12865
1.12563
1.12282
1.12023
1.11785
1.11566
1.11366
1.11183
1.11015
1.10862
1.10721
1.10591
1.10472
1.10362
1.10259
1.10165
1.10077
1.09996
1.09921
1.09852
1.09789
1.09733
1.09682
1.09638
1.096
1.09568
1.09542
1.09522
1.09508
1.09499
1.09495
1.09496
1.09502
1.0951
1.09521
1.09534
1.09548
1.09562
1.09576
1.09588
1.09599
1.09608
1.09614
1.09617
1.14674
1.14687
1.14713
1.14752
1.14804
1.1487
1.14949
1.15041
1.15147
1.15267
1.154
1.15549
1.15711
1.15889
1.16082
1.1629
1.16513
1.16752
1.17007
1.17277
1.17562
1.17862
1.18176
1.18503
1.18842
1.19191
1.1955
1.19916
1.20286
1.2066
1.21034
1.21406
1.21773
1.22133
1.22483
1.2282
1.23141
1.23444
1.23727
1.23987
1.24222
1.2443
1.2461
1.24759
1.24877
1.24962
1.25013
1.25031
1.25014
1.24962
1.24876
1.24756
1.24602
1.24415
1.24197
1.23949
1.23672
1.23368
1.23039
1.22688
1.22318
1.2193
1.21527
1.21114
1.20692
1.20264
1.19835
1.19407
1.18983
1.18565
1.18158
1.17762
1.1738
1.17015
1.16666
1.16336
1.16026
1.15734
1.15463
1.1521
1.14976
1.1476
1.14561
1.14378
1.14209
1.14053
1.1391
1.13778
1.13656
1.13543
1.13438
1.13341
1.13251
1.13168
1.13091
1.13021
1.12957
1.12899
1.12847
1.128
1.1276
1.12726
1.12697
1.12674
1.12657
1.12645
1.12637
1.12634
1.12634
1.12638
1.12644
1.12652
1.12661
1.12671
1.1268
1.1269
1.12698
1.12704
1.12708
1.12711
1.17897
1.17909
1.17935
1.17973
1.18023
1.18087
1.18163
1.18253
1.18355
1.18471
1.186
1.18743
1.189
1.19071
1.19256
1.19455
1.19669
1.19897
1.20139
1.20396
1.20666
1.20948
1.21244
1.21551
1.21868
1.22195
1.22529
1.22869
1.23213
1.23559
1.23905
1.24248
1.24587
1.24918
1.2524
1.25549
1.25844
1.26122
1.26381
1.26619
1.26834
1.27024
1.27188
1.27323
1.2743
1.27506
1.27552
1.27566
1.27548
1.27499
1.27417
1.27305
1.27161
1.26987
1.26785
1.26554
1.26297
1.26016
1.25712
1.25387
1.25044
1.24685
1.24313
1.2393
1.23539
1.23143
1.22745
1.22347
1.21952
1.21563
1.21182
1.20811
1.20452
1.20107
1.19777
1.19463
1.19166
1.18886
1.18624
1.18378
1.1815
1.17937
1.1774
1.17558
1.17389
1.17233
1.17088
1.16954
1.1683
1.16715
1.16609
1.1651
1.16419
1.16334
1.16256
1.16184
1.16118
1.16059
1.16005
1.15957
1.15915
1.15878
1.15847
1.15822
1.15801
1.15786
1.15774
1.15767
1.15763
1.15763
1.15764
1.15768
1.15773
1.15779
1.15786
1.15792
1.15797
1.15802
1.15805
1.15806
1.21107
1.21119
1.21144
1.21181
1.2123
1.21291
1.21365
1.21451
1.2155
1.21662
1.21787
1.21924
1.22075
1.22239
1.22416
1.22607
1.22811
1.23028
1.23258
1.23501
1.23756
1.24022
1.243
1.24588
1.24885
1.2519
1.25501
1.25818
1.26137
1.26458
1.26778
1.27095
1.27407
1.27713
1.28009
1.28293
1.28564
1.28819
1.29057
1.29274
1.29471
1.29644
1.29793
1.29916
1.30013
1.30081
1.30122
1.30133
1.30115
1.30067
1.2999
1.29885
1.29751
1.29589
1.294
1.29186
1.28948
1.28687
1.28405
1.28104
1.27786
1.27454
1.27109
1.26754
1.26391
1.26024
1.25654
1.25283
1.24916
1.24552
1.24196
1.23848
1.2351
1.23184
1.22872
1.22573
1.22289
1.22021
1.21768
1.2153
1.21307
1.21099
1.20905
1.20724
1.20556
1.204
1.20256
1.20121
1.19996
1.1988
1.19772
1.19672
1.19579
1.19493
1.19414
1.19341
1.19274
1.19213
1.19157
1.19108
1.19064
1.19026
1.18992
1.18964
1.18941
1.18922
1.18907
1.18897
1.18889
1.18885
1.18883
1.18883
1.18885
1.18888
1.18891
1.18895
1.18898
1.18901
1.18903
1.18904
1.24305
1.24317
1.24341
1.24376
1.24423
1.24483
1.24554
1.24637
1.24733
1.2484
1.2496
1.25092
1.25237
1.25394
1.25563
1.25745
1.25939
1.26145
1.26363
1.26593
1.26834
1.27085
1.27346
1.27616
1.27894
1.28179
1.28469
1.28763
1.2906
1.29357
1.29653
1.29947
1.30235
1.30516
1.30789
1.31051
1.31299
1.31534
1.31751
1.31951
1.3213