/*--------------------------------*- C++ -*----------------------------------*\
| =========                 |                                                 |
| \\      /  F ield         | OpenFOAM: The Open Source CFD Toolbox           |
|  \\    /   O peration     | Version:  2406                                  |
|   \\  /    A nd           | Website:  www.openfoam.com                      |
|    \\/     M anipulation  |                                                 |
\*---------------------------------------------------------------------------*/
FoamFile
{
    version     2.0;
    format      ascii;
    arch        "LSB;label=32;scalar=64";
    class       volScalarField;
    location    "5";
    object      C_0_0;
}
// * * * * * * * * * * * * * * * * * * * * * * * * * * * * * * * * * * * * * //

dimensions      [1 -3 0 0 0 0 0];

internalField   nonuniform List<scalar> 
14400
(
0.323947
0.321034
0.316355
0.311147
0.306413
0.302882
0.30105
0.301219
0.303537
0.308005
0.314473
0.322609
0.331841
0.341234
0.349284
0.353636
0.350561
0.343516
0.335054
0.326944
0.320371
0.316146
0.314861
0.316978
0.322888
0.332948
0.347509
0.366925
0.391563
0.421797
0.457989
0.500418
0.549101
0.603144
0.657868
0.696966
0.723058
0.745829
0.765765
0.783156
0.798229
0.811162
0.822096
0.831139
0.838379
0.843882
0.847698
0.849862
0.850395
0.849307
0.846594
0.842241
0.83622
0.828489
0.818992
0.807655
0.794384
0.77906
0.761534
0.74162
0.719082
0.69362
0.66221
0.615381
0.556492
0.50207
0.453932
0.412155
0.376451
0.346425
0.321668
0.301795
0.286463
0.275381
0.268308
0.265051
0.265466
0.269448
0.276924
0.287843
0.302156
0.319786
0.340577
0.364166
0.389627
0.414013
0.429566
0.435235
0.434667
0.426001
0.408706
0.388405
0.369133
0.351949
0.337251
0.325184
0.315735
0.308772
0.304058
0.301254
0.299934
0.299616
0.299821
0.300177
0.30055
0.301121
0.302302
0.304614
0.30858
0.314673
0.323283
0.334714
0.349173
0.366764
0.387445
0.410914
0.43618
0.45935
0.473458
0.478864
0.336719
0.332692
0.326781
0.320546
0.315046
0.310989
0.30884
0.308883
0.311255
0.315957
0.32285
0.331637
0.341807
0.352539
0.362468
0.368951
0.36416
0.355128
0.345137
0.335927
0.328565
0.323778
0.322107
0.323985
0.329784
0.339852
0.354531
0.374169
0.39913
0.429786
0.466496
0.509557
0.559035
0.61396
0.6654
0.700785
0.726272
0.748665
0.768309
0.785473
0.800369
0.813163
0.823985
0.832942
0.840115
0.845569
0.84935
0.851492
0.852017
0.850932
0.848234
0.843909
0.837929
0.830255
0.820832
0.809589
0.796436
0.781261
0.763922
0.744245
0.722005
0.696913
0.66742
0.623553
0.565317
0.510572
0.461875
0.419541
0.383338
0.352884
0.327772
0.307618
0.292076
0.280855
0.273713
0.270457
0.270944
0.27507
0.282764
0.293979
0.30867
0.326767
0.348127
0.372414
0.398667
0.42242
0.43604
0.44145
0.441268
0.434673
0.418571
0.397845
0.378059
0.360422
0.345376
0.333084
0.323547
0.31664
0.312123
0.309645
0.308745
0.308871
0.309434
0.309934
0.310152
0.310356
0.311089
0.312979
0.316618
0.322511
0.33106
0.342568
0.357239
0.375166
0.396298
0.420321
0.446138
0.467775
0.479348
0.484266
0.362932
0.356081
0.347548
0.339268
0.332281
0.32721
0.324452
0.324253
0.326732
0.331887
0.339595
0.349601
0.361463
0.374453
0.387113
0.394124
0.389874
0.377644
0.364966
0.353763
0.344932
0.339077
0.336664
0.338078
0.343665
0.353754
0.368672
0.388757
0.414361
0.445843
0.483538
0.527683
0.578181
0.633322
0.677956
0.708025
0.732579
0.754249
0.773333
0.79006
0.804612
0.817133
0.827741
0.836529
0.843572
0.848928
0.85264
0.854741
0.855248
0.854169
0.851501
0.847231
0.841333
0.83377
0.824492
0.813433
0.800511
0.785625
0.76865
0.749431
0.72778
0.703463
0.676178
0.63815
0.58329
0.527731
0.477856
0.434406
0.397213
0.365908
0.34009
0.319373
0.303412
0.291912
0.28463
0.281377
0.282008
0.286421
0.29455
0.306352
0.321787
0.340789
0.363204
0.388634
0.415804
0.43744
0.448231
0.453257
0.45361
0.449311
0.437143
0.416515
0.395899
0.377406
0.36168
0.348945
0.339237
0.332447
0.32834
0.32655
0.326558
0.327674
0.329074
0.329938
0.329767
0.329115
0.328851
0.329831
0.332781
0.338259
0.34668
0.35834
0.373423
0.391989
0.413937
0.438761
0.464472
0.481772
0.490406
0.494584
0.400477
0.390346
0.378183
0.367081
0.358043
0.351561
0.347946
0.347408
0.35005
0.355857
0.364708
0.376375
0.390403
0.405856
0.419593
0.423202
0.421463
0.40933
0.393908
0.380252
0.369467
0.362131
0.358665
0.359417
0.364705
0.374838
0.390123
0.410881
0.437444
0.470145
0.50925
0.554812
0.606078
0.65726
0.692648
0.718586
0.741771
0.762417
0.780713
0.796822
0.810885
0.823017
0.833316
0.841861
0.848715
0.85393
0.857544
0.859583
0.860064
0.858995
0.856371
0.852181
0.846402
0.839001
0.829932
0.819139
0.80655
0.792079
0.775621
0.75705
0.73622
0.712956
0.68706
0.655899
0.609708
0.553364
0.501927
0.456906
0.418273
0.385711
0.358838
0.337278
0.320686
0.308766
0.301276
0.298025
0.298872
0.303715
0.312493
0.325165
0.341695
0.362008
0.385895
0.412701
0.439931
0.45673
0.465165
0.469736
0.470539
0.467698
0.460616
0.44407
0.422583
0.402937
0.386254
0.372871
0.362913
0.356312
0.35285
0.352164
0.353688
0.356541
0.359528
0.361206
0.360175
0.357905
0.355897
0.355363
0.35721
0.362038
0.370256
0.382135
0.397816
0.417267
0.440283
0.465902
0.487484
0.498937
0.505672
0.509082
0.437677
0.43206
0.417531
0.403532
0.392195
0.384058
0.379401
0.378448
0.381316
0.387954
0.398199
0.411831
0.42819
0.445286
0.453653
0.454672
0.454086
0.447688
0.431272
0.415243
0.402224
0.393089
0.388318
0.388237
0.393156
0.403367
0.419158
0.440816
0.468642
0.502934
0.543822
0.590979
0.642074
0.680914
0.707986
0.731875
0.753502
0.772937
0.790279
0.805631
0.819087
0.830734
0.840645
0.848883
0.855498
0.860534
0.864021
0.865982
0.866431
0.865374
0.862808
0.858721
0.853094
0.845899
0.837097
0.826641
0.814471
0.80052
0.784703
0.766929
0.747093
0.725082
0.700785
0.674102
0.638499
0.586604
0.534099
0.487271
0.446811
0.412602
0.384336
0.361655
0.34422
0.331738
0.323967
0.32072
0.321854
0.32727
0.336906
0.35072
0.368669
0.390648
0.416351
0.444621
0.467468
0.478749
0.485865
0.489983
0.491111
0.489387
0.485117
0.475782
0.45716
0.436857
0.419152
0.404953
0.394686
0.388345
0.385762
0.386621
0.390388
0.395947
0.401643
0.405041
0.402217
0.397186
0.392478
0.38971
0.390018
0.393964
0.401907
0.414061
0.430492
0.450869
0.474501
0.497766
0.51126
0.518933
0.524265
0.526988
0.47174
0.470967
0.4635
0.447916
0.434524
0.424703
0.418875
0.41744
0.420614
0.428243
0.439967
0.455611
0.473439
0.483986
0.486768
0.487709
0.487525
0.485972
0.476222
0.458636
0.443301
0.432144
0.425884
0.424828
0.429323
0.439663
0.456106
0.478883
0.50822
0.544384
0.587158
0.634797
0.674222
0.701902
0.725567
0.747429
0.767424
0.785549
0.801836
0.816335
0.8291
0.840187
0.849648
0.857526
0.863862
0.868686
0.872024
0.873893
0.874304
0.873262
0.870764
0.8668
0.861354
0.854403
0.845916
0.835855
0.824175
0.810824
0.795744
0.778871
0.76014
0.739492
0.716882
0.692303
0.665167
0.626629
0.574472
0.52581
0.483196
0.446977
0.416994
0.392921
0.374433
0.361244
0.35312
0.349876
0.35137
0.357499
0.368192
0.383396
0.403037
0.426868
0.45407
0.48074
0.495345
0.503556
0.509561
0.513222
0.514535
0.513622
0.510737
0.506255
0.496254
0.478456
0.460277
0.44515
0.434576
0.428561
0.427027
0.429744
0.436427
0.445335
0.454377
0.457301
0.454877
0.446395
0.438372
0.432702
0.431164
0.434058
0.441666
0.454105
0.471398
0.492207
0.514042
0.527744
0.535255
0.541267
0.545465
0.547619
0.506394
0.506103
0.505019
0.497929
0.48426
0.473301
0.466239
0.464234
0.467844
0.476612
0.489318
0.505795
0.515738
0.519255
0.520873
0.521872
0.522161
0.521732
0.519345
0.509073
0.492519
0.479383
0.471629
0.469481
0.473515
0.484047
0.501298
0.525381
0.556277
0.594267
0.637523
0.674359
0.701115
0.723639
0.744951
0.764848
0.783216
0.799999
0.815182
0.828771
0.84079
0.851267
0.860232
0.867713
0.873736
0.878325
0.881495
0.883262
0.883631
0.882607
0.880186
0.876361
0.871119
0.864443
0.856308
0.846688
0.83555
0.822859
0.808578
0.79267
0.775105
0.755864
0.734949
0.712398
0.6883
0.66095
0.621875
0.572595
0.527748
0.48924
0.457278
0.431567
0.411826
0.397785
0.389228
0.385987
0.387915
0.394891
0.406826
0.423621
0.44516
0.470852
0.498399
0.515292
0.52379
0.530562
0.535601
0.538809
0.540184
0.539828
0.537946
0.534839
0.530862
0.522214
0.508479
0.492829
0.482284
0.476658
0.476177
0.480447
0.48978
0.496842
0.500535
0.501315
0.501115
0.49803
0.491644
0.483293
0.480201
0.482025
0.489249
0.501686
0.519482
0.536455
0.548243
0.554889
0.560714
0.565415
0.568708
0.570403
0.54134
0.541273
0.541221
0.540882
0.53614
0.528392
0.520486
0.517906
0.52205
0.531893
0.542472
0.549785
0.552499
0.554133
0.555598
0.556745
0.557513
0.557925
0.558095
0.556274
0.54824
0.534327
0.525686
0.522324
0.525908
0.536706
0.554903
0.580419
0.612192
0.650514
0.681979
0.705858
0.726528
0.746589
0.765749
0.783797
0.800593
0.81605
0.830119
0.842779
0.854023
0.86386
0.872299
0.879357
0.885046
0.889381
0.892371
0.894027
0.894352
0.893348
0.891012
0.887339
0.88232
0.875941
0.868187
0.859039
0.848478
0.836483
0.823037
0.808126
0.791746
0.773909
0.754651
0.734041
0.712196
0.689292
0.662811
0.625837
0.580347
0.539637
0.505644
0.478114
0.456949
0.44191
0.432835
0.429598
0.432033
0.43997
0.453287
0.471707
0.495083
0.52144
0.538546
0.547075
0.553789
0.559301
0.563473
0.566227
0.567563
0.567561
0.566381
0.564263
0.561521
0.558537
0.552976
0.544784
0.536107
0.530944
0.531269
0.534483
0.537445
0.538496
0.537747
0.537721
0.538459
0.539935
0.539554
0.537431
0.535247
0.536191
0.542971
0.553736
0.564313
0.572421
0.577683
0.582766
0.587298
0.590971
0.593551
0.594881
0.576351
0.576428
0.576649
0.577154
0.578136
0.576986
0.57504
0.574691
0.577316
0.581619
0.585307
0.586413
0.587716
0.58918
0.59064
0.591996
0.593222
0.594361
0.59554
0.596977
0.597422
0.593733
0.587251
0.582711
0.586187
0.597282
0.616227
0.642887
0.67163
0.696415
0.715911
0.73426
0.75255
0.77044
0.787658
0.803998
0.81931
0.833489
0.846467
0.8582
0.868664
0.877848
0.885749
0.892368
0.89771
0.90178
0.904583
0.906123
0.906402
0.90542
0.903175
0.899663
0.894879
0.888814
0.881458
0.872803
0.862839
0.851559
0.838962
0.825051
0.809845
0.793376
0.775704
0.756919
0.737152
0.716585
0.695458
0.671452
0.638966
0.597747
0.562385
0.532985
0.510323
0.494143
0.484441
0.481213
0.484235
0.493171
0.507901
0.527344
0.550999
0.566092
0.573759
0.579722
0.58499
0.58938
0.592762
0.595065
0.596282
0.59647
0.595753
0.594314
0.592392
0.590275
0.58829
0.586077
0.582351
0.579236
0.577936
0.577318
0.575398
0.573989
0.573325
0.573353
0.574076
0.575516
0.577766
0.580549
0.582166
0.584755
0.589461
0.594993
0.599215
0.603116
0.607222
0.611194
0.614741
0.617619
0.619645
0.620689
0.611286
0.61144
0.611794
0.612434
0.613482
0.615065
0.617043
0.618487
0.619558
0.61998
0.62052
0.621497
0.622773
0.624232
0.625785
0.627379
0.629017
0.630756
0.632726
0.635128
0.638259
0.642106
0.643795
0.646237
0.651969
0.663093
0.679451
0.697819
0.715395
0.730661
0.746498
0.762719
0.778973
0.794962
0.810445
0.825227
0.839159
0.85213
0.864059
0.87489
0.884586
0.893121
0.900481
0.906657
0.911646
0.915447
0.918058
0.91948
0.919712
0.918754
0.916605
0.913261
0.908719
0.902977
0.89603
0.887876
0.878516
0.867953
0.856199
0.843272
0.829205
0.814046
0.79787
0.780778
0.762907
0.744437
0.725597
0.706667
0.686505
0.659879
0.626748
0.596009
0.572196
0.554757
0.544264
0.541074
0.544769
0.554388
0.570055
0.587154
0.598458
0.603986
0.608623
0.613062
0.617069
0.620466
0.623129
0.624989
0.626028
0.626285
0.625846
0.624847
0.623459
0.621875
0.620284
0.618799
0.617474
0.615873
0.613682
0.611508
0.609838
0.60873
0.608213
0.608291
0.608973
0.610277
0.612229
0.614829
0.618071
0.621483
0.624462
0.627272
0.630342
0.633593
0.636895
0.640049
0.642851
0.645122
0.646718
0.647542
0.646066
0.646253
0.646652
0.647307
0.648263
0.64953
0.650989
0.652355
0.653377
0.654225
0.655144
0.656284
0.657645
0.659191
0.660887
0.662719
0.664709
0.666923
0.669478
0.67255
0.676375
0.681256
0.687645
0.695165
0.703251
0.713391
0.724985
0.736599
0.749122
0.762595
0.776699
0.791146
0.805659
0.819992
0.833932
0.847305
0.859969
0.871812
0.882749
0.892716
0.901667
0.909568
0.916395
0.922133
0.926771
0.930302
0.932721
0.934026
0.934213
0.933281
0.931229
0.928056
0.92376
0.918344
0.911807
0.904155
0.895395
0.885539
0.874609
0.862633
0.849655
0.835735
0.820953
0.805415
0.789261
0.77266
0.755826
0.73901
0.722513
0.70636
0.68647
0.663965
0.641274
0.622783
0.611375
0.6082
0.612468
0.620808
0.628899
0.635051
0.637614
0.640518
0.643683
0.646836
0.649758
0.652286
0.654301
0.655733
0.656558
0.656794
0.6565
0.65577
0.654721
0.653483
0.652171
0.650857
0.649545
0.648111
0.646507
0.644963
0.643716
0.642878
0.642505
0.642624
0.64325
0.64439
0.646042
0.648173
0.650698
0.65339
0.656019
0.658616
0.661289
0.664018
0.666716
0.669254
0.671492
0.673298
0.674565
0.675218
0.680659
0.680853
0.681254
0.681878
0.682734
0.683802
0.685003
0.686207
0.687322
0.6884
0.689547
0.690848
0.692332
0.694001
0.695854
0.697901
0.700177
0.702747
0.705715
0.709219
0.713434
0.718559
0.724787
0.732134
0.740571
0.749722
0.759584
0.770269
0.781737
0.793897
0.806559
0.819507
0.832526
0.845413
0.857987
0.870093
0.8816
0.8924
0.902409
0.911559
0.919798
0.927088
0.933399
0.93871
0.943004
0.94627
0.9485
0.949689
0.949832
0.948927
0.946974
0.943972
0.939923
0.934831
0.928701
0.921542
0.913369
0.9042
0.894064
0.882996
0.871048
0.858285
0.84479
0.830671
0.81606
0.801117
0.786034
0.771035
0.756372
0.742325
0.729225
0.715998
0.701887
0.689019
0.67948
0.674397
0.673253
0.674097
0.674307
0.674222
0.675181
0.67679
0.678756
0.680838
0.682842
0.684618
0.686055
0.687085
0.687677
0.687833
0.68759
0.687011
0.686174
0.685165
0.684061
0.682913
0.681737
0.680518
0.679274
0.67812
0.677185
0.676562
0.676306
0.676451
0.677012
0.677991
0.679375
0.681123
0.683159
0.685359
0.68761
0.689882
0.69218
0.694473
0.696697
0.698761
0.700565
0.702013
0.703026
0.703547
0.715057
0.715248
0.715633
0.716216
0.716993
0.717942
0.719013
0.720147
0.721306
0.722505
0.723797
0.725229
0.726834
0.728627
0.730626
0.732853
0.735349
0.738175
0.741415
0.745177
0.749583
0.75476
0.760809
0.767753
0.775552
0.784076
0.79328
0.803157
0.81366
0.824698
0.836132
0.847797
0.859525
0.871147
0.882511
0.89348
0.903936
0.913779
0.922927
0.931311
0.938879
0.945587
0.951404
0.956302
0.960264
0.963273
0.96532
0.966397
0.966499
0.965623
0.963768
0.960936
0.957129
0.952355
0.946622
0.939944
0.932338
0.923829
0.914449
0.904241
0.893257
0.881566
0.869252
0.856419
0.84319
0.829714
0.816161
0.802723
0.789614
0.777065
0.765312
0.754562
0.74516
0.73693
0.729736
0.72371
0.718784
0.715147
0.713063
0.712128
0.712098
0.712705
0.713713
0.714919
0.716155
0.717288
0.718217
0.718876
0.71923
0.719271
0.719017
0.718509
0.717798
0.716941
0.715994
0.714996
0.713975
0.712948
0.711952
0.711057
0.710343
0.709877
0.709707
0.709862
0.710356
0.711188
0.712343
0.713785
0.715455
0.717277
0.719181
0.721122
0.723074
0.724998
0.726839
0.728528
0.729993
0.731163
0.731978
0.732397
0.749265
0.749448
0.749814
0.75036
0.751081
0.751957
0.752962
0.754064
0.755247
0.756519
0.757906
0.759439
0.761146
0.763048
0.765169
0.767537
0.770193
0.773189
0.776594
0.780489
0.78496
0.790089
0.795935
0.802516
0.809807
0.817751
0.826301
0.835419
0.845047
0.855102
0.865472
0.876027
0.886628
0.897139
0.90743
0.91738
0.926886
0.935854
0.944208
0.95188
0.958819
0.964979
0.970326
0.974832
0.978475
0.981239
0.98311
0.98408
0.984143
0.983296
0.981539
0.978873
0.975304
0.970839
0.96549
0.959273
0.95221
0.944328
0.935663
0.92626
0.916172
0.90547
0.894233
0.882561
0.870569
0.858388
0.84617
0.83408
0.822298
0.811008
0.800397
0.790633
0.781873
0.77412
0.767356
0.761577
0.75683
0.753184
0.750672
0.74913
0.748377
0.748219
0.748472
0.74897
0.749571
0.750161
0.750649
0.750973
0.751095
0.751002
0.7507
0.75021
0.749567
0.748809
0.747977
0.747103
0.746217
0.745347
0.744529
0.743813
0.743253
0.742897
0.742782
0.742933
0.743361
0.744063
0.745025
0.746218
0.747599
0.749114
0.750713
0.752353
0.753997
0.755606
0.757131
0.75852
0.759716
0.760667
0.761328
0.761666
0.78329
0.783465
0.783813
0.784331
0.785013
0.785845
0.786813
0.7879
0.789099
0.790416
0.791868
0.793476
0.795263
0.797251
0.799464
0.801933
0.804695
0.807793
0.811284
0.815226
0.81968
0.824702
0.830327
0.836568
0.84341
0.85082
0.858755
0.867171
0.876008
0.885192
0.894628
0.904209
0.913822
0.923352
0.932687
0.941726
0.950373
0.958545
0.966169
0.973184
0.979537
0.985184
0.99009
0.994225
0.997566
1.0001
1.0018
1.00267
1.0027
1.00188
1.00022
0.997714
0.994373
0.990206
0.985225
0.979448
0.972901
0.965611
0.957617
0.948962
0.939703
0.929907
0.91965
0.909024
0.898135
0.887101
0.876052
0.865131
0.854488
0.844274
0.834635
0.825702
0.817577
0.810306
0.803905
0.798387
0.793776
0.790089
0.787309
0.785342
0.784061
0.783323
0.782986
0.782917
0.783
0.783135
0.783244
0.78327
0.783176
0.782943
0.782569
0.782064
0.78145
0.780752
0.78
0.779222
0.778444
0.777694
0.777005
0.776413
0.775958
0.775675
0.775592
0.775728
0.77609
0.776678
0.777477
0.778464
0.779608
0.780868
0.782204
0.783579
0.784955
0.786296
0.787561
0.788705
0.789685
0.790461
0.790999
0.791274
0.81714
0.817308
0.817642
0.818139
0.818793
0.819598
0.820544
0.821623
0.822833
0.82418
0.825675
0.827335
0.829178
0.831227
0.833505
0.836038
0.838859
0.842006
0.845521
0.84945
0.853834
0.85871
0.864103
0.870019
0.876447
0.883362
0.890728
0.8985
0.906623
0.915029
0.923638
0.93236
0.941099
0.949758
0.958243
0.966463
0.974334
0.981782
0.98874
0.995149
1.00096
1.00613
1.01062
1.01441
1.01747
1.01978
1.02133
1.0221
1.0221
1.02131
1.01974
1.01739
1.01427
1.01039
1.00575
1.0004
0.994334
0.987599
0.980229
0.972269
0.963773
0.954804
0.945435
0.935751
0.925847
0.915827
0.905805
0.895904
0.886249
0.876963
0.868166
0.859961
0.852429
0.845622
0.839569
0.83429
0.829797
0.826087
0.823132
0.820868
0.819201
0.818026
0.817232
0.816714
0.816375
0.816134
0.815922
0.815688
0.815397
0.815026
0.814568
0.814028
0.813416
0.81275
0.81205
0.81134
0.810642
0.809981
0.809383
0.808877
0.808492
0.808254
0.808184
0.808296
0.808595
0.80908
0.80974
0.810555
0.8115
0.812545
0.813657
0.814803
0.815949
0.817064
0.81811
0.819053
0.819858
0.820493
0.820932
0.821157
0.850823
0.850985
0.851308
0.851789
0.852424
0.85321
0.854141
0.855215
0.856431
0.857795
0.859316
0.861009
0.862889
0.864975
0.867289
0.869854
0.872697
0.875851
0.879346
0.883218
0.887495
0.892202
0.897355
0.902957
0.908997
0.915453
0.922294
0.929478
0.936955
0.944664
0.952535
0.960493
0.968455
0.976339
0.984063
0.991547
0.998719
1.00551
1.01186
1.01771
1.02302
1.02775
1.03186
1.03533
1.03812
1.04022
1.04163
1.04231
1.04228
1.04152
1.04004
1.03784
1.03493
1.03131
1.02701
1.02205
1.01644
1.01022
1.00343
0.996112
0.988315
0.9801
0.971536
0.962698
0.953673
0.944554
0.935438
0.926432
0.91764
0.909165
0.901105
0.893546
0.886555
0.880183
0.874461
0.869408
0.865033
0.861329
0.858266
0.855797
0.853851
0.852348
0.851202
0.85033
0.849653
0.849104
0.848623
0.848164
0.847696
0.847195
0.846651
0.846063
0.845435
0.84478
0.844111
0.843447
0.842804
0.842204
0.841669
0.841219
0.840878
0.840664
0.840594
0.840676
0.840915
0.841308
0.841846
0.842515
0.843293
0.844155
0.845075
0.846025
0.846976
0.847899
0.848763
0.84954
0.850201
0.850722
0.851081
0.851264
0.884344
0.884501
0.884815
0.885284
0.885905
0.886677
0.887597
0.888664
0.889881
0.891252
0.892787
0.894496
0.896393
0.898496
0.900821
0.90339
0.906226
0.909353
0.912796
0.916579
0.920725
0.925248
0.930159
0.935456
0.94113
0.94716
0.953517
0.960164
0.967055
0.974136
0.981347
0.988622
0.99589
1.00308
1.01012
1.01694
1.02348
1.02968
1.03547
1.04082
1.04567
1.04999
1.05375
1.05691
1.05946
1.06137
1.06264
1.06324
1.06319
1.06246
1.06106
1.059
1.05629
1.05293
1.04894
1.04434
1.03915
1.03342
1.02716
1.02043
1.01327
1.00575
0.997909
0.989833
0.981595
0.973276
0.964963
0.956745
0.948713
0.940952
0.933545
0.926562
0.920063
0.914093
0.908682
0.903849
0.8996
0.895927
0.892808
0.890202
0.888057
0.886311
0.884898
0.883751
0.882805
0.882005
0.8813
0.880651
0.880027
0.879407
0.878779
0.878137
0.877483
0.876824
0.876169
0.87553
0.874923
0.874364
0.873868
0.873454
0.873137
0.872932
0.87285
0.872899
0.87308
0.873391
0.873824
0.874366
0.875
0.875707
0.876464
0.877247
0.878031
0.878792
0.879503
0.880142
0.880685
0.881111
0.881405
0.881555
0.917708
0.917861
0.918168
0.918626
0.919236
0.919995
0.920904
0.921964
0.923176
0.924546
0.926083
0.927794
0.929693
0.931793
0.93411
0.936661
0.939464
0.942539
0.945905
0.949579
0.953576
0.957907
0.962576
0.96758
0.972907
0.97854
0.98445
0.990605
0.996964
1.00348
1.01009
1.01676
1.0234
1.02997
1.0364
1.04263
1.04859
1.05425
1.05954
1.06442
1.06885
1.0728
1.07623
1.07911
1.08143
1.08317
1.08431
1.08484
1.08476
1.08406
1.08275
1.08082
1.07829
1.07517
1.07147
1.06721
1.06242
1.05713
1.05137
1.04518
1.03861
1.0317
1.02452
1.01713
1.0096
1.00199
0.994392
0.986874
0.979514
0.972386
0.965559
0.959094
0.953043
0.947444
0.942326
0.937706
0.933591
0.929973
0.926835
0.924146
0.921864
0.919943
0.918329
0.916969
0.915812
0.91481
0.913921
0.913112
0.912354
0.911628
0.91092
0.910223
0.909537
0.908863
0.908209
0.907583
0.906995
0.906459
0.905986
0.905591
0.905284
0.905076
0.904977
0.904989
0.905115
0.905351
0.905691
0.906124
0.906636
0.90721
0.907827
0.908468
0.90911
0.909734
0.910317
0.91084
0.911284
0.911633
0.911873
0.911995
0.950918
0.951068
0.951368
0.951817
0.952416
0.953164
0.954061
0.95511
0.956313
0.957675
0.959203
0.960905
0.962791
0.964874
0.967165
0.969679
0.97243
0.975435
0.978705
0.982255
0.986094
0.990228
0.994658
0.999379
1.00438
1.00964
1.01514
1.02084
1.02672
1.03272
1.0388
1.04491
1.05099
1.057
1.06288
1.06857
1.07402
1.07918
1.08401
1.08847
1.09252
1.09612
1.09925
1.10188
1.10399
1.10556
1.10659
1.10705
1.10695
1.10628
1.10504
1.10324
1.10089
1.09799
1.09456
1.09062
1.08619
1.08131
1.076
1.07031
1.06427
1.05793
1.05135
1.04457
1.03767
1.0307
1.02374
1.01684
1.01008
1.00352
0.997212
0.991214
0.985569
0.980313
0.975471
0.971059
0.967083
0.963539
0.960413
0.957681
0.955312
0.953267
0.951505
0.949985
0.948663
0.947501
0.946464
0.945521
0.94465
0.94383
0.943049
0.942299
0.941577
0.940883
0.940221
0.939596
0.939016
0.93849
0.938028
0.937639
0.937331
0.937113
0.936991
0.936966
0.937039
0.937208
0.937466
0.937804
0.93821
0.938669
0.939167
0.939686
0.940208
0.940716
0.941191
0.941617
0.941979
0.942263
0.942459
0.942558
0.983977
0.984124
0.984419
0.98486
0.985447
0.986183
0.987067
0.988102
0.989291
0.990638
0.992149
0.993831
0.995694
0.997745
0.999996
1.00246
1.00514
1.00806
1.01123
1.01464
1.01832
1.02225
1.02645
1.0309
1.03559
1.04051
1.04562
1.05091
1.05634
1.06188
1.06747
1.07308
1.07866
1.08416
1.08954
1.09474
1.09973
1.10445
1.10886
1.11293
1.11663
1.11991
1.12277
1.12516
1.12708
1.12851
1.12943
1.12983
1.12971
1.12907
1.1279
1.12622
1.12403
1.12133
1.11816
1.11451
1.11042
1.10592
1.10103
1.09578
1.09023
1.0844
1.07836
1.07214
1.06581
1.05941
1.05302
1.04668
1.04045
1.03439
1.02856
1.02298
1.01771
1.01277
1.00819
1.00398
1.00014
0.996688
0.993597
0.990854
0.988434
0.986307
0.984441
0.982802
0.981354
0.980067
0.978911
0.97786
0.976893
0.975993
0.975147
0.974347
0.973589
0.972871
0.972195
0.971564
0.970983
0.970458
0.969996
0.969605
0.969289
0.969055
0.968906
0.968844
0.968868
0.968976
0.969161
0.969415
0.969729
0.97009
0.970486
0.970901
0.97132
0.97173
0.972114
0.972459
0.972752
0.972982
0.97314
0.973221
1.01689
1.01703
1.01732
1.01775
1.01833
1.01905
1.01992
1.02094
1.02211
1.02344
1.02492
1.02658
1.02841
1.03042
1.03262
1.03502
1.03762
1.04045
1.04349
1.04677
1.05028
1.05402
1.05799
1.06218
1.06658
1.07117
1.07593
1.08084
1.08587
1.09097
1.09613
1.10129
1.10641
1.11145
1.11638
1.12114
1.1257
1.13001
1.13405
1.13777
1.14114
1.14414
1.14675
1.14893
1.15067
1.15196
1.15278
1.15313
1.15299
1.15238
1.15128
1.14971
1.14767
1.14517
1.14222
1.13885
1.13507
1.13091
1.1264
1.12157
1.11646
1.1111
1.10554
1.09983
1.094
1.08813
1.08224
1.0764
1.07066
1.06505
1.05963
1.05444
1.04951
1.04487
1.04053
1.03651
1.03283
1.02947
1.02643
1.0237
1.02126
1.01909
1.01715
1.01543
1.01389
1.0125
1.01125
1.01012
1.00907
1.0081
1.0072
1.00635
1.00556
1.00482
1.00412
1.00348
1.00289
1.00236
1.00189
1.00149
1.00117
1.00091
1.00074
1.00064
1.00061
1.00067
1.00079
1.00097
1.0012
1.00148
1.00178
1.00211
1.00244
1.00277
1.00308
1.00335
1.00359
1.00377
1.0039
1.00396
1.04966
1.0498
1.05008
1.0505
1.05107
1.05178
1.05263
1.05363
1.05477
1.05607
1.05753
1.05915
1.06094
1.0629
1.06504
1.06737
1.06989
1.07261
1.07553
1.07867
1.08201
1.08555
1.0893
1.09325
1.09737
1.10166
1.1061
1.11065
1.11531
1.12003
1.12478
1.12953
1.13423
1.13886
1.14338
1.14774
1.15192
1.15586
1.15955
1.16295
1.16603
1.16877
1.17114
1.17313
1.17471
1.17587
1.17661
1.1769
1.17676
1.17617
1.17514
1.17367
1.17177
1.16944
1.16671
1.16359
1.1601
1.15626
1.1521
1.14764
1.14293
1.138
1.13288
1.12762
1.12226
1.11684
1.11142
1.10603
1.10072
1.09552
1.09049
1.08565
1.08103
1.07666
1.07255
1.06872
1.06519
1.06193
1.05896
1.05627
1.05383
1.05163
1.04965
1.04787
1.04626
1.04481
1.04348
1.04228
1.04117
1.04014
1.03919
1.03831
1.03748
1.03672
1.036
1.03534
1.03474
1.0342
1.03373
1.03331
1.03297
1.03269
1.03249
1.03235
1.03229
1.03229
1.03235
1.03247
1.03263
1.03283
1.03306
1.03331
1.03357
1.03383
1.03407
1.03429
1.03447
1.03462
1.03472
1.03477
1.08229
1.08242
1.0827
1.08311
1.08366
1.08436
1.08519
1.08616
1.08729
1.08856
1.08998
1.09156
1.09329
1.0952
1.09727
1.09952
1.10195
1.10457
1.10737
1.11035
1.11353
1.11689
1.12043
1.12413
1.128
1.13201
1.13614
1.14037
1.14468
1.14905
1.15343
1.1578
1.16214
1.16639
1.17053
1.17453
1.17836
1.18197
1.18535
1.18845
1.19127
1.19377
1.19593
1.19773
1.19917
1.20022
1.20087
1.20112
1.20097
1.2004
1.19943
1.19806
1.19629
1.19413
1.1916
1.18871
1.18547
1.18193
1.17808
1.17397
1.16963
1.16508
1.16036
1.15551
1.15057
1.14557
1.14056
1.13558
1.13066
1.12584
1.12115
1.11663
1.1123
1.10818
1.10429
1.10065
1.09725
1.09411
1.09122
1.08857
1.08615
1.08395
1.08195
1.08013
1.07848
1.07697
1.0756
1.07434
1.07318
1.07211
1.07112
1.0702
1.06935
1.06856
1.06782
1.06715
1.06654
1.06598
1.06549
1.06506
1.0647
1.0644
1.06417
1.064
1.06389
1.06385
1.06386
1.06392
1.06402
1.06416
1.06433
1.06451
1.0647
1.0649
1.06508
1.06525
1.0654
1.06551
1.06559
1.06563
1.11478
1.11491
1.11518
1.11558
1.11612
1.11679
1.11761
1.11856
1.11965
1.12088
1.12227
1.1238
1.12548
1.12733
1.12933
1.1315
1.13383
1.13634
1.13901
1.14186
1.14487
1.14805
1.15138
1.15486
1.15848
1.16223
1.16608
1.17001
1.17401
1.17805
1.18209
1.18613
1.19011
1.19403
1.19783
1.2015
1.20501
1.20832
1.21141
1.21425
1.21682
1.2191
1.22107
1.22271
1.22401
1.22496
1.22554
1.22575
1.22558
1.22504
1.22413
1.22284
1.22119
1.21919
1.21684
1.21416
1.21117
1.20789
1.20433
1.20054
1.19653
1.19233
1.18797
1.1835
1.17893
1.17431
1.16968
1.16506
1.1605
1.15601
1.15165
1.14742
1.14335
1.13947
1.13579
1.13232
1.12907
1.12604
1.12323
1.12064
1.11826
1.11607
1.11406
1.11223
1.11055
1.10901
1.1076
1.1063
1.10511
1.104
1.10298
1.10203
1.10115
1.10034
1.09959
1.0989
1.09827
1.0977
1.09719
1.09675
1.09636
1.09604
1.09578
1.09558
1.09544
1.09535
1.09532
1.09533
1.09538
1.09546
1.09557
1.0957
1.09584
1.09598
1.09612
1.09624
1.09635
1.09644
1.0965
1.09653
1.14713
1.14726
1.14752
1.14792
1.14844
1.1491
1.14988
1.15081
1.15187
1.15307
1.15441
1.15589
1.15752
1.1593
1.16122
1.16331
1.16554
1.16794
1.17049
1.17319
1.17604
1.17904
1.18218
1.18546
1.18885
1.19234
1.19593
1.19959
1.20329
1.20703
1.21077
1.21449
1.21817
1.22177
1.22527
1.22864
1.23185
1.23488
1.23771
1.24031
1.24266
1.24475
1.24654
1.24803
1.24921
1.25006
1.25057
1.25075
1.25058
1.25006
1.2492
1.24799
1.24646
1.24459
1.24241
1.23992
1.23715
1.23412
1.23083
1.22732
1.22361
1.21973
1.21571
1.21157
1.20735
1.20307
1.19878
1.1945
1.19025
1.18608
1.182
1.17804
1.17422
1.17056
1.16708
1.16378
1.16067
1.15775
1.15503
1.15251
1.15017
1.148
1.14601
1.14417
1.14248
1.14093
1.13949
1.13817
1.13694
1.13581
1.13476
1.13379
1.13289
1.13206
1.13129
1.13058
1.12994
1.12936
1.12883
1.12837
1.12797
1.12762
1.12734
1.12711
1.12693
1.12681
1.12673
1.1267
1.1267
1.12673
1.12679
1.12687
1.12697
1.12706
1.12716
1.12725
1.12733
1.1274
1.12744
1.12746
1.17936
1.17949
1.17974
1.18012
1.18063
1.18126
1.18203
1.18292
1.18395
1.18511
1.1864
1.18783
1.1894
1.19111
1.19297
1.19496
1.1971
1.19938
1.20181
1.20437
1.20707
1.2099
1.21286
1.21593
1.2191
1.22237
1.22571
1.22911
1.23255
1.23601
1.23947
1.24291
1.2463
1.24961
1.25283
1.25592
1.25887
1.26166
1.26425
1.26663
1.26878
1.27068
1.27231
1.27367
1.27473
1.2755
1.27595
1.27609
1.27592
1.27542
1.27461
1.27348
1.27204
1.27031
1.26828
1.26598
1.26341
1.26059
1.25755
1.2543
1.25087
1.24728
1.24356
1.23973
1.23582
1.23185
1.22787
1.22389
1.21994
1.21605
1.21224
1.20853
1.20494
1.20148
1.19818
1.19504
1.19207
1.18927
1.18664
1.18418
1.1819
1.17977
1.1778
1.17597
1.17428
1.17272
1.17127
1.16993
1.16869
1.16754
1.16647
1.16548
1.16456
1.16371
1.16293
1.16221
1.16155
1.16095
1.16041
1.15993
1.15951
1.15915
1.15884
1.15858
1.15837
1.15821
1.1581
1.15803
1.15799
1.15798
1.158
1.15804
1.15809
1.15815
1.15821
1.15827
1.15833
1.15837
1.1584
1.15842
1.21146
1.21158
1.21183
1.21219
1.21269
1.2133
1.21404
1.2149
1.2159
1.21701
1.21826
1.21964
1.22115
1.22279
1.22456
1.22647
1.22851
1.23068
1.23298
1.23541
1.23797
1.24064
1.24342
1.2463
1.24927
1.25232
1.25543
1.2586
1.26179
1.265
1.2682
1.27137
1.2745
1.27755
1.28051
1.28336
1.28607
1.28862
1.29099
1.29317
1.29514
1.29687
1.29836
1.29959
1.30056
1.30124
1.30164
1.30176
1.30158
1.3011
1.30033
1.29928
1.29793
1.29632
1.29443
1.29229
1.28991
1.2873
1.28448
1.28147
1.27829
1.27496
1.27151
1.26796
1.26433
1.26066
1.25695
1.25325
1.24957
1.24594
1.24237
1.23889
1.23551
1.23225
1.22913
1.22614
1.2233
1.22061
1.21807
1.21569
1.21346
1.21138
1.20944
1.20763
1.20595
1.20439
1.20294
1.20159
1.20034
1.19918
1.1981
1.19709
1.19616
1.1953
1.1945
1.19377
1.1931
1.19249
1.19194
1.19144
1.191
1.19061
1.19028
1.19
1.18976
1.18958
1.18943
1.18932
1.18925
1.1892
1.18919
1.18919
1.1892
1.18923
1.18926
1.1893
1.18933
1.18936
1.18938
1.18939
1.24344
1.24355
1.24379
1.24415
1.24462
1.24521
1.24593
1.24676
1.24772
1.24879
1.24999
1.25131
1.25276
1.25433
1.25603
1.25785
1.25979
1.26185
1.26404
1.26634
1.26875
1.27126
1.27387
1.27657
1.27935
1.2822
1.28511
1.28805
1.29101
1.29399
1.29695
1.29988
1.30277
1.30558
1.30831
1.31093
1.31342
1.31576
1.31794
1.31993