/*--------------------------------*- C++ -*----------------------------------*\
| =========                 |                                                 |
| \\      /  F ield         | OpenFOAM: The Open Source CFD Toolbox           |
|  \\    /   O peration     | Version:  2406                                  |
|   \\  /    A nd           | Website:  www.openfoam.com                      |
|    \\/     M anipulation  |                                                 |
\*---------------------------------------------------------------------------*/
FoamFile
{
    version     2.0;
    format      ascii;
    arch        "LSB;label=32;scalar=64";
    class       volScalarField;
    location    "5";
    object      D;
}
// * * * * * * * * * * * * * * * * * * * * * * * * * * * * * * * * * * * * * //

dimensions      [0 2 -1 0 0 0 0];

internalField   nonuniform List<scalar> 
14400
(
6.20081e-05
6.16705e-05
6.12365e-05
6.08469e-05
6.05447e-05
6.0333e-05
6.02062e-05
6.01602e-05
6.0197e-05
6.03272e-05
6.05745e-05
6.09853e-05
6.16491e-05
6.27452e-05
6.46071e-05
6.69981e-05
6.41945e-05
6.21495e-05
6.08928e-05
6.00732e-05
5.95045e-05
5.90917e-05
5.87836e-05
5.85516e-05
5.83801e-05
5.82616e-05
5.81949e-05
5.81845e-05
5.82422e-05
5.83916e-05
5.86783e-05
5.92009e-05
6.02159e-05
6.26552e-05
7.19861e-05
0.000136887
0.00013824
0.00013824
0.00013824
0.00013824
0.00013824
0.00013824
0.00013824
0.00013824
0.00013824
0.00013824
0.00013824
0.00013824
0.00013824
0.00013824
0.00013824
0.00013824
0.00013824
0.00013824
0.00013824
0.00013824
0.00013824
0.00013824
0.00013824
0.00013824
0.00013824
0.00013824
0.000113921
6.65158e-05
6.13285e-05
5.97884e-05
5.90826e-05
5.87073e-05
5.85051e-05
5.84079e-05
5.83805e-05
5.8402e-05
5.8459e-05
5.85425e-05
5.86467e-05
5.87688e-05
5.89089e-05
5.90712e-05
5.9265e-05
5.95076e-05
5.98297e-05
6.02883e-05
6.10022e-05
6.22757e-05
6.52042e-05
7.61431e-05
0.000137125
0.00013824
0.000138185
8.99234e-05
6.71482e-05
6.30282e-05
6.15321e-05
6.07746e-05
6.03405e-05
6.00866e-05
5.99487e-05
5.98924e-05
5.9896e-05
5.99421e-05
6.00131e-05
6.00876e-05
6.01409e-05
6.01496e-05
6.01032e-05
6.00143e-05
5.99073e-05
5.98066e-05
5.97324e-05
5.97009e-05
5.97281e-05
5.98339e-05
6.00498e-05
6.04343e-05
6.11156e-05
6.24508e-05
6.59298e-05
8.23968e-05
0.000138005
0.00013824
6.27227e-05
6.21012e-05
6.14659e-05
6.09674e-05
6.06087e-05
6.03677e-05
6.0226e-05
6.01742e-05
6.02119e-05
6.035e-05
6.06155e-05
6.10646e-05
6.18196e-05
6.3194e-05
6.6314e-05
7.74181e-05
6.60611e-05
6.26809e-05
6.11013e-05
6.01721e-05
5.9558e-05
5.91242e-05
5.8806e-05
5.85698e-05
5.83978e-05
5.82817e-05
5.82198e-05
5.82173e-05
5.82869e-05
5.84549e-05
5.87737e-05
5.93633e-05
6.05779e-05
6.4123e-05
8.66138e-05
0.000138199
0.00013824
0.00013824
0.00013824
0.00013824
0.00013824
0.00013824
0.00013824
0.00013824
0.00013824
0.00013824
0.00013824
0.00013824
0.00013824
0.00013824
0.00013824
0.00013824
0.00013824
0.00013824
0.00013824
0.00013824
0.00013824
0.00013824
0.00013824
0.00013824
0.00013824
0.00013824
0.000126725
6.7746e-05
6.1757e-05
5.99848e-05
5.91888e-05
5.87701e-05
5.85432e-05
5.84301e-05
5.83915e-05
5.84046e-05
5.84551e-05
5.85337e-05
5.86345e-05
5.87547e-05
5.88948e-05
5.90592e-05
5.9258e-05
5.95097e-05
5.98472e-05
6.03335e-05
6.11049e-05
6.25475e-05
6.64004e-05
8.75312e-05
0.000138163
0.00013824
0.000138239
0.000109702
6.87376e-05
6.34587e-05
6.17395e-05
6.08961e-05
6.04185e-05
6.0141e-05
5.99916e-05
5.99328e-05
5.99417e-05
6.0001e-05
6.00926e-05
6.0193e-05
6.02707e-05
6.02909e-05
6.02322e-05
6.01191e-05
5.99869e-05
5.98666e-05
5.97802e-05
5.97443e-05
5.97745e-05
5.98918e-05
6.01305e-05
6.05569e-05
6.13227e-05
6.28879e-05
6.76216e-05
0.000102235
0.000138237
0.00013824
6.54372e-05
6.32658e-05
6.2e-05
6.1236e-05
6.07546e-05
6.04525e-05
6.02806e-05
6.02171e-05
6.02575e-05
6.0413e-05
6.07172e-05
6.1247e-05
6.21914e-05
6.41464e-05
7.01784e-05
0.000117898
7.15057e-05
6.39668e-05
6.15678e-05
6.03905e-05
5.96782e-05
5.91992e-05
5.88592e-05
5.86136e-05
5.844e-05
5.83283e-05
5.82766e-05
5.82905e-05
5.83856e-05
5.8594e-05
5.89832e-05
5.97164e-05
6.13274e-05
6.67485e-05
0.000117142
0.00013824
0.00013824
0.00013824
0.00013824
0.00013824
0.00013824
0.00013824
0.00013824
0.00013824
0.00013824
0.00013824
0.00013824
0.00013824
0.00013824
0.00013824
0.00013824
0.00013824
0.00013824
0.00013824
0.00013824
0.00013824
0.00013824
0.00013824
0.00013824
0.00013824
0.00013824
0.00013824
0.000137928
7.69098e-05
6.32305e-05
6.04725e-05
5.94276e-05
5.89078e-05
5.86274e-05
5.84811e-05
5.84195e-05
5.84156e-05
5.84533e-05
5.85223e-05
5.86165e-05
5.87334e-05
5.88737e-05
5.90429e-05
5.92524e-05
5.95232e-05
5.98939e-05
6.04393e-05
6.13297e-05
6.3084e-05
6.84614e-05
0.000111651
0.00013824
0.00013824
0.00013824
0.000133859
7.23013e-05
6.45973e-05
6.22626e-05
6.11888e-05
6.06028e-05
6.02695e-05
6.00938e-05
6.00291e-05
6.00501e-05
6.01398e-05
6.02816e-05
6.04488e-05
6.05956e-05
6.06553e-05
6.05551e-05
6.03726e-05
6.01754e-05
6.00071e-05
5.98923e-05
5.98458e-05
5.98825e-05
6.00256e-05
6.03174e-05
6.08453e-05
6.18252e-05
6.396e-05
7.0946e-05
0.00013003
0.00013824
0.00013824
8.15344e-05
6.62705e-05
6.30301e-05
6.17213e-05
6.10259e-05
6.06227e-05
6.04017e-05
6.03199e-05
6.03667e-05
6.05543e-05
6.09284e-05
6.16064e-05
6.2926e-05
6.63594e-05
8.44337e-05
0.000138105
0.000107092
6.74588e-05
6.2476e-05
6.07861e-05
5.9897e-05
5.93391e-05
5.89607e-05
5.86976e-05
5.852e-05
5.84146e-05
5.8379e-05
5.84205e-05
5.85598e-05
5.88419e-05
5.93672e-05
6.04109e-05
6.31267e-05
7.66221e-05
0.000137935
0.00013824
0.00013824
0.00013824
0.00013824
0.00013824
0.00013824
0.00013824
0.00013824
0.00013824
0.00013824
0.00013824
0.00013824
0.00013824
0.00013824
0.00013824
0.00013824
0.00013824
0.00013824
0.00013824
0.00013824
0.00013824
0.00013824
0.00013824
0.00013824
0.00013824
0.00013824
0.00013824
0.00013824
0.000115865
6.66759e-05
6.14061e-05
5.9851e-05
5.9147e-05
5.87747e-05
5.85734e-05
5.8475e-05
5.84447e-05
5.84629e-05
5.85179e-05
5.86029e-05
5.87156e-05
5.88575e-05
5.90353e-05
5.92629e-05
5.95662e-05
5.99945e-05
6.06489e-05
6.17757e-05
6.41784e-05
7.21483e-05
0.000134757
0.00013824
0.00013824
0.00013824
0.00013824
0.000111712
6.8887e-05
6.3521e-05
6.17914e-05
6.09623e-05
6.05167e-05
6.0291e-05
6.02154e-05
6.02585e-05
6.0407e-05
6.06535e-05
6.09776e-05
6.13153e-05
6.15346e-05
6.12686e-05
6.08949e-05
6.05444e-05
6.0275e-05
6.01047e-05
6.00382e-05
6.00865e-05
6.02775e-05
6.06741e-05
6.14224e-05
6.29832e-05
6.77538e-05
0.000103793
0.000138238
0.00013824
0.00013824
0.000136744
7.45155e-05
6.51006e-05
6.26066e-05
6.15279e-05
6.09531e-05
6.06502e-05
6.05394e-05
6.06007e-05
6.08488e-05
6.13548e-05
6.23315e-05
6.44954e-05
7.17072e-05
0.00013221
0.00013824
0.000137148
7.44651e-05
6.41911e-05
6.14993e-05
6.02864e-05
5.95886e-05
5.9143e-05
5.88481e-05
5.8661e-05
5.85636e-05
5.85527e-05
5.86385e-05
5.88529e-05
5.92712e-05
6.00796e-05
6.18922e-05
6.8164e-05
0.000128023
0.00013824
0.00013824
0.00013824
0.00013824
0.00013824
0.00013824
0.00013824
0.00013824
0.00013824
0.00013824
0.00013824
0.00013824
0.00013824
0.00013824
0.00013824
0.00013824
0.00013824
0.00013824
0.00013824
0.00013824
0.00013824
0.00013824
0.00013824
0.00013824
0.00013824
0.00013824
0.00013824
0.00013824
0.00013824
0.000138048
7.86807e-05
6.34488e-05
6.06081e-05
5.95501e-05
5.90205e-05
5.87311e-05
5.85767e-05
5.85081e-05
5.84993e-05
5.85355e-05
5.86092e-05
5.87179e-05
5.8864e-05
5.90564e-05
5.93131e-05
5.96685e-05
6.0193e-05
6.10507e-05
6.27461e-05
6.79113e-05
0.000110079
0.00013824
0.00013824
0.00013824
0.00013824
0.00013824
0.000138194
8.87816e-05
6.69318e-05
6.30716e-05
6.16568e-05
6.09758e-05
6.06555e-05
6.05597e-05
6.06422e-05
6.09044e-05
6.13837e-05
6.21285e-05
6.31092e-05
6.44153e-05
6.30423e-05
6.20247e-05
6.12652e-05
6.077e-05
6.04909e-05
6.03877e-05
6.04562e-05
6.07368e-05
6.13492e-05
6.26031e-05
6.58456e-05
8.20225e-05
0.000138062
0.00013824
0.00013824
0.00013824
0.00013824
0.000132113
7.15944e-05
6.45939e-05
6.25665e-05
6.16189e-05
6.11523e-05
6.09847e-05
6.10815e-05
6.14607e-05
6.22646e-05
6.4095e-05
7.02557e-05
0.000121593
0.00013824
0.00013824
0.00013824
0.000127384
6.967e-05
6.30887e-05
6.10357e-05
6.00427e-05
5.94685e-05
5.91123e-05
5.89039e-05
5.88162e-05
5.88448e-05
5.90063e-05
5.93573e-05
6.0063e-05
6.16453e-05
6.68737e-05
0.000111481
0.00013824
0.00013824
0.00013824
0.00013824
0.00013824
0.00013824
0.00013824
0.00013824
0.00013824
0.00013824
0.00013824
0.00013824
0.00013824
0.00013824
0.00013824
0.00013824
0.00013824
0.00013824
0.00013824
0.00013824
0.00013824
0.00013824
0.00013824
0.00013824
0.00013824
0.00013824
0.00013824
0.00013824
0.00013824
0.00013824
0.00013824
0.000130941
6.86866e-05
6.21482e-05
6.02752e-05
5.94398e-05
5.89987e-05
5.87566e-05
5.86316e-05
5.85851e-05
5.8597e-05
5.86573e-05
5.87632e-05
5.89185e-05
5.91355e-05
5.94392e-05
5.98794e-05
6.05678e-05
6.18071e-05
6.4842e-05
7.94181e-05
0.000137958
0.00013824
0.00013824
0.00013824
0.00013824
0.00013824
0.00013824
0.000137969
8.12501e-05
6.66677e-05
6.3182e-05
6.18727e-05
6.13514e-05
6.12142e-05
6.13723e-05
6.18807e-05
6.30094e-05
6.54412e-05
6.95205e-05
8.34275e-05
6.93734e-05
6.52313e-05
6.2862e-05
6.17334e-05
6.12185e-05
6.10431e-05
6.11516e-05
6.16214e-05
6.28074e-05
6.57549e-05
7.63909e-05
0.000137403
0.00013824
0.00013824
0.00013824
0.00013824
0.00013824
0.00013824
0.00012965
7.17665e-05
6.54332e-05
6.31621e-05
6.22371e-05
6.19099e-05
6.21192e-05
6.28757e-05
6.45832e-05
7.03956e-05
0.000118586
0.00013824
0.00013824
0.00013824
0.00013824
0.00013824
0.000115007
6.85488e-05
6.27539e-05
6.09321e-05
6.00752e-05
5.95843e-05
5.93268e-05
5.92521e-05
5.9354e-05
5.96649e-05
6.03037e-05
6.17932e-05
6.67301e-05
0.000103451
0.000138239
0.00013824
0.00013824
0.00013824
0.00013824
0.00013824
0.00013824
0.00013824
0.00013824
0.00013824
0.00013824
0.00013824
0.00013824
0.00013824
0.00013824
0.00013824
0.00013824
0.00013824
0.00013824
0.00013824
0.00013824
0.00013824
0.00013824
0.00013824
0.00013824
0.00013824
0.00013824
0.00013824
0.00013824
0.00013824
0.00013824
0.00013824
0.00013824
0.000117472
6.74483e-05
6.18789e-05
6.02177e-05
5.9467e-05
5.9073e-05
5.88584e-05
5.87567e-05
5.87354e-05
5.87794e-05
5.88854e-05
5.90592e-05
5.93192e-05
5.97048e-05
6.02963e-05
6.13076e-05
6.3443e-05
7.0566e-05
0.000132986
0.00013824
0.00013824
0.00013824
0.00013824
0.00013824
0.00013824
0.00013824
0.00013824
0.000137957
8.72146e-05
6.81851e-05
6.39463e-05
6.2882e-05
6.26356e-05
6.29763e-05
6.41811e-05
6.83843e-05
8.51413e-05
0.000130991
0.000138156
0.000130392
8.36539e-05
6.8117e-05
6.39731e-05
6.28039e-05
6.24511e-05
6.26632e-05
6.36398e-05
6.75102e-05
8.22364e-05
0.000137423
0.00013824
0.00013824
0.00013824
0.00013824
0.00013824
0.00013824
0.00013824
0.00013824
0.000134013
8.03343e-05
6.84465e-05
6.52621e-05
6.41302e-05
6.49333e-05
6.76951e-05
7.40212e-05
0.000127602
0.00013824
0.00013824
0.00013824
0.00013824
0.00013824
0.00013824
0.00013824
0.000113059
6.86985e-05
6.30329e-05
6.13789e-05
6.04974e-05
6.01091e-05
6.00567e-05
6.03387e-05
6.10587e-05
6.2517e-05
6.76747e-05
0.000108032
0.000138239
0.00013824
0.00013824
0.00013824
0.00013824
0.00013824
0.00013824
0.00013824
0.00013824
0.00013824
0.00013824
0.00013824
0.00013824
0.00013824
0.00013824
0.00013824
0.00013824
0.00013824
0.00013824
0.00013824
0.00013824
0.00013824
0.00013824
0.00013824
0.00013824
0.00013824
0.00013824
0.00013824
0.00013824
0.00013824
0.00013824
0.00013824
0.00013824
0.00013824
0.00013824
0.000109563
6.72037e-05
6.19357e-05
6.03542e-05
5.96526e-05
5.92721e-05
5.90791e-05
5.90074e-05
5.90298e-05
5.91416e-05
5.93523e-05
5.96939e-05
6.02437e-05
6.11598e-05
6.30659e-05
6.93404e-05
0.000124638
0.00013824
0.00013824
0.00013824
0.00013824
0.00013824
0.00013824
0.00013824
0.00013824
0.00013824
0.00013824
0.000138182
0.000109979
7.11915e-05
6.79767e-05
6.71562e-05
6.83225e-05
7.26951e-05
0.000115586
0.000138164
0.00013824
0.00013824
0.00013824
0.000138138
0.000114037
7.20381e-05
6.80588e-05
6.68678e-05
6.76314e-05
7.05776e-05
0.000105676
0.000138084
0.00013824
0.00013824
0.00013824
0.00013824
0.00013824
0.00013824
0.00013824
0.00013824
0.00013824
0.00013824
0.000137986
0.000114296
8.08606e-05
7.1753e-05
7.81922e-05
0.000108776
0.000136915
0.00013824
0.00013824
0.00013824
0.00013824
0.00013824
0.00013824
0.00013824
0.00013824
0.00013824
0.000123593
7.07806e-05
6.56434e-05
6.26607e-05
6.18167e-05
6.18205e-05
6.27913e-05
6.56786e-05
7.10315e-05
0.000123772
0.00013824
0.00013824
0.00013824
0.00013824
0.00013824
0.00013824
0.00013824
0.00013824
0.00013824
0.00013824
0.00013824
0.00013824
0.00013824
0.00013824
0.00013824
0.00013824
0.00013824
0.00013824
0.00013824
0.00013824
0.00013824
0.00013824
0.00013824
0.00013824
0.00013824
0.00013824
0.00013824
0.00013824
0.00013824
0.00013824
0.00013824
0.00013824
0.00013824
0.00013824
0.00013824
0.00013824
0.00013824
0.000112103
6.78272e-05
6.24095e-05
6.08731e-05
6.00724e-05
5.96967e-05
5.95319e-05
5.95175e-05
5.96491e-05
5.99411e-05
6.04602e-05
6.14423e-05
6.32937e-05
6.935e-05
0.000122163
0.00013824
0.00013824
0.00013824
0.00013824
0.00013824
0.00013824
0.00013824
0.00013824
0.00013824
0.00013824
0.00013824
0.00013824
0.00013824
0.000133668
0.000111437
9.99759e-05
0.000115221
0.000136153
0.00013824
0.00013824
0.00013824
0.00013824
0.00013824
0.00013824
0.00013824
0.000135604
0.000113709
9.80489e-05
0.000109063
0.000132081
0.000138239
0.00013824
0.00013824
0.00013824
0.00013824
0.00013824
0.00013824
0.00013824
0.00013824
0.00013824
0.00013824
0.00013824
0.00013824
0.00013824
0.000137996
0.00013504
0.00013779
0.000138239
0.00013824
0.00013824
0.00013824
0.00013824
0.00013824
0.00013824
0.00013824
0.00013824
0.00013824
0.00013824
0.00013824
0.000135493
0.000101608
7.06547e-05
6.75852e-05
6.77677e-05
7.33049e-05
0.00010732
0.000136606
0.00013824
0.00013824
0.00013824
0.00013824
0.00013824
0.00013824
0.00013824
0.00013824
0.00013824
0.00013824
0.00013824
0.00013824
0.00013824
0.00013824
0.00013824
0.00013824
0.00013824
0.00013824
0.00013824
0.00013824
0.00013824
0.00013824
0.00013824
0.00013824
0.00013824
0.00013824
0.00013824
0.00013824
0.00013824
0.00013824
0.00013824
0.00013824
0.00013824
0.00013824
0.00013824
0.00013824
0.00013824
0.00013824
0.00013824
0.00012426
7.00134e-05
6.47325e-05
6.19149e-05
6.10505e-05
6.06406e-05
6.05254e-05
6.07262e-05
6.12544e-05
6.22682e-05
6.52836e-05
7.16298e-05
0.000128798
0.00013824
0.00013824
0.00013824
0.00013824
0.00013824
0.00013824
0.00013824
0.00013824
0.00013824
0.00013824
0.00013824
0.00013824
0.00013824
0.00013824
0.00013824
0.00013824
0.000138235
0.00013824
0.00013824
0.00013824
0.00013824
0.00013824
0.00013824
0.00013824
0.00013824
0.00013824
0.00013824
0.00013824
0.000138233
0.000138239
0.00013824
0.00013824
0.00013824
0.00013824
0.00013824
0.00013824
0.00013824
0.00013824
0.00013824
0.00013824
0.00013824
0.00013824
0.00013824
0.00013824
0.00013824
0.00013824
0.00013824
0.00013824
0.00013824
0.00013824
0.00013824
0.00013824
0.00013824
0.00013824
0.00013824
0.00013824
0.00013824
0.00013824
0.00013824
0.00013824
0.00013824
0.000138238
0.000135937
0.000125397
0.000127821
0.000137433
0.00013824
0.00013824
0.00013824
0.00013824
0.00013824
0.00013824
0.00013824
0.00013824
0.00013824
0.00013824
0.00013824
0.00013824
0.00013824
0.00013824
0.00013824
0.00013824
0.00013824
0.00013824
0.00013824
0.00013824
0.00013824
0.00013824
0.00013824
0.00013824
0.00013824
0.00013824
0.00013824
0.00013824
0.00013824
0.00013824
0.00013824
0.00013824
0.00013824
0.00013824
0.00013824
0.00013824
0.00013824
0.00013824
0.00013824
0.00013824
0.00013824
0.00013824
0.000135672
9.54231e-05
6.83174e-05
6.55236e-05
6.38142e-05
6.31319e-05
6.37329e-05
6.55565e-05
6.85997e-05
9.47995e-05
0.000136419
0.00013824
0.00013824
0.00013824
0.00013824
0.00013824
0.00013824
0.00013824
0.00013824
0.00013824
0.00013824
0.00013824
0.00013824
0.00013824
0.00013824
0.00013824
0.00013824
0.00013824
0.00013824
0.00013824
0.00013824
0.00013824
0.00013824
0.00013824
0.00013824
0.00013824
0.00013824
0.00013824
0.00013824
0.00013824
0.00013824
0.00013824
0.00013824
0.00013824
0.00013824
0.00013824
0.00013824
0.00013824
0.00013824
0.00013824
0.00013824
0.00013824
0.00013824
0.00013824
0.00013824
0.00013824
0.00013824
0.00013824
0.00013824
0.00013824
0.00013824
0.00013824
0.00013824
0.00013824
0.00013824
0.00013824
0.00013824
0.00013824
0.00013824
0.00013824
0.00013824
0.00013824
0.00013824
0.00013824
0.00013824
0.00013824
0.00013824
0.00013824
0.00013824
0.00013824
0.00013824
0.00013824
0.00013824
0.00013824
0.00013824
0.00013824
0.00013824
0.00013824
0.00013824
0.00013824
0.00013824
0.00013824
0.00013824
0.00013824
0.00013824
0.00013824
0.00013824
0.00013824
0.00013824
0.00013824
0.00013824
0.00013824
0.00013824
0.00013824
0.00013824
0.00013824
0.00013824
0.00013824
0.00013824
0.00013824
0.00013824
0.00013824
0.00013824
0.00013824
0.00013824
0.00013824
0.00013824
0.00013824
0.00013824
0.00013824
0.00013824
0.000138235
0.000129353
0.000102762
8.13941e-05
7.41337e-05
7.91655e-05
9.96016e-05
0.000127804
0.000138233
0.00013824
0.00013824
0.00013824
0.00013824
0.00013824
0.00013824
0.00013824
0.00013824
0.00013824
0.00013824
0.00013824
0.00013824
0.00013824
0.00013824
0.00013824
0.00013824
0.00013824
0.00013824
0.00013824
0.00013824
0.00013824
0.00013824
0.00013824
0.00013824
0.00013824
0.00013824
0.00013824
0.00013824
0.00013824
0.00013824
0.00013824
0.00013824
0.00013824
0.00013824
0.00013824
0.00013824
0.00013824
0.00013824
0.00013824
0.00013824
0.00013824
0.00013824
0.00013824
0.00013824
0.00013824
0.00013824
0.00013824
0.00013824
0.00013824
0.00013824
0.00013824
0.00013824
0.00013824
0.00013824
0.00013824
0.00013824
0.00013824
0.00013824
0.00013824
0.00013824
0.00013824
0.00013824
0.00013824
0.00013824
0.00013824
0.00013824
0.00013824
0.00013824
0.00013824
0.00013824
0.00013824
0.00013824
0.00013824
0.00013824
0.00013824
0.00013824
0.00013824
0.00013824
0.00013824
0.00013824
0.00013824
0.00013824
0.00013824
0.00013824
0.00013824
0.00013824
0.00013824
0.00013824
0.00013824
0.00013824
0.00013824
0.00013824
0.00013824
0.00013824
0.00013824
0.00013824
0.00013824
0.00013824
0.00013824
0.00013824
0.00013824
0.00013824
0.00013824
0.00013824
0.00013824
0.00013824
0.00013824
0.00013824
0.00013824
0.00013824
0.00013824
0.00013824
0.00013824
0.000138239
0.000138108
0.000137469
0.00013801
0.000138237
0.00013824
0.00013824
0.00013824
0.00013824
0.00013824
0.00013824
0.00013824
0.00013824
0.00013824
0.00013824
0.00013824
0.00013824
0.00013824
0.00013824
0.00013824
0.00013824
0.00013824
0.00013824
0.00013824
0.00013824
0.00013824
0.00013824
0.00013824
0.00013824
0.00013824
0.00013824
0.00013824
0.00013824
0.00013824
0.00013824
0.00013824
0.00013824
0.00013824
0.00013824
0.00013824
0.00013824
0.00013824
0.00013824
0.00013824
0.00013824
0.00013824
0.00013824
0.00013824
0.00013824
0.00013824
0.00013824
0.00013824
0.00013824
0.00013824
0.00013824
0.00013824
0.00013824
0.00013824
0.00013824
0.00013824
0.00013824
0.00013824
0.00013824
0.00013824
0.00013824
0.00013824
0.00013824
0.00013824
0.00013824
0.00013824
0.00013824
0.00013824
0.00013824
0.00013824
0.00013824
0.00013824
0.00013824
0.00013824
0.00013824
0.00013824
0.00013824
0.00013824
0.00013824
0.00013824
0.00013824
0.00013824
0.00013824
0.00013824
0.00013824
0.00013824
0.00013824
0.00013824
0.00013824
0.00013824
0.00013824
0.00013824
0.00013824
0.00013824
0.00013824
0.00013824
0.00013824
0.00013824
0.00013824
0.00013824
0.00013824
0.00013824
0.00013824
0.00013824
0.00013824
0.00013824
0.00013824
0.00013824
0.00013824
0.00013824
0.00013824
0.00013824
0.00013824
0.00013824
0.00013824
0.00013824
0.00013824
0.00013824
0.00013824
0.00013824
0.00013824
0.00013824
0.00013824
0.00013824
0.00013824
0.00013824
0.00013824
0.00013824
0.00013824
0.00013824
0.00013824
0.00013824
0.00013824
0.00013824
0.00013824
0.00013824
0.00013824
0.00013824
0.00013824
0.00013824
0.00013824
0.00013824
0.00013824
0.00013824
0.00013824
0.00013824
0.00013824
0.00013824
0.00013824
0.00013824
0.00013824
0.00013824
0.00013824
0.00013824
0.00013824
0.00013824
0.00013824
0.00013824
0.00013824
0.00013824
0.00013824
0.00013824
0.00013824
0.00013824
0.00013824
0.00013824
0.00013824
0.00013824
0.00013824
0.00013824
0.00013824
0.00013824
0.00013824
0.00013824
0.00013824
0.00013824
0.00013824
0.00013824
0.00013824
0.00013824
0.00013824
0.00013824
0.00013824
0.00013824
0.00013824
0.00013824
0.00013824
0.00013824
0.00013824
0.00013824
0.00013824
0.00013824
0.00013824
0.00013824
0.00013824
0.00013824
0.00013824
0.00013824
0.00013824
0.00013824
0.00013824
0.00013824
0.00013824
0.00013824
0.00013824
0.00013824
0.00013824
0.00013824
0.00013824
0.00013824
0.00013824
0.00013824
0.00013824
0.00013824
0.00013824
0.00013824
0.00013824
0.00013824
0.00013824
0.00013824
0.00013824
0.00013824
0.00013824
0.00013824
0.00013824
0.00013824
0.00013824
0.00013824
0.00013824
0.00013824
0.00013824
0.00013824
0.00013824
0.00013824
0.00013824
0.00013824
0.00013824
0.00013824
0.00013824
0.00013824
0.00013824
0.00013824
0.00013824
0.00013824
0.00013824
0.00013824
0.00013824
0.00013824
0.00013824
0.00013824
0.00013824
0.00013824
0.00013824
0.00013824
0.00013824
0.00013824
0.00013824
0.00013824
0.00013824
0.00013824
0.00013824
0.00013824
0.00013824
0.00013824
0.00013824
0.00013824
0.00013824
0.00013824
0.00013824
0.00013824
0.00013824
0.00013824
0.00013824
0.00013824
0.00013824
0.00013824
0.00013824
0.00013824
0.00013824
0.00013824
0.00013824
0.00013824
0.00013824
0.00013824
0.00013824
0.00013824
0.00013824
0.00013824
0.00013824
0.00013824
0.00013824
0.00013824
0.00013824
0.00013824
0.00013824
0.00013824
0.00013824
0.00013824
0.00013824
0.00013824
0.00013824
0.00013824
0.00013824
0.00013824
0.00013824
0.00013824
0.00013824
0.00013824
0.00013824
0.00013824
0.00013824
0.00013824
0.00013824
0.00013824
0.00013824
0.00013824
0.00013824
0.00013824
0.00013824
0.00013824
0.00013824
0.00013824
0.00013824
0.00013824
0.00013824
0.00013824
0.00013824
0.00013824
0.00013824
0.00013824
0.00013824
0.00013824
0.00013824
0.00013824
0.00013824
0.00013824
0.00013824
0.00013824
0.00013824
0.00013824
0.00013824
0.00013824
0.00013824
0.00013824
0.00013824
0.00013824
0.00013824
0.00013824
0.00013824
0.00013824
0.00013824
0.00013824
0.00013824
0.00013824
0.00013824
0.00013824
0.00013824
0.00013824
0.00013824
0.00013824
0.00013824
0.00013824
0.00013824
0.00013824
0.00013824
0.00013824
0.00013824
0.00013824
0.00013824
0.00013824
0.00013824
0.00013824
0.00013824
0.00013824
0.00013824
0.00013824
0.00013824
0.00013824
0.00013824
0.00013824
0.00013824
0.00013824
0.00013824
0.00013824
0.00013824
0.00013824
0.00013824
0.00013824
0.00013824
0.00013824
0.00013824
0.00013824
0.00013824
0.00013824
0.00013824
0.00013824
0.00013824
0.00013824
0.00013824
0.00013824
0.00013824
0.00013824
0.00013824
0.00013824
0.00013824
0.00013824
0.00013824
0.00013824
0.00013824
0.00013824
0.00013824
0.00013824
0.00013824
0.00013824
0.00013824
0.00013824
0.00013824
0.00013824
0.00013824
0.00013824
0.00013824
0.00013824
0.00013824
0.00013824
0.00013824
0.00013824
0.00013824
0.00013824
0.00013824
0.00013824
0.00013824
0.00013824
0.00013824
0.00013824
0.00013824
0.00013824
0.00013824
0.00013824
0.00013824
0.00013824
0.00013824
0.00013824
0.00013824
0.00013824
0.00013824
0.00013824
0.00013824
0.00013824
0.00013824
0.00013824
0.00013824
0.00013824
0.00013824
0.00013824
0.00013824
0.00013824
0.00013824
0.00013824
0.00013824
0.00013824
0.00013824
0.00013824
0.00013824
0.00013824
0.00013824
0.00013824
0.00013824
0.00013824
0.00013824
0.00013824
0.00013824
0.00013824
0.00013824
0.00013824
0.00013824
0.00013824
0.00013824
0.00013824
0.00013824
0.00013824
0.00013824
0.00013824
0.00013824
0.00013824
0.00013824
0.00013824
0.00013824
0.00013824
0.00013824
0.00013824
0.00013824
0.00013824
0.00013824
0.00013824
0.00013824
0.00013824
0.00013824
0.00013824
0.00013824
0.00013824
0.00013824
0.00013824
0.00013824
0.00013824
0.00013824
0.00013824
0.00013824
0.00013824
0.00013824
0.00013824
0.00013824
0.00013824
0.00013824
0.00013824
0.00013824
0.00013824
0.00013824
0.00013824
0.00013824
0.00013824
0.00013824
0.00013824
0.00013824
0.00013824
0.00013824
0.00013824
0.00013824
0.00013824
0.00013824
0.00013824
0.00013824
0.00013824
0.00013824
0.00013824
0.00013824
0.00013824
0.00013824
0.00013824
0.00013824
0.00013824
0.00013824
0.00013824
0.00013824
0.00013824
0.00013824
0.00013824
0.00013824
0.00013824
0.00013824
0.00013824
0.00013824
0.00013824
0.00013824
0.00013824
0.00013824
0.00013824
0.00013824
0.00013824
0.00013824
0.00013824
0.00013824
0.00013824
0.00013824
0.00013824
0.00013824
0.00013824
0.00013824
0.00013824
0.00013824
0.00013824
0.00013824
0.00013824
0.00013824
0.00013824
0.00013824
0.00013824
0.00013824
0.00013824
0.00013824
0.00013824
0.00013824
0.00013824
0.00013824
0.00013824
0.00013824
0.00013824
0.00013824
0.00013824
0.00013824
0.00013824
0.00013824
0.00013824
0.00013824
0.00013824
0.00013824
0.00013824
0.00013824
0.00013824
0.00013824
0.00013824
0.00013824
0.00013824
0.00013824
0.00013824
0.00013824
0.00013824
0.00013824
0.00013824
0.00013824
0.00013824
0.00013824
0.00013824
0.00013824
0.00013824
0.00013824
0.00013824
0.00013824
0.00013824
0.00013824
0.00013824
0.00013824
0.00013824
0.00013824
0.00013824
0.00013824
0.00013824
0.00013824
0.00013824
0.00013824
0.00013824
0.00013824
0.00013824
0.00013824
0.00013824
0.00013824
0.00013824
0.00013824
0.00013824
0.00013824
0.00013824
0.00013824
0.00013824
0.00013824
0.00013824
0.00013824
0.00013824
0.00013824
0.00013824
0.00013824
0.00013824
0.00013824
0.00013824
0.00013824
0.00013824
0.00013824
0.00013824
0.00013824
0.00013824
0.00013824
0.00013824
0.00013824
0.00013824
0.00013824
0.00013824
0.00013824
0.00013824
0.00013824
0.00013824
0.00013824
0.00013824
0.00013824
0.00013824
0.00013824
0.00013824
0.00013824
0.00013824
0.00013824
0.00013824
0.00013824
0.00013824
0.00013824
0.00013824
0.00013824
0.00013824
0.00013824
0.00013824
0.00013824
0.00013824
0.00013824
0.00013824
0.00013824
0.00013824
0.00013824
0.00013824
0.00013824
0.00013824
0.00013824
0.00013824
0.00013824
0.00013824
0.00013824
0.00013824
0.00013824
0.00013824
0.00013824
0.00013824
0.00013824
0.00013824
0.00013824
0.00013824
0.00013824
0.00013824
0.00013824
0.00013824
0.00013824
0.00013824
0.00013824
0.00013824
0.00013824
0.00013824
0.00013824
0.00013824
0.00013824
0.00013824
0.00013824
0.00013824
0.00013824
0.00013824
0.00013824
0.00013824
0.00013824
0.00013824
0.00013824
0.00013824
0.00013824
0.00013824
0.00013824
0.00013824
0.00013824
0.00013824
0.00013824
0.00013824
0.00013824
0.00013824
0.00013824
0.00013824
0.00013824
0.00013824
0.00013824
0.00013824
0.00013824
0.00013824
0.00013824
0.00013824
0.00013824
0.00013824
0.00013824
0.00013824
0.00013824
0.00013824
0.00013824
0.00013824
0.00013824
0.00013824
0.00013824
0.00013824
0.00013824
0.00013824
0.00013824
0.00013824
0.00013824
0.00013824
0.00013824
0.00013824
0.00013824
0.00013824
0.00013824
0.00013824
0.00013824
0.00013824
0.00013824
0.00013824
0.00013824
0.00013824
0.00013824
0.00013824
0.00013824
0.00013824
0.00013824
0.00013824
0.00013824
0.00013824
0.00013824
0.00013824
0.00013824
0.00013824
0.00013824
0.00013824
0.00013824
0.00013824
0.00013824
0.00013824
0.00013824
0.00013824
0.00013824
0.00013824
0.00013824
0.00013824
0.00013824
0.00013824
0.00013824
0.00013824
0.00013824
0.00013824
0.00013824
0.00013824
0.00013824
0.00013824
0.00013824
0.00013824
0.00013824
0.00013824
0.00013824
0.00013824
0.00013824
0.00013824
0.00013824
0.00013824
0.00013824
0.00013824
0.00013824
0.00013824
0.00013824
0.00013824
0.00013824
0.00013824
0.00013824
0.00013824
0.00013824
0.00013824
0.00013824
0.00013824
0.00013824
0.00013824
0.00013824
0.00013824
0.00013824
0.00013824
0.00013824
0.00013824
0.00013824
0.00013824
0.00013824
0.00013824
0.00013824
0.00013824
0.00013824
0.00013824
0.00013824
0.00013824
0.00013824
0.00013824
0.00013824
0.00013824
0.00013824
0.00013824
0.00013824
0.00013824
0.00013824
0.00013824
0.00013824
0.00013824
0.00013824
0.00013824
0.00013824
0.00013824
0.00013824
0.00013824
0.00013824
0.00013824
0.00013824
0.00013824
0.00013824
0.00013824
0.00013824
0.00013824
0.00013824
0.00013824
0.00013824
0.00013824
0.00013824
0.00013824
0.00013824
0.00013824
0.00013824
0.00013824
0.00013824
0.00013824
0.00013824
0.00013824
0.00013824
0.00013824
0.00013824
0.00013824
0.00013824
0.00013824
0.00013824
0.00013824
0.00013824
0.00013824
0.00013824
0.00013824
0.00013824
0.00013824
0.00013824
0.00013824
0.00013824
0.00013824
0.00013824
0.00013824
0.00013824
0.00013824
0.00013824
0.00013824
0.00013824
0.00013824
0.00013824
0.00013824
0.00013824
0.00013824
0.00013824
0.00013824
0.00013824
0.00013824
0.00013824
0.00013824
0.00013824
0.00013824
0.00013824
0.00013824
0.00013824
0.00013824
0.00013824
0.00013824
0.00013824
0.00013824
0.00013824
0.00013824
0.00013824
0.00013824
0.00013824
0.00013824
0.00013824
0.00013824
0.00013824
0.00013824
0.00013824
0.00013824
0.00013824
0.00013824
0.00013824
0.00013824
0.00013824
0.00013824
0.00013824
0.00013824
0.00013824
0.00013824
0.00013824
0.00013824
0.00013824
0.00013824
0.00013824
0.00013824
0.00013824
0.00013824
0.00013824
0.00013824
0.00013824
0.00013824
0.00013824
0.00013824
0.00013824
0.00013824
0.00013824
0.00013824
0.00013824
0.00013824
0.00013824
0.00013824
0.00013824
0.00013824
0.00013824
0.00013824
0.00013824
0.00013824
0.00013824
0.00013824
0.00013824
0.00013824
0.00013824
0.00013824
0.00013824
0.00013824
0.00013824
0.00013824
0.00013824
0.00013824
0.00013824
0.00013824
0.00013824
0.00013824
0.00013824
0.00013824
0.00013824
0.00013824
0.00013824
0.00013824
0.00013824
0.00013824
0.00013824
0.00013824
0.00013824
0.00013824
0.00013824
0.00013824
0.00013824
0.00013824
0.00013824
0.00013824
0.00013824
0.00013824
0.00013824
0.00013824
0.00013824
0.00013824
0.00013824
0.00013824
0.00013824
0.00013824
0.00013824
0.00013824
0.00013824
0.00013824
0.00013824
0.00013824
0.00013824
0.00013824
0.00013824
0.00013824
0.00013824
0.00013824
0.00013824
0.00013824
0.00013824
0.00013824
0.00013824
0.00013824
0.00013824
0.00013824
0.00013824
0.00013824
0.00013824
0.00013824
0.00013824
0.00013824
0.00013824
0.00013824
0.00013824