/*--------------------------------*- C++ -*----------------------------------*\
| =========                 |                                                 |
| \\      /  F ield         | OpenFOAM: The Open Source CFD Toolbox           |
|  \\    /   O peration     | Version:  2406                                  |
|   \\  /    A nd           | Website:  www.openfoam.com                      |
|    \\/     M anipulation  |                                                 |
\*---------------------------------------------------------------------------*/
FoamFile
{
    version     2.0;
    format      ascii;
    arch        "LSB;label=32;scalar=64";
    class       volScalarField;
    location    "4";
    object      C;
}
// * * * * * * * * * * * * * * * * * * * * * * * * * * * * * * * * * * * * * //

dimensions      [1 -3 0 0 0 0 0];

internalField   nonuniform List<scalar> 
14400
(
0.445999
0.437916
0.42691
0.415916
0.406602
0.399949
0.396551
0.396759
0.400751
0.408549
0.42002
0.434846
0.452427
0.471672
0.490354
0.501583
0.498952
0.485666
0.468906
0.453608
0.441473
0.433436
0.430133
0.432055
0.439621
0.453213
0.473201
0.499947
0.533797
0.575045
0.62385
0.679967
0.741391
0.791365
0.82463
0.850866
0.873956
0.894275
0.91212
0.92772
0.941256
0.952871
0.962677
0.970767
0.977211
0.982063
0.985365
0.987145
0.98742
0.986197
0.983471
0.97923
0.973446
0.966084
0.957093
0.946411
0.933954
0.919624
0.903293
0.884807
0.86397
0.840538
0.814205
0.78454
0.741312
0.680121
0.617974
0.561868
0.513003
0.471391
0.436737
0.408663
0.386796
0.370799
0.360385
0.35532
0.355427
0.360571
0.370659
0.385614
0.405357
0.429744
0.458454
0.490652
0.523782
0.546656
0.557534
0.562452
0.561786
0.555289
0.538358
0.511961
0.485022
0.460695
0.439973
0.423203
0.41044
0.401537
0.396171
0.393832
0.393804
0.395159
0.396816
0.397755
0.39749
0.396548
0.395984
0.396916
0.400309
0.406919
0.417303
0.431842
0.450747
0.474034
0.501431
0.532013
0.562671
0.58333
0.593278
0.598058
0.463441
0.452919
0.43977
0.427356
0.417108
0.409849
0.406096
0.406173
0.410243
0.418322
0.430281
0.445819
0.464363
0.484775
0.504195
0.513489
0.511846
0.498784
0.480979
0.464717
0.451806
0.44318
0.439462
0.441134
0.448607
0.462259
0.482453
0.509547
0.543877
0.585711
0.635136
0.691644
0.752186
0.797718
0.828242
0.854013
0.876725
0.89675
0.914365
0.929785
0.943177
0.954678
0.964394
0.972413
0.978802
0.983613
0.986887
0.98865
0.988918
0.987699
0.984988
0.980771
0.975024
0.967712
0.958786
0.948184
0.935829
0.921624
0.905449
0.887157
0.866564
0.84344
0.817498
0.788367
0.749218
0.692038
0.628913
0.571932
0.522357
0.480151
0.445
0.416527
0.394358
0.378157
0.367635
0.362561
0.362756
0.368088
0.378463
0.393807
0.414041
0.439034
0.468482
0.501456
0.53341
0.553299
0.563324
0.568037
0.567587
0.561874
0.548471
0.524
0.496312
0.471319
0.4501
0.433012
0.420131
0.411332
0.40631
0.404573
0.405403
0.407796
0.410447
0.41187
0.411108
0.409162
0.407554
0.407623
0.410408
0.416667
0.426939
0.441584
0.460793
0.484563
0.512621
0.543945
0.572334
0.589263
0.598381
0.602838
0.490431
0.480366
0.46452
0.449854
0.437983
0.429614
0.425194
0.425021
0.429249
0.437878
0.450768
0.467634
0.48791
0.510212
0.527849
0.533451
0.532934
0.523572
0.504771
0.486837
0.472463
0.462706
0.458183
0.459367
0.46666
0.480431
0.501037
0.528821
0.5641
0.607092
0.657766
0.715127
0.770037
0.807608
0.83547
0.860218
0.882181
0.901635
0.918806
0.933875
0.94699
0.958269
0.967809
0.975689
0.98197
0.986702
0.989919
0.991648
0.991904
0.990693
0.98801
0.983843
0.978168
0.970954
0.962153
0.95171
0.939553
0.925593
0.909722
0.891808
0.871688
0.849161
0.823977
0.795799
0.762202
0.712905
0.64996
0.591899
0.5411
0.497761
0.461636
0.432371
0.4096
0.39299
0.382254
0.377161
0.377532
0.383237
0.394181
0.410289
0.431471
0.457574
0.488222
0.522124
0.55021
0.565474
0.57442
0.578782
0.578653
0.574046
0.564647
0.54582
0.518274
0.492407
0.470317
0.452618
0.439505
0.430903
0.426553
0.426015
0.428608
0.433243
0.438247
0.441029
0.438879
0.434561
0.430699
0.428995
0.43057
0.436143
0.4462
0.461053
0.48084
0.505441
0.534321
0.565409
0.587684
0.60021
0.608146
0.612075
0.520541
0.515536
0.499773
0.482865
0.469034
0.459202
0.453852
0.453326
0.457803
0.467234
0.481409
0.499997
0.522115
0.544379
0.555237
0.558744
0.558798
0.554632
0.539516
0.519709
0.503398
0.49208
0.486408
0.486888
0.493923
0.507879
0.529093
0.55789
0.594548
0.63913
0.691113
0.747545
0.789947
0.819731
0.845808
0.86921
0.890145
0.908803
0.925349
0.939921
0.952638
0.963598
0.972885
0.980563
0.986689
0.991304
0.99444
0.99612
0.996357
0.995157
0.992516
0.988422
0.982853
0.97578
0.967163
0.956951
0.94508
0.931473
0.916039
0.898664
0.879218
0.857541
0.83345
0.806731
0.777172
0.738017
0.680847
0.62182
0.569387
0.524424
0.486865
0.456424
0.432754
0.41553
0.404471
0.399348
0.399983
0.406244
0.418033
0.435262
0.457806
0.485402
0.517253
0.550211
0.57084
0.582387
0.590097
0.59402
0.594195
0.590706
0.58372
0.572002
0.550217
0.523757
0.500551
0.481971
0.468519
0.460183
0.45678
0.457969
0.463212
0.471384
0.480453
0.486345
0.481034
0.472624
0.46521
0.460844
0.460676
0.465281
0.475043
0.490198
0.510811
0.536449
0.565803
0.590758
0.605449
0.615293
0.621919
0.625242
0.552627
0.551276
0.543226
0.525595
0.509997
0.498542
0.492037
0.49106
0.495896
0.506376
0.522041
0.542471
0.56568
0.579292
0.584483
0.587484
0.588175
0.586608
0.579695
0.562159
0.544367
0.531351
0.524268
0.523865
0.530578
0.544785
0.566785
0.596864
0.635253
0.681679
0.734129
0.777683
0.808461
0.834765
0.858821
0.880667
0.900387
0.918085
0.933864
0.947821
0.960042
0.970602
0.979567
0.986991
0.992918
0.997384
1.00042
1.00203
1.00225
1.00106
0.998475
0.994474
0.989042
0.982151
0.973768
0.96385
0.952342
0.939182
0.924294
0.907593
0.888977
0.868336
0.84555
0.8205
0.793091
0.762616
0.719647
0.66147
0.607391
0.560409
0.520991
0.489009
0.464151
0.446113
0.434624
0.429457
0.430438
0.437433
0.450328
0.469007
0.493268
0.522671
0.555524
0.580277
0.593555
0.603056
0.609563
0.613004
0.613402
0.610861
0.605601
0.598012
0.58535
0.564036
0.540439
0.520846
0.507022
0.498991
0.496696
0.499877
0.5083
0.520162
0.529299
0.532252
0.529802
0.521298
0.510174
0.502612
0.500432
0.5039
0.513319
0.528793
0.550344
0.576251
0.600296
0.615605
0.625687
0.633593
0.638995
0.64173
0.586052
0.585248
0.583598
0.57538
0.56002
0.547336
0.539499
0.537943
0.543301
0.555067
0.571815
0.592678
0.605838
0.611636
0.615752
0.618533
0.619809
0.619635
0.618278
0.610794
0.59463
0.580456
0.571802
0.570417
0.576751
0.591289
0.6142
0.645633
0.685745
0.732627
0.773182
0.803055
0.828319
0.852045
0.874046
0.894248
0.91265
0.929285
0.944201
0.957456
0.969106
0.979201
0.987791
0.994915
1.00061
1.0049
1.00781
1.00935
1.00954
1.00837
1.00585
1.00196
0.996688
0.990014
0.981909
0.972337
0.961256
0.948618
0.934365
0.918435
0.900761
0.881275
0.859913
0.836628
0.811406
0.784294
0.753447
0.70976
0.655129
0.605945
0.564329
0.530511
0.504198
0.485153
0.473128
0.467901
0.469302
0.477194
0.491416
0.511786
0.537803
0.568108
0.59438
0.609135
0.618998
0.626718
0.632093
0.635033
0.635547
0.633735
0.629811
0.624114
0.61712
0.605751
0.58846
0.568411
0.55456
0.546847
0.545647
0.550362
0.561164
0.568423
0.57123
0.571116
0.571731
0.569476
0.562896
0.552928
0.549185
0.551521
0.560571
0.576017
0.597928
0.617415
0.631007
0.640157
0.6481
0.654396
0.65874
0.660953
0.620282
0.619879
0.619199
0.618298
0.612637
0.603845
0.595039
0.592873
0.598866
0.611818
0.625573
0.635783
0.640692
0.644809
0.648356
0.651086
0.652894
0.653839
0.654136
0.65409
0.648788
0.638322
0.628514
0.626376
0.632264
0.647267
0.671084
0.703228
0.743503
0.777599
0.804077
0.827271
0.849712
0.871053
0.891068
0.909631
0.926682
0.942202
0.956201
0.968698
0.979723
0.989307
0.99748
1.00427
1.0097
1.01379
1.01656
1.01802
1.01818
1.01704
1.01459
1.01082
1.00574
0.999309
0.991516
0.982334
0.971729
0.959668
0.946111
0.93102
0.914358
0.896091
0.876201
0.854692
0.83161
0.807059
0.781229
0.75145
0.710492
0.660735
0.617003
0.581294
0.553309
0.533094
0.520444
0.515131
0.516999
0.525924
0.541583
0.563675
0.590461
0.61514
0.629765
0.638834
0.646585
0.652724
0.657058
0.65949
0.660016
0.658723
0.655793
0.651513
0.646272
0.640569
0.632533
0.621202
0.609311
0.601908
0.601628
0.605038
0.608204
0.608594
0.607871
0.607789
0.608391
0.609653
0.609857
0.607414
0.604943
0.606305
0.614975
0.62841
0.641448
0.65126
0.658786
0.665914
0.67216
0.67715
0.680616
0.682389
0.654915
0.654789
0.654642
0.654692
0.655274
0.653878
0.651743
0.651922
0.656179
0.662635
0.66835
0.671547
0.675048
0.67855
0.681778
0.684561
0.686843
0.68869
0.690297
0.691984
0.694198
0.693562
0.69136
0.690196
0.695551
0.711246
0.735461
0.763846
0.790006
0.811341
0.831807
0.85224
0.872207
0.891384
0.909541
0.926525
0.942243
0.956643
0.9697
0.981411
0.991781
1.00082
1.00855
1.01498
1.02013
1.02401
1.02663
1.028
1.02813
1.02701
1.02464
1.02101
1.01613
1.00997
1.00251
0.993752
0.983658
0.972212
0.959392
0.945178
0.929558
0.912529
0.894106
0.87433
0.853284
0.831104
0.808
0.784266
0.75761
0.722323
0.678332
0.641528
0.611727
0.590283
0.576975
0.571529
0.573817
0.58384
0.600637
0.623499
0.643182
0.655542
0.662991
0.669849
0.675784
0.680536
0.683924
0.685851
0.686304
0.685346
0.683126
0.67987
0.675886
0.671552
0.667312
0.663009
0.657109
0.652154
0.649891
0.648797
0.646334
0.644677
0.643868
0.643776
0.644386
0.645734
0.647976
0.651104
0.652996
0.656257
0.662404
0.669605
0.675336
0.681071
0.686959
0.692554
0.697477
0.701428
0.704184
0.705597
0.689672
0.689719
0.689889
0.690329
0.691251
0.692898
0.695289
0.697425
0.699609
0.70137
0.703573
0.706331
0.709402
0.712564
0.715645
0.718538
0.721225
0.72378
0.726377
0.729297
0.732938
0.737842
0.743056
0.748259
0.75716
0.771541
0.789253
0.8074
0.824026
0.841541
0.859569
0.877674
0.895492
0.912737
0.929187
0.944686
0.959122
0.972424
0.984547
0.995466
1.00517
1.01365
1.02092
1.02698
1.03183
1.03549
1.03795
1.03923
1.03932
1.03822
1.03594
1.03247
1.02779
1.02192
1.01482
1.0065
0.99694
0.986131
0.974066
0.960743
0.946168
0.930362
0.913363
0.895238
0.876091
0.856074
0.835399
0.814348
0.793283
0.771332
0.74325
0.710101
0.678798
0.656585
0.642769
0.637088
0.639383
0.650126
0.665885
0.678322
0.686363
0.691536
0.696806
0.701786
0.706167
0.709711
0.71225
0.713688
0.714001
0.713233
0.711494
0.708956
0.705849
0.702441
0.699013
0.695792
0.69293
0.690023
0.686685
0.683653
0.681396
0.67991
0.679148
0.679062
0.679644
0.680921
0.682965
0.685846
0.689599
0.69379
0.697692
0.701658
0.706059
0.710728
0.715426
0.719863
0.723766
0.726903
0.729094
0.730219
0.724383
0.724528
0.724866
0.725484
0.726492
0.727972
0.72988
0.731952
0.733902
0.735911
0.738192
0.740804
0.743664
0.746661
0.749698
0.752722
0.75574
0.758827
0.762135
0.76589
0.770397
0.776023
0.78315
0.792239
0.802867
0.814497
0.827045
0.840812
0.855638
0.871227
0.887254
0.903393
0.919352
0.934882
0.949786
0.963909
0.977136
0.989385
1.0006
1.01074
1.01977
1.0277
1.0345
1.04018
1.04473
1.04815
1.05046
1.05164
1.05169
1.05063
1.04844
1.04512
1.04067
1.03508
1.02836
1.02049
1.01147
1.00131
0.989997
0.977558
0.964009
0.949386
0.933746
0.917168
0.899769
0.881703
0.863175
0.844444
0.825832
0.807724
0.790403
0.770472
0.749195
0.729554
0.715865
0.709781
0.710339
0.714339
0.719139
0.72177
0.724238
0.72743
0.730909
0.734322
0.737388
0.739891
0.741676
0.74265
0.742781
0.742091
0.740659
0.738612
0.736112
0.733348
0.730506
0.72773
0.725087
0.722484
0.719877
0.717532
0.715686
0.71442
0.713752
0.71368
0.714205
0.715343
0.717114
0.71952
0.722498
0.725826
0.729244
0.732782
0.736513
0.740356
0.744153
0.747708
0.750822
0.753322
0.755069
0.755966
0.758947
0.759143
0.759561
0.76025
0.76126
0.762617
0.764281
0.766139
0.768091
0.770179
0.772481
0.775027
0.777789
0.780717
0.783764
0.786913
0.790185
0.793655
0.797445
0.801732
0.806737
0.812705
0.819867
0.828382
0.838122
0.848863
0.86052
0.8731
0.886485
0.900475
0.914827
0.929293
0.943638
0.957654
0.971165
0.984027
0.996129
1.00738
1.01772
1.0271
1.03549
1.04286
1.0492
1.0545
1.05875
1.06194
1.06408
1.06517
1.06519
1.06415
1.06206
1.0589
1.05468
1.04939
1.04304
1.03562
1.02715
1.01762
1.00706
0.995483
0.982924
0.969429
0.955065
0.93992
0.924112
0.907793
0.891152
0.874422
0.857879
0.841836
0.826639
0.812678
0.799898
0.786999
0.776165
0.769036
0.765329
0.76278
0.760769
0.76049
0.761387
0.763037
0.765077
0.767204
0.769172
0.770788
0.771913
0.772456
0.772379
0.771691
0.770441
0.768719
0.76664
0.764335
0.761932
0.759535
0.757202
0.754948
0.752808
0.750914
0.749395
0.748332
0.747761
0.747699
0.748154
0.749132
0.750629
0.752622
0.755044
0.757772
0.760676
0.763712
0.766854
0.77003
0.773122
0.775992
0.778493
0.780496
0.781893
0.782611
0.793317
0.793535
0.793986
0.794694
0.795682
0.796954
0.798488
0.800231
0.802144
0.804234
0.806525
0.809033
0.811749
0.814653
0.817728
0.820979
0.824435
0.828161
0.832257
0.836856
0.842114
0.848193
0.85523
0.8633
0.87236
0.882311
0.893073
0.904582
0.91673
0.929359
0.942286
0.955314
0.968254
0.980931
0.993192
1.00491
1.01597
1.02629
1.03581
1.04447
1.05223
1.05906
1.06495
1.06987
1.07382
1.07679
1.07877
1.07976
1.07975
1.07874
1.07674
1.07374
1.06975
1.06476
1.05878
1.05181
1.04388
1.03498
1.02514
1.01439
1.00277
0.990342
0.977165
0.963335
0.948967
0.934204
0.919219
0.904214
0.889424
0.875103
0.861523
0.848948
0.837576
0.827627
0.81908
0.811827
0.80602
0.801923
0.799311
0.798033
0.797784
0.798254
0.799158
0.800245
0.801308
0.802178
0.80273
0.802882
0.80259
0.801851
0.800696
0.799183
0.797393
0.79542
0.793353
0.791274
0.78924
0.787296
0.785495
0.783918
0.782649
0.781751
0.781261
0.781201
0.781581
0.7824
0.783648
0.785295
0.787286
0.789541
0.791977
0.794536
0.797162
0.799786
0.802315
0.804643
0.806663
0.808274
0.809396
0.809972
0.827469
0.827694
0.828154
0.828859
0.829818
0.831031
0.832484
0.834154
0.836022
0.838085
0.840353
0.842832
0.845521
0.848417
0.851518
0.854839
0.858414
0.862296
0.866566
0.871321
0.87667
0.882721
0.88956
0.897227
0.905708
0.914946
0.924878
0.935426
0.946492
0.957946
0.969643
0.981424
0.993133
1.00462
1.01577
1.02644
1.03655
1.04601
1.05475
1.06273
1.06989
1.07621
1.08166
1.08622
1.08988
1.09262
1.09445
1.09534
1.0953
1.09433
1.09243
1.08959
1.08582
1.08112
1.07551
1.06898
1.06156
1.05327
1.04413
1.03417
1.02344
1.012
0.999918
0.987287
0.974217
0.960838
0.947304
0.933792
0.920498
0.90763
0.895402
0.884013
0.87363
0.864388
0.856332
0.84947
0.843865
0.839578
0.836517
0.834546
0.833461
0.833037
0.833055
0.833312
0.833636
0.833885
0.833948
0.83375
0.833248
0.832428
0.831307
0.829923
0.828331
0.826597
0.824788
0.822967
0.821189
0.819501
0.817957
0.816614
0.815533
0.814761
0.814331
0.814264
0.814567
0.81524
0.816268
0.817624
0.819263
0.821128
0.823156
0.82529
0.827473
0.829637
0.831709
0.833604
0.83524
0.836542
0.837446
0.83791
0.861394
0.86162
0.862077
0.862769
0.863699
0.864867
0.866265
0.86788
0.869703
0.871732
0.87397
0.876421
0.879088
0.881974
0.885088
0.888447
0.892084
0.896045
0.900389
0.905191
0.910525
0.916463
0.92306
0.930341
0.938297
0.94689
0.956066
0.965753
0.975864
0.986292
0.996915
1.0076
1.01823
1.02867
1.03881
1.04854
1.05777
1.06644
1.07446
1.0818
1.0884
1.09423
1.09926
1.10347
1.10685
1.10938
1.11105
1.11186
1.11179
1.11085
1.10904
1.10636
1.10281
1.0984
1.09314
1.08704
1.08013
1.07241
1.06393
1.05471
1.04482
1.0343
1.02322
1.01168
0.999775
0.987625
0.975367
0.963152
0.951146
0.939519
0.928441
0.918071
0.908544
0.899964
0.89239
0.885857
0.880394
0.876006
0.872635
0.870174
0.868478
0.86738
0.866711
0.866311
0.86604
0.865777
0.865427
0.864923
0.864223
0.863307
0.862182
0.860871
0.859411
0.857848
0.856234
0.854617
0.853046
0.851563
0.850216
0.849049
0.848108
0.847429
0.847039
0.846955
0.847184
0.847724
0.848561
0.84967
0.851015
0.852552
0.85423
0.855997
0.857801
0.859582
0.861278
0.862823
0.864152
0.865206
0.865937
0.866312
0.895093
0.895316
0.895764
0.89644
0.897344
0.898474
0.899827
0.901397
0.903178
0.90517
0.907374
0.909794
0.912434
0.915303
0.918411
0.921778
0.925431
0.929408
0.933756
0.938527
0.943775
0.949547
0.955877
0.962781
0.970248
0.978251
0.986741
0.995657
1.00492
1.01444
1.02412
1.03385
1.04351
1.05302
1.06225
1.07113
1.07957
1.0875
1.09486
1.1016
1.10767
1.11304
1.11768
1.12156
1.12467
1.127
1.12852
1.12924
1.12915
1.12824
1.12653
1.124
1.12066
1.11653
1.11162
1.10593
1.09949
1.09232
1.08446
1.07594
1.06682
1.05714
1.04699
1.03644
1.02558
1.01452
1.00339
0.992304
0.981414
0.970857
0.960772
0.951286
0.942511
0.934532
0.927408
0.921173
0.915846
0.911418
0.907842
0.905037
0.902896
0.901293
0.900097
0.899183
0.898436
0.897755
0.897061
0.896293
0.895411
0.894396
0.893244
0.891968
0.890593
0.889152
0.887682
0.886223
0.884813
0.883491
0.882294
0.881259
0.880421
0.879807
0.87944
0.879333
0.879491
0.879911
0.880581
0.881479
0.882576
0.883834
0.885213
0.886668
0.888151
0.889612
0.890999
0.892258
0.893338
0.894193
0.894785
0.895088
0.928568
0.928786
0.929224
0.929882
0.930761
0.931859
0.933173
0.934702
0.936443
0.938395
0.940561
0.942945
0.945553
0.948393
0.951476
0.954822
0.958454
0.962402
0.9667
0.971387
0.976501
0.982071
0.988121
0.994655
1.00167
1.00912
1.01699
1.02521
1.03372
1.04244
1.05128
1.06015
1.06896
1.07763
1.08605
1.09416
1.10188
1.10914
1.11589
1.12207
1.12765
1.13259
1.13685
1.14042
1.14328
1.14541
1.1468
1.14744
1.14732
1.14645
1.14482
1.14244
1.13932
1.13545
1.13086
1.12556
1.11957
1.11292
1.10565
1.09778
1.08937
1.08048
1.07116
1.0615
1.05158
1.04149
1.03135
1.02126
1.01135
1.00172
0.992503
0.983792
0.975682
0.968245
0.961535
0.955583
0.9504
0.945977
0.942276
0.939237
0.936776
0.934798
0.933202
0.931888
0.930764
0.929746
0.928768
0.927776
0.926734
0.925621
0.924428
0.923163
0.921841
0.920484
0.91912
0.917779
0.916493
0.915294
0.91421
0.913273
0.912508
0.911938
0.911581
0.911446
0.911536
0.911849
0.912372
0.913089
0.913974
0.914996
0.916121
0.91731
0.918523
0.919716
0.920847
0.921872
0.922749
0.923442
0.923922
0.924167
0.961824
0.962037
0.962464
0.963104
0.963959
0.965026
0.966305
0.967795
0.969495
0.971407
0.973531
0.975874
0.97844
0.981237
0.98428
0.987581
0.991161
0.995044
0.999255
1.00382
1.00877
1.01412
1.01988
1.02605
1.03263
1.03959
1.04689
1.05448
1.06231
1.0703
1.0784
1.08651
1.09456
1.10248
1.11017
1.11759
1.12465
1.13129
1.13748
1.14315
1.14827
1.1528
1.15672
1.16
1.16262
1.16456
1.16582
1.16639
1.16625
1.16541
1.16387
1.16164
1.15871
1.15509
1.15081
1.14588
1.14032
1.13416
1.12742
1.12016
1.11241
1.10423
1.09567
1.08682
1.07774
1.06853
1.05926
1.05005
1.04099
1.03219
1.02372
1.0157
1.00818
1.00123
0.994905
0.989222
0.984194
0.979813
0.97605
0.972857
0.970172
0.967921
0.966025
0.964404
0.962985
0.961698
0.960489
0.95931
0.958128
0.956924
0.955686
0.954416
0.953123
0.951822
0.950534
0.949281
0.948088
0.946979
0.94598
0.945113
0.9444
0.943858
0.943499
0.943332
0.943359
0.943575
0.943971
0.944531
0.945235
0.946055
0.946964
0.947928
0.948913
0.949883
0.950801
0.951633
0.952344
0.952905
0.953293
0.953491
0.994867
0.995075
0.99549
0.996113
0.996943
0.997981
0.999226
1.00068
1.00234
1.0042
1.00628
1.00858
1.01109
1.01384
1.01682
1.02006
1.02357
1.02736
1.03145
1.03587
1.04064
1.04575
1.05122
1.05705
1.06322
1.06971
1.07649
1.08351
1.09073
1.09808
1.1055
1.11293
1.1203
1.12754
1.13458
1.14136
1.14782
1.15391
1.15958
1.16478
1.16947
1.17363
1.17722
1.18023
1.18263
1.1844
1.18554
1.18604
1.18588
1.18508
1.18362
1.18152
1.17878
1.1754
1.17142
1.16683
1.16167
1.15596
1.14973
1.14302
1.13588
1.12835
1.12049
1.11236
1.10404
1.0956
1.08712
1.07869
1.07039
1.0623
1.05451
1.04709
1.0401
1.0336
1.02763
1.02221
1.01734
1.01303
1.00925
1.00597
1.00313
1.00069
0.998571
0.996719
0.995072
0.993574
0.992178
0.990845
0.989546
0.98826
0.986976
0.985693
0.984413
0.983149
0.981913
0.980722
0.979597
0.978555
0.977617
0.9768
0.976121
0.975593
0.975226
0.975025
0.974992
0.975121
0.975405
0.97583
0.976378
0.977027
0.977752
0.978526
0.979319
0.980101
0.980843
0.981514
0.982088
0.982541
0.982854
0.983014
1.0277
1.0279
1.02831
1.02891
1.02972
1.03073
1.03194
1.03335
1.03497
1.03679
1.03882
1.04106
1.04352
1.0462
1.04911
1.05227
1.05568
1.05937
1.06333
1.06759
1.07215
1.07702
1.08221
1.08771
1.09349
1.09955
1.10585
1.11235
1.11901
1.12578
1.1326
1.13942
1.14617
1.1528
1.15925
1.16546
1.17137
1.17695
1.18214
1.18691
1.19121
1.19503
1.19832
1.20107
1.20326
1.20487
1.2059
1.20633
1.20616
1.20539
1.20402
1.20204
1.19948
1.19633
1.19262
1.18836
1.18357
1.17828
1.17252
1.16632
1.15973
1.1528
1.14557
1.1381
1.13046
1.12272
1.11494
1.1072
1.09957
1.09212
1.08493
1.07805
1.07154
1.06545
1.0598
1.05463
1.04994
1.04572
1.04196
1.03864
1.03571
1.03313
1.03085
1.02883
1.02701
1.02535
1.0238
1.02235
1.02095
1.01959
1.01827
1.01696
1.01569
1.01445
1.01325
1.0121
1.01102
1.01003
1.00913
1.00835
1.00769
1.00717
1.00679
1.00655
1.00646
1.00651
1.0067
1.00701
1.00742
1.00792
1.00849
1.0091
1.00974
1.01036
1.01095
1.01149
1.01195
1.01232
1.01257
1.0127
1.06034
1.06053
1.06092
1.06151
1.0623
1.06328
1.06445
1.06583
1.0674
1.06917
1.07115
1.07333
1.07572
1.07833
1.08116
1.08423
1.08753
1.09109
1.09491
1.09899
1.10335
1.10799
1.11289
1.11807
1.12349
1.12915
1.135
1.14103
1.14718
1.15342
1.1597
1.16596
1.17216
1.17824
1.18415
1.18984
1.19527
1.20038
1.20513
1.2095
1.21345
1.21694
1.21995
1.22247
1.22447
1.22594
1.22686
1.22723
1.22705
1.22631
1.22501
1.22316
1.22076
1.21783
1.21437
1.21041
1.20597
1.20107
1.19574
1.19001
1.18394
1.17754
1.17089
1.16402
1.15699
1.14987
1.14272
1.13559
1.12856
1.12169
1.11503
1.10864
1.10256
1.09684
1.09151
1.08657
1.08205
1.07795
1.07424
1.07091
1.06793
1.06527
1.06288
1.06073
1.05879
1.057
1.05535
1.05379
1.05231
1.0509
1.04953
1.04821
1.04693
1.0457
1.04452
1.04341
1.04236
1.0414
1.04054
1.03977
1.03913
1.0386
1.0382
1.03793
1.03779
1.03777
1.03787
1.03807
1.03837
1.03875
1.03919
1.03966
1.04016
1.04065
1.04112
1.04155
1.04191
1.0422
1.0424
1.04251
1.09277
1.09296
1.09334
1.09391
1.09467
1.09562
1.09677
1.0981
1.09963
1.10135
1.10326
1.10538
1.1077
1.11023
1.11298
1.11594
1.11913
1.12256
1.12622
1.13013
1.13428
1.13867
1.14331
1.14818
1.15326
1.15854
1.16399
1.16958
1.17527
1.18103
1.18682
1.19258
1.19827
1.20386
1.20928
1.2145
1.21947
1.22415
1.22851
1.23252
1.23613
1.23933
1.24209
1.24439
1.24621
1.24754
1.24837
1.24869
1.24849
1.24778
1.24656
1.24482
1.24258
1.23984
1.23663
1.23295
1.22883
1.22429
1.21935
1.21406
1.20845
1.20255
1.19642
1.19009
1.18362
1.17706
1.17046
1.16389
1.1574
1.15104
1.14486
1.13891
1.13323
1.12785
1.1228
1.1181
1.11376
1.10977
1.10613
1.10283
1.09983
1.09713
1.09467
1.09244
1.0904
1.08853
1.08679
1.08515
1.08361
1.08215
1.08075
1.07941
1.07813
1.0769
1.07574
1.07464
1.07362
1.07268
1.07183
1.07108
1.07044
1.06991
1.06949
1.06918
1.06899
1.06891
1.06893
1.06905
1.06925
1.06952
1.06984
1.0702
1.07058
1.07096
1.07133
1.07167
1.07195
1.07218
1.07234
1.07242
1.12502
1.12521
1.12557
1.12613
1.12686
1.12778
1.12889
1.13018
1.13166
1.13332
1.13518
1.13723
1.13948
1.14192
1.14457
1.14743
1.1505
1.15378
1.15729
1.16101
1.16496
1.16912
1.1735
1.17807
1.18283
1.18776
1.19283
1.19802
1.20329
1.20862
1.21395
1.21926
1.2245
1.22963
1.23461
1.2394
1.24396
1.24825
1.25225
1.25592
1.25923
1.26216
1.26468
1.26678
1.26844
1.26965
1.27039
1.27066
1.27045
1.26977
1.26861
1.26698
1.26489
1.26234
1.25935
1.25593
1.2521
1.24789
1.24333
1.23844
1.23325
1.2278
1.22214
1.2163
1.21033
1.20427
1.19819
1.19211
1.18611
1.18021
1.17446
1.16891
1.16359
1.15853
1.15376
1.14928
1.14511
1.14125
1.1377
1.13444
1.13145
1.12873
1.12624
1.12396
1.12186
1.11992
1.11811
1.11643
1.11484
1.11334
1.11191
1.11056
1.10927
1.10804
1.10689
1.1058
1.1048
1.10387
1.10303
1.10229
1.10164
1.1011
1.10066
1.10032
1.10008
1.09995
1.0999
1.09994
1.10006
1.10023
1.10046
1.10072
1.101
1.10129
1.10157
1.10183
1.10205
1.10223
1.10235
1.10241
1.15709
1.15726
1.15762
1.15815
1.15887
1.15976
1.16082
1.16207
1.1635
1.16511
1.16691
1.16889
1.17105
1.17341
1.17596
1.17871
1.18165
1.18479
1.18814
1.19168
1.19542
1.19936
1.20348
1.20778
1.21224
1.21684
1.22156
1.22638
1.23127
1.23619
1.24111
1.24601
1.25083
1.25555
1.26013
1.26452
1.26871
1.27265
1.27632
1.27968
1.28272
1.2854
1.2877
1.28962
1.29113
1.29222
1.29288
1.2931
1.29289
1.29223
1.29114
1.28961
1.28765
1.28527
1.28249
1.27931
1.27576
1.27186
1.26763
1.2631
1.2583
1.25327
1.24803
1.24264
1.23712
1.23153
1.2259
1.22027
1.2147
1.20922
1.20387
1.19869
1.1937
1.18893
1.18441
1.18014
1.17615
1.17242
1.16896
1.16577
1.16282
1.1601
1.1576
1.15529
1.15315
1.15117
1.14933
1.1476
1.14598
1.14445
1.143
1.14163
1.14034
1.13912
1.13797
1.13689
1.13589
1.13497
1.13414
1.1334
1.13274
1.13219
1.13172
1.13135
1.13108
1.13089
1.13079
1.13076
1.1308
1.1309
1.13104
1.13122
1.13142
1.13163
1.13184
1.13203
1.1322
1.13233
1.13242
1.13247
1.18897
1.18914
1.18949
1.19
1.19069
1.19155
1.19258
1.19379
1.19517
1.19672
1.19845
1.20035
1.20244
1.20471
1.20715
1.20978
1.2126
1.2156
1.21878
1.22215
1.22569
1.22941
1.23329
1.23733
1.2415
1.2458
1.2502
1.25467
1.2592
1.26376
1.26831
1.27282
1.27727
1.28161
1.28582
1.28986
1.29371
1.29733
1.30069
1.30378
1.30655
1.30901
1.31111
1.31286
1.31423
1.31521
1.3158
1.31599
1.31577
1.31514
1.31411
1.31267
1.31084
1.30862
1.30603
1.30307
1.29977
1.29615
1.29223
1.28804
1.28359
1.27893
1.27409
1.2691
1.26399
1.25881
1.2536
1.24838
1.24321
1.23811
1.23311
1.22826
1.22358
1.21909
1.2148
1.21074
1.20692
1.20333
1.19997
1.19685
1.19395
1.19126
1.18876
1.18644
1.18429
1.18229
1.18042
1.17867
1.17703
1.17548
1.17402
1.17264
1.17134
1.17012
1.16897
1.1679
1.1669
1.16599
1.16516
1.16441
1.16375
1.16318
1.16269
1.1623
1.16198
1.16175
1.1616
1.16151
1.16149
1.16152
1.16159
1.1617
1.16183
1.16197
1.16211
1.16225
1.16237
1.16247
1.16254
1.16257
1.22069
1.22085
1.22118
1.22168
1.22234
1.22317
1.22416
1.22533
1.22665
1.22815
1.22981
1.23164
1.23365
1.23582
1.23816
1.24068
1.24336
1.24622
1.24925
1.25244
1.25579
1.2593
1.26295
1.26673
1.27064
1.27465
1.27875
1.28291
1.28712
1.29133
1.29554
1.29971
1.30381
1.30781
1.31168
1.3154
1.31894
1.32226
1.32535
1.32817
1.33072
1.33296
1.33489
1.33648
1.33772
1.33861
1.33913
1.33928
1.33905
1.33845
1.33747
1.33612
1.33441
1.33234
1.32992
1.32717
1.32411
1.32075
1.31711
1.31322
1.3091
1.30478
1.3003
1.29567
1.29094
1.28614
1.2813
1.27645
1.27164
1.26688
1.26222
1.25767
1.25327
1.24903
1.24497
1.24111
1.23745
1.23399
1.23075
1.22771
1.22487
1.22221
1.21974
1.21744
1.21529
1.21328
1.2114
1.20963
1.20798
1.20642
1.20495
1.20357
1.20226
1.20104
1.19989
1.19882
1.19783
1.19692
1.19609
1.19534
1.19467
1.19408
1.19358
1.19315
1.19281
1.19254
1.19234
1.1922
1.19212
1.19209
1.19211
1.19215
1.19222
1.19231
1.1924
1.19249
1.19257
1.19264
1.19269
1.19271
1.25224
1.2524
1.25271
1.25319
1.25383
1.25463
1.25558
1.2567
1.25797
1.25941
1.26101
1.26276
1.26468
1.26676
1.269
1.2714
1.27396
1.27667
1.27954
1.28257
1.28573
1.28904
1.29247
1.29602
1.29968
1.30342
1.30724
1.31111
1.31501
1.31892
1.32281
1.32666
1.33045
1.33414
1.3377
1.34112
1.34437
1.34742
1.35026
1.35285
1.35518
1.35723
1.35899
1.36044
1.36157
1.36237
1.36283
1.36294
1.36271
1.36213
1.36121
1.35994
1.35834
1.3564
1.35415
1.35159
1.34874
1.34562
1.34224
1.33863
1.33481
1.3308
1.32664
1.32235
1.31796
1.3135
1.309
1.30449
1.3
1.29556
1.2912
1.28694
1.2828
1.27879
1.27495
1.27127
1.26777
1.26445
1.26132
1.25837
1.2556
1.25299
1.25056
1.24828
1.24614
1.24413
1.24225
1.24049
1.23883
1.23727
1.2358
1.23441
1.23311
1.23189
1.23074
1.22968
1.22869
1.22777
1.22694
1.22618
1.22551
1.22491
1.22438
1.22393
1.22356
1.22325
1.22301
1.22283
1.22271
1.22263
1.22259
1.22258
1.2226
1.22264
1.22269
1.22274
1.22279
1.22283
1.22286
1.22288
1.28363
1.28378
1.28409
1.28454
1.28516
1.28592
1.28684
1.28791
1.28913
1.29051
1.29204
1.29372
1.29555
1.29754
1.29968
1.30196
1.30439
1.30697
1.30969
1.31255
1.31554
1.31865
1.32187
1.3252
1.32862
1.33212
1.33568
1.33928
1.3429
1.34652
1.35013
1.35369
1.35718
1.36058
1.36387
1.36702
1.37
1.37281
1.37541
1.37779
1.37992
1.3818
1.38341
1.38472
1.38575
1.38646
1.38687
1.38695
1.38672
1.38617
1.38529
1.3841
1.38259
1.38079
1.37868
1.3763
1.37365
1.37074
1.3676
1.36425
1.3607
1.35698
1.35311
1.34913
1.34505
1.3409
1.33671
1.33251
1.32832
1.32417
1.32009
1.31608
1.31218
1.3084
1.30476
1.30126
1.29791
1.29473
1.29171
1.28885
1.28615
1.28361
1.28122
1.27897
1.27686
1.27487
1.273
1.27124
1.26958
1.26802
1.26656
1.26517
1.26387
1.26266
1.26151
1.26045
1.25946
1.25855
1.25771
1.25695
1.25626
1.25565
1.25511
1.25464
1.25424
1.2539
1.25363
1.25341
1.25324
1.25312
1.25304
1.25299
1.25296
1.25296
1.25297
1.25299
1.25301
1.25303
1.25305
1.25306
1.31486
1.31501
1.3153
1.31574
1.31633
1.31706
1.31794
1.31897
1.32014
1.32146
1.32292
1.32453
1.32628
1.32817
1.3302
1.33238
1.33469
1.33713
1.3397
1.3424
1.34522
1.34814
1.35117
1.35429
1.35749
1.36076
1.36407
1.36742
1.37078
1.37415
1.37748
1.38077
1.384
1.38714
1.39017
1.39307
1.39582
1.3984
1.40079
1.40297
1.40492
1.40664
1.40811
1.40931
1.41023
1.41087
1.41123
1.41129
1.41105
1.41052
1.40969
1.40856
1.40715
1.40546
1.4035
1.40128
1.39881
1.3961
1.39318
1.39006
1.38676
1.3833
1.37971
1.376
1.3722
1.36834
1.36444
1.36052
1.3566
1.35272
1.34889
1.34512
1.34145
1.33787
1.33442
1.33109
1.3279
1.32484
1.32194
1.31917
1.31655
1.31408
1.31174
1.30953
1.30745
1.30548
1.30363
1.30189
1.30024
1.29869
1.29723
1.29585
1.29456
1.29335
1.29221
1.29115
1.29016
1.28925
1.28841
1.28764
1.28695
1.28632
1.28577
1.28528
1.28485
1.28449
1.28419
1.28393
1.28373
1.28357
1.28345
1.28337
1.28331
1.28327
1.28325
1.28324
1.28324
1.28324
1.28324
1.28324
1.34595
1.34609
1.34637
1.3468
1.34736
1.34806
1.3489
1.34988
1.351
1.35226
1.35366
1.35519
1.35686
1.35866
1.36059
1.36265
1.36484
1.36716
1.36959
1.37213
1.37479
1.37754
1.38038
1.3833
1.3863
1.38934
1.39243
1.39555
1.39867
1.40179
1.40488
1.40793
1.41091
1.41381
1.4166
1.41928
1.42181
1.42418
1.42637
1.42837
1.43016
1.43173
1.43307
1.43416
1.435
1.43557
1.43588
1.43592
1.43568
1.43516
1.43438
1.43332
1.432
1.43041
1.42858
1.4265
1.4242
1.42168
1.41896
1.41605
1.41298
1.40976
1.40642
1.40296
1.39942
1.39582
1.39218
1.38852
1.38486
1.38121
1.37762
1.37407
1.37061
1.36723
1.36395
1.36078
1.35774
1.35481
1.35202
1.34935
1.34681
1.34441
1.34212
1.33996
1.33792
1.33598
1.33416
1.33243
1.3308
1.32927
1.32782
1.32645
1.32517
1.32396
1.32283
1.32177
1.32079
1.31988
1.31903
1.31826
1.31756
1.31693
1.31636
1.31585
1.31541
1.31502
1.31469
1.31441
1.31418