/*--------------------------------*- C++ -*----------------------------------*\
| =========                 |                                                 |
| \\      /  F ield         | OpenFOAM: The Open Source CFD Toolbox           |
|  \\    /   O peration     | Version:  2406                                  |
|   \\  /    A nd           | Website:  www.openfoam.com                      |
|    \\/     M anipulation  |                                                 |
\*---------------------------------------------------------------------------*/
FoamFile
{
    version     2.0;
    format      ascii;
    arch        "LSB;label=32;scalar=64";
    class       volScalarField;
    location    "4";
    object      C_0;
}
// * * * * * * * * * * * * * * * * * * * * * * * * * * * * * * * * * * * * * //

dimensions      [1 -3 0 0 0 0 0];

internalField   nonuniform List<scalar> 
14400
(
0.446928
0.438797
0.427738
0.416698
0.40735
0.400673
0.397262
0.39747
0.401473
0.409293
0.420799
0.43567
0.453308
0.472616
0.491357
0.502611
0.500001
0.486691
0.469874
0.454525
0.44235
0.434284
0.430961
0.432876
0.440447
0.454057
0.474076
0.500865
0.534771
0.576086
0.624966
0.68116
0.742642
0.792499
0.82565
0.851866
0.874939
0.895244
0.913077
0.928666
0.942193
0.953799
0.963599
0.971683
0.978122
0.98297
0.986269
0.988046
0.98832
0.987095
0.984369
0.980128
0.974345
0.966985
0.957997
0.947318
0.934866
0.92054
0.904216
0.885736
0.864908
0.841486
0.815164
0.785517
0.742431
0.681383
0.61914
0.562927
0.513966
0.472272
0.437549
0.409419
0.387509
0.37148
0.361045
0.35597
0.356077
0.361234
0.371343
0.38633
0.406115
0.430553
0.45932
0.491572
0.524715
0.547554
0.558412
0.563325
0.562657
0.556165
0.53926
0.512854
0.48586
0.461481
0.440716
0.423912
0.411126
0.402212
0.396845
0.394513
0.3945
0.395872
0.397543
0.398487
0.398217
0.397259
0.396677
0.397593
0.400977
0.407587
0.417981
0.43254
0.451475
0.474802
0.502247
0.532877
0.563533
0.584156
0.594092
0.598869
0.464357
0.453809
0.440609
0.42815
0.417868
0.410585
0.40682
0.406896
0.410977
0.419078
0.431072
0.446657
0.465259
0.485737
0.5052
0.514492
0.512867
0.499807
0.481959
0.465651
0.4527
0.444043
0.440305
0.44197
0.449448
0.463118
0.483343
0.510481
0.544867
0.58677
0.636274
0.692858
0.753414
0.798814
0.829258
0.85501
0.877706
0.897717
0.91532
0.930729
0.944113
0.955605
0.965315
0.973328
0.979712
0.98452
0.98779
0.98955
0.989817
0.988596
0.985885
0.981669
0.975923
0.968612
0.959688
0.94909
0.936739
0.922539
0.90637
0.888085
0.8675
0.844386
0.818455
0.789336
0.750315
0.693288
0.630082
0.573001
0.523333
0.481044
0.445825
0.417296
0.395083
0.37885
0.368307
0.363223
0.363419
0.368763
0.37916
0.394536
0.414813
0.439858
0.469366
0.502403
0.534341
0.554182
0.564199
0.568906
0.568454
0.562741
0.549363
0.5249
0.497161
0.472118
0.450855
0.433733
0.42083
0.412019
0.406996
0.405269
0.406117
0.408534
0.411205
0.412634
0.411865
0.409897
0.408265
0.408315
0.411088
0.417346
0.427628
0.442294
0.461534
0.485344
0.513449
0.54482
0.573186
0.590077
0.599191
0.603646
0.491296
0.48126
0.465378
0.450672
0.438768
0.430375
0.425942
0.425768
0.430007
0.438659
0.451584
0.468496
0.488832
0.511197
0.528824
0.534424
0.533919
0.524598
0.50578
0.487806
0.473391
0.463601
0.459056
0.460231
0.467529
0.481319
0.501956
0.529786
0.565123
0.608187
0.658949
0.71641
0.771198
0.808637
0.836478
0.861209
0.883157
0.902598
0.919758
0.934817
0.947923
0.959194
0.968728
0.976603
0.982879
0.987606
0.990821
0.992547
0.992801
0.991589
0.988906
0.984739
0.979066
0.971852
0.963054
0.952615
0.940461
0.926506
0.910641
0.892734
0.872622
0.850105
0.824931
0.796764
0.76325
0.714114
0.651144
0.592992
0.542101
0.498681
0.462487
0.433166
0.410351
0.393707
0.38295
0.377847
0.378219
0.383937
0.394905
0.411046
0.432272
0.458426
0.489128
0.523074
0.551116
0.566347
0.575288
0.579646
0.579513
0.574905
0.565516
0.54672
0.519145
0.493232
0.471098
0.453363
0.440226
0.431613
0.427264
0.42674
0.429358
0.434028
0.439068
0.441858
0.4397
0.435344
0.431445
0.429715
0.431275
0.436846
0.446912
0.461786
0.481607
0.506248
0.53517
0.566278
0.588509
0.601017
0.60895
0.612878
0.521374
0.516396
0.500658
0.483716
0.469855
0.459999
0.454636
0.45411
0.458597
0.468052
0.482261
0.50089
0.52306
0.545334
0.556168
0.559691
0.559754
0.555622
0.54057
0.520731
0.504377
0.493021
0.487324
0.487795
0.494835
0.50881
0.530057
0.5589
0.595616
0.640268
0.692317
0.748761
0.791025
0.820746
0.846806
0.870192
0.891115
0.909761
0.926296
0.940858
0.953567
0.964521
0.973801
0.981474
0.987595
0.992206
0.995339
0.997017
0.997253
0.996051
0.99341
0.989316
0.983748
0.976677
0.968062
0.957853
0.945986
0.932384
0.916955
0.899587
0.880148
0.85848
0.834399
0.807692
0.778149
0.739129
0.682088
0.622956
0.570427
0.525383
0.487756
0.457258
0.433542
0.416285
0.405204
0.40007
0.400707
0.406982
0.418796
0.436061
0.45865
0.486297
0.518195
0.55115
0.57172
0.583254
0.590958
0.594876
0.595047
0.591555
0.584566
0.572874
0.55113
0.524626
0.50137
0.482751
0.469273
0.460926
0.457526
0.458732
0.464007
0.472231
0.481368
0.487251
0.481948
0.47347
0.466002
0.461602
0.461416
0.466016
0.475787
0.490964
0.511615
0.5373
0.566693
0.591593
0.606248
0.61609
0.622715
0.626037
0.553448
0.552094
0.544082
0.526477
0.510865
0.499385
0.492868
0.491889
0.496739
0.507242
0.522939
0.543391
0.566625
0.580205
0.585398
0.58841
0.589109
0.587544
0.580687
0.563234
0.545411
0.532352
0.525239
0.524826
0.531545
0.545773
0.567808
0.597934
0.636381
0.682882
0.735392
0.778799
0.809475
0.835764
0.859807
0.881639
0.901348
0.919035
0.934805
0.948753
0.960966
0.97152
0.980479
0.987898
0.993821
0.998283
1.00131
1.00293
1.00314
1.00195
0.999366
0.995366
0.989934
0.983045
0.974664
0.964748
0.953244
0.940089
0.925206
0.908511
0.889902
0.869269
0.846492
0.821453
0.794056
0.763641
0.720814
0.662628
0.608478
0.56142
0.521936
0.489897
0.464992
0.446918
0.435404
0.430226
0.43121
0.43822
0.451143
0.469862
0.494173
0.523626
0.556507
0.58118
0.594419
0.603914
0.610416
0.613853
0.614245
0.6117
0.606435
0.598838
0.586212
0.564949
0.541302
0.521665
0.507816
0.499775
0.497483
0.500682
0.509135
0.521048
0.530141
0.533081
0.530644
0.522182
0.511005
0.503412
0.501212
0.504675
0.514102
0.5296
0.551192
0.577145
0.601126
0.61639
0.626474
0.634381
0.639783
0.642517
0.586865
0.586058
0.584418
0.576237
0.560938
0.548228
0.540385
0.538825
0.544201
0.555986
0.572769
0.593608
0.606743
0.612524
0.616652
0.619443
0.620726
0.620557
0.619202
0.611789
0.595732
0.581522
0.572832
0.571441
0.577786
0.592347
0.615293
0.646776
0.686932
0.733885
0.774297
0.80406
0.829313
0.853029
0.875018
0.89521
0.913602
0.930227
0.945136
0.958383
0.970025
0.980115
0.988698
0.995818
1.00151
1.00579
1.0087
1.01024
1.01043
1.00926
1.00674
1.00285
0.997577
0.990904
0.982801
0.973232
0.962155
0.94952
0.935272
0.919347
0.90168
0.882201
0.860848
0.837572
0.81236
0.78526
0.754513
0.710974
0.656284
0.607022
0.565343
0.531467
0.505105
0.48602
0.473969
0.46873
0.470134
0.478044
0.492295
0.512711
0.538784
0.569131
0.5953
0.609991
0.619852
0.627567
0.632938
0.635873
0.636382
0.634565
0.630635
0.624931
0.617928
0.6066
0.589355
0.569266
0.555398
0.547678
0.546476
0.551206
0.562013
0.569227
0.571982
0.571865
0.572482
0.570277
0.56374
0.553767
0.550007
0.552342
0.561397
0.576858
0.598806
0.618237
0.63178
0.640933
0.648878
0.655175
0.659519
0.661732
0.621088
0.620684
0.620001
0.619113
0.613492
0.604756
0.595977
0.593795
0.599819
0.612766
0.626474
0.636659
0.641554
0.645684
0.649243
0.651982
0.653798
0.654749
0.655051
0.655016
0.649792
0.639435
0.629592
0.627468
0.633379
0.648403
0.672247
0.704447
0.744699
0.778691
0.805066
0.828255
0.850689
0.87202
0.892027
0.910581
0.927624
0.943136
0.957127
0.969617
0.980636
0.990214
0.998382
1.00517
1.01059
1.01468
1.01745
1.01891
1.01907
1.01792
1.01547
1.01171
1.00662
1.00019
0.992404
0.983224
0.972622
0.960564
0.947012
0.931927
0.91527
0.897009
0.877126
0.855625
0.832552
0.80801
0.782187
0.752519
0.711706
0.66188
0.6181
0.582334
0.554295
0.534035
0.521355
0.516029
0.517901
0.526847
0.542533
0.564675
0.591511
0.61607
0.630615
0.639682
0.647431
0.653566
0.657895
0.660322
0.660843
0.659544
0.656608
0.652321
0.647073
0.641362
0.633362
0.622055
0.610185
0.602784
0.602486
0.605855
0.608991
0.609341
0.608619
0.608535
0.609137
0.610397
0.61064
0.608224
0.605792
0.607171
0.615835
0.629246
0.642253
0.652022
0.659551
0.666682
0.67293
0.677921
0.681387
0.68316
0.655715
0.655589
0.655441
0.655488
0.656071
0.654714
0.652603
0.652798
0.657054
0.663496
0.669184
0.672387
0.675901
0.679414
0.682653
0.685445
0.687735
0.689588
0.691202
0.692897
0.695123
0.694566
0.692432
0.691348
0.696742
0.71245
0.736646
0.764949
0.791037
0.812312
0.832775
0.853204
0.873166
0.892337
0.910487
0.927464
0.943174
0.957567
0.970618
0.982323
0.992688
1.00172
1.00945
1.01587
1.02102
1.0249
1.02752
1.02888
1.02901
1.02788
1.02552
1.02189
1.01701
1.01085
1.0034
0.994637
0.984546
0.973103
0.960287
0.946078
0.930462
0.913439
0.895021
0.875252
0.854213
0.832039
0.80894
0.785211
0.75866
0.723485
0.679512
0.64266
0.612805
0.591305
0.577963
0.572502
0.574797
0.584849
0.60165
0.624555
0.644121
0.656394
0.663838
0.670691
0.676623
0.68137
0.684753
0.686676
0.687123
0.68616
0.683933
0.680671
0.67668
0.672338
0.66809
0.663804
0.657918
0.652964
0.650687
0.649563
0.64708
0.645421
0.644612
0.64452
0.645129
0.646475
0.648716
0.651863
0.653782
0.657054
0.663195
0.67038
0.676087
0.681826
0.687717
0.693313
0.698239
0.702191
0.704947
0.706361
0.690469
0.690516
0.690684
0.691123
0.692043
0.693686
0.696082
0.698236
0.700412
0.702177
0.704395
0.707165
0.710247
0.71342
0.71651
0.719412
0.722106
0.724668
0.727272
0.7302
0.733848
0.73876
0.744037
0.749283
0.758204
0.772582
0.790261
0.808356
0.824974
0.842491
0.860518
0.87862
0.896435
0.913674
0.93012
0.945613
0.960043
0.973339
0.985456
0.996369
1.00607
1.01455
1.02181
1.02786
1.03271
1.03637
1.03883
1.0401
1.04019
1.0391
1.03681
1.03334
1.02867
1.02279
1.0157
1.00738
0.997821
0.987015
0.974953
0.961634
0.947064
0.931262
0.914268
0.896149
0.877007
0.856995
0.836324
0.815276
0.794212
0.772329
0.74433
0.711298
0.67996
0.657681
0.643834
0.638135
0.640433
0.651235
0.66691
0.679263
0.687219
0.692384
0.697647
0.702622
0.706999
0.710538
0.713072
0.714505
0.714813
0.714039
0.712294
0.70975
0.706636
0.703221
0.699785
0.696556
0.693683
0.69077
0.687428
0.684398
0.68214
0.680653
0.67989
0.679803
0.680383
0.68166
0.683702
0.686583
0.690331
0.694521
0.698426
0.702399
0.706804
0.711476
0.716177
0.720616
0.724521
0.727659
0.72985
0.730976
0.725176
0.725321
0.725658
0.726276
0.727282
0.728762
0.730671
0.732744
0.734702
0.736719
0.73901
0.741632
0.744502
0.747508
0.750554
0.753586
0.756611
0.759705
0.763019
0.766781
0.771294
0.776926
0.784055
0.793144
0.803776
0.815407
0.82796
0.841737
0.856567
0.872158
0.888186
0.904323
0.920279
0.935806
0.950705
0.964823
0.978046
0.99029
1.0015
1.01163
1.02066
1.02858
1.03538
1.04106
1.0456
1.04903
1.05133
1.05251
1.05256
1.05149
1.0493
1.04599
1.04154
1.03595
1.02923
1.02136
1.01234
1.00218
0.990878
0.978442
0.964896
0.950278
0.934641
0.918067
0.900672
0.882609
0.864084
0.845356
0.826745
0.808635
0.791331
0.771475
0.750267
0.730672
0.716991
0.710882
0.711386
0.715322
0.720061
0.722627
0.725087
0.728271
0.731744
0.735152
0.738213
0.740711
0.742491
0.74346
0.743585
0.74289
0.741453
0.739399
0.736894
0.734123
0.731274
0.728491
0.72584
0.723232
0.720622
0.718276
0.716427
0.71516
0.714491
0.714417
0.714942
0.716079
0.717849
0.720253
0.723229
0.726558
0.729978
0.733519
0.737253
0.741098
0.744898
0.748454
0.75157
0.754071
0.755818
0.756716
0.759737
0.759933
0.760351
0.761039
0.762049
0.763407
0.765073
0.766933
0.768891
0.770986
0.773296
0.77585
0.77862
0.781556
0.784611
0.787767
0.791047
0.794522
0.798318
0.802611
0.807622
0.813594
0.820759
0.829276
0.839019
0.849763
0.861425
0.87401
0.887399
0.90139
0.915743
0.930208
0.944551
0.958564
0.972072
0.98493
0.997027
1.00828
1.01861
1.02799
1.03638
1.04374
1.05008
1.05537
1.05962
1.06281
1.06495
1.06603
1.06605
1.06502
1.06292
1.05976
1.05554
1.05025
1.0439
1.03649
1.02802
1.01849
1.00793
0.996359
0.983802
0.970311
0.95595
0.940808
0.925003
0.908686
0.892048
0.875319
0.858775
0.842732
0.827531
0.813564
0.800818
0.787964
0.77715
0.770011
0.766264
0.763647
0.761625
0.761338
0.762228
0.763872
0.765905
0.768027
0.76999
0.771601
0.77272
0.773259
0.773177
0.772483
0.771228
0.7695
0.767416
0.765105
0.762696
0.760292
0.757954
0.755695
0.753552
0.751655
0.750134
0.749069
0.748497
0.748434
0.748888
0.749864
0.75136
0.753353
0.755774
0.758502
0.761408
0.764445
0.767589
0.770767
0.773861
0.776732
0.779235
0.781238
0.782636
0.783354
0.794104
0.794322
0.794773
0.795481
0.796469
0.797743
0.799279
0.801025
0.802943
0.805038
0.807336
0.809851
0.812574
0.815485
0.818567
0.821824
0.825286
0.829018
0.83312
0.837724
0.842987
0.84907
0.85611
0.864183
0.873246
0.8832
0.893965
0.905478
0.917629
0.93026
0.943187
0.956215
0.969154
0.981829
0.994087
1.0058
1.01686
1.02718
1.03669
1.04534
1.0531
1.05994
1.06582
1.07074
1.07469
1.07765
1.07963
1.08061
1.08061
1.0796
1.0776
1.0746
1.07061
1.06562
1.05964
1.05267
1.04474
1.03584
1.026
1.01526
1.00364
0.991213
0.978039
0.964212
0.949846
0.935085
0.920101
0.905097
0.890306
0.875985
0.862402
0.849823
0.83845
0.828494
0.819943
0.812686
0.806877
0.802775
0.800156
0.798872
0.798617
0.799081
0.799979
0.801061
0.802119
0.802984
0.803531
0.803678
0.803381
0.802637
0.801476
0.799958
0.798164
0.796184
0.794113
0.792028
0.789989
0.788041
0.786236
0.784657
0.783386
0.782486
0.781994
0.781933
0.782311
0.783129
0.784377
0.786023
0.788013
0.790268
0.792705
0.795265
0.797893
0.800518
0.803049
0.805378
0.807398
0.80901
0.810133
0.81071
0.828252
0.828478
0.828938
0.829643
0.830603
0.831818
0.833273
0.834946
0.836818
0.838886
0.84116
0.843645
0.84634
0.849241
0.852349
0.855676
0.859256
0.863144
0.867419
0.872178
0.877532
0.883587
0.890429
0.898099
0.906583
0.915825
0.925759
0.93631
0.947377
0.958834
0.97053
0.982311
0.99402
1.00551
1.01665
1.02732
1.03742
1.04688
1.05562
1.06359
1.07076
1.07707
1.08252
1.08708
1.09074
1.09348
1.0953
1.09619
1.09615
1.09518
1.09327
1.09044
1.08667
1.08197
1.07636
1.06983
1.06242
1.05412
1.04498
1.03503
1.0243
1.01286
1.00078
0.988153
0.975084
0.961706
0.948174
0.934662
0.921367
0.908499
0.896268
0.884876
0.874491
0.865245
0.857185
0.850319
0.844711
0.840419
0.837353
0.835376
0.834286
0.833856
0.833868
0.83412
0.83444
0.834683
0.834742
0.834539
0.834032
0.833208
0.832082
0.830693
0.829096
0.827356
0.825543
0.823717
0.821934
0.820243
0.818695
0.81735
0.816267
0.815493
0.815061
0.814992
0.815294
0.815966
0.816993
0.818349
0.819987
0.821852
0.823881
0.826016
0.828199
0.830365
0.832437
0.834333
0.83597
0.837272
0.838177
0.838641
0.862174
0.8624
0.862857
0.86355
0.864482
0.865651
0.867051
0.868669
0.870496
0.872529
0.874772
0.877228
0.8799
0.882792
0.885911
0.889276
0.892918
0.896883
0.901233
0.906038
0.911376
0.917318
0.923919
0.931203
0.939161
0.947757
0.956935
0.966625
0.976738
0.987166
0.99779
1.00848
1.0191
1.02954
1.03968
1.04941
1.05864
1.0673
1.07532
1.08266
1.08925
1.09508
1.10011
1.10433
1.1077
1.11023
1.1119
1.1127
1.11263
1.11169
1.10988
1.1072
1.10365
1.09924
1.09399
1.08789
1.08097
1.07326
1.06478
1.05556
1.04567
1.03515
1.02407
1.01254
1.00063
0.988482
0.976225
0.96401
0.952003
0.940374
0.929295
0.918923
0.909393
0.900809
0.893232
0.886695
0.881228
0.876836
0.873461
0.870995
0.869293
0.86819
0.867516
0.867112
0.866836
0.866568
0.866214
0.865706
0.865
0.86408
0.862951
0.861635
0.86017
0.858603
0.856984
0.855363
0.853788
0.852302
0.850951
0.849782
0.848838
0.848157
0.847765
0.84768
0.847908
0.848447
0.849282
0.850391
0.851736
0.853272
0.85495
0.856718
0.858522
0.860304
0.862001
0.863547
0.864876
0.86593
0.866662
0.867037
0.895869
0.896092
0.896541
0.897218
0.898123
0.899255
0.90061
0.902182
0.903967
0.905962
0.908171
0.910595
0.913241
0.916114
0.919227
0.922599
0.926256
0.930238
0.93459
0.939365
0.944616
0.950391
0.956725
0.963631
0.971102
0.979107
0.987599
0.996516
1.00578
1.0153
1.02498
1.03471
1.04438
1.05388
1.06311
1.07199
1.08043
1.08836
1.09572
1.10245
1.10852
1.11389
1.11852
1.1224
1.12551
1.12784
1.12936
1.13008
1.12999
1.12908
1.12736
1.12483
1.1215
1.11737
1.11245
1.10676
1.10032
1.09316
1.0853
1.07678
1.06766
1.05799
1.04783
1.03728
1.02642
1.01537
1.00423
0.99315
0.982259
0.971701
0.961614
0.952126
0.943349
0.935367
0.928239
0.922001
0.916671
0.912238
0.908658
0.905849
0.903703
0.902095
0.900895
0.899976
0.899224
0.898539
0.897841
0.897068
0.896182
0.895162
0.894006
0.892726
0.891347
0.889901
0.888428
0.886965
0.885551
0.884226
0.883026
0.881988
0.881147
0.880531
0.880163
0.880054
0.880211
0.88063
0.881299
0.882196
0.883292
0.884551
0.88593
0.887384
0.888868
0.890329
0.891717
0.892976
0.894056
0.894912
0.895504
0.895807
0.92934
0.929559
0.929998
0.930656
0.931536
0.932636
0.933952
0.935483
0.937227
0.939183
0.941353
0.943741
0.946353
0.949197
0.952285
0.955635
0.959271
0.963222
0.967524
0.972215
0.977332
0.982906
0.988958
0.995496
1.00251
1.00997
1.01784
1.02606
1.03457
1.04329
1.05213
1.061
1.06981
1.07848
1.0869
1.09501
1.10273
1.10999
1.11673
1.12291
1.12849
1.13342
1.13769
1.14126
1.14411
1.14624
1.14763
1.14827
1.14815
1.14728
1.14565
1.14327
1.14014
1.13628
1.13169
1.12639
1.1204
1.11375
1.10648
1.09861
1.0902
1.08131
1.07199
1.06233
1.05241
1.04233
1.03219
1.0221
1.01218
1.00256
0.993334
0.984621
0.976508
0.969069
0.962356
0.9564
0.951214
0.946787
0.943083
0.940039
0.937574
0.935592
0.933992
0.932674
0.931545
0.930523
0.929541
0.928545
0.927499
0.926381
0.925185
0.923915
0.922589
0.921228
0.91986
0.918516
0.917227
0.916024
0.914938
0.913998
0.913231
0.912659
0.9123
0.912163
0.912252
0.912563
0.913086
0.913802
0.914686
0.915708
0.916833
0.918022
0.919235
0.920429
0.92156
0.922585
0.923462
0.924156
0.924636
0.924881
0.962592
0.962806
0.963233
0.963875
0.96473
0.965799
0.96708
0.968572
0.970275
0.972189
0.974317
0.976663
0.979233
0.982034
0.98508
0.988386
0.991969
0.995856
1.00007
1.00464
1.00959
1.01494
1.02071
1.02688
1.03347
1.04042
1.04772
1.05532
1.06315
1.07114
1.07924
1.08735
1.0954
1.10332
1.11101
1.11842
1.12548
1.13213
1.13831
1.14398
1.1491
1.15363
1.15755
1.16082
1.16344
1.16539
1.16664
1.16721
1.16707
1.16623
1.16469
1.16246
1.15953
1.15591
1.15163
1.1467
1.14114
1.13498
1.12824
1.12098
1.11323
1.10505
1.0965
1.08764
1.07857
1.06935
1.06009
1.05088
1.04182
1.03301
1.02454
1.01651
1.00899
1.00205
0.995715
0.99003
0.984999
0.980614
0.976848
0.973651
0.970962
0.968707
0.966806
0.965182
0.963758
0.962468
0.961254
0.960071
0.958886
0.957678
0.956436
0.955163
0.953866
0.952561
0.951269
0.950013
0.948816
0.947705
0.946703
0.945834
0.945119
0.944574
0.944214
0.944045
0.94407
0.944285
0.94468
0.94524
0.945943
0.946763
0.947672
0.948636
0.949621
0.950591
0.951509
0.952341
0.953052
0.953613
0.954001
0.9542
0.995631
0.995839
0.996255
0.996878
0.99771
0.998749
0.999996
1.00145
1.00311
1.00498
1.00706
1.00936
1.01188
1.01463
1.01762
1.02086
1.02437
1.02816
1.03226
1.03668
1.04145
1.04657
1.05204
1.05787
1.06404
1.07054
1.07732
1.08434
1.09155
1.09891
1.10633
1.11376
1.12113
1.12837
1.13541
1.14219
1.14865
1.15474
1.1604
1.1656
1.17029
1.17445
1.17804
1.18105
1.18344
1.18522
1.18635
1.18685
1.18669
1.18589
1.18443
1.18233
1.17959
1.17622
1.17223
1.16764
1.16248
1.15677
1.15054
1.14384
1.13669
1.12916
1.1213
1.11318
1.10486
1.09642
1.08794
1.0795
1.0712
1.06311
1.05532
1.0479
1.04091
1.03441
1.02843
1.023
1.01814
1.01382
1.01004
1.00676
1.00392
1.00147
0.999345
0.997489
0.995838
0.994336
0.992937
0.9916
0.990297
0.989007
0.98772
0.986433
0.98515
0.983882
0.982642
0.981449
0.980321
0.979276
0.978335
0.977516
0.976835
0.976305
0.975936
0.975734
0.975699
0.975827
0.97611
0.976534
0.977082
0.97773
0.978455
0.979228
0.980022
0.980804
0.981545
0.982217
0.982791
0.983244
0.983557
0.983717
1.02846
1.02866
1.02907
1.02967
1.03048
1.03149
1.0327
1.03412
1.03574
1.03756
1.03959
1.04184
1.0443
1.04698
1.0499
1.05306
1.05648
1.06016
1.06413
1.06839
1.07295
1.07783
1.08302
1.08852
1.0943
1.10036
1.10666
1.11317
1.11983
1.1266
1.13342
1.14024
1.14699
1.15362
1.16007
1.16627
1.17219
1.17777
1.18296
1.18772
1.19203
1.19584
1.19913
1.20188
1.20407
1.20568
1.20671
1.20714
1.20697
1.2062
1.20482
1.20285
1.20028
1.19714
1.19342
1.18916
1.18437
1.17908
1.17332
1.16713
1.16054
1.1536
1.14637
1.13891
1.13127
1.12352
1.11574
1.108
1.10037
1.09292
1.08573
1.07885
1.07234
1.06624
1.06059
1.05542
1.05072
1.0465
1.04274
1.03941
1.03648
1.0339
1.03162
1.02959
1.02777
1.0261
1.02456
1.0231
1.02169
1.02033
1.019
1.0177
1.01642
1.01517
1.01397
1.01282
1.01174
1.01074
1.00985
1.00906
1.0084
1.00788
1.00749
1.00725
1.00716
1.00721
1.0074
1.00771
1.00812
1.00862
1.00919
1.0098
1.01043
1.01106
1.01165
1.01219
1.01265
1.01301
1.01327
1.01339
1.06109
1.06129
1.06168
1.06227
1.06305
1.06403
1.06521
1.06659
1.06816
1.06994
1.07191
1.0741
1.07649
1.0791
1.08194
1.08501
1.08832
1.09188
1.0957
1.09978
1.10415
1.10878
1.11369
1.11887
1.12429
1.12995
1.13581
1.14183
1.14799
1.15423
1.16051
1.16677
1.17297
1.17905
1.18496
1.19065
1.19607
1.20118
1.20594
1.21031
1.21425
1.21774
1.22076
1.22327
1.22527
1.22674
1.22766
1.22803
1.22785
1.2271
1.22581
1.22395
1.22156
1.21862
1.21517
1.21121
1.20676
1.20186
1.19653
1.19081
1.18473
1.17834
1.17168
1.16481
1.15779
1.15067
1.14351
1.13639
1.12935
1.12248
1.11582
1.10942
1.10335
1.09763
1.09229
1.08735
1.08283
1.07872
1.07501
1.07167
1.06869
1.06603
1.06364
1.06149
1.05954
1.05775
1.05609
1.05453
1.05305
1.05163
1.05026
1.04894
1.04766
1.04642
1.04524
1.04412
1.04308
1.04211
1.04124
1.04048
1.03983
1.0393
1.0389
1.03863
1.03849
1.03847
1.03857
1.03877
1.03907
1.03944
1.03988
1.04036
1.04085
1.04134
1.04181
1.04224
1.04261
1.0429
1.0431
1.0432
1.09352
1.09371
1.09409
1.09466
1.09543
1.09638
1.09752
1.09885
1.10038
1.10211
1.10403
1.10615
1.10847
1.111
1.11375
1.11672
1.11991
1.12334
1.127
1.13091
1.13506
1.13946
1.1441
1.14897
1.15405
1.15933
1.16478
1.17037
1.17607
1.18183
1.18761
1.19338
1.19907
1.20465
1.21008
1.2153
1.22027
1.22495
1.22931
1.23331
1.23693
1.24012
1.24288
1.24518
1.247
1.24833
1.24916
1.24948
1.24928
1.24857
1.24734
1.24561
1.24336
1.24063
1.23741
1.23373
1.22961
1.22507
1.22014
1.21485
1.20924
1.20334
1.1972
1.19087
1.1844
1.17784
1.17125
1.16468
1.15818
1.15182
1.14564
1.13969
1.13401
1.12863
1.12358
1.11887
1.11453
1.11054
1.10689
1.10359
1.10059
1.09788
1.09542
1.09319
1.09115
1.08927
1.08752
1.08589
1.08434
1.08288
1.08148
1.08013
1.07885
1.07762
1.07645
1.07535
1.07433
1.07339
1.07254
1.07179
1.07114
1.0706
1.07018
1.06988
1.06968
1.0696
1.06962
1.06974
1.06994
1.07021
1.07053
1.07089
1.07127
1.07165
1.07202
1.07235
1.07264
1.07287
1.07303
1.07311
1.12577
1.12595
1.12632
1.12687
1.12761
1.12853
1.12964
1.13093
1.13241
1.13408
1.13594
1.13799
1.14024
1.14269
1.14534
1.1482
1.15127
1.15455
1.15806
1.16179
1.16574
1.1699
1.17428
1.17885
1.18362
1.18855
1.19362
1.19881
1.20408
1.20941
1.21474
1.22005
1.22529
1.23042
1.2354
1.24019
1.24475
1.24904
1.25304
1.25671
1.26002
1.26295
1.26547
1.26757
1.26922
1.27043
1.27117
1.27144
1.27123
1.27055
1.26939
1.26776
1.26567
1.26312
1.26012
1.25671
1.25288
1.24867
1.24411
1.23921
1.23402
1.22858
1.22291
1.21707
1.2111
1.20505
1.19896
1.19289
1.18688
1.18098
1.17523
1.16968
1.16436
1.1593
1.15452
1.15004
1.14587
1.14201
1.13845
1.13519
1.1322
1.12947
1.12698
1.1247
1.12259
1.12065
1.11884
1.11715
1.11556
1.11406
1.11263
1.11127
1.10998
1.10875
1.1076
1.10651
1.1055
1.10457
1.10373
1.10299
1.10234
1.10179
1.10135
1.10101
1.10077
1.10063
1.10059
1.10063
1.10074
1.10092
1.10114
1.1014
1.10169
1.10197
1.10225
1.10251
1.10273
1.10291
1.10303
1.10309
1.15782
1.158
1.15836
1.15889
1.15961
1.1605
1.16157
1.16282
1.16425
1.16586
1.16766
1.16964
1.17181
1.17417
1.17672
1.17946
1.18241
1.18555
1.1889
1.19245
1.19619
1.20013
1.20425
1.20855
1.21301
1.21762
1.22234
1.22716
1.23205
1.23697
1.24189
1.24679
1.25161
1.25633
1.26091
1.2653
1.26949
1.27343
1.2771
1.28046
1.28349
1.28617
1.28848
1.29039
1.2919
1.29299
1.29365
1.29388
1.29366
1.29301
1.29191
1.29038
1.28842
1.28605
1.28326
1.28008
1.27653
1.27263
1.2684
1.26387
1.25907
1.25404
1.2488
1.2434
1.23789
1.23229
1.22666
1.22104
1.21547
1.20998
1.20463
1.19945
1.19445
1.18969
1.18516
1.1809
1.1769
1.17317
1.16971
1.16651
1.16356
1.16084
1.15833
1.15602
1.15388
1.1519
1.15005
1.14832
1.1467
1.14516
1.14371
1.14234
1.14105
1.13982
1.13867
1.13759
1.13659
1.13567
1.13483
1.13409
1.13343
1.13287
1.13241
1.13204
1.13176
1.13157
1.13147
1.13144
1.13148
1.13158
1.13172
1.1319
1.1321
1.13231
1.13251
1.1327
1.13287
1.13301
1.1331
1.13315
1.18971
1.18988
1.19022
1.19074
1.19142
1.19228
1.19332
1.19452
1.1959
1.19746
1.19919
1.2011
1.20319
1.20545
1.2079
1.21053
1.21335
1.21635
1.21954
1.22291
1.22645
1.23017
1.23405
1.23809
1.24227
1.24656
1.25096
1.25544
1.25997
1.26453
1.26908
1.27359
1.27804
1.28238
1.28659
1.29064
1.29448
1.2981
1.30146
1.30454
1.30732
1.30977
1.31188
1.31363
1.315
1.31598
1.31657
1.31675
1.31653
1.3159
1.31487
1.31343
1.3116
1.30938
1.30679
1.30383
1.30054
1.29692
1.29299
1.2888
1.28435
1.27969
1.27485
1.26986
1.26475
1.25957
1.25435
1.24914
1.24396
1.23886
1.23387
1.22901
1.22433
1.21983
1.21555
1.21149
1.20766
1.20406
1.20071
1.19758
1.19468
1.19198
1.18949
1.18717
1.18501
1.18301
1.18114
1.17938
1.17774
1.17618
1.17472
1.17334
1.17204
1.17081
1.16966
1.16859
1.16759
1.16668
1.16584
1.1651
1.16443
1.16386
1.16337
1.16298
1.16266
1.16243
1.16227
1.16219
1.16216
1.16219
1.16226
1.16237
1.1625
1.16264
1.16279
1.16292
1.16304
1.16314
1.16321
1.16324
1.22141
1.22158
1.22191
1.22241
1.22307
1.2239
1.22489
1.22606
1.22738
1.22888
1.23055
1.23238
1.23438
1.23656
1.2389
1.24142
1.24411
1.24697
1.24999
1.25319
1.25654
1.26005
1.2637
1.26749
1.2714
1.27541
1.27951
1.28367
1.28788
1.29209
1.2963
1.30047
1.30457
1.30857
1.31245
1.31616
1.3197
1.32302
1.32611
1.32893
1.33148
1.33372
1.33564
1.33723
1.33848
1.33936
1.33988
1.34003
1.33981
1.3392
1.33823
1.33688
1.33516
1.33309
1.33068
1.32793
1.32486
1.3215
1.31786
1.31397
1.30985
1.30553
1.30105
1.29642
1.29169
1.28689
1.28204
1.2772
1.27238
1.26762
1.26296
1.25841
1.25401
1.24977
1.24571
1.24184
1.23818
1.23472
1.23148
1.22843
1.22559
1.22294
1.22046
1.21815
1.216
1.21399
1.2121
1.21034
1.20868
1.20712
1.20565
1.20426
1.20296
1.20173
1.20058
1.19951
1.19852
1.1976
1.19677
1.19602
1.19535
1.19476
1.19425
1.19383
1.19348
1.19321
1.19301
1.19287
1.19279
1.19276
1.19277
1.19282
1.19289
1.19297
1.19307
1.19316
1.19324
1.19331
1.19335
1.19338
1.25296
1.25312
1.25344
1.25391
1.25455
1.25535
1.2563
1.25742
1.2587
1.26014
1.26173
1.26349
1.26541
1.26749
1.26973
1.27213
1.27469
1.27741
1.28028
1.28331
1.28647
1.28978
1.29321
1.29677
1.30042
1.30417
1.30799
1.31186
1.31576
1.31967
1.32356
1.32742
1.3312
1.33489
1.33846
1.34188
1.34512
1.34818
1.35101
1.3536
1.35593
1.35798
1.35974
1.36119
1.36232
1.36311
1.36357
1.36369
1.36346
1.36288
1.36196
1.36069
1.35908
1.35715
1.3549
1.35234
1.34949
1.34636
1.34298
1.33937
1.33555
1.33155
1.32738
1.32309
1.3187
1.31424
1.30974
1.30523
1.30074
1.2963
1.29193
1.28767
1.28353
1.27952
1.27568
1.272
1.2685
1.26518
1.26204
1.25909
1.25631
1.25371
1.25127
1.24898
1.24684
1.24484
1.24296
1.24119
1.23952
1.23796
1.23649
1.2351
1.2338
1.23257
1.23143
1.23036
1.22937
1.22845
1.22762
1.22686
1.22618
1.22558
1.22505
1.2246
1.22423
1.22392
1.22368
1.2235
1.22337
1.22329
1.22325
1.22324
1.22326
1.2233
1.22335
1.2234
1.22345
1.22349
1.22352
1.22354
1.28434
1.28449
1.2848
1.28526
1.28587
1.28664
1.28756
1.28863
1.28985
1.29123
1.29276
1.29444
1.29628
1.29826
1.3004
1.30269
1.30512
1.3077
1.31042
1.31328
1.31627
1.31938
1.32261
1.32594
1.32936
1.33286
1.33642
1.34002
1.34364
1.34726
1.35087
1.35443
1.35792
1.36132
1.36461
1.36776
1.37075
1.37355
1.37615
1.37853
1.38067
1.38254
1.38415
1.38547
1.38649
1.3872
1.38761
1.38769
1.38746
1.3869
1.38603
1.38484
1.38333
1.38152
1.37942
1.37704
1.37438
1.37148
1.36834
1.36498
1.36143
1.35771
1.35385
1.34986
1.34578
1.34163
1.33744
1.33324
1.32905
1.3249
1.32081
1.3168
1.3129
1.30912
1.30547
1.30197
1.29863
1.29544
1.29242
1.28956
1.28686
1.28432
1.28192
1.27967
1.27755
1.27556
1.27369
1.27193
1.27027
1.26871
1.26724
1.26586
1.26455
1.26333
1.26219
1.26112
1.26013
1.25922
1.25838
1.25762
1.25693
1.25632
1.25577
1.2553
1.2549
1.25456
1.25429
1.25407
1.2539
1.25378
1.25369
1.25364
1.25362
1.25362
1.25363
1.25364
1.25367
1.25369
1.2537
1.25371
1.31557
1.31572
1.31601
1.31645
1.31704
1.31777
1.31865
1.31968
1.32085
1.32217
1.32363
1.32524
1.32699
1.32889
1.33092
1.3331
1.33541
1.33785
1.34043
1.34313
1.34594
1.34887
1.3519
1.35502
1.35822
1.36149
1.3648
1.36815
1.37152
1.37488
1.37822
1.38151
1.38474
1.38788
1.39091
1.39381
1.39655
1.39913
1.40152
1.4037
1.40566
1.40737
1.40884
1.41004
1.41096
1.41161
1.41196
1.41202
1.41178
1.41125
1.41042
1.40929
1.40788
1.40619
1.40423
1.40201
1.39953
1.39683
1.39391
1.39079
1.38749
1.38403
1.38043
1.37672
1.37293
1.36906
1.36516
1.36124
1.35732
1.35344
1.3496
1.34584
1.34216
1.33858
1.33513
1.3318
1.3286
1.32555
1.32264
1.31987
1.31725
1.31477
1.31243
1.31022
1.30814
1.30617
1.30432
1.30257
1.30092
1.29937
1.29791
1.29653
1.29523
1.29402
1.29288
1.29182
1.29083
1.28991
1.28907
1.2883
1.28761
1.28698
1.28642
1.28593
1.28551
1.28515
1.28484
1.28459
1.28438
1.28422
1.2841
1.28402
1.28396
1.28392
1.2839
1.28389
1.28388
1.28389
1.28389
1.28389
1.34665
1.34679
1.34708
1.3475
1.34806
1.34876
1.3496
1.35059
1.35171
1.35297
1.35436
1.3559
1.35756
1.35937
1.3613
1.36337
1.36556
1.36787
1.3703
1.37285
1.3755
1.37826
1.3811
1.38402
1.38702
1.39007
1.39316
1.39627
1.3994
1.40252
1.40561
1.40866
1.41164
1.41454
1.41733
1.42
1.42253
1.4249
1.4271
1.4291
1.43089
1.43246
1.43379
1.43488
1.43572
1.4363
1.4366
1.43664
1.4364
1.43589
1.4351
1.43404
1.43272
1.43113
1.4293
1.42722
1.42492
1.4224
1.41968
1.41677
1.4137
1.41048
1.40713
1.40368
1.40014
1.39654
1.39289
1.38923
1.38557
1.38192
1.37832
1.37478
1.37131
1.36793
1.36465
1.36148
1.35843
1.35551
1.35271
1.35004
1.34751
1.3451
1.34281
1.34065
1.3386
1.33667
1.33484
1.33311
1.33148
1.32994
1.32849
1.32712
1.32583
1.32462
1.32349
1.32243
1.32145
1.32053
1.31969
1.31892
1.31822
1.31758
1.31701
1.3165
1.31606
1.31567
1.31534
1.31506
1.31482
1.31463