/*--------------------------------*- C++ -*----------------------------------*\
| =========                 |                                                 |
| \\      /  F ield         | OpenFOAM: The Open Source CFD Toolbox           |
|  \\    /   O peration     | Version:  2406                                  |
|   \\  /    A nd           | Website:  www.openfoam.com                      |
|    \\/     M anipulation  |                                                 |
\*---------------------------------------------------------------------------*/
FoamFile
{
    version     2.0;
    format      ascii;
    arch        "LSB;label=32;scalar=64";
    class       volScalarField;
    location    "4";
    object      C_0_0;
}
// * * * * * * * * * * * * * * * * * * * * * * * * * * * * * * * * * * * * * //

dimensions      [1 -3 0 0 0 0 0];

internalField   nonuniform List<scalar> 
14400
(
0.447862
0.439683
0.428571
0.417485
0.408101
0.401401
0.397977
0.398184
0.402198
0.410041
0.421581
0.436499
0.454193
0.473565
0.492365
0.503642
0.501054
0.48772
0.470846
0.455447
0.443231
0.435134
0.431793
0.4337
0.441276
0.454904
0.474954
0.501786
0.535747
0.577129
0.626084
0.682355
0.743894
0.793635
0.826673
0.85287
0.875926
0.896217
0.914037
0.929616
0.943133
0.954731
0.964525
0.972603
0.979036
0.983881
0.987176
0.988951
0.989222
0.987997
0.985271
0.981029
0.975248
0.967889
0.958904
0.948228
0.93578
0.92146
0.905141
0.886669
0.865849
0.842437
0.816127
0.786498
0.743553
0.682649
0.620309
0.56399
0.514932
0.473156
0.438364
0.410179
0.388225
0.372163
0.361707
0.356623
0.356731
0.361899
0.37203
0.387049
0.406876
0.431365
0.46019
0.492497
0.525651
0.548455
0.559294
0.564201
0.563532
0.557043
0.540165
0.51375
0.486701
0.462271
0.441461
0.424624
0.411816
0.40289
0.397521
0.395197
0.395198
0.396588
0.398274
0.399223
0.398947
0.397973
0.397372
0.398273
0.401647
0.408257
0.418661
0.433241
0.452207
0.475574
0.503067
0.533745
0.564398
0.584984
0.594909
0.599683
0.465277
0.454703
0.441452
0.428948
0.418631
0.411325
0.407548
0.407623
0.411714
0.419839
0.431867
0.447499
0.46616
0.486703
0.506209
0.515499
0.513891
0.500833
0.482942
0.466589
0.453597
0.444909
0.441152
0.442809
0.450292
0.463979
0.484236
0.511418
0.54586
0.587833
0.637416
0.694076
0.754645
0.799914
0.830278
0.856011
0.87869
0.898688
0.916279
0.931677
0.945052
0.956537
0.96624
0.974247
0.980626
0.985429
0.988696
0.990454
0.990719
0.989497
0.986786
0.98257
0.976825
0.969516
0.960595
0.949999
0.937653
0.923458
0.907295
0.889017
0.86844
0.845336
0.819415
0.790309
0.751415
0.694542
0.631254
0.574073
0.524311
0.481941
0.446652
0.418068
0.395812
0.379545
0.368982
0.363888
0.364085
0.369441
0.37986
0.395269
0.415589
0.440686
0.470254
0.503354
0.535275
0.555067
0.565076
0.569779
0.569324
0.563611
0.550259
0.525804
0.498014
0.472919
0.451614
0.434457
0.421531
0.412709
0.407686
0.405968
0.406834
0.409274
0.411967
0.413402
0.412626
0.410636
0.408979
0.409009
0.411772
0.418029
0.42832
0.443006
0.462278
0.486129
0.51428
0.545698
0.574041
0.590894
0.600004
0.604457
0.492166
0.482159
0.466241
0.451494
0.439556
0.431139
0.426694
0.426519
0.43077
0.439445
0.452404
0.469363
0.489758
0.512187
0.529802
0.5354
0.534908
0.525628
0.506793
0.488778
0.474323
0.464499
0.459932
0.461098
0.468401
0.48221
0.502879
0.530753
0.566149
0.609285
0.660134
0.717698
0.772363
0.80967
0.83749
0.862204
0.884137
0.903565
0.920713
0.935762
0.948859
0.960123
0.969651
0.977519
0.983791
0.988514
0.991725
0.99345
0.993702
0.992488
0.989805
0.985638
0.979966
0.972754
0.963959
0.953522
0.941373
0.927423
0.911564
0.893663
0.873559
0.851051
0.825888
0.797734
0.7643
0.715325
0.65233
0.594088
0.543105
0.499603
0.463341
0.433963
0.411104
0.394428
0.383649
0.378536
0.37891
0.38464
0.395631
0.411806
0.433076
0.459281
0.490039
0.524029
0.552025
0.567223
0.576159
0.580513
0.580377
0.575767
0.566387
0.547622
0.52002
0.494061
0.471881
0.454111
0.440951
0.432326
0.427979
0.427467
0.43011
0.434817
0.439894
0.44269
0.440524
0.43613
0.432195
0.430438
0.431984
0.437551
0.447627
0.462522
0.482376
0.507059
0.536021
0.56715
0.589337
0.601827
0.609757
0.613683
0.522211
0.51726
0.501547
0.484573
0.47068
0.4608
0.455424
0.454897
0.459396
0.468874
0.483116
0.501787
0.52401
0.546293
0.557103
0.560641
0.560714
0.556616
0.541628
0.521756
0.50536
0.493966
0.488244
0.488704
0.49575
0.509744
0.531024
0.559914
0.596687
0.641409
0.693524
0.749978
0.792106
0.821764
0.847807
0.871179
0.892088
0.910722
0.927246
0.941799
0.9545
0.965446
0.97472
0.982388
0.988504
0.993112
0.996242
0.997917
0.998151
0.996949
0.994307
0.990213
0.984646
0.977577
0.968964
0.958758
0.946895
0.933298
0.917874
0.900513
0.881081
0.859422
0.835351
0.808657
0.779129
0.740244
0.683333
0.624095
0.571471
0.526345
0.48865
0.458095
0.434334
0.417043
0.405939
0.400795
0.401433
0.407722
0.419562
0.436863
0.459498
0.487197
0.519142
0.552092
0.572602
0.584123
0.591822
0.595736
0.595903
0.592407
0.585414
0.573749
0.552046
0.525498
0.502191
0.483533
0.47003
0.461672
0.458275
0.459498
0.464805
0.473082
0.482286
0.48816
0.482866
0.474318
0.466796
0.462363
0.462158
0.466754
0.476534
0.491734
0.512421
0.538153
0.567585
0.592432
0.60705
0.616891
0.623514
0.626835
0.554272
0.552914
0.54494
0.527365
0.511737
0.500232
0.493703
0.492723
0.497586
0.508111
0.523841
0.544316
0.567573
0.581122
0.586317
0.58934
0.590046
0.588483
0.581683
0.564314
0.546458
0.533357
0.526213
0.525789
0.532515
0.546764
0.568834
0.599008
0.637512
0.684087
0.736656
0.779919
0.810494
0.836768
0.860797
0.882616
0.902313
0.919989
0.935749
0.949689
0.961895
0.972442
0.981395
0.988809
0.994727
0.999186
1.00221
1.00383
1.00404
1.00285
1.00026
0.99626
0.990829
0.983942
0.975563
0.96565
0.95415
0.940999
0.926122
0.909432
0.89083
0.870205
0.847438
0.82241
0.795026
0.764668
0.721983
0.663788
0.609568
0.562435
0.522884
0.490788
0.465836
0.447726
0.436188
0.431
0.431985
0.439011
0.451961
0.470721
0.495081
0.524584
0.557494
0.582085
0.595286
0.604775
0.611272
0.614704
0.615092
0.612542
0.607271
0.599667
0.587077
0.565865
0.542169
0.522488
0.508614
0.500562
0.498273
0.501491
0.509973
0.521937
0.530986
0.533913
0.531488
0.523068
0.51184
0.504216
0.501995
0.505453
0.514888
0.530409
0.552042
0.578042
0.60196
0.617178
0.627265
0.635172
0.640574
0.643308
0.58768
0.586871
0.585241
0.577097
0.561861
0.549123
0.541275
0.539712
0.545104
0.55691
0.573729
0.594541
0.607652
0.613415
0.617555
0.620356
0.621647
0.621482
0.62013
0.612788
0.596837
0.582591
0.573865
0.572468
0.578825
0.593408
0.616389
0.647924
0.688122
0.735145
0.775417
0.805068
0.830312
0.854017
0.875995
0.896176
0.914558
0.931173
0.946073
0.959313
0.970948
0.981031
0.989609
0.996724
1.00241
1.00669
1.0096
1.01114
1.01132
1.01015
1.00763
1.00374
0.998469
0.991798
0.983696
0.97413
0.963056
0.950425
0.936182
0.920263
0.902602
0.883131
0.861786
0.838519
0.813318
0.78623
0.755582
0.712189
0.657441
0.608102
0.56636
0.532428
0.506016
0.486891
0.474813
0.469562
0.470969
0.478896
0.493178
0.513638
0.539768
0.570158
0.596224
0.610851
0.620709
0.62842
0.633786
0.636717
0.63722
0.635398
0.631462
0.625751
0.61874
0.607452
0.590254
0.570126
0.556239
0.548511
0.547309
0.552055
0.562864
0.570033
0.572738
0.572618
0.573237
0.571082
0.564587
0.554611
0.550833
0.553166
0.562225
0.577702
0.599687
0.619061
0.632556
0.641712
0.649659
0.655957
0.660302
0.662515
0.621897
0.621492
0.620806
0.61993
0.61435
0.60567
0.596919
0.594723
0.600777
0.613718
0.627379
0.637539
0.64242
0.646563
0.650133
0.652882
0.654705
0.655662
0.65597
0.655945
0.6508
0.640552
0.630672
0.628563
0.634496
0.649543
0.673415
0.705672
0.745896
0.779787
0.806059
0.829242
0.851669
0.872992
0.892989
0.911535
0.928569
0.944073
0.958057
0.97054
0.981553
0.991125
0.999288
1.00607
1.01149
1.01558
1.01834
1.0198
1.01995
1.01881
1.01636
1.01259
1.00751
1.00108
0.993295
0.984117
0.973519
0.961465
0.947917
0.932836
0.916185
0.89793
0.878055
0.856562
0.833497
0.808963
0.783148
0.753591
0.712921
0.663027
0.619202
0.583379
0.555287
0.534981
0.52227
0.516931
0.518807
0.527773
0.543486
0.565678
0.592564
0.617003
0.63147
0.640535
0.64828
0.654411
0.658735
0.661157
0.661673
0.660369
0.657427
0.653133
0.647877
0.642158
0.634194
0.62291
0.611061
0.603664
0.603346
0.606674
0.609782
0.610091
0.609369
0.609285
0.609886
0.611144
0.611426
0.609037
0.606644
0.60804
0.616697
0.630084
0.64306
0.652787
0.660319
0.667452
0.673703
0.678695
0.682161
0.683935
0.65652
0.656392
0.656242
0.656288
0.65687
0.655552
0.653467
0.653678
0.657933
0.664361
0.670021
0.673231
0.676757
0.680283
0.683532
0.686333
0.68863
0.690491
0.692111
0.693814
0.696052
0.695573
0.693507
0.692503
0.697935
0.713656
0.737834
0.766055
0.79207
0.813286
0.833747
0.854172
0.874129
0.893293
0.911436
0.928406
0.944109
0.958495
0.97154
0.983238
0.993597
1.00263
1.01035
1.01677
1.02191
1.02579
1.0284
1.02977
1.02989
1.02877
1.0264
1.02278
1.01789
1.01173
1.00428
0.995525
0.985437
0.973997
0.961185
0.94698
0.93137
0.914352
0.89594
0.876177
0.855144
0.832978
0.809884
0.786159
0.759712
0.724648
0.6807
0.643799
0.613889
0.592332
0.578955
0.573479
0.57578
0.585861
0.602666
0.625613
0.645064
0.657249
0.664688
0.671537
0.677465
0.682207
0.685586
0.687504
0.687945
0.686977
0.684744
0.681475
0.677477
0.673128
0.668871
0.664603
0.658729
0.653777
0.651486
0.650332
0.647829
0.64617
0.64536
0.645266
0.645875
0.64722
0.649459
0.652624
0.654571
0.657854
0.663989
0.671156
0.676842
0.682584
0.688477
0.694077
0.699004
0.702958
0.705714
0.707128
0.691269
0.691315
0.691483
0.69192
0.692838
0.694477
0.696877
0.69905
0.701219
0.702987
0.70522
0.708002
0.711095
0.714279
0.717378
0.720289
0.722991
0.72556
0.728171
0.731105
0.734761
0.739682
0.745022
0.750311
0.759251
0.773625
0.791272
0.809314
0.825926
0.843444
0.861471
0.87957
0.897381
0.914616
0.931056
0.946542
0.960967
0.974257
0.986369
0.997276
1.00697
1.01544
1.0227
1.02875
1.0336
1.03725
1.03971
1.04098
1.04107
1.03997
1.03769
1.03422
1.02955
1.02367
1.01658
1.00826
0.998706
0.987903
0.975844
0.962529
0.947963
0.932166
0.915177
0.897062
0.877926
0.857919
0.837252
0.816207
0.795145
0.773327
0.74541
0.712497
0.68113
0.658782
0.644902
0.639186
0.641487
0.652349
0.667937
0.680207
0.688078
0.693235
0.698492
0.703462
0.707834
0.711368
0.713897
0.715326
0.715628
0.714849
0.713098
0.710547
0.707427
0.704004
0.700561
0.697324
0.69444
0.691519
0.688175
0.685147
0.682887
0.681399
0.680635
0.680546
0.681126
0.682401
0.684442
0.687322
0.691066
0.695256
0.699163
0.703143
0.707552
0.712228
0.716931
0.721373
0.725279
0.728417
0.73061
0.731736
0.725972
0.726117
0.726453
0.72707
0.728076
0.729555
0.731466
0.73354
0.735505
0.73753
0.739832
0.742464
0.745343
0.748358
0.751413
0.754453
0.757485
0.760586
0.763907
0.767675
0.772195
0.777832
0.784965
0.794052
0.804688
0.81632
0.828878
0.842665
0.8575
0.873094
0.889121
0.905257
0.92121
0.936733
0.951628
0.965742
0.978959
0.991198
1.0024
1.01253
1.02156
1.02947
1.03627
1.04194
1.04648
1.04991
1.0522
1.05338
1.05343
1.05237
1.05018
1.04686
1.04241
1.03683
1.0301
1.02224
1.01322
1.00306
0.991761
0.979328
0.965787
0.951172
0.935539
0.91897
0.901578
0.883519
0.864997
0.84627
0.82766
0.809549
0.792258
0.772478
0.75134
0.731794
0.718118
0.711986
0.712434
0.716308
0.720985
0.723488
0.725939
0.729116
0.732583
0.735985
0.739041
0.741534
0.743309
0.744273
0.744393
0.743693
0.74225
0.74019
0.737678
0.734901
0.732045
0.729254
0.726597
0.723983
0.72137
0.719022
0.717172
0.715903
0.715233
0.715158
0.715681
0.716817
0.718586
0.720989
0.723964
0.727292
0.730714
0.734259
0.737996
0.741844
0.745646
0.749204
0.752321
0.754823
0.756571
0.757469
0.76053
0.760725
0.761143
0.761832
0.762842
0.7642
0.765867
0.767731
0.769694
0.771796
0.774114
0.776676
0.779455
0.782399
0.785461
0.788625
0.791911
0.795393
0.799195
0.803494
0.80851
0.814487
0.821655
0.830174
0.839919
0.850667
0.862332
0.874923
0.888316
0.902309
0.916662
0.931126
0.945468
0.959478
0.972982
0.985837
0.99793
1.00917
1.01951
1.02888
1.03726
1.04463
1.05096
1.05625
1.06049
1.06368
1.06582
1.0669
1.06692
1.06588
1.06379
1.06063
1.05641
1.05112
1.04477
1.03736
1.02889
1.01937
1.00881
0.997237
0.984684
0.971195
0.956838
0.941699
0.925897
0.909583
0.892946
0.876219
0.859675
0.84363
0.828426
0.814452
0.801737
0.788931
0.778137
0.770988
0.767202
0.764517
0.762484
0.76219
0.763073
0.76471
0.766737
0.768853
0.770811
0.772417
0.773532
0.774065
0.773978
0.773279
0.772019
0.770285
0.768194
0.765878
0.763463
0.761053
0.758709
0.756445
0.754299
0.752399
0.750877
0.74981
0.749236
0.749171
0.749624
0.750599
0.752095
0.754086
0.756507
0.759235
0.762142
0.765181
0.768328
0.771507
0.774603
0.777476
0.779979
0.781984
0.783382
0.7841
0.794893
0.795112
0.795563
0.796271
0.79726
0.798535
0.800073
0.801823
0.803745
0.805845
0.80815
0.810673
0.813403
0.81632
0.81941
0.822673
0.826141
0.829879
0.833986
0.838596
0.843864
0.84995
0.856994
0.86507
0.874136
0.884093
0.894862
0.906378
0.918531
0.931164
0.944092
0.957119
0.970057
0.982729
0.994985
1.00669
1.01775
1.02806
1.03757
1.04623
1.05398
1.06081
1.06669
1.07161
1.07555
1.07852
1.08049
1.08148
1.08147
1.08046
1.07846
1.07546
1.07147
1.06648
1.0605
1.05354
1.0456
1.0367
1.02687
1.01613
1.00452
0.992088
0.978917
0.965091
0.950728
0.935969
0.920986
0.905983
0.891191
0.876868
0.863283
0.850701
0.839327
0.829364
0.820809
0.813549
0.807737
0.803631
0.801005
0.799714
0.799453
0.799911
0.800803
0.80188
0.802933
0.803793
0.804335
0.804477
0.804175
0.803426
0.80226
0.800737
0.798937
0.796952
0.794875
0.792785
0.790742
0.788789
0.786981
0.785399
0.784125
0.783223
0.78273
0.782667
0.783044
0.783862
0.785108
0.786753
0.788743
0.790998
0.793436
0.795997
0.798627
0.801253
0.803785
0.806116
0.808137
0.80975
0.810873
0.81145
0.829038
0.829265
0.829725
0.830431
0.831392
0.832608
0.834066
0.835742
0.837617
0.839691
0.84197
0.844461
0.847162
0.85007
0.853183
0.856517
0.860102
0.863995
0.868275
0.87304
0.878398
0.884457
0.891302
0.898975
0.907461
0.916706
0.926643
0.937197
0.948267
0.959724
0.971422
0.983202
0.99491
1.0064
1.01753
1.0282
1.03831
1.04776
1.0565
1.06447
1.07163
1.07794
1.08339
1.08794
1.0916
1.09434
1.09616
1.09705
1.09701
1.09603
1.09413
1.09129
1.08752
1.08282
1.07721
1.07069
1.06327
1.05498
1.04584
1.03589
1.02516
1.01373
1.00165
0.989022
0.975955
0.962578
0.949046
0.935535
0.922239
0.909369
0.897137
0.885742
0.875354
0.866104
0.85804
0.851171
0.845559
0.841263
0.838192
0.83621
0.835113
0.834678
0.834685
0.834932
0.835246
0.835485
0.835539
0.835332
0.83482
0.833991
0.83286
0.831466
0.829864
0.828119
0.826301
0.82447
0.822683
0.820988
0.819437
0.818089
0.817003
0.816227
0.815794
0.815723
0.816024
0.816695
0.817721
0.819076
0.820714
0.822579
0.824608
0.826744
0.828928
0.831095
0.833168
0.835065
0.836703
0.838005
0.838911
0.839375
0.862957
0.863184
0.863641
0.864335
0.865267
0.866439
0.867841
0.869461
0.871292
0.873329
0.875577
0.878038
0.880716
0.883613
0.886738
0.890108
0.893755
0.897725
0.902079
0.906889
0.912231
0.918177
0.924781
0.932068
0.940029
0.948627
0.957808
0.9675
0.977614
0.988044
0.998668
1.00936
1.01998
1.03042
1.04055
1.05028
1.05951
1.06817
1.07619
1.08352
1.09011
1.09594
1.10097
1.10518
1.10855
1.11108
1.11275
1.11355
1.11348
1.11254
1.11073
1.10805
1.1045
1.10009
1.09483
1.08874
1.08182
1.07411
1.06563
1.05642
1.04652
1.036
1.02493
1.01339
1.00149
0.989343
0.977085
0.96487
0.952863
0.941233
0.930151
0.919777
0.910244
0.901657
0.894077
0.887537
0.882066
0.87767
0.874289
0.871819
0.870112
0.869004
0.868325
0.867916
0.867635
0.867363
0.867004
0.866491
0.865781
0.864856
0.863722
0.862402
0.860932
0.859361
0.857737
0.856112
0.854533
0.853043
0.851689
0.850517
0.849571
0.848888
0.848494
0.848407
0.848634
0.849172
0.850007
0.851114
0.852459
0.853995
0.855674
0.857442
0.859247
0.86103
0.862727
0.864273
0.865603
0.866658
0.86739
0.867765
0.896648
0.896872
0.897322
0.897999
0.898905
0.900039
0.901396
0.902971
0.904759
0.906758
0.908971
0.9114
0.91405
0.916928
0.920046
0.923422
0.927085
0.931071
0.935427
0.940206
0.945461
0.95124
0.957576
0.964485
0.971959
0.979966
0.98846
0.99738
1.00665
1.01617
1.02585
1.03558
1.04524
1.05474
1.06398
1.07285
1.08129
1.08922
1.09657
1.10331
1.10937
1.11474
1.11937
1.12325
1.12636
1.12868
1.1302
1.13092
1.13082
1.12992
1.1282
1.12567
1.12234
1.11821
1.11329
1.1076
1.10116
1.094
1.08614
1.07763
1.0685
1.05883
1.04868
1.03813
1.02727
1.01622
1.00508
0.993999
0.983107
0.972548
0.962459
0.952969
0.944189
0.936204
0.929073
0.922832
0.917498
0.913061
0.909477
0.906663
0.904513
0.9029
0.901696
0.900773
0.900016
0.899326
0.898623
0.897847
0.896956
0.895932
0.894771
0.893487
0.892103
0.890654
0.889176
0.887709
0.886292
0.884963
0.88376
0.88272
0.881876
0.881259
0.880888
0.880778
0.880934
0.881351
0.882019
0.882916
0.884012
0.88527
0.886649
0.888104
0.889588
0.89105
0.892438
0.893697
0.894778
0.895634
0.896227
0.89653
0.930116
0.930335
0.930774
0.931434
0.932315
0.933416
0.934735
0.936268
0.938015
0.939974
0.942148
0.94454
0.947156
0.950004
0.953096
0.956451
0.960091
0.964046
0.968352
0.973047
0.978167
0.983744
0.989799
0.996339
1.00335
1.01082
1.01869
1.02691
1.03542
1.04414
1.05298
1.06186
1.07067
1.07933
1.08776
1.09586
1.10358
1.11084
1.11758
1.12376
1.12933
1.13426
1.13853
1.14209
1.14495
1.14708
1.14846
1.1491
1.14898
1.14811
1.14648
1.1441
1.14097
1.13711
1.13252
1.12722
1.12123
1.11459
1.10731
1.09945
1.09104
1.08214
1.07283
1.06317
1.05325
1.04317
1.03303
1.02294
1.01302
1.00339
0.994168
0.985452
0.977338
0.969896
0.96318
0.957221
0.952032
0.947601
0.943893
0.940845
0.938375
0.936389
0.934784
0.933462
0.932329
0.931303
0.930316
0.929316
0.928266
0.927144
0.925944
0.924671
0.92334
0.921975
0.920604
0.919256
0.917963
0.916757
0.915668
0.914725
0.913956
0.913382
0.913021
0.912883
0.912971
0.913281
0.913803
0.914518
0.915402
0.916423
0.917548
0.918737
0.91995
0.921144
0.922276
0.923301
0.924178
0.924872
0.925352
0.925598
0.963364
0.963578
0.964006
0.964648
0.965504
0.966575
0.967857
0.969352
0.971058
0.972975
0.975106
0.977456
0.980029
0.982835
0.985884
0.989193
0.992781
0.996671
1.00089
1.00546
1.01042
1.01577
1.02154
1.02772
1.0343
1.04126
1.04856
1.05616
1.06399
1.07199
1.08008
1.0882
1.09625
1.10416
1.11186
1.11927
1.12632
1.13297
1.13915
1.14482
1.14993
1.15446
1.15838
1.16165
1.16427
1.16621
1.16747
1.16803
1.1679
1.16706
1.16552
1.16328
1.16035
1.15674
1.15246
1.14752
1.14196
1.1358
1.12907
1.12181
1.11406
1.10588
1.09732
1.08847
1.07939
1.07018
1.06092
1.0517
1.04264
1.03383
1.02537
1.01734
1.00981
1.00286
0.996529
0.99084
0.985806
0.981418
0.977648
0.974447
0.971754
0.969495
0.967591
0.965962
0.964535
0.963241
0.962023
0.960836
0.959647
0.958434
0.957189
0.955912
0.954611
0.953303
0.952007
0.950747
0.949548
0.948434
0.947429
0.946557
0.94584
0.945293
0.944931
0.944761
0.944785
0.944999
0.945393
0.945952
0.946654
0.947474
0.948382
0.949346
0.950331
0.951301
0.95222
0.953051
0.953763
0.954324
0.954713
0.954911
0.996398
0.996606
0.997023
0.997647
0.99848
0.999521
1.00077
1.00223
1.00389
1.00576
1.00785
1.01015
1.01267
1.01542
1.01841
1.02166
1.02517
1.02897
1.03307
1.0375
1.04226
1.04738
1.05286
1.05869
1.06487
1.07136
1.07814
1.08517
1.09239
1.09974
1.10716
1.1146
1.12196
1.1292
1.13624
1.14302
1.14948
1.15557
1.16123
1.16643
1.17112
1.17527
1.17887
1.18187
1.18426
1.18604
1.18717
1.18767
1.18751
1.18671
1.18525
1.18315
1.1804
1.17703
1.17304
1.16846
1.1633
1.15759
1.15136
1.14465
1.13751
1.12998
1.12212
1.114
1.10568
1.09724
1.08876
1.08032
1.07202
1.06393
1.05613
1.04871
1.04172
1.03521
1.02923
1.0238
1.01893
1.01462
1.01083
1.00754
1.0047
1.00225
1.00012
0.998262
0.996607
0.995101
0.993698
0.992358
0.991051
0.989757
0.988467
0.987176
0.98589
0.984618
0.983375
0.982179
0.981047
0.98
0.979057
0.978235
0.977552
0.97702
0.976649
0.976445
0.976409
0.976536
0.976818
0.977242
0.977788
0.978436
0.979161
0.979934
0.980727
0.981509
0.982251
0.982922
0.983496
0.983949
0.984263
0.984423
1.02922
1.02943
1.02983
1.03044
1.03125
1.03226
1.03347
1.03489
1.03651
1.03834
1.04037
1.04262
1.04508
1.04777
1.05069
1.05385
1.05727
1.06096
1.06493
1.06919
1.07376
1.07864
1.08383
1.08933
1.09512
1.10118
1.10748
1.11399
1.12065
1.12742
1.13424
1.14106
1.14781
1.15444
1.16089
1.1671
1.17301
1.17859
1.18378
1.18854
1.19284
1.19665
1.19994
1.20269
1.20488
1.20649
1.20752
1.20795
1.20778
1.207
1.20563
1.20365
1.20109
1.19794
1.19423
1.18997
1.18518
1.17989
1.17413
1.16793
1.16135
1.15441
1.14718
1.13972
1.13208
1.12433
1.11655
1.10881
1.10117
1.09373
1.08653
1.07965
1.07313
1.06704
1.06139
1.05621
1.05151
1.04729
1.04352
1.04019
1.03726
1.03467
1.03239
1.03036
1.02853
1.02686
1.02531
1.02385
1.02244
1.02108
1.01974
1.01844
1.01715
1.0159
1.0147
1.01354
1.01246
1.01146
1.01056
1.00978
1.00911
1.00859
1.0082
1.00796
1.00787
1.00792
1.0081
1.00841
1.00882
1.00932
1.00989
1.0105
1.01113
1.01176
1.01235
1.01289
1.01335
1.01371
1.01397
1.01409
1.06185
1.06204
1.06244
1.06303
1.06381
1.06479
1.06597
1.06735
1.06893
1.0707
1.07268
1.07487
1.07727
1.07988
1.08272
1.08579
1.08911
1.09267
1.09649
1.10058
1.10494
1.10958
1.11449
1.11967
1.1251
1.13076
1.13662
1.14264
1.1488
1.15504
1.16132
1.16759
1.17378
1.17986
1.18577
1.19146
1.19688
1.20199
1.20675
1.21111
1.21506
1.21855
1.22156
1.22408
1.22607
1.22754
1.22846
1.22883
1.22865
1.2279
1.2266
1.22475
1.22235
1.21942
1.21596
1.21201
1.20756
1.20266
1.19733
1.19161
1.18553
1.17914
1.17248
1.16561
1.15859
1.15146
1.14431
1.13718
1.13015
1.12327
1.11661
1.11022
1.10414
1.09841
1.09307
1.08813
1.08361
1.07949
1.07578
1.07245
1.06946
1.06679
1.0644
1.06225
1.06029
1.0585
1.05684
1.05527
1.05379
1.05237
1.051
1.04967
1.04838
1.04715
1.04596
1.04484
1.04379
1.04283
1.04196
1.04119
1.04054
1.04001
1.03961
1.03933
1.03919
1.03917
1.03926
1.03947
1.03977
1.04014
1.04058
1.04105
1.04155
1.04204
1.04251
1.04294
1.0433
1.04359
1.04379
1.04389
1.09428
1.09447
1.09485
1.09542
1.09618
1.09713
1.09828
1.09961
1.10114
1.10287
1.10479
1.10691
1.10924
1.11177
1.11452
1.11749
1.12069
1.12412
1.12778
1.1317
1.13585
1.14025
1.14489
1.14976
1.15485
1.16013
1.16558
1.17117
1.17687
1.18263
1.18842
1.19418
1.19988
1.20546
1.21088
1.2161
1.22107
1.22575
1.23011
1.23411
1.23772
1.24092
1.24368
1.24598
1.2478
1.24912
1.24995
1.25027
1.25007
1.24936
1.24813
1.2464
1.24415
1.24142
1.2382
1.23452
1.2304
1.22586
1.22093
1.21564
1.21003
1.20413
1.19799
1.19166
1.18519
1.17863
1.17203
1.16546
1.15897
1.1526
1.14642
1.14047
1.13478
1.1294
1.12435
1.11965
1.1153
1.1113
1.10766
1.10435
1.10135
1.09863
1.09617
1.09394
1.09189
1.09001
1.08826
1.08662
1.08508
1.08361
1.0822
1.08086
1.07957
1.07834
1.07717
1.07607
1.07504
1.0741
1.07324
1.07249
1.07184
1.0713
1.07088
1.07057
1.07038
1.0703
1.07032
1.07043
1.07063
1.0709
1.07122
1.07158
1.07196
1.07234
1.07271
1.07304
1.07333
1.07356
1.07372
1.0738
1.12651
1.1267
1.12707
1.12762
1.12836
1.12928
1.13039
1.13168
1.13316
1.13483
1.1367
1.13875
1.141
1.14345
1.1461
1.14896
1.15204
1.15533
1.15884
1.16257
1.16652
1.17068
1.17506
1.17964
1.1844
1.18933
1.19441
1.1996
1.20487
1.2102
1.21553
1.22084
1.22608
1.23121
1.23619
1.24098
1.24554
1.24983
1.25383
1.2575
1.26081
1.26373
1.26626
1.26835
1.27001
1.27121
1.27195
1.27222
1.27202
1.27133
1.27017
1.26854
1.26645
1.2639
1.26091
1.25749
1.25366
1.24945
1.24489
1.23999
1.23481
1.22936
1.22369
1.21785
1.21188
1.20583
1.19974
1.19367
1.18765
1.18175
1.17601
1.17045
1.16513
1.16007
1.15528
1.1508
1.14663
1.14276
1.1392
1.13594
1.13295
1.13022
1.12772
1.12544
1.12333
1.12139
1.11958
1.11788
1.11629
1.11478
1.11335
1.11199
1.11069
1.10947
1.10831
1.10722
1.1062
1.10527
1.10443
1.10368
1.10303
1.10249
1.10204
1.1017
1.10146
1.10132
1.10128
1.10132
1.10143
1.1016
1.10183
1.10209
1.10237
1.10266
1.10294
1.1032
1.10342
1.10359
1.10372
1.10378
1.15857
1.15874
1.1591
1.15964
1.16035
1.16124
1.16231
1.16356
1.165
1.16661
1.16841
1.17039
1.17256
1.17492
1.17748
1.18023
1.18317
1.18632
1.18967
1.19321
1.19696
1.2009
1.20503
1.20933
1.21379
1.21839
1.22312
1.22794
1.23283
1.23775
1.24268
1.24757
1.25239
1.25711
1.26169
1.26609
1.27027
1.27422
1.27788
1.28124
1.28427
1.28695
1.28926
1.29117
1.29268
1.29377
1.29443
1.29465
1.29444
1.29378
1.29269
1.29116
1.2892
1.28682
1.28403
1.28086
1.27731
1.2734
1.26917
1.26464
1.25984
1.25481
1.24957
1.24418
1.23866
1.23306
1.22743
1.22181
1.21623
1.21075
1.2054
1.20021
1.19522
1.19045
1.18592
1.18165
1.17765
1.17392
1.17046
1.16725
1.1643
1.16158
1.15907
1.15675
1.15461
1.15263
1.15078
1.14904
1.14742
1.14588
1.14443
1.14305
1.14175
1.14053
1.13937
1.13829
1.13729
1.13636
1.13553
1.13478
1.13412
1.13356
1.1331
1.13273
1.13245
1.13226
1.13215
1.13212
1.13216
1.13226
1.1324
1.13258
1.13278
1.13299
1.13319
1.13338
1.13355
1.13368
1.13378
1.13382
1.19044
1.19061
1.19096
1.19147
1.19216
1.19302
1.19406
1.19526
1.19665
1.1982
1.19993
1.20184
1.20393
1.2062
1.20865
1.21129
1.21411
1.21711
1.2203
1.22367
1.22721
1.23093
1.23482
1.23886
1.24303
1.24733
1.25173
1.25621
1.26075
1.2653
1.26985
1.27437
1.27881
1.28316
1.28737
1.29141
1.29525
1.29887
1.30223
1.30532
1.30809
1.31054
1.31265
1.3144
1.31577
1.31675
1.31733
1.31752
1.3173
1.31667
1.31563
1.3142
1.31237
1.31015
1.30755
1.3046
1.3013
1.29768
1.29376
1.28956
1.28512
1.28046
1.27561
1.27062
1.26551
1.26033
1.25511
1.2499
1.24472
1.23961
1.23462
1.22977
1.22508
1.22058
1.21629
1.21223
1.2084
1.20481
1.20145
1.19832
1.19541
1.19272
1.19021
1.18789
1.18574
1.18373
1.18185
1.1801
1.17845
1.1769
1.17543
1.17405
1.17274
1.17151
1.17036
1.16928
1.16829
1.16737
1.16653
1.16578
1.16512
1.16454
1.16406
1.16366
1.16334
1.16311
1.16295
1.16286
1.16284
1.16287
1.16294
1.16305
1.16317
1.16332
1.16346
1.1636
1.16372
1.16381
1.16388
1.16392
1.22214
1.22231
1.22264
1.22314
1.2238
1.22463
1.22563
1.22679
1.22812
1.22962
1.23128
1.23312
1.23512
1.2373
1.23965
1.24217
1.24486
1.24772
1.25074
1.25394
1.25729
1.2608
1.26446
1.26825
1.27216
1.27617
1.28027
1.28443
1.28864
1.29286
1.29707
1.30124
1.30534
1.30934
1.31321
1.31693
1.32046
1.32378
1.32687
1.32969
1.33224
1.33448
1.33641
1.338
1.33924
1.34012
1.34064
1.34079
1.34057
1.33996
1.33898
1.33763
1.33592
1.33385
1.33143
1.32868
1.32562
1.32226
1.31862
1.31473
1.31061
1.30629
1.3018
1.29717
1.29244
1.28764
1.28279
1.27795
1.27313
1.26837
1.2637
1.25916
1.25475
1.25051
1.24645
1.24258
1.23891
1.23546
1.23221
1.22916
1.22632
1.22366
1.22118
1.21887
1.21672
1.2147
1.21282
1.21105
1.20939
1.20782
1.20635
1.20496
1.20365
1.20243
1.20127
1.2002
1.19921
1.19829
1.19745
1.1967
1.19603
1.19544
1.19493
1.1945
1.19416
1.19388
1.19368
1.19354
1.19346
1.19343
1.19344
1.19349
1.19356
1.19364
1.19373
1.19382
1.19391
1.19397
1.19402
1.19404
1.25368
1.25384
1.25416
1.25464
1.25528
1.25607
1.25703
1.25815
1.25943
1.26086
1.26246
1.26422
1.26614
1.26823
1.27047
1.27287
1.27543
1.27815
1.28103
1.28405
1.28722
1.29053
1.29396
1.29752
1.30117
1.30492
1.30874
1.31261
1.31652
1.32043
1.32432
1.32817
1.33195
1.33564
1.33921
1.34263
1.34588
1.34893
1.35176
1.35435
1.35669
1.35874
1.36049
1.36194
1.36307
1.36387
1.36433
1.36444
1.36421
1.36363
1.3627
1.36144
1.35983
1.3579
1.35564
1.35308
1.35023
1.34711
1.34373
1.34012
1.3363
1.33229
1.32813
1.32383
1.31944
1.31498
1.31048
1.30597
1.30148
1.29704
1.29267
1.2884
1.28426
1.28025
1.27641
1.27273
1.26922
1.2659
1.26276
1.25981
1.25703
1.25442
1.25198
1.24969
1.24755
1.24554
1.24366
1.24189
1.24022
1.23866
1.23718
1.23579
1.23449
1.23326
1.23211
1.23104
1.23005
1.22913
1.22829
1.22753
1.22685
1.22625
1.22572
1.22527
1.22489
1.22459
1.22434
1.22416
1.22403
1.22395
1.22391
1.22391
1.22393
1.22396
1.22401
1.22406
1.22411
1.22415
1.22418
1.2242
1.28506
1.28521
1.28552
1.28598
1.28659
1.28736
1.28827
1.28935
1.29057
1.29195
1.29348
1.29517
1.297
1.29899
1.30113
1.30342
1.30585
1.30844
1.31116
1.31402
1.31701
1.32012
1.32335
1.32668
1.3301
1.3336
1.33716
1.34076
1.34439
1.34801
1.35161
1.35518
1.35867
1.36207
1.36536
1.36851
1.37149
1.3743
1.3769
1.37928
1.38141
1.38329
1.38489
1.38621
1.38723
1.38795
1.38835
1.38844
1.3882
1.38764
1.38677
1.38558
1.38407
1.38226
1.38016
1.37778
1.37512
1.37222
1.36908
1.36572
1.36217
1.35845
1.35458
1.3506
1.34651
1.34236
1.33817
1.33397
1.32978
1.32563
1.32154
1.31753
1.31363
1.30984
1.3062
1.30269
1.29935
1.29616
1.29313
1.29027
1.28757
1.28502
1.28263
1.28037
1.27825
1.27626
1.27439
1.27262
1.27096
1.2694
1.26793
1.26654
1.26524
1.26401
1.26287
1.2618
1.26081
1.25989
1.25905
1.25829
1.2576
1.25698
1.25644
1.25597
1.25556
1.25523
1.25495
1.25473
1.25456
1.25444
1.25435
1.2543
1.25428
1.25427
1.25428
1.2543
1.25432
1.25434
1.25436
1.25436
1.31628
1.31643
1.31672
1.31716
1.31775
1.31848
1.31937
1.32039
1.32157
1.32289
1.32435
1.32596
1.32771
1.32961
1.33164
1.33382
1.33613
1.33858
1.34115
1.34385
1.34667
1.3496
1.35263
1.35575
1.35895
1.36222
1.36554
1.36889
1.37225
1.37561
1.37895
1.38225
1.38547
1.38861
1.39164
1.39454
1.39729
1.39987
1.40226
1.40444
1.40639
1.40811
1.40957
1.41077
1.4117
1.41234
1.41269
1.41275
1.41251
1.41198
1.41115
1.41003
1.40861
1.40692
1.40496
1.40274
1.40026
1.39756
1.39464
1.39152
1.38821
1.38476
1.38116
1.37745
1.37365
1.36979
1.36588
1.36196
1.35804
1.35416
1.35032
1.34655
1.34288
1.3393
1.33584
1.33251
1.32931
1.32626
1.32334
1.32058
1.31796
1.31547
1.31313
1.31092
1.30883
1.30686
1.30501
1.30326
1.30161
1.30005
1.29859
1.29721
1.29591
1.29469
1.29355
1.29249
1.2915
1.29058
1.28974
1.28897
1.28827
1.28764
1.28709
1.28659
1.28617
1.2858
1.28549
1.28524
1.28504
1.28488
1.28476
1.28467
1.28461
1.28457
1.28455
1.28454
1.28453
1.28454
1.28454
1.28454
1.34736
1.3475
1.34778
1.3482
1.34876
1.34947
1.35031
1.35129
1.35241
1.35367
1.35507
1.35661
1.35828
1.36008
1.36201
1.36408
1.36627
1.36859
1.37102
1.37357
1.37622
1.37898
1.38182
1.38475
1.38774
1.39079
1.39388
1.397
1.40012
1.40324
1.40634
1.40938
1.41237
1.41526
1.41806
1.42073
1.42326
1.42563
1.42782
1.42982
1.43162
1.43319
1.43452
1.43561
1.43645
1.43702
1.43733
1.43736
1.43712
1.43661
1.43582
1.43476
1.43344
1.43185
1.43002
1.42794
1.42564
1.42312
1.4204
1.41749
1.41442
1.4112
1.40785
1.4044
1.40086
1.39725
1.39361
1.38994
1.38628
1.38264
1.37903
1.37549
1.37202
1.36864
1.36536
1.36219
1.35914
1.35621
1.35341
1.35074
1.3482
1.34579
1.3435
1.34133
1.33929
1.33735
1.33552
1.33379
1.33216
1.33062
1.32916
1.32779
1.3265
1.32529
1.32416
1.3231
1.32211
1.3212
1.32035
1.31958
1.31887
1.31824