/*--------------------------------*- C++ -*----------------------------------*\
| =========                 |                                                 |
| \\      /  F ield         | OpenFOAM: The Open Source CFD Toolbox           |
|  \\    /   O peration     | Version:  2406                                  |
|   \\  /    A nd           | Website:  www.openfoam.com                      |
|    \\/     M anipulation  |                                                 |
\*---------------------------------------------------------------------------*/
FoamFile
{
    version     2.0;
    format      ascii;
    arch        "LSB;label=32;scalar=64";
    class       volScalarField;
    location    "8.9";
    object      C;
}
// * * * * * * * * * * * * * * * * * * * * * * * * * * * * * * * * * * * * * //

dimensions      [1 -3 0 0 0 0 0];

internalField   nonuniform List<scalar> 
14400
(
0.21703
0.216207
0.214754
0.212968
0.211161
0.209607
0.208511
0.207999
0.208121
0.208841
0.210045
0.211527
0.212995
0.214078
0.21437
0.213522
0.211407
0.208254
0.204488
0.200573
0.196932
0.193924
0.191846
0.19096
0.191505
0.193725
0.197875
0.204226
0.213064
0.224684
0.239394
0.257509
0.279358
0.305275
0.335578
0.370512
0.410064
0.453022
0.489653
0.514819
0.533858
0.550131
0.563878
0.575282
0.584484
0.591588
0.596676
0.599802
0.601004
0.6003
0.597692
0.593164
0.586684
0.5782
0.567637
0.554899
0.539855
0.522337
0.502125
0.474654
0.435826
0.392816
0.35345
0.318779
0.288773
0.263164
0.241619
0.223791
0.209337
0.197915
0.189186
0.182818
0.178513
0.176019
0.175147
0.175767
0.177796
0.181195
0.185955
0.19209
0.19962
0.208552
0.218843
0.230354
0.242756
0.255339
0.266336
0.272351
0.271382
0.265407
0.257258
0.248743
0.240605
0.233234
0.226839
0.221513
0.217263
0.214033
0.211717
0.210174
0.209241
0.208751
0.208561
0.208576
0.208774
0.209218
0.210043
0.211433
0.213595
0.216737
0.221053
0.226703
0.233809
0.242433
0.25256
0.264064
0.276651
0.289717
0.30196
0.309565
0.222492
0.221465
0.219688
0.217553
0.215433
0.213636
0.212384
0.211811
0.211967
0.21282
0.214252
0.216052
0.217908
0.2194
0.220025
0.219278
0.216902
0.213283
0.209001
0.204611
0.200576
0.197263
0.19497
0.193952
0.194444
0.196682
0.200915
0.207405
0.216433
0.228289
0.243278
0.261717
0.283933
0.310259
0.341002
0.376375
0.416284
0.459335
0.494314
0.517902
0.536623
0.552656
0.566221
0.577485
0.58658
0.593606
0.598637
0.601726
0.602909
0.602204
0.599612
0.595117
0.588689
0.580277
0.569814
0.557204
0.542328
0.52503
0.505109
0.479273
0.441929
0.39855
0.358726
0.323588
0.293132
0.267101
0.245166
0.226982
0.212205
0.200495
0.191518
0.184949
0.180494
0.177904
0.176989
0.177617
0.179707
0.183221
0.188154
0.194522
0.202354
0.211662
0.222412
0.234474
0.24754
0.260903
0.272391
0.278187
0.277886
0.271788
0.263147
0.25415
0.24559
0.237869
0.2312
0.225675
0.221302
0.218018
0.215713
0.214231
0.213391
0.213
0.212887
0.21293
0.213102
0.213474
0.214209
0.21552
0.217638
0.220791
0.225181
0.230978
0.238306
0.24723
0.25774
0.26972
0.282881
0.296584
0.309131
0.315942
0.233932
0.232418
0.229918
0.227031
0.224255
0.221957
0.220386
0.219685
0.219909
0.221026
0.222918
0.225366
0.22803
0.230414
0.231827
0.231379
0.228347
0.223663
0.218273
0.212899
0.20806
0.204132
0.201405
0.20012
0.200499
0.202764
0.207149
0.213906
0.223301
0.235619
0.25116
0.270238
0.293182
0.320321
0.351948
0.38821
0.428745
0.471136
0.502586
0.523957
0.542077
0.557651
0.570864
0.581858
0.590746
0.597618
0.602539
0.605557
0.606704
0.605995
0.603433
0.599003
0.592676
0.584408
0.574135
0.561776
0.547224
0.530344
0.510968
0.487618
0.453305
0.409884
0.369326
0.333294
0.301944
0.275073
0.252366
0.233478
0.218065
0.20579
0.196326
0.189359
0.184605
0.181822
0.180818
0.181463
0.183676
0.187423
0.192703
0.199543
0.207979
0.218033
0.229681
0.242803
0.257094
0.271781
0.283811
0.2892
0.289754
0.284313
0.274981
0.265102
0.255731
0.247332
0.240133
0.234229
0.229624
0.226252
0.223987
0.222652
0.222026
0.221862
0.221924
0.222033
0.222139
0.222343
0.222868
0.22399
0.225995
0.229144
0.233663
0.239733
0.247484
0.256985
0.26823
0.281106
0.295324
0.310145
0.322565
0.327661
0.252354
0.249868
0.24607
0.241928
0.238102
0.235022
0.232958
0.232059
0.232381
0.233893
0.236477
0.239914
0.243851
0.247732
0.250651
0.251034
0.246538
0.23992
0.232708
0.225796
0.219731
0.214874
0.21149
0.209794
0.209988
0.212272
0.216862
0.223992
0.233915
0.246904
0.263253
0.283275
0.307295
0.335636
0.368579
0.406224
0.447866
0.486719
0.513074
0.532806
0.550076
0.565008
0.577724
0.588335
0.59693
0.603581
0.608343
0.611258
0.612353
0.611641
0.609123
0.604786
0.598605
0.590543
0.580544
0.568541
0.554446
0.538157
0.519548
0.498422
0.46884
0.427
0.385446
0.348071
0.315388
0.287268
0.263417
0.243492
0.22715
0.214052
0.203881
0.196334
0.19114
0.188067
0.186931
0.187602
0.190003
0.194104
0.199911
0.20746
0.216797
0.227951
0.240907
0.255539
0.271481
0.287654
0.299513
0.304497
0.305772
0.302529
0.292893
0.281833
0.271317
0.261953
0.254002
0.247568
0.242654
0.239191
0.237037
0.235983
0.235751
0.236007
0.236398
0.23663
0.236603
0.23648
0.236604
0.237366
0.239133
0.242221
0.246887
0.253325
0.26167
0.27199
0.284266
0.298362
0.313888
0.329646
0.340166
0.343722
0.279192
0.27477
0.268835
0.262818
0.257504
0.253347
0.250612
0.249442
0.249888
0.25192
0.255421
0.260179
0.265853
0.27189
0.277287
0.279464
0.27215
0.26249
0.252689
0.243695
0.236
0.229911
0.225648
0.223391
0.223314
0.225592
0.23042
0.238012
0.248606
0.262462
0.279866
0.301121
0.326542
0.356425
0.390984
0.430078
0.471845
0.503872
0.525597
0.544116
0.560414
0.574578
0.586691
0.596829
0.605057
0.611431
0.615995
0.61878
0.619809
0.619093
0.61663
0.612412
0.606417
0.598613
0.588957
0.577396
0.563864
0.548288
0.530588
0.510695
0.486383
0.449962
0.407206
0.368114
0.333702
0.30395
0.278602
0.257326
0.239779
0.225626
0.21455
0.206263
0.200507
0.197064
0.19576
0.196473
0.199131
0.203708
0.210219
0.218706
0.22922
0.241799
0.25643
0.272972
0.290931
0.308314
0.318507
0.323277
0.32515
0.324144
0.316607
0.304504
0.292661
0.282121
0.273243
0.266161
0.260894
0.257376
0.255455
0.254887
0.255324
0.25631
0.257298
0.25775
0.257463
0.256735
0.256147
0.256277
0.257609
0.260525
0.265313
0.272182
0.281261
0.292606
0.306162
0.32171
0.33858
0.353677
0.360547
0.363191
0.315539
0.307674
0.298635
0.290126
0.282905
0.277392
0.273817
0.272308
0.272905
0.275572
0.280191
0.286547
0.294283
0.302777
0.31038
0.31105
0.304315
0.291262
0.278391
0.266914
0.257261
0.249673
0.244322
0.241356
0.240915
0.243154
0.248243
0.256377
0.267775
0.282685
0.301381
0.32415
0.351275
0.382989
0.419361
0.459688
0.496744
0.521286
0.540448
0.557646
0.572886
0.586201
0.597634
0.607232
0.615039
0.621092
0.625425
0.628059
0.629011
0.62829
0.625894
0.621815
0.616037
0.608535
0.599276
0.588222
0.575327
0.560542
0.54382
0.525121
0.504327
0.475445
0.434164
0.393578
0.357171
0.325447
0.298273
0.27535
0.256341
0.240915
0.22876
0.219598
0.213182
0.209309
0.207819
0.208599
0.211586
0.216761
0.224142
0.233776
0.245717
0.260002
0.276607
0.295334
0.315387
0.332092
0.340138
0.344937
0.347343
0.347489
0.344081
0.333008
0.320027
0.308218
0.298297
0.290483
0.284844
0.281338
0.279822
0.280026
0.281532
0.283734
0.285805
0.286672
0.285872
0.284039
0.282247
0.281355
0.281973
0.284549
0.289404
0.296741
0.306669
0.319213
0.334226
0.351249
0.368717
0.379097
0.383222
0.385302
0.352405
0.346887
0.335166
0.323964
0.314582
0.307511
0.302962
0.301058
0.301833
0.30524
0.311138
0.319262
0.329103
0.339395
0.343947
0.342271
0.338246
0.325287
0.309751
0.295694
0.283876
0.274576
0.267954
0.264137
0.263245
0.265411
0.270785
0.27954
0.291877
0.308028
0.328249
0.352802
0.381905
0.415632
0.453551
0.492896
0.520355
0.539691
0.557261
0.573135
0.587283
0.599704
0.610411
0.619426
0.626773
0.632475
0.636552
0.639019
0.639887
0.639162
0.63684
0.632918
0.627381
0.620213
0.611391
0.600889
0.588679
0.574733
0.55903
0.541556
0.522315
0.500006
0.466637
0.424789
0.386135
0.35214
0.322842
0.297993
0.277278
0.260373
0.246976
0.236814
0.229656
0.22531
0.223629
0.224512
0.227906
0.233796
0.242204
0.253178
0.266768
0.282997
0.301789
0.32274
0.34408
0.357328
0.36421
0.368988
0.371798
0.372773
0.372123
0.366498
0.353505
0.340551
0.329558
0.320961
0.314941
0.311531
0.310629
0.311952
0.315045
0.319165
0.323209
0.324882
0.323054
0.319248
0.315545
0.313132
0.312694
0.314728
0.319575
0.327404
0.338262
0.352131
0.368629
0.386534
0.399268
0.404671
0.407859
0.409494
0.38577
0.384507
0.376985
0.364096
0.352627
0.343949
0.338346
0.336015
0.336991
0.341216
0.348486
0.358358
0.369556
0.376516
0.376605
0.374743
0.371841
0.363575
0.346747
0.330292
0.316213
0.305041
0.296991
0.292197
0.290774
0.292842
0.298534
0.307999
0.321415
0.338991
0.360962
0.387552
0.418865
0.454677
0.4933
0.522613
0.542264
0.559718
0.575771
0.59035
0.603408
0.614921
0.62488
0.633288
0.640153
0.645483
0.649289
0.651579
0.652358
0.651628
0.649389
0.645634
0.640357
0.633545
0.625186
0.615264
0.603766
0.590682
0.57601
0.559758
0.541953
0.522649
0.498111
0.461015
0.420739
0.384407
0.352765
0.32574
0.303083
0.284497
0.269693
0.25841
0.250428
0.245569
0.243698
0.244726
0.248605
0.255327
0.264916
0.277412
0.292853
0.311225
0.332344
0.355351
0.374584
0.383901
0.390304
0.395007
0.398089
0.399676
0.399951
0.39898
0.39236
0.379125
0.367274
0.357909
0.35151
0.348263
0.34819
0.350967
0.356158
0.362877
0.370061
0.373096
0.369497
0.362685
0.35632
0.351934
0.350097
0.35137
0.356142
0.364489
0.376256
0.391401
0.408537
0.42172
0.42805
0.431577
0.434048
0.43532
0.419112
0.418866
0.416978
0.409323
0.396786
0.386779
0.380127
0.377381
0.378562
0.383609
0.392159
0.402992
0.410261
0.411474
0.410148
0.408233
0.40558
0.401582
0.389145
0.370931
0.354634
0.341504
0.331901
0.326023
0.323997
0.325953
0.332011
0.342291
0.356929
0.376101
0.400002
0.428794
0.462256
0.498916
0.528508
0.548436
0.565336
0.581144
0.595755
0.609086
0.621078
0.631691
0.640901
0.648694
0.655066
0.660015
0.663542
0.665649
0.666336
0.665604
0.663451
0.659874
0.654867
0.648425
0.640543
0.631215
0.620439
0.60822
0.594569
0.579512
0.56309
0.545371
0.526402
0.499923
0.460887
0.422629
0.388544
0.359125
0.3343
0.31383
0.297449
0.284913
0.276019
0.270601
0.268538
0.26975
0.274196
0.281869
0.29279
0.306984
0.324451
0.345076
0.368302
0.391547
0.404795
0.412157
0.418097
0.422648
0.425875
0.427892
0.428861
0.429001
0.428113
0.422215
0.411042
0.401313
0.394593
0.391518
0.392472
0.396824
0.404063
0.412494
0.416838
0.418189
0.41691
0.412434
0.403855
0.397666
0.394205
0.394514
0.399192
0.408112
0.420401
0.435986
0.447485
0.453553
0.456847
0.459538
0.461438
0.462419
0.4527
0.452638
0.452593
0.451112
0.445251
0.4354
0.428047
0.425049
0.426348
0.43186
0.440739
0.446043
0.447054
0.445748
0.444278
0.442463
0.440191
0.437413
0.431733
0.416964
0.399316
0.384366
0.373151
0.366111
0.363422
0.365264
0.371757
0.382977
0.398972
0.419861
0.445734
0.476619
0.510895
0.539056
0.558399
0.574327
0.589499
0.603768
0.617019
0.629162
0.640127
0.649864
0.658337
0.665522
0.671402
0.675969
0.679216
0.681138
0.681735
0.681002
0.678939
0.675543
0.670812
0.664746
0.657345
0.648613
0.638556
0.627189
0.614536
0.60063
0.585525
0.569288
0.552007
0.533391
0.505897
0.467118
0.430674
0.398698
0.37151
0.348962
0.330826
0.316895
0.306984
0.300949
0.298684
0.300118
0.305212
0.313956
0.326357
0.342404
0.362027
0.384918
0.409608
0.426829
0.435168
0.441808
0.447278
0.451612
0.454871
0.457154
0.458602
0.4594
0.45979
0.459708
0.455954
0.44975
0.443231
0.440281
0.442366
0.447556
0.452261
0.455114
0.455422
0.455394
0.456224
0.456238
0.453667
0.448977
0.444177
0.4435
0.448069
0.457511
0.468413
0.476608
0.481084
0.48377
0.486246
0.488292
0.489745
0.490498
0.486349
0.486392
0.486541
0.486923
0.486828
0.483886
0.480023
0.47752
0.478537
0.481376
0.483556
0.483125
0.481578
0.480185
0.478753
0.477151
0.475305
0.473201
0.470888
0.464429
0.449771
0.43387
0.421126
0.412926
0.409514
0.41125
0.418278
0.430592
0.448031
0.470618
0.498031
0.529636
0.554582
0.572177
0.586786
0.600974
0.614564
0.62741
0.639392
0.650416
0.660405
0.669301
0.677062
0.683653
0.689053
0.693243
0.696213
0.697954
0.698461
0.69773
0.695758
0.692546
0.688093
0.682402
0.67548
0.667335
0.657983
0.647445
0.635753
0.62295
0.60909
0.594248
0.578507
0.561966
0.543756
0.51659
0.479294
0.444891
0.415272
0.390504
0.370442
0.354966
0.343924
0.337198
0.33471
0.3364
0.342221
0.352144
0.366156
0.38414
0.405813
0.430103
0.449978
0.459915
0.466731
0.472628
0.477595
0.481651
0.484844
0.487252
0.48899
0.490209
0.491096
0.491873
0.492788
0.491934
0.490076
0.489013
0.489568
0.49083
0.491144
0.490199
0.48985
0.490045
0.49086
0.492273
0.494253
0.494499
0.494256
0.495266
0.498637
0.503476
0.507963
0.51022
0.512171
0.514196
0.516076
0.517638
0.518752
0.519331
0.519954
0.520042
0.520257
0.520671
0.521387
0.522497
0.522431
0.521757
0.521539
0.521009
0.519052
0.517367
0.515946
0.514661
0.513399
0.512083
0.510679
0.509196
0.507697
0.506285
0.500743
0.48926
0.475776
0.466743
0.462539
0.464202
0.47188
0.485482
0.50421
0.527865
0.554436
0.57492
0.589655
0.602671
0.615594
0.628219
0.640373
0.651915
0.662724
0.672703
0.681774
0.689875
0.696955
0.702977
0.707912
0.711738
0.714439
0.716005
0.716426
0.715698
0.713819
0.710789
0.706611
0.70129
0.694837
0.687265
0.678595
0.668856
0.658082
0.646324
0.63364
0.620105
0.605807
0.590849
0.575353
0.558157
0.532739
0.497617
0.465987
0.439044
0.416912
0.399761
0.387464
0.379952
0.377208
0.379189
0.385805
0.396985
0.412691
0.43249
0.455289
0.475945
0.486906
0.493367
0.499214
0.504377
0.508823
0.512554
0.5156
0.51802
0.519899
0.521351
0.52251
0.523525
0.524538
0.525634
0.526686
0.527
0.526408
0.525286
0.524383
0.523845
0.523735
0.524074
0.524899
0.526224
0.528083
0.530548
0.533378
0.535731
0.537746
0.539089
0.540202
0.541617
0.543183
0.544766
0.546224
0.547432
0.548294
0.548742
0.553471
0.553565
0.553771
0.554118
0.554628
0.555271
0.555853
0.556029
0.555279
0.554006
0.552632
0.551343
0.55018
0.549113
0.548098
0.547105
0.54613
0.545206
0.544407
0.543861
0.543753
0.540952
0.534917
0.526835
0.521991
0.523787
0.532071
0.5469
0.565551
0.583753
0.599108
0.610546
0.621799
0.633259
0.644701
0.655933
0.666796
0.677152
0.686885
0.695899
0.704115
0.711468
0.717906
0.723388
0.72788
0.731357
0.733802
0.735199
0.73554
0.734818
0.733031
0.730181
0.726271
0.721311
0.715312
0.708292
0.700278
0.691299
0.681397
0.670624
0.659041
0.646725
0.633767
0.620272
0.606365
0.592194
0.576873
0.554452
0.523292
0.494942
0.470698
0.45186
0.4382
0.429778
0.426734
0.429046
0.43651
0.448888
0.466234
0.486917
0.50577
0.516401
0.52207
0.527432
0.532382
0.536841
0.540766
0.544142
0.546983
0.549327
0.551235
0.552785
0.554069
0.55518
0.556189
0.557114
0.55786
0.5582
0.558054
0.557632
0.557246
0.557063
0.557171
0.557618
0.558437
0.55964
0.561228
0.563165
0.565293
0.567329
0.568979
0.570334
0.571575
0.572861
0.574179
0.575461
0.57662
0.577573
0.57825
0.578601
0.586895
0.586977
0.587145
0.587402
0.587737
0.588096
0.588351
0.588322
0.587851
0.587055
0.586127
0.585195
0.584318
0.583512
0.582775
0.582108
0.581531
0.581091
0.580866
0.580981
0.581612
0.583013
0.584005
0.58345
0.583928
0.587333
0.594628
0.604706
0.615643
0.625572
0.634352
0.643827
0.653737
0.663865
0.674015
0.684018
0.693726
0.703011
0.711765
0.719893
0.727319
0.733977
0.739815
0.744788
0.748862
0.75201
0.754211
0.75545
0.755716
0.755002
0.753307
0.750632
0.746982
0.742369
0.736807
0.730316
0.722924
0.714665
0.705584
0.695732
0.685175
0.673989
0.662264
0.650107
0.637641
0.625012
0.612392
0.599531
0.581174
0.557196
0.531545
0.51158
0.496529
0.487024
0.483619
0.486328
0.494653
0.507614
0.525676
0.539976
0.548562
0.553035
0.557535
0.56191
0.56604
0.569841
0.573258
0.576266
0.578864
0.581071
0.582928
0.584485
0.585802
0.586935
0.587924
0.588772
0.589435
0.589838
0.589972
0.589943
0.589908
0.589989
0.590267
0.590791
0.591591
0.592673
0.594023
0.595592
0.597271
0.598911
0.600385
0.601693
0.602903
0.604075
0.605211
0.606279
0.607224
0.607991
0.608532
0.608812
0.620238
0.620302
0.620428
0.620609
0.620823
0.621023
0.621131
0.621058
0.620746
0.620238
0.619626
0.61899
0.618386
0.617843
0.617381
0.617021
0.616797
0.616759
0.616986
0.617584
0.618695
0.620495
0.623179
0.627007
0.631263
0.635837
0.641327
0.647115
0.653299
0.660418
0.668263
0.676671
0.685458
0.694448
0.703477
0.712398
0.721079
0.729403
0.73727
0.74459
0.751291
0.757307
0.762587
0.767086
0.77077
0.773609
0.775583
0.776674
0.776871
0.776168
0.774563
0.772057
0.768658
0.764377
0.75923
0.75324
0.746437
0.738855
0.730541
0.721547
0.711938
0.701791
0.691193
0.680249
0.669079
0.657822
0.64664
0.635721
0.625267
0.612097
0.595891
0.577793
0.561787
0.551215
0.547411
0.550402
0.5593
0.569997
0.578397
0.583394
0.58631
0.589628
0.593124
0.596632
0.600027
0.603223
0.606159
0.6088
0.611134
0.613167
0.61492
0.616425
0.617719
0.618836
0.6198
0.620615
0.621269
0.621744
0.622053
0.622259
0.622453
0.622718
0.623116
0.623689
0.624462
0.625437
0.6266
0.627907
0.629289
0.630661
0.631955
0.633152
0.634268
0.635323
0.636313
0.637218
0.638004
0.638634
0.639075
0.639302
0.653516
0.653564
0.653657
0.653783
0.653923
0.654042
0.654094
0.654033
0.653837
0.653526
0.653148
0.652755
0.652392
0.652092
0.651885
0.651799
0.651875
0.652163
0.652734
0.653674
0.655089
0.657095
0.659799
0.663263
0.66734
0.671895
0.67677
0.682121
0.688013
0.694533
0.701612
0.709137
0.716977
0.724992
0.733048
0.741018
0.748788
0.756253
0.76332
0.769908
0.775946
0.781374
0.786139
0.790201
0.793522
0.796075
0.797836
0.798791
0.798927
0.798236
0.796719
0.794376
0.791215
0.78725
0.782496
0.776979
0.770727
0.763778
0.756176
0.747976
0.73924
0.730042
0.720469
0.710619
0.700605
0.690557
0.680624
0.670976
0.661808
0.65335
0.645173
0.635347
0.625789
0.618372
0.614498
0.614348
0.616699
0.619518
0.620454
0.621696
0.623642
0.626043
0.628702
0.631465
0.634215
0.636866
0.639354
0.641641
0.643705
0.645542
0.64716
0.648577
0.649813
0.65089
0.651823
0.652621
0.653284
0.653815
0.654236
0.654588
0.654928
0.655313
0.655789
0.656389
0.65713
0.658015
0.659031
0.660147
0.661317
0.662489
0.663621
0.664691
0.665696
0.666635
0.667501
0.668277
0.668941
0.669467
0.669833
0.67002
0.686745
0.686782
0.686852
0.686944
0.687044
0.687128
0.687169
0.687143
0.687043
0.68688
0.686684
0.686491
0.686335
0.68625
0.686266
0.686416
0.68674
0.687286
0.688113
0.689289
0.690891
0.692995
0.69566
0.698905
0.702675
0.706901
0.711526
0.716583
0.722099
0.72809
0.734513
0.741289
0.74832
0.755494
0.762703
0.769839
0.776803
0.783501
0.789849
0.795775
0.801211
0.806102
0.810397
0.814055
0.817042
0.819331
0.820898
0.821727
0.821808
0.821132
0.8197
0.817512
0.814578
0.81091
0.806527
0.801451
0.795714
0.789353
0.782411
0.774941
0.767003
0.75867
0.750022
0.741152
0.732164
0.723177
0.714323
0.70575
0.697618
0.690101
0.683363
0.677673
0.672881
0.668597
0.665099
0.662473
0.660265
0.658923
0.658695
0.659291
0.66052
0.662201
0.664175
0.666311
0.668503
0.67067
0.672751
0.674704
0.676503
0.678136
0.679602
0.680909
0.682066
0.683086
0.683982
0.68476
0.685429
0.685998
0.686488
0.686928
0.687359
0.687818
0.688339
0.688947
0.689654
0.690463
0.691363
0.692333
0.693342
0.694357
0.695349
0.696296
0.697189
0.69802
0.698777
0.699448
0.700015
0.700461
0.700768
0.700925
0.719937
0.719967
0.720023
0.720098
0.720181
0.720256
0.72031
0.720329
0.720311
0.720268
0.720218
0.720189
0.720208
0.720306
0.720512
0.720859
0.721384
0.722128
0.723142
0.724478
0.726192
0.728333
0.73094
0.734021
0.737555
0.741508
0.745852
0.750585
0.755709
0.761214
0.767061
0.773188
0.779518
0.785963
0.792431
0.798833
0.805082
0.811097
0.816802
0.822131
0.827023
0.831425
0.83529
0.838581
0.841262
0.843308
0.844697
0.845413
0.845445
0.844786
0.843435
0.841395
0.838675
0.835286
0.831249
0.826586
0.821327
0.815508
0.809173
0.802372
0.795163
0.787613
0.779797
0.771802
0.763723
0.755664
0.747742
0.740082
0.732815
0.726073
0.719981
0.714651
0.710062
0.706152
0.702842
0.700095
0.698006
0.696663
0.696114
0.696251
0.696946
0.698066
0.699487
0.701101
0.702816
0.70456
0.706276
0.70792
0.709466
0.710897
0.712205
0.713389
0.714455
0.715409
0.716258
0.71701
0.717674
0.718261
0.718788
0.719279
0.719761
0.720261
0.720803
0.721404
0.722076
0.722818
0.723625
0.72448
0.725362
0.72625
0.72712
0.727956
0.728746
0.729477
0.73014
0.730723
0.731211
0.731592
0.731854
0.731987
0.7531
0.753126
0.753176
0.753245
0.753325
0.753408
0.753484
0.75355
0.753606
0.753662
0.753732
0.753838
0.754003
0.754254
0.754618
0.755125
0.755807
0.756702
0.757849
0.759289
0.761064
0.763208
0.765745
0.768685
0.772016
0.775723
0.779787
0.784197
0.78894
0.793996
0.799328
0.804884
0.810601
0.816407
0.822226
0.827981
0.833596
0.839002
0.844132
0.848924
0.853325
0.857284
0.86076
0.863714
0.866117
0.867942
0.869169
0.869783
0.869772
0.869131
0.867859
0.865959
0.863439
0.860312
0.856596
0.852316
0.847499
0.84218
0.836402
0.830211
0.823663
0.81682
0.809752
0.802537
0.79526
0.788014
0.7809
0.774021
0.767485
0.761394
0.755839
0.750886
0.746548
0.742806
0.739633
0.737021
0.735003
0.73361
0.732846
0.732654
0.732947
0.73363
0.734606
0.735789
0.737101
0.738479
0.739871
0.741236
0.742546
0.743781
0.74493
0.745989
0.746957
0.747836
0.748631
0.749348
0.749995
0.750583
0.751125
0.751639
0.752145
0.752662
0.753207
0.753793
0.754427
0.75511
0.755838
0.756599
0.757378
0.758159
0.758926
0.759663
0.760359
0.761003
0.761584
0.762092
0.762515
0.762843
0.763068
0.763182
0.786235
0.786261
0.786311
0.786381
0.786467
0.786565
0.78667
0.786781
0.786902
0.78704
0.78721
0.787427
0.787713
0.788089
0.788581
0.789214
0.790018
0.791023
0.792262
0.793766
0.795567
0.797689
0.800149
0.802955
0.806103
0.809581
0.813377
0.817475
0.821858
0.826501
0.83137
0.83642
0.841596
0.84684
0.852085
0.857266
0.86232
0.867184
0.871799
0.87611
0.880067
0.883627
0.88675
0.8894
0.89155
0.893175
0.894255
0.894777
0.89473
0.894108
0.892911
0.891142
0.888809
0.885926
0.882509
0.878582
0.874172
0.869313
0.864043
0.858408
0.852459
0.846253
0.839855
0.833333
0.826766
0.820234
0.813822
0.807619
0.801711
0.796179
0.791094
0.786506
0.782437
0.778891
0.775864
0.773354
0.771373
0.769927
0.769007
0.768571
0.768559
0.768899
0.769519
0.770347
0.771321
0.772385
0.773492
0.774606
0.775699
0.776751
0.777747
0.77868
0.779547
0.780346
0.781081
0.781755
0.782376
0.78295
0.78349
0.784008
0.784518
0.785034
0.78557
0.786133
0.786729
0.787358
0.788018
0.788699
0.789392
0.790083
0.79076
0.791411
0.792025
0.792592
0.793102
0.793546
0.793914
0.794198
0.794392
0.79449
0.819345
0.819372
0.819424
0.8195
0.819598
0.819714
0.819849
0.820003
0.82018
0.820388
0.82064
0.820948
0.821331
0.821809
0.822402
0.823133
0.824028
0.825111
0.826409
0.827947
0.829748
0.831831
0.834208
0.836884
0.839859
0.843123
0.846664
0.850468
0.854515
0.858781
0.863232
0.867829
0.872525
0.877269
0.882006
0.88668
0.891234
0.895615
0.899769
0.903648
0.907208
0.910408
0.913211
0.915587
0.917508
0.918952
0.9199
0.92034
0.920261
0.91966
0.918534
0.916889
0.914731
0.912073
0.908933
0.905331
0.901295
0.896855
0.892049
0.886919
0.881511
0.875878
0.870079
0.864176
0.858237
0.852332
0.846535
0.84092
0.835559
0.830518
0.825853
0.821606
0.817804
0.814459
0.811576
0.809158
0.807207
0.80572
0.804683
0.804064
0.803817
0.803889
0.804222
0.80476
0.805451
0.806246
0.807106
0.807998
0.808894
0.809775
0.810626
0.811437
0.812203
0.812922
0.813592
0.814217
0.814802
0.815352
0.815876
0.816383
0.816884
0.817388
0.817905
0.81844
0.818997
0.819576
0.820176
0.820788
0.821407
0.822021
0.822621
0.823197
0.823739
0.824238
0.824686
0.825075
0.825396
0.825644
0.825812
0.825897
0.852428
0.852457
0.852514
0.852599
0.852709
0.852846
0.853009
0.853201
0.853427
0.853694
0.854012
0.854394
0.854856
0.855413
0.856084
0.856889
0.857849
0.858985
0.860317
0.861865
0.863648
0.865678
0.867966
0.870516
0.873325
0.876386
0.879689
0.883218
0.886955
0.890875
0.894947
0.899138
0.903406
0.907706
0.911992
0.916213
0.920323
0.924271
0.928014
0.931506
0.934708
0.937584
0.9401
0.942228
0.943943
0.945224
0.946054
0.946421
0.946316
0.945736
0.944678
0.943148
0.941152
0.938703
0.935817
0.932515
0.92882
0.924764
0.92038
0.915707
0.910787
0.90567
0.900408
0.895055
0.889673
0.884322
0.879067
0.873969
0.869088
0.864481
0.860193
0.856262
0.852714
0.849565
0.846824
0.844494
0.842576
0.841064
0.839942
0.839185
0.838757
0.838618
0.838721
0.839021
0.839475
0.840043
0.840689
0.841385
0.842105
0.84283
0.843545
0.84424
0.844908
0.845544
0.846148
0.84672
0.847263
0.847781
0.84828
0.848766
0.849247
0.84973
0.850221
0.850725
0.851243
0.851775
0.85232
0.852872
0.853426
0.853973
0.854506
0.855016
0.855495
0.855935
0.856329
0.856671
0.856952
0.857168
0.857315
0.85739
0.885483
0.885514
0.885577
0.88567
0.885795
0.885951
0.88614
0.886365
0.886632
0.886948
0.887321
0.887762
0.888284
0.888903
0.889633
0.890491
0.891495
0.892661
0.894008
0.895549
0.897299
0.899268
0.901464
0.903888
0.906538
0.909408
0.912487
0.915761
0.919211
0.922815
0.926545
0.93037
0.934254
0.938158
0.942041
0.945859
0.949571
0.953134
0.956508
0.959654
0.962536
0.96512
0.967378
0.969283
0.970812
0.971947
0.972671
0.972974
0.972848
0.972288
0.971295
0.969872
0.968027
0.96577
0.963118
0.96009
0.956708
0.953001
0.949
0.94474
0.940262
0.935608
0.930826
0.925965
0.921077
0.916218
0.911441
0.906799
0.902345
0.898123
0.894176
0.890535
0.887226
0.884264
0.88166
0.879418
0.877539
0.876016
0.874835
0.873976
0.87341
0.873104
0.873023
0.873128
0.873386
0.873761
0.874223
0.874748
0.875311
0.875894
0.876485
0.87707
0.877644
0.8782
0.878736
0.879252
0.879749
0.880228
0.880695
0.881154
0.881608
0.882064
0.882526
0.882995
0.883474
0.883961
0.884456
0.884955
0.885451
0.88594
0.886413
0.886866
0.88729
0.887679
0.888026
0.888326
0.888573
0.888763
0.888891
0.888956
0.918506
0.91854
0.918608
0.918711
0.918848
0.919022
0.919234
0.919489
0.91979
0.920145
0.92056
0.921047
0.921617
0.922281
0.923053
0.923947
0.924978
0.926158
0.927503
0.929024
0.930731
0.932633
0.934733
0.937034
0.939532
0.942221
0.94509
0.948127
0.951314
0.954629
0.958049
0.961544
0.965083
0.968631
0.972153
0.975612
0.978969
0.982187
0.985231
0.988066
0.99066
0.992983
0.995009
0.996713
0.998076
0.999079
0.999709
0.999956
0.999812
0.999274
0.998341
0.997019
0.995312
0.993233
0.990796
0.988018
0.984922
0.981532
0.977878
0.973993
0.969912
0.965674
0.961322
0.9569
0.952454
0.948031
0.943679
0.939443
0.935367
0.931492
0.927852
0.924477
0.921389
0.918604
0.916133
0.913981
0.912147
0.910626
0.909408
0.908474
0.907802
0.907366
0.907137
0.907084
0.907178
0.907391
0.907696
0.908071
0.908496
0.908953
0.909428
0.909912
0.910397
0.910875
0.911345
0.911804
0.912251
0.912689
0.913119
0.913545
0.913968
0.914393
0.914821
0.915255
0.915695
0.916141
0.91659
0.917039
0.917484
0.917921
0.918343
0.918744
0.91912
0.919464
0.91977
0.920034
0.920251
0.920418
0.920531
0.920588
0.951495
0.951532
0.951605
0.951716
0.951866
0.952055
0.952287
0.952565
0.952894
0.95328
0.953729
0.954251
0.954855
0.955551
0.956351
0.957267
0.95831
0.959492
0.960822
0.962312
0.963969
0.965798
0.967802
0.969982
0.972334
0.974852
0.977526
0.980343
0.983288
0.98634
0.989477
0.992673
0.995902
0.999131
1.00233
1.00547
1.0085
1.01141
1.01416
1.01672
1.01905
1.02114
1.02296
1.02449
1.0257
1.02658
1.02713
1.02733
1.02717
1.02665
1.02578
1.02455
1.02297
1.02105
1.01881
1.01626
1.01343
1.01033
1.00699
1.00344
0.999718
0.995855
0.991889
0.98786
0.983808
0.979774
0.9758
0.971926
0.968189
0.964625
0.961264
0.958132
0.955249
0.952631
0.950287
0.948224
0.946441
0.944935
0.943696
0.942709
0.941958
0.941421
0.941074
0.940892
0.940852
0.940928
0.9411
0.941345
0.941648
0.941992
0.942364
0.942755
0.943155
0.94356
0.943964
0.944366
0.944764
0.945158
0.945548
0.945938
0.946327
0.946718
0.947112
0.94751
0.947912
0.948317
0.948723
0.949127
0.949527
0.949917
0.950292
0.950649
0.950982
0.951286
0.951556
0.951789
0.951981
0.952127
0.952226
0.952276
0.984447
0.984487
0.984565
0.984683
0.984843
0.985045
0.985294
0.985591
0.985942
0.986351
0.986825
0.987372
0.988
0.988718
0.989534
0.99046
0.991504
0.992675
0.993983
0.995434
0.997034
0.998788
1.0007
1.00276
1.00497
1.00733
1.00982
1.01243
1.01515
1.01796
1.02084
1.02377
1.02672
1.02966
1.03257
1.03542
1.03817
1.0408
1.04329
1.04559
1.0477
1.04957
1.05121
1.05257
1.05365
1.05443
1.0549
1.05506
1.05489
1.05439
1.05357
1.05243
1.05097
1.0492
1.04714
1.0448
1.0422
1.03936
1.03631
1.03306
1.02967
1.02614
1.02252
1.01884
1.01514
1.01146
1.00782
1.00427
1.00084
0.997556
0.994447
0.991538
0.988845
0.986383
0.984162
0.982187
0.98046
0.978977
0.97773
0.97671
0.975901
0.975286
0.974846
0.97456
0.974408
0.974371
0.974428
0.974563
0.974759
0.975002
0.975281
0.975586
0.975909
0.976244
0.976586
0.976932
0.97728
0.977629
0.977979
0.97833
0.978684
0.979039
0.979398
0.97976
0.980125
0.980492
0.980858
0.981221
0.981578
0.981926
0.982261
0.982578
0.982873
0.983141
0.983381
0.983586
0.983754
0.983883
0.983971
0.984014
1.01736
1.0174
1.01748
1.01761
1.01778
1.01799
1.01825
1.01856
1.01893
1.01936
1.01985
1.02041
1.02106
1.02179
1.02261
1.02353
1.02457
1.02572
1.027
1.02841
1.02995
1.03162
1.03344
1.03538
1.03746
1.03967
1.04199
1.04441
1.04693
1.04952
1.05217
1.05485
1.05754
1.06023
1.06287
1.06546
1.06796
1.07034
1.07259
1.07467
1.07656
1.07825
1.07972
1.08094
1.0819
1.08258
1.08299
1.08311
1.08293
1.08246
1.08169
1.08062
1.07927
1.07764
1.07574
1.07359
1.07121
1.06861
1.06581
1.06285
1.05974
1.05652
1.05321
1.04985
1.04646
1.04309
1.03976
1.0365
1.03334
1.03031
1.02743
1.02473
1.02221
1.01989
1.01779
1.0159
1.01423
1.01278
1.01154
1.0105
1.00965
1.00898
1.00846
1.00809
1.00785
1.00772
1.00768
1.00772
1.00782
1.00798
1.00817
1.0084
1.00865
1.00892
1.0092
1.0095
1.0098
1.0101
1.01041
1.01072
1.01104
1.01136
1.01168
1.01201
1.01234
1.01267
1.013
1.01332
1.01364
1.01395
1.01425
1.01453
1.01479
1.01503
1.01524
1.01542
1.01557
1.01568
1.01576
1.0158
1.05023
1.05028
1.05036
1.05049
1.05067
1.05089
1.05116
1.05148
1.05186
1.0523
1.0528
1.05337
1.05403
1.05476
1.05558
1.0565
1.05752
1.05865
1.05989
1.06124
1.06272
1.06432
1.06604
1.06788
1.06983
1.07189
1.07406
1.07631
1.07863
1.08102
1.08345
1.08591
1.08838
1.09083
1.09324
1.09559
1.09786
1.10002
1.10205
1.10393
1.10564
1.10716
1.10847
1.10956
1.11042
1.11102
1.11137
1.11145
1.11127
1.11082
1.11009
1.1091
1.10785
1.10635
1.1046
1.10262
1.10043
1.09805
1.09549
1.09277
1.08993
1.08698
1.08395
1.08087