/*--------------------------------*- C++ -*----------------------------------*\
| =========                 |                                                 |
| \\      /  F ield         | OpenFOAM: The Open Source CFD Toolbox           |
|  \\    /   O peration     | Version:  2406                                  |
|   \\  /    A nd           | Website:  www.openfoam.com                      |
|    \\/     M anipulation  |                                                 |
\*---------------------------------------------------------------------------*/
FoamFile
{
    version     2.0;
    format      ascii;
    arch        "LSB;label=32;scalar=64";
    class       volScalarField;
    location    "8.9";
    object      C_0_0;
}
// * * * * * * * * * * * * * * * * * * * * * * * * * * * * * * * * * * * * * //

dimensions      [1 -3 0 0 0 0 0];

internalField   nonuniform List<scalar> 
14400
(
0.217099
0.216275
0.214819
0.21303
0.211221
0.209666
0.208569
0.208058
0.208181
0.208905
0.210113
0.2116
0.213074
0.214162
0.214457
0.213612
0.211497
0.208342
0.204572
0.200654
0.197012
0.194003
0.191928
0.191047
0.191601
0.193833
0.197999
0.20437
0.213231
0.224879
0.239619
0.257768
0.279656
0.305615
0.335963
0.370946
0.410548
0.453554
0.490141
0.515255
0.534287
0.550554
0.564297
0.575697
0.584895
0.591997
0.597082
0.600207
0.601407
0.600703
0.598094
0.593566
0.587086
0.578602
0.568041
0.555304
0.540261
0.522746
0.502537
0.475115
0.436327
0.393267
0.353849
0.319128
0.289076
0.263425
0.241841
0.223979
0.209493
0.198043
0.189289
0.182902
0.178581
0.176076
0.175197
0.175812
0.17784
0.181241
0.186006
0.192148
0.199688
0.208632
0.218938
0.230465
0.242886
0.255487
0.266498
0.272517
0.271548
0.265562
0.257399
0.248869
0.240718
0.233334
0.226929
0.221593
0.217336
0.2141
0.21178
0.210234
0.209299
0.208809
0.208619
0.208634
0.208833
0.209279
0.210105
0.211498
0.213664
0.216812
0.221135
0.226795
0.233912
0.242548
0.252689
0.26421
0.276814
0.289899
0.302156
0.309767
0.222571
0.221542
0.219762
0.217623
0.215501
0.213703
0.212449
0.211877
0.212034
0.212891
0.214328
0.216134
0.217995
0.219494
0.220124
0.219379
0.217003
0.21338
0.209095
0.204702
0.200664
0.197351
0.19506
0.194047
0.194547
0.196798
0.201046
0.207556
0.216607
0.228491
0.243511
0.261984
0.284238
0.310606
0.341395
0.376817
0.416774
0.459859
0.494793
0.518336
0.537051
0.553079
0.566639
0.5779
0.586991
0.594014
0.599043
0.602131
0.603313
0.602606
0.600013
0.595518
0.58909
0.58068
0.570217
0.557609
0.542734
0.525438
0.50552
0.479728
0.442425
0.399005
0.359131
0.323945
0.293443
0.267369
0.245396
0.227177
0.212368
0.20063
0.191628
0.18504
0.180569
0.177967
0.177045
0.177668
0.179757
0.183273
0.18821
0.194586
0.202428
0.211749
0.222513
0.234592
0.247676
0.261057
0.272558
0.278358
0.278056
0.271951
0.263296
0.254284
0.24571
0.237976
0.231297
0.225763
0.221382
0.218093
0.215783
0.214299
0.213457
0.213067
0.212953
0.212997
0.213169
0.213543
0.21428
0.215593
0.217715
0.220873
0.22527
0.231076
0.238415
0.247351
0.257876
0.269872
0.283051
0.296772
0.309332
0.316144
0.23403
0.232514
0.23001
0.227118
0.224338
0.222038
0.220466
0.219765
0.219991
0.221113
0.22301
0.225464
0.228136
0.230528
0.231948
0.231504
0.22847
0.223781
0.218386
0.213007
0.208165
0.204236
0.201511
0.20023
0.200617
0.202894
0.207296
0.214072
0.22349
0.235835
0.251406
0.270519
0.293502
0.320685
0.352359
0.388671
0.429251
0.471652
0.503046
0.524389
0.542503
0.558072
0.57128
0.582271
0.591157
0.598025
0.602944
0.60596
0.607106
0.606397
0.603834
0.599404
0.593077
0.584809
0.574538
0.56218
0.547629
0.530752
0.511378
0.488058
0.453794
0.410351
0.369747
0.333665
0.30227
0.275356
0.252609
0.233686
0.218241
0.205938
0.196449
0.189463
0.184693
0.181897
0.180886
0.181526
0.183738
0.187487
0.192772
0.19962
0.208066
0.218133
0.229796
0.242934
0.257244
0.271948
0.283989
0.289378
0.289933
0.284489
0.275143
0.26525
0.255865
0.247453
0.240243
0.23433
0.229718
0.226341
0.224073
0.222736
0.222108
0.221945
0.222007
0.222117
0.222223
0.222428
0.222954
0.224079
0.226087
0.22924
0.233766
0.239845
0.247607
0.25712
0.268379
0.28127
0.295506
0.310344
0.322771
0.327864
0.252482
0.249991
0.246187
0.242038
0.238208
0.235125
0.233059
0.232161
0.232485
0.234001
0.236591
0.240036
0.243983
0.247875
0.250805
0.251194
0.246693
0.240067
0.232848
0.22593
0.219861
0.215002
0.211618
0.209927
0.210128
0.212424
0.21703
0.224179
0.234124
0.247141
0.263521
0.283578
0.307637
0.336023
0.369015
0.406713
0.448407
0.487211
0.513508
0.533235
0.550499
0.565426
0.578139
0.588747
0.597338
0.603987
0.608747
0.611661
0.612754
0.612041
0.609522
0.605185
0.599005
0.590943
0.580945
0.568943
0.55485
0.538563
0.519957
0.49884
0.469309
0.427495
0.385893
0.348466
0.315735
0.287572
0.263681
0.24372
0.227346
0.21422
0.204024
0.196457
0.191247
0.188161
0.187017
0.187684
0.190084
0.194186
0.199999
0.207556
0.216903
0.22807
0.241041
0.255689
0.27165
0.287839
0.299701
0.304686
0.305961
0.302721
0.293076
0.282001
0.27147
0.262094
0.254133
0.247689
0.242769
0.239301
0.237144
0.236088
0.235856
0.236113
0.236506
0.236738
0.236711
0.236589
0.236713
0.237476
0.239246
0.242338
0.24701
0.253456
0.261811
0.272142
0.284433
0.298544
0.314088
0.32986
0.340374
0.343929
0.279358
0.274928
0.268983
0.262958
0.257637
0.253476
0.250739
0.249569
0.250018
0.252054
0.255562
0.260331
0.266017
0.272068
0.27748
0.279665
0.272345
0.262673
0.252863
0.24386
0.23616
0.230069
0.225806
0.223553
0.223483
0.225773
0.230616
0.238227
0.248843
0.262726
0.280161
0.301452
0.326913
0.356842
0.39145
0.430591
0.472374
0.504328
0.526025
0.54454
0.560834
0.574994
0.587104
0.597238
0.605464
0.611835
0.616397
0.619181
0.620209
0.619491
0.617029
0.61281
0.606815
0.599012
0.589357
0.577797
0.564266
0.548692
0.530994
0.511103
0.486825
0.450464
0.407677
0.368538
0.334077
0.304281
0.278892
0.257581
0.240001
0.225819
0.214719
0.206412
0.20064
0.197184
0.195872
0.19658
0.199236
0.203815
0.210332
0.218827
0.229351
0.241943
0.256589
0.273148
0.291124
0.308517
0.318707
0.323476
0.325349
0.324345
0.316812
0.304697
0.292839
0.282286
0.273398
0.266308
0.261034
0.257511
0.255588
0.25502
0.255458
0.256446
0.257436
0.25789
0.257603
0.256873
0.256285
0.256415
0.257748
0.260667
0.26546
0.272336
0.281425
0.292781
0.306352
0.321914
0.3388
0.353896
0.360756
0.3634
0.315745
0.307869
0.298817
0.290298
0.283069
0.277551
0.273973
0.272464
0.273064
0.275737
0.280365
0.286731
0.294482
0.302991
0.310605
0.311275
0.304548
0.291485
0.278603
0.267117
0.257457
0.249865
0.244515
0.241551
0.241118
0.243368
0.248472
0.256624
0.268045
0.282982
0.301709
0.324515
0.351681
0.383442
0.419865
0.460239
0.497229
0.521712
0.540871
0.558066
0.573302
0.586613
0.598043
0.607638
0.615443
0.621494
0.625825
0.628458
0.629409
0.628687
0.62629
0.622212
0.616434
0.608932
0.599674
0.588621
0.575727
0.560944
0.544224
0.525527
0.504742
0.475918
0.434665
0.394036
0.357582
0.325812
0.298596
0.275636
0.256595
0.24114
0.228961
0.219778
0.213346
0.20946
0.207961
0.208736
0.211722
0.216899
0.224285
0.233927
0.245879
0.260177
0.276796
0.29554
0.315607
0.332309
0.34035
0.345146
0.347552
0.347697
0.344297
0.333227
0.320234
0.308412
0.29848
0.290658
0.285012
0.281503
0.279986
0.28019
0.2817
0.283906
0.285982
0.28685
0.286049
0.284213
0.282419
0.281524
0.282142
0.284721
0.28958
0.296923
0.306859
0.319415
0.334441
0.351477
0.368952
0.379314
0.383435
0.385514
0.352622
0.347114
0.335384
0.324171
0.31478
0.307703
0.303151
0.301247
0.302025
0.305439
0.311346
0.319484
0.329339
0.339642
0.344186
0.34251
0.338498
0.325549
0.310005
0.295938
0.284113
0.274808
0.268186
0.264371
0.263486
0.265663
0.271052
0.279826
0.292186
0.308364
0.328617
0.353207
0.382352
0.416123
0.45408
0.493407
0.520794
0.540114
0.55768
0.573551
0.587696
0.600113
0.610817
0.61983
0.627174
0.632874
0.63695
0.639416
0.640283
0.639556
0.637235
0.633312
0.627776
0.620608
0.611787
0.601285
0.589077
0.575133
0.559431
0.541958
0.522719
0.500443
0.467151
0.425285
0.386588
0.352545
0.323204
0.298317
0.277569
0.260635
0.247213
0.237031
0.229856
0.225497
0.223807
0.224686
0.228077
0.233969
0.242383
0.253365
0.266965
0.283208
0.302014
0.322979
0.344324
0.357556
0.364433
0.369208
0.372016
0.37299
0.372341
0.36673
0.353737
0.340774
0.329773
0.321168
0.315143
0.31173
0.310827
0.312152
0.315251
0.319377
0.32343
0.325105
0.323278
0.319463
0.315755
0.313338
0.312899
0.314933
0.319783
0.327617
0.338482
0.352363
0.368875
0.38679
0.399499
0.404886
0.408073
0.409707
0.385987
0.384736
0.377235
0.364338
0.35286
0.344178
0.33857
0.33624
0.337219
0.341452
0.348732
0.358618
0.369829
0.376772
0.376853
0.374994
0.372101
0.363864
0.347043
0.330582
0.316496
0.30532
0.297268
0.292476
0.291059
0.293138
0.298845
0.30833
0.321769
0.339372
0.361375
0.388003
0.419358
0.455209
0.493848
0.523079
0.542687
0.560136
0.576186
0.590761
0.603816
0.615326
0.625283
0.633688
0.640551
0.645879
0.649684
0.651973
0.652751
0.65202
0.64978
0.646026
0.640749
0.633938
0.625579
0.615658
0.604161
0.591079
0.576408
0.560158
0.542354
0.523051
0.49857
0.461557
0.421238
0.384857
0.35317
0.326107
0.303416
0.284802
0.269972
0.258669
0.25067
0.245798
0.243918
0.24494
0.248817
0.255542
0.265136
0.27764
0.293092
0.311477
0.332609
0.355627
0.374838
0.384138
0.390536
0.395236
0.398315
0.399901
0.400176
0.399211
0.392608
0.379376
0.367524
0.358151
0.351748
0.348498
0.348425
0.351205
0.356405
0.363128
0.37033
0.373361
0.369771
0.36294
0.356571
0.352179
0.350339
0.351611
0.356386
0.364735
0.376508
0.391664
0.408812
0.421961
0.428268
0.431793
0.434264
0.435535
0.419335
0.41909
0.417221
0.409594
0.397051
0.387047
0.380388
0.377641
0.378827
0.383886
0.39244
0.403286
0.410529
0.411727
0.410404
0.408495
0.405849
0.401873
0.389483
0.371273
0.35497
0.341833
0.332227
0.326351
0.324333
0.3263
0.332373
0.342673
0.357335
0.376534
0.400467
0.429298
0.462803
0.499493
0.528991
0.548857
0.565753
0.581557
0.596165
0.609493
0.621482
0.632092
0.641299
0.649091
0.655461
0.660408
0.663934
0.66604
0.666726
0.665994
0.663841
0.660263
0.655256
0.648815
0.640933
0.631606
0.620832
0.608614
0.594965
0.579909
0.563489
0.545772
0.52681
0.500405
0.461416
0.42312
0.388993
0.359539
0.334682
0.314183
0.297776
0.28522
0.276308
0.270876
0.268804
0.27001
0.274454
0.28213
0.293056
0.307258
0.324736
0.345372
0.368607
0.391837
0.40505
0.412404
0.418337
0.422884
0.426108
0.428122
0.42909
0.429229
0.428353
0.422473
0.411329
0.401588
0.394868
0.391793
0.392744
0.397096
0.404349
0.412758
0.417087
0.418434
0.417162
0.412707
0.404144
0.397947
0.394487
0.394793
0.399473
0.408393
0.420679
0.436271
0.447733
0.453773
0.457065
0.459755
0.461653
0.462634
0.452926
0.452865
0.452822
0.451364
0.44553
0.435711
0.428341
0.425342
0.426646
0.432178
0.441039
0.446318
0.447309
0.446005
0.44454
0.442731
0.440466
0.437698
0.432057
0.417356
0.399709
0.384751
0.37353
0.366493
0.363813
0.365666
0.372177
0.383417
0.399436
0.420353
0.446252
0.477175
0.511486
0.539545
0.558816
0.574741
0.589909
0.604175
0.617424
0.629564
0.640526
0.650261
0.658732
0.665915
0.671794
0.676359
0.679604
0.681526
0.682121
0.681388
0.679325
0.675929
0.671199
0.665133
0.657733
0.649002
0.638946
0.62758
0.614928
0.601025
0.585922
0.569688
0.552411
0.533826
0.506415
0.46764
0.431168
0.399163
0.371946
0.34937
0.331208
0.317255
0.307327
0.301277
0.299002
0.30043
0.305521
0.314267
0.326675
0.342732
0.362365
0.385265
0.409949
0.427116
0.435432
0.442063
0.447526
0.451855
0.45511
0.45739
0.458835
0.459632
0.46002
0.459948
0.456213
0.450038
0.443537
0.44059
0.44267
0.447837
0.452515
0.45535
0.455641
0.455612
0.456444
0.456478
0.453928
0.449274
0.444493
0.443806
0.448383
0.45782
0.468689
0.476856
0.481304
0.483988
0.486463
0.488508
0.48996
0.490713
0.486579
0.486623
0.486773
0.487156
0.487081
0.48416
0.480324
0.477834
0.478845
0.481662
0.483827
0.483378
0.481835
0.480446
0.47902
0.477424
0.475586
0.47349
0.471188
0.464783
0.450214
0.434309
0.421558
0.413365
0.409964
0.411714
0.418762
0.431096
0.448558
0.471176
0.498593
0.530221
0.555071
0.572591
0.587196
0.601381
0.614968
0.627811
0.639791
0.650812
0.660799
0.669693
0.677452
0.684042
0.68944
0.693629
0.696598
0.698339
0.698845
0.698113
0.696141
0.692929
0.688476
0.682786
0.675864
0.667721
0.65837
0.647833
0.636143
0.623341
0.609485
0.594645
0.578909
0.562373
0.544219
0.517141
0.479833
0.44541
0.41577
0.390976
0.370886
0.355387
0.344327
0.337586
0.335087
0.33677
0.342587
0.352512
0.366531
0.384528
0.406213
0.430502
0.450301
0.460194
0.467001
0.472889
0.477849
0.4819
0.485087
0.487492
0.489227
0.490443
0.491327
0.492102
0.493015
0.49218
0.490332
0.489271
0.489821
0.49107
0.491362
0.490416
0.490068
0.490262
0.491078
0.49249
0.494476
0.494744
0.494515
0.495534
0.498902
0.503728
0.508199
0.510437
0.512388
0.514412
0.516292
0.517854
0.518967
0.519546
0.520187
0.520275
0.52049
0.520905
0.521621
0.522733
0.522691
0.522028
0.521806
0.521259
0.519301
0.517621
0.516206
0.514925
0.513668
0.51236
0.510962
0.509488
0.507999
0.5066
0.501123
0.489738
0.47625
0.467242
0.463051
0.464726
0.472431
0.486054
0.504794
0.52849
0.554986
0.575397
0.590064
0.603077
0.615997
0.628619
0.640771
0.65231
0.663117
0.673094
0.682164
0.690262
0.697341
0.703361
0.708295
0.71212
0.714821
0.716385
0.716806
0.716078
0.714199
0.711169
0.706991
0.70167
0.695218
0.687647
0.678979
0.66924
0.658469
0.646712
0.634031
0.620499
0.606205
0.591253
0.575762
0.558632
0.533302
0.498185
0.466558
0.439586
0.417424
0.400247
0.387933
0.380406
0.377651
0.379622
0.386233
0.397413
0.413127
0.432941
0.455742
0.4763
0.4872
0.493651
0.499489
0.504643
0.509082
0.512807
0.515848
0.518263
0.520138
0.521587
0.522743
0.523755
0.524763
0.525853
0.526901
0.527213
0.526619
0.525499
0.524599
0.524062
0.523952
0.524291
0.525116
0.52644
0.528297
0.530758
0.533588
0.535951
0.53796
0.539297
0.540414
0.541831
0.543398
0.544981
0.546439
0.547648
0.548509
0.548957
0.553707
0.553801
0.554007
0.554354
0.554865
0.555508
0.556088
0.556264
0.555519
0.554252
0.552883
0.5516
0.550442
0.549379
0.54837
0.547383
0.546416
0.5455
0.544711
0.544175
0.544082
0.541348
0.535388
0.527387
0.52255
0.524349
0.532674
0.547527
0.566134
0.584253
0.599547
0.610945
0.622197
0.633655
0.645095
0.656326
0.667187
0.677541
0.687272
0.696285
0.704499
0.711851
0.718288
0.723768
0.728259
0.731735
0.734179
0.735576
0.735916
0.735194
0.733407
0.730557
0.726648
0.721687
0.715689
0.708671
0.700657
0.69168
0.68178
0.671008
0.659428
0.647116
0.634161
0.62067
0.606768
0.592603
0.577344
0.555
0.523936
0.495557
0.471277
0.452416
0.438743
0.430306
0.427249
0.42955
0.437002
0.449374
0.466727
0.487419
0.506155
0.516712
0.522368
0.52772
0.53266
0.537111
0.541029
0.544399
0.547234
0.549573
0.551477
0.553023
0.554304
0.55541
0.556416
0.557336
0.558079
0.558416
0.558269
0.557848
0.557463
0.55728
0.557388
0.557835
0.558653
0.559855
0.561441
0.563376
0.565503
0.567536
0.569187
0.570544
0.571787
0.573075
0.574393
0.575676
0.576835
0.577788
0.578465
0.578816
0.587133
0.587214
0.587382
0.587641
0.587976
0.588335
0.58859
0.588563
0.588095
0.587304
0.586381
0.585453
0.584581
0.58378
0.583049
0.582388
0.581818
0.581385
0.581169
0.581293
0.581935
0.583347
0.584392
0.583882
0.584395
0.587832
0.595127
0.60518
0.616079
0.625956
0.634738
0.644214
0.654125
0.664252
0.674401
0.684403
0.69411
0.703394
0.712146
0.720273
0.727698
0.734355
0.740191
0.745163
0.749236
0.752384
0.754584
0.755822
0.756088
0.755374
0.753679
0.751004
0.747355
0.742742
0.73718
0.730691
0.7233
0.715043
0.705963
0.696113
0.685558
0.674374
0.662652
0.650498
0.638037
0.625412
0.612796
0.599973
0.581694
0.557849
0.53217
0.512199
0.49715
0.487629
0.484209
0.486909
0.495206
0.508142
0.526197
0.540385
0.548889
0.553347
0.557835
0.562199
0.56632
0.570113
0.573523
0.576525
0.579117
0.58132
0.583172
0.584725
0.586038
0.587168
0.588153
0.588997
0.589657
0.590057
0.59019
0.59016
0.590125
0.590206
0.590484
0.591008
0.591807
0.592888
0.594237
0.595804
0.597482
0.599121
0.600595
0.601904
0.603115
0.604287
0.605425
0.606492
0.607438
0.608205
0.608746
0.609026
0.620477
0.620541
0.620668
0.62085
0.621064
0.621265
0.621374
0.621303
0.620994
0.62049
0.619881
0.61925
0.618651
0.618112
0.617656
0.617302
0.617084
0.617053
0.617288
0.617894
0.619013
0.620821
0.62351
0.627343
0.63163
0.636225
0.641702
0.647473
0.653661
0.660789
0.668638
0.677049
0.685837
0.694827
0.703856
0.712776
0.721456
0.729779
0.737645
0.744965
0.751664
0.757679
0.762958
0.767457
0.77114
0.773979
0.775952
0.777042
0.777239
0.776536
0.774931
0.772426
0.769027
0.764746
0.7596
0.753611
0.746808
0.739228
0.730915
0.721923
0.712316
0.702171
0.691576
0.680635
0.669468
0.658213
0.647034
0.636117
0.62567
0.612586
0.596463
0.578441
0.562478
0.551874
0.54805
0.55105
0.559892
0.570492
0.578813
0.583733
0.586634
0.58994
0.593425
0.596922
0.600309
0.603497
0.606426
0.609061
0.611389
0.613417
0.615166
0.616667
0.617957
0.61907
0.62003
0.620843
0.621494
0.621966
0.622273
0.622479
0.622672
0.622936
0.623333
0.623906
0.624678
0.625653
0.626814
0.62812
0.629501
0.630872
0.632166
0.633363
0.63448
0.635535
0.636526
0.637432
0.638218
0.638848
0.639289
0.639516
0.653757
0.653805
0.653899
0.654026
0.654166
0.654286
0.654339
0.654281
0.654087
0.653779
0.653405
0.653017
0.652658
0.652363
0.65216
0.65208
0.652162
0.652457
0.653034
0.653981
0.655402
0.657415
0.660125
0.663594
0.667675
0.672232
0.677115
0.682471
0.688369
0.694894
0.701977
0.709505
0.717346
0.725362
0.733418
0.741389
0.749159
0.756623
0.763689
0.770276
0.776314
0.781741
0.786506
0.790567
0.793887
0.79644
0.798201
0.799155
0.799291
0.798601
0.797083
0.79474
0.79158
0.787615
0.782862
0.777345
0.771094
0.764146
0.756546
0.748347
0.739613
0.730417
0.720846
0.710998
0.700986
0.69094
0.681009
0.671362
0.662196
0.653737
0.645608
0.635825
0.6263
0.6189
0.615015
0.614833
0.617145
0.619913
0.620796
0.622027
0.623962
0.626353
0.629001
0.631755
0.634498
0.63714
0.639622
0.641903
0.643961
0.645794
0.647407
0.64882
0.650052
0.651125
0.652055
0.65285
0.65351
0.654039
0.654458
0.654809
0.655148
0.655532
0.656007
0.656606
0.657346
0.658231
0.659246
0.66036
0.66153
0.662701
0.663833
0.664903
0.665908
0.666847
0.667713
0.66849
0.669154
0.66968
0.670046
0.670233
0.686988
0.687025
0.687095
0.687188
0.687289
0.687374
0.687416
0.687393
0.687295
0.687136
0.686943
0.686753
0.686602
0.686521
0.686541
0.686697
0.687026
0.687578
0.688411
0.689593
0.691201
0.69331
0.695981
0.69923
0.703005
0.707235
0.711866
0.716927
0.722448
0.728443
0.73487
0.741649
0.748681
0.755857
0.763067
0.770203
0.777166
0.783864
0.790213
0.796138
0.801574
0.806464
0.810758
0.814416
0.817403
0.819691
0.821258
0.822087
0.822168
0.821492
0.820059
0.817872
0.814938
0.811271
0.806888
0.801813
0.796077
0.789717
0.782776
0.775307
0.767371
0.759039
0.750392
0.741524
0.732538
0.723552
0.714699
0.706126
0.697995
0.690476
0.683735
0.678037
0.673245
0.668981
0.665482
0.662826
0.660604
0.659262
0.659028
0.659615
0.660835
0.662507
0.664473
0.666601
0.668785
0.670945
0.673019
0.674966
0.67676
0.678389
0.679851
0.681153
0.682306
0.683323
0.684215
0.684991
0.685657
0.686224
0.686711
0.687151
0.68758
0.688038
0.688558
0.689164
0.68987
0.690678
0.691578
0.692547
0.693556
0.69457
0.695561
0.696509
0.697402
0.698232
0.69899
0.699661
0.700228
0.700673
0.700981
0.701138
0.720182
0.720212
0.720268
0.720344
0.720428
0.720504
0.720559
0.72058
0.720565
0.720525
0.720478
0.720452
0.720475
0.720577
0.720788
0.721139
0.721669
0.722419
0.723438
0.724779
0.726498
0.728645
0.731256
0.734342
0.737881
0.741837
0.746186
0.750924
0.756052
0.76156
0.76741
0.77354
0.779872
0.786318
0.792788
0.799191
0.80544
0.811454
0.81716
0.822489
0.82738
0.831782
0.835647
0.838937
0.841618
0.843664
0.845053
0.845769
0.8458
0.845141
0.84379
0.841751
0.839031
0.835643
0.831606
0.826943
0.821685
0.815867
0.809533
0.802733
0.795525
0.787976
0.780161
0.772167
0.764089
0.756031
0.74811
0.74045
0.733181
0.726438
0.720343
0.715008
0.710415
0.706498
0.703184
0.700434
0.698341
0.696994
0.696439
0.696569
0.697257
0.698369
0.699782
0.701389
0.703097
0.704835
0.706544
0.708183
0.709724
0.71115
0.712454
0.713634
0.714696
0.715646
0.716492
0.717241
0.717902
0.718487
0.719013
0.719502
0.719982
0.720481
0.721022
0.721622
0.722293
0.723034
0.72384
0.724694
0.725576
0.726463
0.727333
0.728169
0.728958
0.72969
0.730353
0.730935
0.731424
0.731805
0.732066
0.732199
0.753345
0.753372
0.753423
0.753492
0.753573
0.753657
0.753735
0.753803
0.753861
0.753919
0.753992
0.754101
0.754271
0.754525
0.754893
0.755404
0.756091
0.756991
0.758142
0.759588
0.761367
0.763516
0.766058
0.769001
0.772337
0.776048
0.780116
0.78453
0.789277
0.794336
0.799671
0.80523
0.810949
0.816756
0.822576
0.828331
0.833948
0.839354
0.844484
0.849276
0.853677
0.857636
0.861111
0.864066
0.866469
0.868294
0.869521
0.870134
0.870123
0.869482
0.86821
0.86631
0.86379
0.860664
0.856949
0.852669
0.847852
0.842534
0.836757
0.830567
0.82402
0.817178
0.81011
0.802896
0.795619
0.788374
0.78126
0.774381
0.767843
0.76175
0.756192
0.751235
0.746893
0.743147
0.73997
0.737354
0.735331
0.733934
0.733165
0.732966
0.733253
0.733929
0.734898
0.736075
0.737381
0.738753
0.740139
0.741498
0.742803
0.744034
0.745179
0.746234
0.747198
0.748074
0.748866
0.74958
0.750224
0.75081
0.75135
0.751863
0.752367
0.752882
0.753426
0.754011
0.754644
0.755327
0.756053
0.756813
0.757592
0.758372
0.759138
0.759876
0.760572
0.761216
0.761797
0.762304
0.762727
0.763055
0.76328
0.763394
0.786482
0.786508
0.786558
0.786629
0.786716
0.786815
0.786922
0.787035
0.787158
0.787298
0.787471
0.787691
0.78798
0.78836
0.788855
0.789493
0.790301
0.79131
0.792553
0.794062
0.795867
0.797993
0.800458
0.803268
0.80642
0.809902
0.813701
0.817803
0.822189
0.826835
0.831707
0.836759
0.841938
0.847182
0.852428
0.857611
0.862666
0.86753
0.872145
0.876456
0.880414
0.883974
0.887096
0.889747
0.891897
0.893521
0.894602
0.895123
0.895076
0.894454
0.893257
0.891489
0.889156
0.886273
0.882857
0.87893
0.874521
0.869662
0.864393
0.858758
0.85281
0.846604
0.840206
0.833686
0.827118
0.820586
0.814174
0.80797
0.802061
0.796527
0.79144
0.786848
0.782776
0.779226
0.776194
0.77368
0.771695
0.770245
0.76932
0.768878
0.76886
0.769195
0.769808
0.770631
0.771599
0.772657
0.773759
0.774868
0.775957
0.777004
0.777996
0.778925
0.779788
0.780585
0.781317
0.781988
0.782606
0.783178
0.783716
0.784232
0.78474
0.785255
0.785789
0.786351
0.786946
0.787575
0.788233
0.788914
0.789606
0.790296
0.790973
0.791624
0.792238
0.792804
0.793314
0.793757
0.794125
0.79441
0.794604
0.794702
0.819593
0.81962
0.819672
0.819749
0.819848
0.819965
0.820101
0.820257
0.820436
0.820647
0.820901
0.821212
0.821598
0.822079
0.822675
0.823411
0.824309
0.825396
0.826698
0.82824
0.830045
0.832132
0.834513
0.837193
0.840171
0.843438
0.846984
0.850791
0.854841
0.859109
0.863563
0.868162
0.87286
0.877606
0.882344
0.887019
0.891574
0.895955
0.90011
0.903989
0.907549
0.910749
0.913553
0.915929
0.91785
0.919293
0.920242
0.920682
0.920603
0.920002
0.918876
0.917231
0.915073
0.912416
0.909276
0.905674
0.901638
0.897199
0.892394
0.887264
0.881856
0.876224
0.870425
0.864522
0.858583
0.852678
0.84688
0.841265
0.835902
0.830859
0.826191
0.821942
0.818136
0.814788
0.811901
0.809479
0.807523
0.806033
0.804991
0.804367
0.804115
0.804181
0.804509
0.805042
0.805727
0.806517
0.807372
0.808259
0.809151
0.810028
0.810875
0.811682
0.812445
0.81316
0.813828
0.81445
0.815033
0.81558
0.816102
0.816608
0.817107
0.81761
0.818125
0.818658
0.819214
0.819793
0.820391
0.821003
0.82162
0.822234
0.822834
0.823409
0.823951
0.82445
0.824898
0.825286
0.825607
0.825855
0.826023
0.826109
0.852676
0.852706
0.852763
0.852848
0.852959
0.853097
0.853262
0.853455
0.853683
0.853952
0.854273
0.854658
0.855122
0.855682
0.856357
0.857165
0.858129
0.859268
0.860603
0.862155
0.863942
0.865976
0.868268
0.870821
0.873633
0.876698
0.880004
0.883536
0.887275
0.891198
0.895273
0.899466
0.903735
0.908037
0.912324
0.916547
0.920657
0.924606
0.928349
0.931842
0.935045
0.937921
0.940437
0.942565
0.94428
0.945561
0.946391
0.946758
0.946654
0.946073
0.945016
0.943485
0.94149
0.939041
0.936156
0.932853
0.929159
0.925103
0.920719
0.916046
0.911127
0.90601
0.900748
0.895395
0.890013
0.884662
0.879405
0.874306
0.869424
0.864814
0.860524
0.856591
0.85304
0.849888
0.847143
0.844809
0.842887
0.841371
0.840245
0.839483
0.839051
0.838907
0.839005
0.8393
0.839749
0.840312
0.840954
0.841645
0.842361
0.843082
0.843793
0.844485
0.845149
0.845783
0.846384
0.846953
0.847493
0.848009
0.848506
0.84899
0.84947
0.849951
0.850441
0.850943
0.85146
0.851991
0.852535
0.853087
0.853639
0.854186
0.854718
0.855228
0.855707
0.856147
0.856541
0.856882
0.857163
0.857379
0.857526
0.8576
0.885731
0.885763
0.885826
0.88592
0.886045
0.886202
0.886393
0.88662
0.886889
0.887206
0.887581
0.888024
0.88855
0.889171
0.889904
0.890765
0.891772
0.892942
0.894292
0.895837
0.89759
0.899563
0.901762
0.904189
0.906842
0.909715
0.912797
0.916074
0.919527
0.923133
0.926866
0.930693
0.934578
0.938484
0.942367
0.946187
0.9499
0.953464
0.956839
0.959985
0.962867
0.965452
0.96771
0.969615
0.971144
0.972279
0.973003
0.973307
0.97318
0.972621
0.971628
0.970205
0.96836
0.966104
0.963452
0.960423
0.957042
0.953335
0.949334
0.945075
0.940596
0.935943
0.93116
0.926299
0.921411
0.916551
0.911773
0.90713
0.902674
0.898451
0.894501
0.890858
0.887545
0.884581
0.881973
0.879729
0.877846
0.876319
0.875134
0.87427
0.8737
0.873389
0.873303
0.873404
0.873657
0.874028
0.874486
0.875006
0.875565
0.876145
0.876732
0.877314
0.877885
0.878438
0.878972
0.879485
0.879979
0.880457
0.880921
0.881378
0.881831
0.882285
0.882745
0.883213
0.883691
0.884178
0.884672
0.885169
0.885665
0.886152
0.886626
0.887078
0.887501
0.88789
0.888237
0.888537
0.888783
0.888973
0.889101
0.889166
0.918754
0.918789
0.918857
0.91896
0.919099
0.919274
0.919487
0.919743
0.920046
0.920402
0.92082
0.921309
0.921881
0.922548
0.923323
0.92422
0.925253
0.926437
0.927785
0.929309
0.931019
0.932924
0.935028
0.937331
0.939832
0.942524
0.945396
0.948436
0.951625
0.954942
0.958364
0.961861
0.965402
0.968952
0.972475
0.975934
0.979292
0.982512
0.985556
0.988392
0.990986
0.99331
0.995336
0.99704
0.998403
0.999407
1.00004
1.00028
1.00014
0.999602
0.99867
0.997347
0.995641
0.993562
0.991124
0.988347
0.985251
0.981861
0.978207
0.974322
0.970241
0.966003
0.961651
0.957229
0.952782
0.948358
0.944005
0.939767
0.93569
0.931813
0.928172
0.924794
0.921703
0.918915
0.916441
0.914286
0.912448
0.910924
0.909702
0.908764
0.908088
0.907648
0.907414
0.907357
0.907447
0.907656
0.907957
0.908328
0.908749
0.909202
0.909675
0.910156
0.910637
0.911113
0.91158
0.912036
0.912481
0.912917
0.913345
0.913769
0.914191
0.914614
0.915041
0.915473
0.915912
0.916357
0.916805
0.917253
0.917698
0.918133
0.918555
0.918956
0.919331
0.919674
0.91998
0.920244
0.920461
0.920628
0.92074
0.920797
0.951743
0.95178
0.951854
0.951966
0.952116
0.952306
0.952539
0.952819
0.953149
0.953537
0.953988
0.954512
0.955118
0.955817
0.95662
0.957538
0.958584
0.959768
0.961102
0.962594
0.964254
0.966086
0.968093
0.970276
0.972631
0.975151
0.977828
0.980648
0.983594
0.986648
0.989787
0.992986
0.996215
0.999446
1.00265
1.00578
1.00882
1.01173
1.01448
1.01704
1.01938
1.02147
1.02328
1.02481
1.02602
1.02691
1.02745
1.02765
1.02749
1.02698
1.0261
1.02487
1.02329
1.02138
1.01914
1.01659
1.01375
1.01065
1.00731
1.00377
1.00004
0.996179
0.992212
0.988182
0.98413
0.980095
0.97612
0.972245
0.968507
0.964941
0.961578
0.958443
0.955558
0.952937
0.950591
0.948524
0.946738
0.945228
0.943985
0.942996
0.942241
0.941699
0.941348
0.941163
0.941118
0.941191
0.941359
0.941601
0.9419
0.94224
0.942609
0.942997
0.943395
0.943796
0.944198
0.944598
0.944993
0.945385
0.945774
0.946161
0.946549
0.946938
0.947331
0.947728
0.948128
0.948532
0.948937
0.949341
0.94974
0.950129
0.950504
0.95086
0.951192
0.951496
0.951766
0.951999
0.95219
0.952336
0.952435
0.952485
0.984696
0.984735
0.984814
0.984932
0.985093
0.985296
0.985545
0.985844
0.986196
0.986607
0.987083
0.987632
0.988262
0.988982
0.989801
0.990729
0.991775
0.992949
0.99426
0.995713
0.997316
0.999073
1.00098
1.00305
1.00526
1.00762
1.01012
1.01273
1.01546
1.01827
1.02115
1.02408
1.02703
1.02997
1.03288
1.03573
1.03848
1.04112
1.0436
1.04591
1.04801
1.04989
1.05152
1.05289
1.05397
1.05475
1.05522
1.05538
1.05521
1.05471
1.05389
1.05275
1.05129
1.04952
1.04746
1.04512
1.04252
1.03968
1.03663
1.03338
1.02998
1.02646
1.02284
1.01916
1.01546
1.01177
1.00814
1.00458
1.00115
0.997866
0.994756
0.991844
0.989148
0.986684
0.98446
0.982482
0.980752
0.979266
0.978016
0.976992
0.976179
0.975561
0.975117
0.974828
0.974673
0.974631
0.974685
0.974816
0.975009
0.975249
0.975525
0.975828
0.976148
0.97648
0.976819
0.977163
0.977509
0.977856
0.978204
0.978554
0.978905
0.979259
0.979617
0.979978
0.980341
0.980707
0.981072
0.981434
0.981791
0.982138
0.982472
0.982788
0.983083
0.983351
0.98359
0.983795
0.983963
0.984092
0.984179
0.984223
1.01761
1.01765
1.01773
1.01786
1.01803
1.01824
1.0185
1.01882
1.01918
1.01961
1.02011
1.02067
1.02132
1.02205
1.02287
1.0238
1.02484
1.02599
1.02727
1.02868
1.03023
1.0319
1.03372
1.03567
1.03775
1.03996
1.04228
1.04471
1.04723
1.04982
1.05247
1.05515
1.05785
1.06053
1.06318
1.06577
1.06826
1.07065
1.0729
1.07498
1.07688
1.07857
1.08003
1.08125
1.08221
1.0829
1.08331
1.08342
1.08325
1.08277
1.082
1.08094
1.07958
1.07795
1.07606
1.07391
1.07152
1.06892
1.06613
1.06316
1.06005
1.05683
1.05352
1.05016
1.04677
1.0434
1.04007
1.03681
1.03365
1.03062
1.02774
1.02503
1.02251
1.02019
1.01808
1.01619
1.01452
1.01307
1.01182
1.01078
1.00992
1.00925
1.00873
1.00836
1.00811
1.00798
1.00793
1.00797
1.00807
1.00822
1.00842
1.00864
1.00889
1.00916
1.00944
1.00973
1.01002
1.01033
1.01063
1.01094
1.01126
1.01158
1.0119
1.01222
1.01255
1.01288
1.01321
1.01353
1.01385
1.01416
1.01446
1.01474
1.015
1.01524
1.01545
1.01563
1.01578
1.01589
1.01597
1.016
1.05048
1.05052
1.05061
1.05074
1.05091
1.05114
1.05141
1.05173
1.05211
1.05255
1.05306
1.05363
1.05428
1.05502
1.05584
1.05676
1.05779
1.05892
1.06016
1.06152
1.063
1.0646
1.06632
1.06816
1.07012
1.07218
1.07435
1.0766
1.07893
1.08132
1.08375
1.08621
1.08868
1.09113
1.09354
1.09589
1.09816
1.10032
1.10235
1.10424
1.10595
1.10747
1.10878
1.10987
1.11072
1.11133
1.11168
1.11176
1.11158
1.11113
1.1104
1.10941
1.10816
1.10666
1.10491
1.10293
1.10074
1.09836
1.0958
1.09308
1.09024