/*--------------------------------*- C++ -*----------------------------------*\
| =========                 |                                                 |
| \\      /  F ield         | OpenFOAM: The Open Source CFD Toolbox           |
|  \\    /   O peration     | Version:  2406                                  |
|   \\  /    A nd           | Website:  www.openfoam.com                      |
|    \\/     M anipulation  |                                                 |
\*---------------------------------------------------------------------------*/
FoamFile
{
    version     2.0;
    format      ascii;
    arch        "LSB;label=32;scalar=64";
    class       volScalarField;
    location    "3.4";
    object      C;
}
// * * * * * * * * * * * * * * * * * * * * * * * * * * * * * * * * * * * * * //

dimensions      [1 -3 0 0 0 0 0];

internalField   nonuniform List<scalar> 
14400
(
0.592212
0.578621
0.559191
0.540894
0.525941
0.515441
0.510044
0.510138
0.515918
0.527406
0.544442
0.566638
0.593191
0.622189
0.645766
0.656236
0.65604
0.643532
0.621055
0.598326
0.579657
0.566623
0.560103
0.560708
0.568913
0.58512
0.609677
0.642881
0.684937
0.735841
0.795042
0.859956
0.910679
0.943802
0.970863
0.9947
1.01573
1.03426
1.05055
1.0648
1.07715
1.08773
1.09665
1.10397
1.10976
1.11406
1.11692
1.11836
1.11838
1.117
1.11422
1.11001
1.10436
1.09723
1.08858
1.07834
1.06645
1.05282
1.03732
1.01983
1.00018
0.978142
0.953458
0.925788
0.894704
0.851261
0.788586
0.72106
0.660147
0.607502
0.563254
0.527178
0.49895
0.478245
0.464771
0.458281
0.458578
0.465508
0.478949
0.498784
0.524856
0.556869
0.59413
0.634463
0.664575
0.680652
0.690053
0.694165
0.693161
0.686895
0.674073
0.648516
0.614542
0.583144
0.556372
0.534935
0.519069
0.508712
0.503544
0.502963
0.506015
0.511272
0.516687
0.519546
0.517166
0.512261
0.507572
0.505175
0.506527
0.512618
0.524089
0.541304
0.564377
0.593131
0.626908
0.663656
0.69163
0.706773
0.715807
0.720198
0.60576
0.594024
0.573615
0.554156
0.53829
0.527151
0.521365
0.521319
0.527206
0.539035
0.556631
0.579594
0.607025
0.636518
0.657321
0.665415
0.66556
0.656753
0.635726
0.611932
0.592333
0.578579
0.571542
0.571841
0.579948
0.596258
0.62111
0.654791
0.697499
0.749175
0.808849
0.871815
0.916993
0.947546
0.974087
0.997511
1.01822
1.0365
1.0526
1.06669
1.07892
1.08941
1.09824
1.1055
1.11124
1.11551
1.11834
1.11976
1.11979
1.11841
1.11564
1.11146
1.10584
1.09876
1.09016
1.08
1.0682
1.05467
1.03932
1.022
1.00256
0.980789
0.956443
0.929199
0.898635
0.859634
0.801878
0.733678
0.671987
0.618616
0.573735
0.537136
0.508504
0.487519
0.473892
0.467378
0.467783
0.474952
0.488762
0.509093
0.53578
0.568491
0.606313
0.645747
0.672164
0.686466
0.695341
0.699279
0.698424
0.692704
0.681792
0.66051
0.627753
0.595856
0.568466
0.546576
0.5305
0.520222
0.515473
0.515707
0.520058
0.527188
0.535036
0.540114
0.535505
0.528156
0.521584
0.517877
0.518405
0.524065
0.535442
0.552849
0.576356
0.605696
0.639913
0.675245
0.698819
0.711998
0.72045
0.724588
0.627419
0.620638
0.601656
0.580342
0.562838
0.550516
0.543979
0.543663
0.549766
0.56227
0.58093
0.605314
0.63414
0.661611
0.675976
0.682101
0.682774
0.677813
0.662672
0.638516
0.617526
0.602459
0.594428
0.594133
0.602052
0.618568
0.643995
0.678591
0.722521
0.775744
0.836782
0.890189
0.926331
0.954988
0.980429
1.00304
1.02313
1.04093
1.05665
1.07044
1.08243
1.09273
1.10141
1.10854
1.11419
1.11839
1.12118
1.12257
1.12258
1.12122
1.11847
1.11434
1.10879
1.10179
1.09331
1.08329
1.07167
1.05836
1.04328
1.02629
1.00726
0.986014
0.962328
0.935928
0.906457
0.872768
0.824481
0.758149
0.695574
0.640888
0.594784
0.557158
0.527726
0.506182
0.492249
0.485688
0.486306
0.493948
0.508485
0.529787
0.557657
0.591711
0.630748
0.665251
0.685086
0.69759
0.705565
0.709187
0.708552
0.703663
0.694453
0.679748
0.653629
0.621011
0.592506
0.569753
0.553262
0.543111
0.539137
0.540879
0.547631
0.558183
0.570381
0.576522
0.570833
0.55911
0.549093
0.542965
0.541965
0.546826
0.558047
0.575834
0.600161
0.630565
0.665412
0.693662
0.710455
0.721902
0.729406
0.733117
0.654089
0.650975
0.640065
0.618476
0.599222
0.585409
0.577794
0.577089
0.583528
0.59703
0.617087
0.643162
0.672311
0.690392
0.699111
0.704239
0.705494
0.702876
0.695497
0.677271
0.654989
0.638186
0.628739
0.627604
0.635262
0.652095
0.678351
0.71418
0.759474
0.813573
0.869811
0.909493
0.939016
0.965646
0.989601
1.01109
1.03032
1.04745
1.06263
1.076
1.08764
1.09766
1.10612
1.11308
1.11859
1.12269
1.12541
1.12676
1.12676
1.1254
1.1227
1.11863
1.11318
1.10631
1.09799
1.08818
1.07682
1.06383
1.04913
1.03263
1.01419
0.993677
0.970924
0.945729
0.917861
0.887082
0.849588
0.794772
0.730979
0.674393
0.626554
0.587442
0.556831
0.534453
0.52006
0.513426
0.514361
0.522702
0.538301
0.560999
0.59044
0.625716
0.663535
0.688135
0.702612
0.713243
0.720141
0.723353
0.722934
0.718941
0.711462
0.700693
0.683987
0.656924
0.627967
0.604178
0.587114
0.577074
0.574133
0.577802
0.587518
0.60139
0.6121
0.614677
0.61247
0.602251
0.588884
0.579758
0.576802
0.580596
0.59166
0.609962
0.635258
0.666007
0.694907
0.71347
0.726147
0.735747
0.742155
0.745356
0.683861
0.681892
0.678132
0.666536
0.646623
0.631554
0.622515
0.621329
0.628221
0.643063
0.664334
0.691257
0.709388
0.718789
0.725728
0.730247
0.732089
0.731294
0.728227
0.720179
0.703199
0.685368
0.674277
0.672187
0.679539
0.69682
0.724123
0.761399
0.807605
0.860237
0.899408
0.928037
0.954575
0.97898
1.00124
1.02141
1.0396
1.05591
1.07044
1.08327
1.09448
1.10415
1.11233
1.11907
1.12441
1.12838
1.131
1.1323
1.13228
1.13094
1.12829
1.12431
1.11898
1.11228
1.10418
1.09463
1.08359
1.07101
1.0568
1.04089
1.02319
1.00358
0.981963
0.958201
0.932176
0.903794
0.873032
0.833187
0.776322
0.718802
0.669163
0.62824
0.596109
0.572628
0.557623
0.550889
0.552237
0.561489
0.578435
0.602908
0.634227
0.670198
0.696928
0.712178
0.723847
0.732629
0.738405
0.741148
0.740888
0.737707
0.73176
0.72333
0.712912
0.696871
0.673357
0.649134
0.631531
0.621469
0.619756
0.625255
0.637263
0.647005
0.650506
0.650686
0.650809
0.64771
0.638492
0.627026
0.622214
0.624735
0.635754
0.654503
0.680123
0.705104
0.722685
0.734739
0.744917
0.752783
0.758112
0.760796
0.715602
0.71443
0.712333
0.709394
0.700535
0.687661
0.677092
0.675567
0.682853
0.699134
0.718722
0.733612
0.741992
0.748988
0.754765
0.758933
0.761319
0.761986
0.761237
0.759605
0.753748
0.742399
0.730222
0.727503
0.73449
0.752388
0.78074
0.819058
0.862375
0.897217
0.923392
0.948493
0.972268
0.99446
1.01495
1.03372
1.05077
1.06616
1.07993
1.09215
1.10287
1.11213
1.11998
1.12645
1.13159
1.1354
1.13792
1.13916
1.13912
1.1378
1.13521
1.13133
1.12615
1.11965
1.1118
1.10257
1.09192
1.0798
1.06617
1.05095
1.03408
1.01551
0.995143
0.972937
0.948847
0.922882
0.895132
0.865795
0.826731
0.773179
0.722626
0.679773
0.64586
0.621018
0.605262
0.598396
0.600235
0.610582
0.628957
0.655267
0.68722
0.712496
0.727529
0.738711
0.747969
0.75502
0.759701
0.761946
0.761764
0.759239
0.75454
0.747952
0.73991
0.731004
0.718413
0.701902
0.684898
0.674539
0.674284
0.680032
0.685242
0.687085
0.686753
0.686753
0.687041
0.687677
0.686243
0.681542
0.676473
0.677477
0.688706
0.706701
0.724352
0.738146
0.748411
0.757882
0.765997
0.772358
0.776712
0.77892
0.748515
0.747891
0.74683
0.745698
0.744933
0.741233
0.737328
0.737014
0.743388
0.753278
0.762653
0.768648
0.774675
0.780407
0.78541
0.789401
0.79227
0.794091
0.795131
0.795843
0.796865
0.79594
0.793
0.791767
0.798204
0.816887
0.844941
0.875408
0.902819
0.925458
0.948109
0.970276
0.991545
1.01164
1.0304
1.04773
1.0636
1.07802
1.09099
1.10254
1.11271
1.12152
1.129
1.13518
1.14008
1.14373
1.14613
1.14729
1.14723
1.14593
1.14341
1.13965
1.13464
1.12837
1.12081
1.11193
1.10172
1.09012
1.07711
1.06265
1.0467
1.02921
1.01017
0.989556
0.967395
0.943754
0.918781
0.892726
0.865919
0.83086
0.785762
0.741822
0.706168
0.679768
0.663197
0.656162
0.658493
0.670105
0.689286
0.716123
0.736542
0.749229
0.758675
0.767167
0.774298
0.77978
0.783433
0.78517
0.784983
0.782944
0.779208
0.774029
0.76777
0.760907
0.754039
0.746258
0.736973
0.729527
0.726737
0.726461
0.724936
0.723386
0.722665
0.722532
0.722925
0.72392
0.725774
0.727704
0.728476
0.731911
0.740145
0.750274
0.758986
0.766931
0.774925
0.78238
0.788833
0.793938
0.797459
0.799253
0.782052
0.781788
0.781396
0.781139
0.781396
0.782671
0.78451
0.786496
0.79026
0.794035
0.797954
0.802653
0.807651
0.812556
0.817067
0.82099
0.824267
0.826977
0.829352
0.831771
0.834768
0.839054
0.8444
0.849807
0.859679
0.876076
0.895638
0.914892
0.933756
0.95342
0.97331
0.992957
1.01199
1.03016
1.04726
1.0632
1.0779
1.09132
1.10346
1.11432
1.12391
1.13224
1.13932
1.14519
1.14984
1.1533
1.15557
1.15665
1.15656
1.1553
1.15285
1.14923
1.1444
1.13838
1.13113
1.12264
1.11289
1.10185
1.08951
1.07585
1.06084
1.04447
1.02676
1.00772
0.98742
0.96596
0.943513
0.920338
0.896784
0.873292
0.845036
0.811499
0.775921
0.748302
0.73121
0.723937
0.726317
0.739148
0.755697
0.768968
0.777211
0.784019
0.790774
0.796985
0.802276
0.806369
0.809082
0.810317
0.810054
0.808345
0.80532
0.801186
0.796231
0.790815
0.785352
0.78026
0.775875
0.771575
0.767138
0.763204
0.760528
0.758858
0.757989
0.757785
0.758206
0.759306
0.761234
0.764213
0.768518
0.773445
0.778353
0.783464
0.78935
0.795663
0.801978
0.807881
0.813016
0.817101
0.819932
0.821379
0.815853
0.815814
0.815829
0.816066
0.816751
0.818104
0.820172
0.822832
0.825511
0.828625
0.832255
0.836359
0.840719
0.8451
0.849309
0.853227
0.85683
0.860199
0.863528
0.867119
0.871382
0.876816
0.883956
0.893406
0.904876
0.917636
0.93164
0.947174
0.963821
0.981155
0.998755
1.01625
1.03332
1.04973
1.0653
1.07991
1.09346
1.10591
1.11721
1.12737
1.13636
1.14419
1.15087
1.1564
1.1608
1.16405
1.16619
1.16719
1.16708
1.16584
1.16348
1.15999
1.15537
1.1496
1.14268
1.1346
1.12534
1.11489
1.10324
1.09039
1.07633
1.06109
1.04468
1.02716
1.0086
0.98915
0.968974
0.948327
0.927533
0.907001
0.887234
0.866888
0.844394
0.822869
0.806872
0.799218
0.798993
0.803047
0.808092
0.81088
0.814506
0.818863
0.823415
0.827725
0.831451
0.834337
0.836208
0.836963
0.83657
0.835063
0.832541
0.829165
0.825153
0.820768
0.816293
0.811982
0.807989
0.804208
0.8006
0.797474
0.795115
0.793528
0.792647
0.792413
0.792808
0.793861
0.795646
0.79824
0.801659
0.805635
0.809869
0.814392
0.819288
0.824393
0.829443
0.83415
0.838249
0.841518
0.843789
0.844952
0.849691
0.849787
0.850037
0.850545
0.851437
0.852821
0.854721
0.857067
0.859702
0.862698
0.866081
0.869809
0.873766
0.877815
0.881842
0.885779
0.889627
0.893462
0.897441
0.901796
0.906826
0.912869
0.920257
0.929236
0.939727
0.951468
0.964354
0.978342
0.993199
1.00863
1.02431
1.03995
1.0553
1.07014
1.08431
1.09767
1.11013
1.12163
1.13212
1.14158
1.14997
1.15731
1.16357
1.16876
1.17288
1.17594
1.17793
1.17885
1.17871
1.17751
1.17524
1.17189
1.16748
1.16198
1.15541
1.14774
1.13898
1.12912
1.11817
1.10613
1.09302
1.07886
1.06371
1.04762
1.03069
1.01306
0.994907
0.976463
0.958019
0.939928
0.922607
0.906535
0.892246
0.878635
0.866682
0.858479
0.853949
0.850666
0.849044
0.849405
0.851067
0.853513
0.856297
0.859047
0.861465
0.86332
0.864451
0.864757
0.864199
0.862795
0.860615
0.85778
0.854449
0.850813
0.847068
0.843388
0.839887
0.8366
0.833579
0.830975
0.82893
0.827493
0.826659
0.826413
0.826751
0.827686
0.829246
0.831443
0.834242
0.837508
0.841096
0.844946
0.849015
0.853178
0.857251
0.861028
0.864312
0.866932
0.868754
0.869688
0.883433
0.883607
0.883988
0.884639
0.885632
0.887022
0.888825
0.891012
0.893532
0.896384
0.899562
0.903031
0.906721
0.910553
0.914464
0.918421
0.922437
0.926581
0.930977
0.935798
0.941257
0.947579
0.954968
0.963552
0.973318
0.984156
0.995966
1.00864
1.02201
1.03584
1.0499
1.06396
1.0778
1.09123
1.10412
1.11633
1.12777
1.13836
1.14807
1.15684
1.16465
1.17149
1.17733
1.18219
1.18604
1.18889
1.19074
1.19158
1.19141
1.19024
1.18806
1.18487
1.18067
1.17545
1.16922
1.16197
1.15372
1.14445
1.13419
1.12295
1.11075
1.09764
1.08367
1.06892
1.05348
1.03749
1.02113
1.0046
0.988152
0.972087
0.95673
0.942431
0.929509
0.918126
0.908493
0.900474
0.894243
0.890019
0.887556
0.886627
0.886845
0.887824
0.889212
0.890703
0.892042
0.893029
0.893518
0.893414
0.892675
0.891303
0.889345
0.886889
0.88405
0.880966
0.877777
0.874613
0.871573
0.868725
0.866142
0.863916
0.862137
0.860853
0.860082
0.859829
0.860096
0.860888
0.862208
0.864045
0.866356
0.869059
0.87206
0.875282
0.878649
0.882052
0.885353
0.888398
0.891039
0.893144
0.894608
0.895358
0.917002
0.917218
0.917669
0.918393
0.919429
0.920809
0.922545
0.924625
0.927029
0.929743
0.932753
0.93603
0.939532
0.943214
0.947041
0.951002
0.955118
0.959448
0.964087
0.969162
0.974823
0.98122
0.988483
0.996687
1.00584
1.01587
1.02671
1.03825
1.05035
1.06282
1.0755
1.08818
1.10069
1.11288
1.1246
1.13576
1.14624
1.15599
1.16494
1.17306
1.1803
1.18666
1.1921
1.19661
1.2002
1.20284
1.20455
1.20531
1.20512
1.20398
1.20189
1.19885
1.19487
1.18993
1.18405
1.17722
1.16946
1.16078
1.15119
1.14072
1.1294
1.11728
1.10442
1.0909
1.07682
1.06231
1.04752
1.03265
1.01791
1.00353
0.989797
0.97695
0.965227
0.954791
0.94577
0.938191
0.932124
0.92761
0.924532
0.922703
0.921862
0.921727
0.922025
0.92251
0.92297
0.923235
0.923176
0.922707
0.921782
0.920395
0.918575
0.916381
0.913897
0.911222
0.908462
0.905715
0.903066
0.900587
0.898345
0.896412
0.894849
0.8937
0.892988
0.892725
0.892916
0.89356
0.894653
0.896172
0.898079
0.900313
0.902802
0.905473
0.908247
0.911029
0.913711
0.916173
0.918302
0.919997
0.921174
0.921778
0.950355
0.950592
0.951078
0.951833
0.952881
0.954241
0.95592
0.957915
0.960214
0.962807
0.965677
0.968804
0.972163
0.975728
0.979483
0.983428
0.987587
0.992006
0.99676
1.00194
1.00765
1.014
1.02106
1.02888
1.03747
1.04678
1.05676
1.06731
1.0783
1.08961
1.10108
1.11256
1.12391
1.13498
1.14566
1.15585
1.16546
1.17441
1.18266
1.19015
1.19685
1.20274
1.20778
1.21197
1.21529
1.21774
1.21931
1.21998
1.21977
1.21867
1.21668
1.21379
1.21002
1.20535
1.19981
1.1934
1.18612
1.17801
1.16907
1.15933
1.14885
1.13766
1.12583
1.11344
1.10058
1.08739
1.074
1.06057
1.04729
1.03435
1.02197
1.01035
0.999657
0.990042
0.981604
0.974395
0.968451
0.963766
0.96026
0.957791
0.956173
0.955196
0.954651
0.954341
0.954093
0.953765
0.953245
0.952456
0.951352
0.949921
0.948178
0.946162
0.943933
0.941565
0.939134
0.936718
0.934389
0.93221
0.93024
0.928537
0.927147
0.926109
0.925444
0.925166
0.925281
0.925786
0.92667
0.927911
0.929475
0.931311
0.933361
0.93556
0.937836
0.940108
0.942287
0.944281
0.946
0.947366
0.948315
0.948801
0.983472
0.983717
0.984216
0.98498
0.986022
0.987354
0.98898
0.9909
0.993107
0.995592
0.998343
1.00135
1.00459
1.00805
1.01173
1.01564
1.01979
1.02423
1.02901
1.03419
1.03985
1.04606
1.05287
1.0603
1.06837
1.07703
1.08624
1.09591
1.10595
1.11624
1.12666
1.13709
1.1474
1.15748
1.16722
1.17653
1.18532
1.19354
1.20113
1.20803
1.21422
1.21965
1.22432
1.22819
1.23126
1.23352
1.23495
1.23555
1.23532
1.23425
1.23235
1.22962
1.22605
1.22166
1.21645
1.21044
1.20363
1.19606
1.18774
1.1787
1.169
1.15867
1.14779
1.13644
1.12469
1.11268
1.10051
1.08834
1.07632
1.06461
1.05339
1.04281
1.03301
1.02412
1.01621
1.00933
1.00352
0.998744
0.994949
0.992028
0.989842
0.988234
0.987041
0.986109
0.985297
0.984487
0.983584
0.982519
0.98125
0.979759
0.978052
0.976155
0.97411
0.971969
0.96979
0.967635
0.965562
0.963623
0.96187
0.960347
0.959095
0.958143
0.957513
0.957216
0.957257
0.957632
0.958329
0.959329
0.960598
0.962096
0.963772
0.965571
0.967429
0.969279
0.971048
0.972662
0.974051
0.975154
0.975918
0.97631
1.01634
1.01659
1.01709
1.01785
1.01887
1.02017
1.02175
1.0236
1.02572
1.02811
1.03076
1.03365
1.03679
1.04016
1.04376
1.04761
1.05171
1.05611
1.06085
1.06596
1.0715
1.07752
1.08405
1.0911
1.09867
1.10674
1.11525
1.12414
1.13334
1.14273
1.15223
1.16173
1.17112
1.18031
1.1892
1.19771
1.20577
1.21331
1.22028
1.22663
1.23233
1.23734
1.24165
1.24522
1.24805
1.25012
1.25142
1.25195
1.2517
1.25067
1.24886
1.24627
1.24291
1.23878
1.2339
1.22827
1.22192
1.21486
1.20712
1.19874
1.18977
1.18025
1.17024
1.15982
1.14908
1.13811
1.12703
1.11596
1.10504
1.09439
1.08416
1.07448
1.06547
1.05721
1.04978
1.04322
1.03754
1.03274
1.02877
1.02553
1.02293
1.02086
1.01917
1.01776
1.0165
1.0153
1.01408
1.01279
1.01137
1.00981
1.00812
1.0063
1.00438
1.00241
1.00042
0.998471
0.996599
0.99485
0.993268
0.991888
0.990742
0.989856
0.989248
0.988927
0.988898
0.989155
0.989687
0.990476
0.991492
0.992701
0.99406
0.995521
0.99703
0.99853
0.999963
1.00127
1.00239
1.00328
1.00389
1.00421
1.04897
1.04921
1.0497
1.05045
1.05145
1.05271
1.05424
1.05602
1.05807
1.06037
1.06292
1.06572
1.06876
1.07203
1.07555
1.07931
1.08334
1.08766
1.0923
1.0973
1.10268
1.10847
1.1147
1.12137
1.12848
1.136
1.14388
1.15208
1.16052
1.16912
1.1778
1.18648
1.19505
1.20344
1.21156
1.21935
1.22673
1.23365
1.24005
1.24589
1.25113
1.25574
1.25971
1.263
1.26559
1.26749
1.26867
1.26913
1.26886
1.26787
1.26615
1.2637
1.26054
1.25666
1.25209
1.24683
1.2409
1.23433
1.22715
1.21939
1.21109
1.2023
1.19309
1.18353
1.17369
1.16366
1.15354
1.14344
1.13347
1.12375
1.11439
1.10549
1.09716
1.08947
1.08247
1.07621
1.0707
1.06592
1.06184
1.05839
1.05551
1.05308
1.05103
1.04925
1.04764
1.04614
1.04466
1.04317
1.04163
1.04001
1.03831
1.03653
1.03471
1.03286
1.03102
1.02923
1.02751
1.02591
1.02446
1.02319
1.02213
1.02129
1.0207
1.02035
1.02025
1.0204
1.02079
1.02139
1.02219
1.02316
1.02425
1.02542
1.02664
1.02785
1.02901
1.03006
1.03096
1.03168
1.03217
1.03242
1.08134
1.08158
1.08207
1.08279
1.08377
1.08499
1.08646
1.08819
1.09016
1.09238
1.09484
1.09754
1.10048
1.10366
1.10708
1.11075
1.11468
1.1189
1.12341
1.12825
1.13344
1.13899
1.14491
1.15122
1.15788
1.16489
1.17221
1.17977
1.18754
1.19543
1.20339
1.21132
1.21916
1.22683
1.23427
1.24139
1.24816
1.2545
1.26037
1.26574
1.27055
1.2748
1.27844
1.28146
1.28384
1.28557
1.28664
1.28703
1.28675
1.28579
1.28416
1.28185
1.27888
1.27524
1.27096
1.26605
1.26053
1.25442
1.24775
1.24056
1.23289
1.22479
1.21631
1.20751
1.19848
1.18929
1.18003
1.17079
1.16166
1.15275
1.14415
1.13595
1.12822
1.12103
1.11443
1.10846
1.10312
1.0984
1.09427
1.0907
1.08761
1.08495
1.08262
1.08055
1.07868
1.07694
1.07526
1.07361
1.07196
1.07028
1.06857
1.06682
1.06507
1.06331
1.06158
1.0599
1.05831
1.05682
1.05548
1.05429
1.05329
1.05249
1.05189
1.05152
1.05136
1.05141
1.05167
1.05212
1.05273
1.05348
1.05435
1.05528
1.05626
1.05723
1.05815
1.05899
1.05972
1.06029
1.06069
1.06089
1.11348
1.11371
1.11418
1.11489
1.11583
1.11702
1.11844
1.1201
1.12201
1.12415
1.12652
1.12913
1.13197
1.13505
1.13837
1.14193
1.14574
1.14983
1.15419
1.15886
1.16383
1.16913
1.17475
1.18069
1.18694
1.19348
1.20027
1.20727
1.21443
1.22169
1.22899
1.23626
1.24344
1.25047
1.25727
1.2638
1.27
1.27582
1.28121
1.28613
1.29056
1.29445
1.2978
1.30057
1.30274
1.30432
1.30527
1.30561
1.30532
1.30439
1.30284
1.30067
1.29787
1.29447
1.29047
1.28589
1.28074
1.27506
1.26888
1.26222
1.25512
1.24764
1.23983
1.23174
1.22344
1.215
1.2065
1.19802
1.18964
1.18144
1.17351
1.16592
1.15873
1.152
1.14577
1.14007
1.13491
1.13028
1.12616
1.12252
1.1193
1.11646
1.11394
1.11167
1.1096
1.10767
1.10584
1.10406
1.10232
1.10058
1.09886
1.09713
1.09542
1.09373
1.09208
1.09049
1.08899
1.0876
1.08633
1.08521
1.08425
1.08347
1.08287
1.08247
1.08225
1.08222
1.08237
1.08268
1.08313
1.0837
1.08437
1.08511
1.08587
1.08664
1.08738
1.08805
1.08863
1.08909
1.0894
1.08956
1.14538
1.14561
1.14606
1.14675
1.14766
1.1488
1.15018
1.15178
1.15362
1.15568
1.15797
1.16049
1.16323
1.1662
1.16941
1.17285
1.17653
1.18047
1.18468
1.18915
1.1939
1.19894
1.20426
1.20986
1.21572
1.22182
1.22813
1.23461
1.24122
1.2479
1.25461
1.26129
1.26788
1.27432
1.28056
1.28654
1.29223
1.29756
1.30251
1.30702
1.31108
1.31466
1.31773
1.32026
1.32225
1.32368
1.32453
1.32481
1.32451
1.32362
1.32215
1.3201
1.31748
1.31429
1.31055
1.30628
1.30149
1.29622
1.29048
1.28431
1.27775
1.27084
1.26363
1.25617
1.24853
1.24077
1.23295
1.22515
1.21743
1.20987
1.20254
1.19549
1.18879
1.18247
1.17659
1.17115
1.16617
1.16165
1.15757
1.1539
1.15062
1.14767
1.14501
1.14259
1.14037
1.1383
1.13635
1.13448
1.13266
1.13088
1.12914
1.12743
1.12574
1.1241
1.12252
1.121
1.11957
1.11825
1.11704
1.11596
1.11504
1.11427
1.11367
1.11323
1.11296
1.11285
1.1129
1.11309
1.11341
1.11383
1.11433
1.1149
1.11549
1.11609
1.11667
1.1172
1.11766
1.11802
1.11827
1.1184
1.17706
1.17728
1.17772
1.17838
1.17926
1.18036
1.18168
1.18323
1.185
1.18698
1.18919
1.19161
1.19426
1.19712
1.20021
1.20353
1.20707
1.21086
1.21489
1.21916
1.22369
1.22847
1.2335
1.23876
1.24425
1.24995
1.25581
1.26182
1.26793
1.27409
1.28027
1.28641
1.29246
1.29837
1.3041
1.30959
1.3148
1.31969
1.32423
1.32838
1.3321
1.33538
1.33818
1.3405
1.34231
1.34361
1.34437
1.3446
1.34429
1.34343
1.34204
1.34011
1.33765
1.33466
1.33117
1.32719
1.32274
1.31783
1.31251
1.30679
1.30072
1.29433
1.28767
1.28079
1.27375
1.26659
1.25938
1.25219
1.24506
1.23807
1.23127
1.22471
1.21845
1.21252
1.20695
1.20177
1.19698
1.19258
1.18856
1.18491
1.1816
1.17858
1.17584
1.17332
1.171
1.16883
1.16678
1.16483
1.16296
1.16115
1.1594
1.15769
1.15603
1.15443
1.15289
1.15142
1.15005
1.14877
1.14761
1.14657
1.14567
1.1449
1.14429
1.14382
1.1435
1.14333
1.14329
1.14338
1.14357
1.14387
1.14423
1.14465
1.14511
1.14557
1.14601
1.14642
1.14678
1.14706
1.14726
1.14736
1.20851
1.20872
1.20915
1.20978
1.21063
1.2117
1.21297
1.21446
1.21616
1.21807
1.22019
1.22252
1.22506
1.22782
1.23079
1.23397
1.23737
1.241
1.24485
1.24892
1.25323
1.25775
1.26249
1.26744
1.27259
1.2779
1.28336
1.28893
1.29458
1.30027
1.30597
1.31162
1.31718
1.32261
1.32787
1.33291
1.3377
1.34218
1.34635
1.35015
1.35356
1.35656
1.35913
1.36125
1.3629
1.36407
1.36474
1.36493
1.36461
1.36379
1.36247
1.36065
1.35834
1.35555
1.35229
1.34857
1.34443
1.33987
1.33492
1.32962
1.324
1.31809
1.31194
1.30558
1.29907
1.29247
1.28581
1.27916
1.27256
1.26608
1.25976
1.25365
1.24778
1.2422
1.23693
1.23199
1.22739
1.22312
1.21919
1.21558
1.21227
1.20923
1.20644
1.20386
1.20146
1.19922
1.19712
1.19511
1.1932
1.19137
1.1896
1.1879
1.18626
1.18469
1.18318
1.18176
1.18042
1.17919
1.17806
1.17704
1.17615
1.17539
1.17476
1.17427
1.1739
1.17367
1.17356
1.17355
1.17365
1.17383
1.17408
1.17438
1.17471
1.17505
1.17539
1.1757
1.17598
1.17619
1.17634
1.17642
1.23975
1.23996
1.24037
1.24098
1.2418
1.24282
1.24404
1.24547
1.2471
1.24894
1.25098
1.25321
1.25566
1.2583
1.26115
1.2642
1.26745
1.27092
1.27458
1.27846
1.28254
1.28682
1.29129
1.29593
1.30075
1.3057
1.31078
1.31596
1.32119
1.32645
1.33171
1.33691
1.34203
1.34703
1.35186
1.35649
1.36088
1.365
1.36882
1.37231
1.37544
1.37819
1.38053
1.38246
1.38396
1.38501
1.38561
1.38575
1.38543
1.38464
1.38339
1.38167
1.37951
1.3769
1.37385
1.37039
1.36653
1.36229
1.3577
1.35278
1.34757
1.3421
1.3364
1.33052
1.3245
1.31839
1.31223
1.30607
1.29995
1.29393
1.28804
1.28233
1.27683
1.27158
1.26658
1.26187
1.25746
1.25333
1.2495
1.24595
1.24267
1.23963
1.23682
1.23421
1.23177
1.22949
1.22734
1.22531
1.22337
1.22152
1.21975
1.21805
1.21642
1.21487
1.2134
1.212
1.2107
1.20949
1.20839
1.20739
1.20651
1.20575
1.2051
1.20458
1.20418
1.20389
1.20371
1.20363
1.20364
1.20373
1.20388
1.20407
1.2043
1.20455
1.20479
1.20502
1.20523
1.20539
1.2055
1.20556
1.27079
1.27099
1.27138
1.27197
1.27275
1.27373
1.27491
1.27628
1.27785
1.27961
1.28156
1.28371
1.28605
1.28858
1.2913
1.29422
1.29733
1.30063
1.30411
1.30779
1.31165
1.31569
1.3199
1.32426
1.32876
1.33339
1.33812
1.34292
1.34777
1.35264
1.35749
1.36229
1.36701
1.37161
1.37605
1.38031
1.38434
1.38812
1.39163
1.39482
1.39769
1.40021
1.40235
1.40411
1.40547
1.40642
1.40694
1.40705
1.40672
1.40596
1.40477
1.40316
1.40112
1.39868
1.39583
1.39261
1.38901
1.38507
1.3808
1.37624
1.3714
1.36633
1.36105
1.3556
1.35002
1.34436
1.33865
1.33293
1.32725
1.32164
1.31615
1.3108
1.30564
1.30068
1.29595
1.29147
1.28723
1.28326
1.27953
1.27606
1.27282
1.26981
1.267
1.26438
1.26193
1.25962
1.25745
1.2554
1.25345
1.25159
1.24982
1.24813
1.24651
1.24498
1.24353
1.24216
1.24088
1.2397
1.23861
1.23762
1.23675
1.23598
1.23532
1.23477
1.23434
1.234
1.23376
1.23362
1.23355
1.23356
1.23362
1.23373
1.23388
1.23404
1.23421
1.23437
1.23452
1.23463
1.23472
1.23476
1.30163
1.30182
1.3022
1.30276
1.30352
1.30446
1.30558
1.3069
1.3084
1.31008
1.31195
1.31401
1.31625
1.31866
1.32127
1.32405
1.32701
1.33014
1.33346
1.33694
1.34059
1.34439
1.34835
1.35244
1.35666
1.36097
1.36538
1.36984
1.37434
1.37884
1.38333
1.38776
1.39211
1.39634
1.40043
1.40434
1.40805
1.41153
1.41474
1.41767
1.4203
1.4226
1.42456
1.42616
1.42739
1.42824
1.4287
1.42877
1.42844
1.42771
1.42658
1.42506
1.42315
1.42086
1.4182
1.41519
1.41184
1.40817
1.4042
1.39996
1.39547
1.39076
1.38586
1.38081
1.37563
1.37038
1.36507
1.35976
1.35447
1.34924
1.3441
1.3391
1.33424
1.32956
1.32508
1.32081
1.31675
1.31292
1.30931
1.30593
1.30275
1.29978
1.297
1.29439
1.29193
1.28963
1.28745
1.28539
1.28343
1.28157
1.27981
1.27812
1.27652
1.27501
1.27358
1.27223
1.27097
1.2698
1.26873
1.26775
1.26688
1.2661
1.26543
1.26486
1.26439
1.26401
1.26373
1.26352
1.26339
1.26333
1.26333
1.26336
1.26343
1.26353
1.26363
1.26374
1.26383
1.26391
1.26397
1.264
1.33229
1.33247
1.33283
1.33337
1.33409
1.33499
1.33607
1.33733
1.33876
1.34038
1.34216
1.34413
1.34626
1.34857
1.35105
1.3537
1.35651
1.35949
1.36263
1.36592
1.36937
1.37295
1.37667
1.3805
1.38444
1.38847
1.39257
1.39672
1.40089
1.40507
1.40922
1.41331
1.41732
1.42122
1.42499
1.42859
1.43199
1.43518
1.43814
1.44082
1.44323
1.44533
1.44712
1.44858
1.44969
1.45045
1.45085
1.45089
1.45055
1.44985
1.44878
1.44734
1.44555
1.44341
1.44092
1.43811
1.43499
1.43157
1.42788
1.42393
1.41976
1.41538
1.41083
1.40614
1.40133
1.39644
1.39151
1.38656
1.38163
1.37674
1.37194
1.36724
1.36267
1.35825
1.35399
1.34992
1.34605
1.34236
1.33888
1.33558
1.33248
1.32957
1.32682
1.32423
1.3218
1.3195
1.31733
1.31527
1.31332
1.31147
1.30971
1.30804
1.30645
1.30495
1.30354
1.30221
1.30096
1.29981
1.29875
1.29778
1.2969
1.29612
1.29544
1.29485
1.29435
1.29393
1.29361
1.29335
1.29317
1.29305
1.29298
1.29296
1.29297
1.293
1.29305
1.29311
1.29317
1.29321
1.29325
1.29327
1.36276
1.36293
1.36328
1.3638
1.36449
1.36535
1.36638
1.36758
1.36895
1.37049
1.3722
1.37407
1.3761
1.3783
1.38066
1.38318
1.38585
1.38867
1.39164
1.39476
1.398
1.40137
1.40486
1.40846
1.41214
1.4159
1.41972
1.42358
1.42745
1.43132
1.43516
1.43894
1.44264
1.44624
1.44971
1.45302
1.45615
1.45908
1.46179
1.46426
1.46646
1.46838
1.47001
1.47134
1.47234
1.47302
1.47337
1.47337
1.47304
1.47236
1.47134
1.46999
1.4683
1.46629
1.46397
1.46134
1.45843
1.45524
1.4518
1.44813
1.44425
1.44018
1.43594
1.43158
1.4271
1.42255
1.41796
1.41334
1.40873
1.40417
1.39966
1.39525
1.39094
1.38676
1.38273
1.37885
1.37514
1.37161
1.36824
1.36505
1.36203
1.35918
1.35648
1.35393
1.35152
1.34924
1.34709
1.34504
1.34311
1.34127
1.33952
1.33787
1.3363
1.33481
1.33341
1.3321
1.33087
1.32973
1.32868
1.32771
1.32683
1.32605
1.32535
1.32474
1.32422
1.32377
1.32341
1.32311
1.32288
1.32271
1.3226
1.32252
1.32248
1.32246
1.32247
1.32249
1.32251
1.32253
1.32255
1.32255
1.39306
1.39323
1.39356
1.39405
1.39471
1.39553
1.39652
1.39766
1.39897
1.40044
1.40207
1.40385
1.40579
1.40788
1.41012
1.41251
1.41504
1.41771
1.42052
1.42345
1.42651
1.42968
1.43296
1.43632
1.43977
1.44328
1.44683
1.45042
1.45401
1.4576
1.46115
1.46465
1.46807
1.47139
1.47458
1.47763
1.48051
1.48321
1.48569
1.48795
1.48997
1.49173
1.49321
1.49441
1.49532
1.49592
1.49622
1.4962
1.49587
1.49521
1.49425
1.49297
1.49138
1.4895
1.48732
1.48487
1.48214
1.47917
1.47596
1.47254
1.46892
1.46513
1.46119
1.45712
1.45296
1.44872
1.44443
1.44011
1.43581
1.43153
1.4273
1.42314
1.41908
1.41513
1.41131
1.40761
1.40407
1.40067
1.39743
1.39435
1.39141
1.38863
1.38599
1.38349
1.38112
1.37887
1.37674
1.37471
1.3728
1.37097
1.36925
1.36761
1.36605
1.36459
1.3632
1.36191
1.36069
1.35956
1.35851
1.35755
1.35668
1.35588
1.35518
1.35455
1.35401
1.35354
1.35314
1.35281
1.35254
1.35233
1.35217
1.35205
1.35196
1.35191
1.35187
1.35186
1.35185
1.35185
1.35185
1.35185
1.4232
1.42335
1.42367
1.42414
1.42477
1.42555
1.42649
1.42758
1.42883
1.43023
1.43178
1.43347
1.43531
1.4373
1.43943
1.44169
1.44409
1.44661
1.44926
1.45203
1.45491
1.45789
1.46096
1.46411
1.46733
1.4706
1.47391
1.47725
1.48059
1.48391
1.4872
1.49044
1.4936
1.49666
1.4996
1.50241
1.50506
1.50754
1.50982
1.51189
1.51374
1.51534
1.5167
1.51778
1.5186
1.51914
1.51939
1.51934
1.51901
1.51838
1.51746
1.51625
1.51476
1.51299
1.51095
1.50865
1.50611
1.50333
1.50034
1.49715
1.49377
1.49024
1.48656
1.48277
1.47888
1.47492
1.47092
1.46688
1.46285
1.45884
1.45486
1.45095
1.44712
1.44338
1.43975
1.43623
1.43284
1.42959
1.42647
1.42349
1.42065
1.41794
1.41536
1.41291
1.41059
1.40838
1.40628
1.40428
1.40239
1.40059
1.39888
1.39726
1.39573
1.39428
1.39291
1.39163
1.39043
1.38931
1.38827
1.38731
1.38643
1.38564
1.38492
1.38428
1.38372
1.38322
1.3828
1.38244
1.38214
1.38189
1.38169
1.38154
1.38142
1.38133
1.38126
1.38121
1.38118
1.38116
1.38115
1.38115
1.45317
1.45332
1.45362
1.45407
1.45467
1.45542
1.45631
1.45735
1.45854
1.45987
1.46134
1.46295
1.4647
1.46658
1.4686
1.47074
1.47301
1.47539
1.47789
1.4805
1.4832
1.486
1.48888
1.49183
1.49483
1.49789
1.50097
1.50407
1.50718
1.51026
1.51331
1.5163
1.51922
1.52205
1.52476
1.52735
1.52979
1.53206
1.53416
1.53606
1.53775
1.53921
1.54044
1.54143
1.54216
1.54263
1.54284
1.54278
1.54245
1.54184
1.54097
1.53982
1.53841
1.53675
1.53484
1.53269
1.53031
1.52771
1.52492
1.52193
1.51878
1.51548
1.51205
1.50851
1.50488
1.50118
1.49743
1.49365
1.48987
1.4861
1.48237
1.47868
1.47506
1.47152
1.46807
1.46472
1.46149
1.45837
1.45537
1.45249
1.44974
1.44712
1.44461
1.44222
1.43994
1.43777
1.43571
1.43375
1.43188
1.43011
1.42843
1.42683
1.42532
1.42389
1.42254
1.42127
1.42008
1.41897
1.41794
1.41699
1.41611
1.41531
1.41459
1.41394
1.41336
1.41285
1.4124
1.41201
1.41168
1.41141
1.41118
1.41099
1.41084
1.41072
1.41063
1.41056
1.41051
1.41047
1.41045
1.41044
1.483
1.48314
1.48343
1.48386
1.48443
1.48514
1.48599
1.48698
1.4881
1.48937
1.49076
1.49229
1.49395
1.49573
1.49764
1.49966
1.50181
1.50406
1.50641
1.50886
1.5114
1.51403
1.51672
1.51948
1.52229
1.52514
1.52802
1.5309
1.53378
1.53664
1.53946
1.54223
1.54493
1.54754
1.55005
1.55243
1.55468
1.55677
1.55869
1.56043
1.56198
1.56331
1.56443
1.56533
1.56598
1.5664
1.56657
1.56649
1.56616
1.56557
1.56474
1.56365
1.56233
1.56076