/*--------------------------------*- C++ -*----------------------------------*\
| =========                 |                                                 |
| \\      /  F ield         | OpenFOAM: The Open Source CFD Toolbox           |
|  \\    /   O peration     | Version:  2406                                  |
|   \\  /    A nd           | Website:  www.openfoam.com                      |
|    \\/     M anipulation  |                                                 |
\*---------------------------------------------------------------------------*/
FoamFile
{
    version     2.0;
    format      ascii;
    arch        "LSB;label=32;scalar=64";
    class       volScalarField;
    location    "3.4";
    object      C_0_0;
}
// * * * * * * * * * * * * * * * * * * * * * * * * * * * * * * * * * * * * * //

dimensions      [1 -3 0 0 0 0 0];

internalField   nonuniform List<scalar> 
14400
(
0.595345
0.581692
0.562109
0.543671
0.528603
0.51802
0.512577
0.512663
0.518476
0.530037
0.547185
0.569531
0.596266
0.625453
0.649056
0.659473
0.659303
0.64692
0.624415
0.601511
0.582688
0.569538
0.562942
0.563513
0.571729
0.587989
0.612639
0.645968
0.688173
0.739231
0.798559
0.863515
0.913949
0.946824
0.973832
0.997623
1.01861
1.03711
1.05337
1.06759
1.07992
1.09049
1.09938
1.10669
1.11247
1.11676
1.11961
1.12104
1.12106
1.11968
1.11689
1.11269
1.10704
1.09991
1.09126
1.08103
1.06915
1.05553
1.04005
1.02258
1.00295
0.980934
0.956279
0.928644
0.8976
0.854527
0.792219
0.724456
0.6633
0.610438
0.565999
0.529758
0.501397
0.480591
0.46705
0.460529
0.46083
0.4678
0.481314
0.501256
0.527463
0.559634
0.597053
0.637489
0.667511
0.683484
0.692858
0.696953
0.695942
0.689678
0.676915
0.651408
0.617343
0.585815
0.55892
0.537385
0.521453
0.511066
0.505906
0.505371
0.508505
0.513871
0.519403
0.522339
0.519876
0.514848
0.510044
0.507558
0.508858
0.514933
0.526424
0.543694
0.566854
0.595717
0.629605
0.666421
0.694317
0.709381
0.718399
0.722783
0.608812
0.597109
0.57658
0.55698
0.540996
0.529771
0.523936
0.523882
0.529802
0.541705
0.559415
0.582529
0.610141
0.639792
0.660543
0.668619
0.668789
0.660081
0.639086
0.615147
0.595406
0.581537
0.574423
0.574688
0.582806
0.599172
0.624122
0.657938
0.700805
0.752649
0.812453
0.875287
0.920159
0.95056
0.977048
1.00043
1.0211
1.03935
1.05542
1.06948
1.08169
1.09216
1.10097
1.10822
1.11395
1.11821
1.12103
1.12245
1.12246
1.12109
1.11831
1.11413
1.10851
1.10143
1.09284
1.08269
1.0709
1.05739
1.04204
1.02474
1.00532
0.983577
0.95926
0.932048
0.901522
0.862821
0.805426
0.737074
0.675181
0.621604
0.576532
0.539764
0.510995
0.489906
0.47621
0.469665
0.470074
0.477283
0.491167
0.511607
0.538435
0.571315
0.609312
0.648773
0.675045
0.689287
0.698136
0.702058
0.701194
0.695473
0.684579
0.663384
0.630619
0.598581
0.57106
0.549065
0.53292
0.522611
0.517869
0.518151
0.522591
0.529847
0.537851
0.543097
0.538314
0.530803
0.524098
0.520296
0.520769
0.526414
0.537813
0.555278
0.578877
0.608336
0.642677
0.677987
0.701449
0.714596
0.723034
0.727166
0.63037
0.623647
0.604709
0.583251
0.565628
0.553216
0.546625
0.546297
0.552435
0.565016
0.58379
0.608325
0.63734
0.664807
0.679101
0.685253
0.685955
0.681046
0.666038
0.64181
0.620692
0.605505
0.597391
0.59706
0.604992
0.621569
0.647104
0.681849
0.725957
0.779365
0.840513
0.893487
0.929364
0.957975
0.983372
1.00594
1.026
1.04377
1.05946
1.07323
1.0852
1.09547
1.10414
1.11126
1.1169
1.12109
1.12386
1.12525
1.12526
1.12389
1.12114
1.117
1.11146
1.10446
1.09599
1.08597
1.07436
1.06107
1.046
1.02903
1.01002
0.988794
0.965134
0.938767
0.909339
0.875824
0.82788
0.761598
0.698876
0.643992
0.597688
0.559883
0.530303
0.508649
0.494644
0.48805
0.488673
0.496356
0.51097
0.532384
0.5604
0.594625
0.633836
0.668207
0.687903
0.700388
0.708343
0.71195
0.711304
0.706408
0.697196
0.682545
0.65654
0.623823
0.595183
0.572316
0.555753
0.545568
0.5416
0.543389
0.550238
0.56093
0.573288
0.579384
0.573733
0.561844
0.551682
0.545451
0.544395
0.549243
0.560487
0.578336
0.602765
0.633289
0.668215
0.696325
0.713042
0.724478
0.731974
0.735681
0.656977
0.653848
0.64303
0.621454
0.602125
0.588222
0.580544
0.579823
0.586301
0.599886
0.620049
0.646234
0.675459
0.693452
0.702184
0.707338
0.708619
0.706023
0.698765
0.680713
0.658309
0.641365
0.631821
0.630649
0.638322
0.65522
0.681593
0.71759
0.76307
0.817321
0.873169
0.912527
0.942009
0.968602
0.992521
1.01398
1.03317
1.05027
1.06543
1.07877
1.0904
1.1004
1.10884
1.11579
1.12129
1.12538
1.12809
1.12943
1.12942
1.12807
1.12536
1.12129
1.11584
1.10898
1.10067
1.09086
1.07951
1.06653
1.05184
1.03535
1.01693
0.996444
0.973715
0.948548
0.920714
0.889973
0.852755
0.798398
0.734483
0.677683
0.62962
0.59031
0.559537
0.537039
0.522568
0.5159
0.51684
0.525225
0.540904
0.563717
0.593303
0.628726
0.666561
0.690978
0.705405
0.716017
0.722898
0.726094
0.725663
0.72166
0.71417
0.703388
0.686778
0.659856
0.630763
0.606844
0.589706
0.579631
0.57669
0.580399
0.590214
0.604207
0.614806
0.61727
0.615172
0.605057
0.591561
0.582329
0.579327
0.583112
0.5942
0.612565
0.637979
0.668848
0.697584
0.716029
0.728705
0.7383
0.744704
0.747903
0.686704
0.684727
0.680987
0.669481
0.649654
0.634508
0.625389
0.624181
0.63112
0.646067
0.667419
0.694371
0.712429
0.721783
0.728751
0.733295
0.735159
0.734381
0.731323
0.72344
0.706678
0.688703
0.677497
0.675376
0.68275
0.700096
0.727518
0.764977
0.811293
0.863591
0.902469
0.931023
0.957531
0.981905
1.00413
1.02428
1.04244
1.05872
1.07322
1.08603
1.09723
1.10688
1.11504
1.12177
1.1271
1.13106
1.13367
1.13496
1.13494
1.1336
1.13095
1.12696
1.12164
1.11494
1.10684
1.0973
1.08627
1.0737
1.0595
1.0436
1.02592
1.00633
0.984734
0.960996
0.934996
0.906638
0.875894
0.836374
0.780021
0.722323
0.672435
0.631286
0.598981
0.575367
0.560278
0.553508
0.554865
0.564165
0.581192
0.605783
0.637249
0.673329
0.699842
0.714965
0.726614
0.735378
0.741138
0.743866
0.743593
0.740399
0.734438
0.725991
0.715553
0.699626
0.676257
0.651901
0.634247
0.624155
0.622432
0.627937
0.640034
0.649658
0.653043
0.653231
0.653341
0.650353
0.641244
0.629682
0.624856
0.627378
0.638416
0.657204
0.682945
0.707761
0.725209
0.737268
0.747447
0.755313
0.76064
0.763323
0.718409
0.717231
0.715124
0.712228
0.70346
0.690745
0.680073
0.678524
0.685868
0.702295
0.72176
0.736583
0.744911
0.751938
0.757742
0.761933
0.764339
0.765021
0.764284
0.762661
0.756992
0.745849
0.733559
0.730854
0.737883
0.755829
0.784267
0.82278
0.865697
0.900268
0.926363
0.95144
0.975189
0.997354
1.01782
1.03656
1.05359
1.06895
1.08271
1.09491
1.1056
1.11485
1.12268
1.12915
1.13427
1.13807
1.14059
1.14181
1.14177
1.14045
1.13786
1.13398
1.1288
1.1223
1.11446
1.10523
1.09459
1.08248
1.06885
1.05365
1.0368
1.01824
0.997893
0.975705
0.951635
0.925687
0.897949
0.868629
0.829893
0.776863
0.726115
0.683017
0.648926
0.623938
0.608089
0.601188
0.603046
0.613447
0.631896
0.658322
0.690415
0.715446
0.730299
0.741466
0.750708
0.757743
0.762409
0.764639
0.764443
0.761904
0.75719
0.750586
0.742525
0.733599
0.721119
0.704694
0.687738
0.677358
0.677086
0.682734
0.687861
0.689596
0.689266
0.689267
0.689549
0.690177
0.688845
0.684216
0.679239
0.680253
0.691489
0.709424
0.726973
0.740641
0.75091
0.760386
0.768503
0.774864
0.779219
0.781427
0.751292
0.750664
0.749596
0.748454
0.747704
0.744115
0.740272
0.740012
0.746383
0.756229
0.765519
0.7715
0.777557
0.783317
0.788344
0.792356
0.795243
0.797079
0.798132
0.798856
0.799892
0.799143
0.796329
0.795271
0.801782
0.820462
0.848442
0.87866
0.905798
0.928403
0.951037
0.973184
0.994431
1.0145
1.03324
1.05055
1.0664
1.08079
1.09374
1.10528
1.11543
1.12422
1.13169
1.13786
1.14275
1.14639
1.14878
1.14994
1.14987
1.14857
1.14605
1.14229
1.13728
1.13101
1.12345
1.11458
1.10437
1.09279
1.07979
1.06534
1.04939
1.03192
1.01289
0.992298
0.970152
0.946525
0.921563
0.895515
0.868726
0.833996
0.789394
0.745232
0.709458
0.682886
0.666211
0.659145
0.661513
0.673193
0.692398
0.7193
0.739495
0.751982
0.761415
0.769894
0.77701
0.782477
0.786115
0.787838
0.787636
0.785583
0.781832
0.776637
0.770359
0.763477
0.756587
0.748868
0.739621
0.732178
0.729364
0.72903
0.727424
0.725876
0.725156
0.725021
0.725409
0.726398
0.728243
0.730246
0.731068
0.734515
0.742733
0.752811
0.761449
0.769401
0.777401
0.784861
0.791316
0.796422
0.799944
0.801738
0.784804
0.784537
0.784141
0.783877
0.784127
0.785392
0.78731
0.789338
0.793084
0.796798
0.800748
0.805476
0.8105
0.81543
0.819961
0.823904
0.827197
0.829922
0.832308
0.834738
0.837746
0.842043
0.84752
0.853022
0.862919
0.879269
0.898722
0.917817
0.936671
0.956323
0.976198
0.995828
1.01485
1.03299
1.05008
1.06599
1.08067
1.09407
1.1062
1.11704
1.12661
1.13493
1.142
1.14786
1.1525
1.15595
1.15821
1.15929
1.1592
1.15793
1.15548
1.15185
1.14703
1.141
1.13376
1.12527
1.11553
1.1045
1.09217
1.07852
1.06352
1.04717
1.02946
1.01044
0.990149
0.968699
0.946262
0.923094
0.899547
0.876065
0.848123
0.814899
0.779457
0.751596
0.734396
0.727093
0.729534
0.742472
0.758784
0.771889
0.779952
0.786744
0.793485
0.799683
0.80496
0.809039
0.811738
0.812959
0.812682
0.810959
0.807919
0.80377
0.798797
0.793362
0.787878
0.782761
0.77835
0.774047
0.769594
0.765669
0.762998
0.761329
0.760459
0.760253
0.760669
0.761763
0.763683
0.766649
0.770935
0.775867
0.780768
0.785893
0.791792
0.798112
0.804433
0.81034
0.815478
0.819564
0.822396
0.823844
0.818581
0.818541
0.818552
0.818786
0.819467
0.820817
0.822886
0.825546
0.828243
0.831376
0.835029
0.839156
0.843538
0.847939
0.852167
0.856102
0.85972
0.863101
0.866441
0.870041
0.874312
0.879749
0.886888
0.896317
0.907779
0.920526
0.934529
0.950057
0.966696
0.984019
1.00161
1.01908
1.03614
1.05253
1.06809
1.08267
1.09621
1.10864
1.11993
1.13007
1.13905
1.14687
1.15354
1.15906
1.16344
1.16669
1.16881
1.16981
1.1697
1.16846
1.16609
1.16261
1.15798
1.15222
1.1453
1.13722
1.12797
1.11752
1.10588
1.09304
1.07899
1.06376
1.04736
1.02985
1.0113
0.991859
0.971692
0.951053
0.930265
0.90974
0.889982
0.869814
0.847517
0.826143
0.810157
0.802451
0.802097
0.806039
0.810935
0.813606
0.817216
0.821559
0.826097
0.830394
0.834107
0.836981
0.838838
0.83958
0.839173
0.837652
0.835116
0.831725
0.827697
0.823295
0.818801
0.814472
0.81046
0.806667
0.803053
0.799927
0.797569
0.795982
0.795099
0.794862
0.795252
0.7963
0.798077
0.800662
0.804072
0.808044
0.81228
0.816809
0.821712
0.826823
0.831878
0.836589
0.84069
0.843961
0.846233
0.847396
0.852398
0.852493
0.852742
0.853248
0.854138
0.855522
0.857424
0.859775
0.862422
0.865433
0.868834
0.872581
0.876556
0.880622
0.884665
0.888617
0.892478
0.896324
0.900311
0.904674
0.909709
0.915755
0.923139
0.932109
0.942591
0.954325
0.967206
0.981187
0.996035
1.01145
1.02712
1.04276
1.05809
1.07292
1.08707
1.10041
1.11286
1.12434
1.13482
1.14426
1.15264
1.15996
1.16622
1.1714
1.17551
1.17856
1.18054
1.18146
1.18132
1.18011
1.17783
1.17449
1.17008
1.16459
1.15801
1.15035
1.14159
1.13174
1.12079
1.10876
1.09566
1.08151
1.06636
1.05028
1.03336
1.01574
0.997596
0.979158
0.960721
0.942636
0.925321
0.909255
0.894979
0.881521
0.869637
0.861418
0.856784
0.853371
0.851746
0.852096
0.853746
0.856179
0.858951
0.861689
0.864094
0.865937
0.867055
0.867348
0.866778
0.86536
0.863167
0.860317
0.856972
0.85332
0.84956
0.845864
0.84235
0.839052
0.836024
0.833416
0.831369
0.82993
0.829093
0.828844
0.829178
0.830108
0.831662
0.833853
0.836646
0.839909
0.843497
0.847351
0.851424
0.855591
0.859667
0.863447
0.866733
0.869355
0.871178
0.872112
0.886119
0.886292
0.886673
0.887324
0.888317
0.889708
0.891515
0.893708
0.896237
0.899101
0.902294
0.905777
0.909482
0.913329
0.917254
0.921223
0.92525
0.929404
0.933807
0.938635
0.944097
0.95042
0.957807
0.966386
0.976146
0.986978
0.998782
1.01145
1.02481
1.03863
1.05268
1.06673
1.08055
1.09398
1.10685
1.11904
1.13047
1.14105
1.15074
1.1595
1.1673
1.17413
1.17996
1.18481
1.18865
1.19149
1.19333
1.19417
1.194
1.19283
1.19064
1.18745
1.18325
1.17803
1.17181
1.16456
1.15631
1.14705
1.13679
1.12556
1.11337
1.10027
1.0863
1.07156
1.05613
1.04015
1.02379
1.00726
0.990824
0.974763
0.959412
0.945117
0.932198
0.920813
0.911176
0.903156
0.896928
0.892693
0.890222
0.889285
0.889492
0.890461
0.891837
0.893316
0.894644
0.895619
0.896096
0.895981
0.895229
0.893844
0.891874
0.889405
0.886553
0.883455
0.880253
0.877076
0.874024
0.871166
0.868575
0.866345
0.864562
0.863274
0.8625
0.862243
0.862506
0.863293
0.864608
0.866441
0.868748
0.871449
0.874449
0.877673
0.881043
0.884448
0.887751
0.890799
0.893441
0.895547
0.897012
0.897762
0.919667
0.919883
0.920334
0.921058
0.922096
0.923479
0.925218
0.927304
0.929716
0.93244
0.935462
0.938751
0.942265
0.945959
0.949798
0.95377
0.957896
0.962234
0.966879
0.97196
0.977623
0.984022
0.991283
0.999483
1.00863
1.01866
1.02949
1.04102
1.05311
1.06558
1.07824
1.09091
1.10342
1.11559
1.12731
1.13845
1.14892
1.15866
1.1676
1.1757
1.18293
1.18928
1.19471
1.19921
1.20279
1.20543
1.20713
1.20788
1.20769
1.20655
1.20446
1.20142
1.19743
1.1925
1.18661
1.17979
1.17203
1.16336
1.15377
1.14331
1.13199
1.11988
1.10703
1.09351
1.07944
1.06493
1.05015
1.03528
1.02055
1.00618
0.992446
0.979602
0.967881
0.957444
0.948421
0.94084
0.934771
0.930251
0.927166
0.925329
0.924478
0.924333
0.924621
0.925095
0.925545
0.925799
0.925729
0.925249
0.924312
0.922914
0.921081
0.918875
0.916379
0.913692
0.91092
0.908162
0.905502
0.903014
0.900766
0.898827
0.897259
0.896105
0.895389
0.895122
0.895309
0.89595
0.897038
0.898554
0.900458
0.90269
0.905178
0.907849
0.910624
0.913409
0.916091
0.918555
0.920686
0.922381
0.923559
0.924163
0.953
0.953237
0.953723
0.954479
0.955529
0.956892
0.958575
0.960575
0.962882
0.965482
0.968362
0.9715
0.974869
0.978444
0.982209
0.986163
0.99033
0.994756
0.999516
1.0047
1.01042
1.01676
1.02382
1.03164
1.04022
1.04953
1.0595
1.07004
1.08103
1.09234
1.1038
1.11527
1.1266
1.13767
1.14834
1.15851
1.16811
1.17705
1.18529
1.19277
1.19946
1.20534
1.21037
1.21455
1.21787
1.22031
1.22187
1.22254
1.22233
1.22122
1.21923
1.21634
1.21257
1.20791
1.20237
1.19595
1.18868
1.18057
1.17163
1.1619
1.15142
1.14023
1.12841
1.11602
1.10318
1.08999
1.0766
1.06318
1.0499
1.03697
1.02459
1.01297
1.00228
0.992662
0.984222
0.977011
0.971064
0.966374
0.962861
0.960385
0.958759
0.957773
0.957218
0.956899
0.956641
0.956303
0.955773
0.954973
0.953859
0.952416
0.950662
0.948635
0.946395
0.944016
0.941574
0.939149
0.93681
0.934622
0.932646
0.930936
0.929542
0.928498
0.927829
0.927548
0.927659
0.928159
0.92904
0.930278
0.931839
0.933673
0.935723
0.937921
0.940197
0.94247
0.94465
0.946645
0.948365
0.949732
0.950681
0.951167
0.986096
0.986342
0.986841
0.987606
0.98865
0.989985
0.991615
0.99354
0.995753
0.998245
1.001
1.00402
1.00727
1.01074
1.01443
1.01834
1.0225
1.02695
1.03173
1.03691
1.04258
1.04878
1.05559
1.06303
1.07109
1.07975
1.08895
1.09861
1.10865
1.11893
1.12934
1.13976
1.15007
1.16013
1.16986
1.17916
1.18795
1.19616
1.20374
1.21063
1.21681
1.22223
1.22689
1.23076
1.23382
1.23607
1.2375
1.23809
1.23786
1.23679
1.23489
1.23215
1.22858
1.22419
1.21899
1.21297
1.20617
1.1986
1.19028
1.18125
1.17155
1.16123
1.15035
1.139
1.12726
1.11525
1.10309
1.09092
1.0789
1.0672
1.05598
1.0454
1.0356
1.02671
1.01879
1.01192
1.0061
1.00132
0.99752
0.994592
0.992398
0.990782
0.98958
0.988639
0.987818
0.986999
0.986086
0.985011
0.983732
0.982231
0.980514
0.978607
0.976552
0.9744
0.972212
0.970048
0.967966
0.966019
0.964259
0.962731
0.961473
0.960517
0.959882
0.959581
0.959618
0.959989
0.960683
0.96168
0.962947
0.964442
0.966118
0.967916
0.969774
0.971624
0.973393
0.975008
0.976398
0.977501
0.978266
0.978657
1.01895
1.01919
1.01969
1.02045
1.02148
1.02278
1.02436
1.02622
1.02834
1.03074
1.03339
1.0363
1.03944
1.04282
1.04643
1.05028
1.05439
1.0588
1.06353
1.06865
1.07419
1.08021
1.08674
1.09379
1.10136
1.10942
1.11793
1.12682
1.136
1.14539
1.15488
1.16438
1.17376
1.18294
1.19182
1.20032
1.20837
1.2159
1.22286
1.22921
1.2349
1.2399
1.2442
1.24777
1.25059
1.25265
1.25395
1.25447
1.25422
1.25319
1.25138
1.24879
1.24543
1.2413
1.23641
1.23079
1.22443
1.21738
1.20964
1.20127
1.1923
1.18278
1.17277
1.16236
1.15162
1.14066
1.12958
1.11851
1.10759
1.09695
1.08672
1.07704
1.06802
1.05976
1.05233
1.04577
1.04009
1.03529
1.0313
1.02806
1.02546
1.02338
1.02168
1.02026
1.01899
1.01779
1.01656
1.01525
1.01383
1.01226
1.01056
1.00873
1.0068
1.00482
1.00283
1.00087
0.998985
0.99723
0.995641
0.994255
0.993104
0.992213
0.9916
0.991276
0.991242
0.991496
0.992025
0.992811
0.993825
0.995032
0.99639
0.997849
0.999358
1.00086
1.00229
1.0036
1.00472
1.00561
1.00622
1.00654
1.05155
1.05179
1.05229
1.05303
1.05404
1.0553
1.05683
1.05862
1.06067
1.06298
1.06553
1.06834
1.07138
1.07466
1.07818
1.08195
1.08599
1.09032
1.09496
1.09995
1.10533
1.11113
1.11736
1.12403
1.13114
1.13865
1.14653
1.15472
1.16316
1.17175
1.18043
1.18909
1.19766
1.20604
1.21416
1.22193
1.22931
1.23621
1.2426
1.24844
1.25367
1.25828
1.26224
1.26552
1.26811
1.27
1.27118
1.27163
1.27136
1.27037
1.26864
1.2662
1.26303
1.25916
1.25458
1.24932
1.2434
1.23683
1.22965
1.22189
1.21359
1.20481
1.19561
1.18604
1.1762
1.16618
1.15606
1.14596
1.136
1.12628
1.11692
1.10802
1.09969
1.09199
1.085
1.07873
1.07322
1.06843
1.06435
1.0609
1.058
1.05558
1.05351
1.05172
1.05011
1.0486
1.04712
1.04562
1.04406
1.04243
1.04072
1.03894
1.03711
1.03526
1.03341
1.0316
1.02988
1.02827
1.02682
1.02554
1.02447
1.02363
1.02303
1.02268
1.02258
1.02273
1.02311
1.02371
1.02451
1.02547
1.02656
1.02773
1.02895
1.03016
1.03132
1.03237
1.03327
1.03399
1.03448
1.03474
1.0839
1.08414
1.08463
1.08536
1.08633
1.08756
1.08903
1.09076
1.09274
1.09496
1.09743
1.10014
1.10308
1.10626
1.10969
1.11336
1.1173
1.12152
1.12603
1.13087
1.13606
1.14161
1.14754
1.15384
1.16051
1.16751
1.17482
1.18238
1.19014
1.19803
1.20598
1.21391
1.22174
1.22941
1.23683
1.24395
1.25071
1.25704
1.26291
1.26826
1.27308
1.27731
1.28095
1.28396
1.28634
1.28806
1.28912
1.28952
1.28923
1.28827
1.28664
1.28433
1.28135
1.27772
1.27344
1.26853
1.263
1.25689
1.25023
1.24304
1.23537
1.22727
1.21879
1.21
1.20097
1.19179
1.18253
1.17328
1.16416
1.15525
1.14665
1.13844
1.13072
1.12353
1.11693
1.11095
1.10561
1.10088
1.09675
1.09318
1.09008
1.08741
1.08508
1.08301
1.08113
1.07937
1.07769
1.07603
1.07437
1.07268
1.07096
1.06921
1.06744
1.06568
1.06394
1.06226
1.06066
1.05917
1.05782
1.05662
1.05562
1.05481
1.05421
1.05383
1.05367
1.05372
1.05398
1.05442
1.05503
1.05578
1.05664
1.05758
1.05855
1.05952
1.06044
1.06129
1.06201
1.06258
1.06298
1.06319
1.11602
1.11625
1.11672
1.11743
1.11838
1.11956
1.12099
1.12265
1.12456
1.1267
1.12908
1.1317
1.13454
1.13763
1.14095
1.14451
1.14833
1.15242
1.15678
1.16145
1.16642
1.17172
1.17734
1.18328
1.18953
1.19607
1.20286
1.20985
1.217
1.22426
1.23155
1.23882
1.24599
1.25301
1.25981
1.26634
1.27253
1.27833
1.28372
1.28864
1.29305
1.29695
1.30028
1.30305
1.30522
1.30679
1.30774
1.30807
1.30778
1.30685
1.3053
1.30312
1.30033
1.29692
1.29292
1.28834
1.2832
1.27752
1.27133
1.26467
1.25758
1.2501
1.24229
1.2342
1.2259
1.21747
1.20897
1.20049
1.19211
1.18391
1.17598
1.16839
1.1612
1.15447
1.14824
1.14254
1.13737
1.13274
1.12861
1.12496
1.12175
1.1189
1.11637
1.1141
1.11202
1.11008
1.10824
1.10646
1.1047
1.10296
1.10123
1.0995
1.09778
1.09608
1.09442
1.09283
1.09132
1.08992
1.08865
1.08752
1.08656
1.08578
1.08517
1.08476
1.08454
1.08451
1.08465
1.08496
1.08541
1.08598
1.08665
1.08738
1.08815
1.08892
1.08965
1.09033
1.0909
1.09136
1.09168
1.09184
1.1479
1.14812
1.14858
1.14927
1.15018
1.15133
1.1527
1.15431
1.15615
1.15821
1.1605
1.16303
1.16577
1.16875
1.17196
1.1754
1.17909
1.18303
1.18724
1.19171
1.19646
1.2015
1.20682
1.21242
1.21828
1.22437
1.23068
1.23716
1.24376
1.25044
1.25715
1.26382
1.2704
1.27684
1.28307
1.28905
1.29473
1.30005
1.30499
1.30951
1.31356
1.31713
1.32019
1.32272
1.3247
1.32613
1.32698
1.32726
1.32695
1.32606
1.32459
1.32254
1.31991
1.31672
1.31299
1.30871
1.30393
1.29865
1.29291
1.28674
1.28018
1.27327
1.26607
1.25861
1.25097
1.24321
1.23539
1.22759
1.21987
1.21231
1.20498
1.19793
1.19123
1.18492
1.17903
1.17359
1.1686
1.16408
1.15999
1.15632
1.15303
1.15008
1.14742
1.14499
1.14277
1.14069
1.13873
1.13685
1.13502
1.13324
1.13149
1.12977
1.12808
1.12643
1.12484
1.12332
1.12188
1.12055
1.11934
1.11826
1.11733
1.11656
1.11595
1.11551
1.11523
1.11512
1.11517
1.11536
1.11567
1.11609
1.11659
1.11716
1.11775
1.11835
1.11893
1.11946
1.11991
1.12027
1.12052
1.12065
1.17955
1.17977
1.18021
1.18087
1.18175
1.18286
1.18418
1.18573
1.1875
1.18949
1.1917
1.19413
1.19677
1.19964
1.20273
1.20605
1.2096
1.21339
1.21742
1.22169
1.22622
1.231
1.23603
1.24129
1.24678
1.25247
1.25834
1.26434
1.27044
1.27661
1.28278
1.28891
1.29496
1.30087
1.30658
1.31207
1.31728
1.32216
1.32669
1.33083
1.33455
1.33782
1.34063
1.34294
1.34475
1.34604
1.3468
1.34702
1.34671
1.34585
1.34445
1.34252
1.34006
1.33708
1.33358
1.3296
1.32515
1.32024
1.31492
1.3092
1.30313
1.29674
1.29009
1.28321
1.27616
1.26901
1.2618
1.2546
1.24748
1.24049
1.23369
1.22713
1.22087
1.21493
1.20936
1.20418
1.19938
1.19498
1.19096
1.1873
1.18398
1.18097
1.17822
1.17569
1.17336
1.17119
1.16914
1.16718
1.1653
1.16349
1.16173
1.16001
1.15835
1.15674
1.15519
1.15372
1.15234
1.15106
1.14989
1.14885
1.14794
1.14717
1.14655
1.14608
1.14576
1.14558
1.14554
1.14563
1.14582
1.14611
1.14648
1.14689
1.14735
1.14781
1.14825
1.14866
1.14902
1.1493
1.1495
1.1496
1.21098
1.21119
1.21162
1.21225
1.21311
1.21417
1.21544
1.21693
1.21863
1.22055
1.22267
1.22501
1.22755
1.23031
1.23328
1.23647
1.23987
1.2435
1.24735
1.25143
1.25573
1.26025
1.265
1.26995
1.27508
1.28039
1.28585
1.29142
1.29707
1.30276
1.30845
1.31409
1.31965
1.32508
1.33033
1.33537
1.34014
1.34463
1.34878
1.35258
1.35599
1.35899
1.36155
1.36366
1.36531
1.36647
1.36715
1.36733
1.36701
1.36618
1.36486
1.36304
1.36073
1.35793
1.35467
1.35096
1.34681
1.34226
1.33731
1.33201
1.32639
1.32048
1.31433
1.30797
1.30146
1.29486
1.2882
1.28155
1.27495
1.26847
1.26215
1.25604
1.25017
1.24459
1.23932
1.23437
1.22976
1.2255
1.22156
1.21795
1.21463
1.21159
1.20879
1.2062
1.2038
1.20156
1.19945
1.19744
1.19552
1.19368
1.19191
1.1902
1.18855
1.18697
1.18546
1.18404
1.18269
1.18145
1.18032
1.1793
1.1784
1.17764
1.17701
1.17651
1.17614
1.1759
1.17579
1.17578
1.17588
1.17606
1.1763
1.1766
1.17693
1.17727
1.17761
1.17792
1.17819
1.17841
1.17856
1.17864
1.2422
1.2424
1.24281
1.24343
1.24424
1.24527
1.24649
1.24792
1.24956
1.25139
1.25343
1.25568
1.25812
1.26076
1.26361
1.26667
1.26992
1.27339
1.27706
1.28093
1.28501
1.28929
1.29376
1.29841
1.30322
1.30817
1.31325
1.31842
1.32365
1.32891
1.33416
1.33936
1.34448
1.34947
1.35429
1.35892
1.36331
1.36742
1.37124
1.37472
1.37784
1.38059
1.38293
1.38486
1.38635
1.3874
1.388
1.38813
1.38781
1.38701
1.38576
1.38404
1.38187
1.37926
1.37622
1.37276
1.3689
1.36466
1.36006
1.35515
1.34993
1.34446
1.33877
1.33289
1.32687
1.32075
1.31459
1.30843
1.30232
1.29629
1.29041
1.28469
1.27919
1.27394
1.26894
1.26423
1.25981
1.25568
1.25185
1.2483
1.24501
1.24197
1.23915
1.23653
1.23409
1.2318
1.22965
1.22761
1.22566
1.22381
1.22203
1.22033
1.2187
1.21714
1.21566
1.21426
1.21295
1.21174
1.21063
1.20963
1.20874
1.20797
1.20733
1.2068
1.2064
1.20611
1.20592
1.20584
1.20585
1.20593
1.20608
1.20628
1.20651
1.20675
1.20699
1.20722
1.20743
1.20759
1.2077
1.20776
1.27321
1.27341
1.2738
1.27439
1.27518
1.27616
1.27734
1.27871
1.28028
1.28204
1.28399
1.28614
1.28848
1.29102
1.29374
1.29666
1.29977
1.30307
1.30656
1.31024
1.3141
1.31813
1.32234
1.3267
1.3312
1.33583
1.34055
1.34535
1.3502
1.35507
1.35992
1.36471
1.36943
1.37402
1.37846
1.38271
1.38674
1.39052
1.39402
1.39721
1.40007
1.40258
1.40472
1.40648
1.40783
1.40878
1.4093
1.4094
1.40907
1.40831
1.40712
1.4055
1.40347
1.40102
1.39818
1.39495
1.39135
1.38741
1.38314
1.37858
1.37374
1.36867
1.36339
1.35794
1.35236
1.3467
1.34099
1.33527
1.32959
1.32398
1.31849
1.31314
1.30798
1.30302
1.29828
1.29379
1.28956
1.28558
1.28185
1.27838
1.27514
1.27212
1.2693
1.26668
1.26422
1.26191
1.25974
1.25768
1.25572
1.25386
1.25208
1.25038
1.24876
1.24723
1.24577
1.2444
1.24311
1.24192
1.24083
1.23984
1.23896
1.23819
1.23753
1.23698
1.23654
1.2362
1.23596
1.23581
1.23574
1.23575
1.23581
1.23592
1.23606
1.23622
1.23639
1.23655
1.2367
1.23681
1.2369
1.23694
1.30403
1.30422
1.3046
1.30516
1.30592
1.30686
1.30799
1.3093
1.3108
1.31249
1.31436
1.31642
1.31866
1.32108
1.32368
1.32646
1.32942
1.33256
1.33587
1.33936
1.343
1.34681
1.35076
1.35486
1.35907
1.36338
1.36778
1.37224
1.37674
1.38124
1.38572
1.39015
1.3945
1.39873
1.40281
1.40672
1.41042
1.41389
1.4171
1.42003
1.42265
1.42495
1.42691
1.4285
1.42973
1.43058
1.43104
1.4311
1.43077
1.43003
1.4289
1.42738
1.42547
1.42318
1.42052
1.41751
1.41416
1.41049
1.40652
1.40228
1.39779
1.39308
1.38818
1.38312
1.37795
1.37269
1.36739
1.36207
1.35678
1.35155
1.34642
1.34141
1.33655
1.33187
1.32738
1.32311
1.31905
1.31522
1.31161
1.30822
1.30504
1.30206
1.29927
1.29666
1.2942
1.29189
1.28971
1.28764
1.28568
1.28382
1.28204
1.28036
1.27875
1.27723
1.2758
1.27444
1.27318
1.27201
1.27093
1.26995
1.26907
1.26829
1.26762
1.26704
1.26657
1.26619
1.2659
1.2657
1.26557
1.2655
1.26549
1.26553
1.2656
1.26569
1.2658
1.2659
1.266
1.26607
1.26613
1.26616
1.33466
1.33484
1.3352
1.33574
1.33646
1.33737
1.33845
1.33971
1.34114
1.34275
1.34454
1.34651
1.34864
1.35095
1.35343
1.35608
1.3589
1.36188
1.36502
1.36831
1.37175
1.37534
1.37905
1.38289
1.38683
1.39086
1.39495
1.3991
1.40327
1.40744
1.41158
1.41567
1.41968
1.42358
1.42734
1.43094
1.43434
1.43753
1.44048
1.44316
1.44556
1.44766
1.44944
1.4509
1.45201
1.45277
1.45316
1.4532
1.45286
1.45215
1.45108
1.44965
1.44785
1.4457
1.44322
1.44041
1.43728
1.43386
1.43017
1.42622
1.42205
1.41767
1.41312
1.40843
1.40362
1.39873
1.3938
1.38885
1.38391
1.37903
1.37422
1.36952
1.36495
1.36053
1.35627
1.3522
1.34832
1.34463
1.34114
1.33785
1.33474
1.33182
1.32907
1.32648
1.32404
1.32174
1.31956
1.3175
1.31554
1.31369
1.31192
1.31025
1.30866
1.30716
1.30574
1.3044
1.30315
1.302
1.30093
1.29996
1.29908
1.29829
1.2976
1.29701
1.29651
1.29609
1.29576
1.29551
1.29532
1.2952
1.29513
1.29511
1.29512
1.29515
1.2952
1.29525
1.29531
1.29536
1.29539
1.29541
1.36511
1.36528
1.36563
1.36614
1.36683
1.3677
1.36873
1.36993
1.3713
1.37284
1.37455
1.37643
1.37846
1.38066
1.38302
1.38554
1.38821
1.39103
1.394
1.39712
1.40036
1.40373
1.40722
1.41082
1.4145
1.41826
1.42208
1.42593
1.4298
1.43366
1.4375
1.44128
1.44498
1.44857
1.45204
1.45535
1.45848
1.4614
1.46411
1.46657
1.46877
1.47069
1.47231
1.47363
1.47464
1.47531
1.47565
1.47566
1.47532
1.47464
1.47362
1.47227
1.47058
1.46857
1.46624
1.46362
1.4607
1.45751
1.45407
1.4504
1.44652
1.44244
1.43821
1.43384
1.42937
1.42482
1.42022
1.41561
1.411
1.40643
1.40192
1.3975
1.3932
1.38902
1.38498
1.3811
1.37739
1.37385
1.37048
1.36729
1.36427
1.36141
1.35871
1.35615
1.35374
1.35146
1.3493
1.34725
1.34531
1.34347
1.34172
1.34006
1.33848
1.33699
1.33559
1.33427
1.33304
1.33189
1.33084
1.32987
1.32899
1.3282
1.3275
1.32689
1.32636
1.32591
1.32554
1.32525
1.32502
1.32485
1.32473
1.32465
1.32461
1.32459
1.32459
1.32461
1.32463
1.32465
1.32467
1.32468
1.39538
1.39555
1.39588
1.39637
1.39703
1.39786
1.39884
1.39999
1.4013
1.40277
1.40439
1.40618
1.40812
1.41021
1.41245
1.41484
1.41737
1.42004
1.42285
1.42579
1.42884
1.43201
1.43529
1.43865
1.4421
1.4456
1.44916
1.45274
1.45634
1.45992
1.46347
1.46696
1.47038
1.47369
1.47689
1.47993
1.48281
1.4855
1.48798
1.49024
1.49225
1.49401
1.49549
1.49669
1.49759
1.49819
1.49848
1.49846
1.49813
1.49747
1.4965
1.49522
1.49364
1.49175
1.48957
1.48712
1.48439
1.48142
1.47821
1.47479
1.47117
1.46738
1.46343
1.45937
1.4552
1.45096
1.44667
1.44235
1.43804
1.43376
1.42953
1.42538
1.42132
1.41736
1.41353
1.40984
1.40629
1.40289
1.39965
1.39656
1.39362
1.39084
1.38819
1.38569
1.38331
1.38106
1.37892
1.3769
1.37498
1.37315
1.37142
1.36977
1.36822
1.36675
1.36536
1.36406
1.36284
1.3617
1.36065
1.35969
1.35881
1.35801
1.3573
1.35668
1.35613
1.35565
1.35526
1.35492
1.35465
1.35444
1.35428
1.35415
1.35407
1.35401
1.35398
1.35396
1.35395
1.35395
1.35395
1.35395
1.42549
1.42565
1.42597
1.42644
1.42707
1.42785
1.42879
1.42989
1.43113
1.43253
1.43408
1.43578
1.43762
1.4396
1.44173
1.444
1.44639
1.44892
1.45157
1.45434
1.45721
1.46019
1.46326
1.46641
1.46963
1.4729
1.47621
1.47955
1.48288
1.4862
1.48949
1.49272
1.49588
1.49894
1.50188
1.50469
1.50734
1.50981
1.51209
1.51415
1.516
1.5176
1.51895
1.52004
1.52085
1.52138
1.52163
1.52158
1.52125
1.52062
1.5197
1.51849
1.51699
1.51522
1.51318
1.51088
1.50833
1.50556
1.50256
1.49937
1.49599
1.49246
1.48878
1.48499
1.4811
1.47714
1.47313
1.4691
1.46506
1.46105
1.45707
1.45316
1.44932
1.44558
1.44195
1.43843
1.43504
1.43178
1.42866
1.42568
1.42283
1.42012
1.41754
1.41509
1.41276
1.41054
1.40844
1.40644
1.40454
1.40274
1.40103
1.39941
1.39787
1.39642
1.39505
1.39376
1.39255
1.39143
1.39039
1.38943
1.38855
1.38775
1.38703
1.38639
1.38582
1.38532
1.3849
1.38454
1.38423
1.38398
1.38378
1.38362
1.3835
1.38341
1.38335
1.3833
1.38327
1.38325
1.38324
1.38323
1.45545
1.4556
1.4559
1.45635
1.45695
1.45769
1.45859
1.45963
1.46082
1.46215
1.46362
1.46523
1.46698
1.46886
1.47088
1.47302
1.47528
1.47767
1.48017
1.48277
1.48548
1.48828
1.49115
1.4941
1.49711
1.50016
1.50324
1.50634
1.50944
1.51252
1.51557
1.51856
1.52148
1.5243
1.52701
1.5296
1.53204
1.53431
1.5364
1.5383
1.53998
1.54144
1.54267
1.54366
1.54439
1.54486
1.54506
1.545
1.54466
1.54405
1.54318
1.54203
1.54062
1.53896
1.53704
1.53489
1.53251
1.52991
1.52711
1.52413
1.52098
1.51768
1.51425
1.51071
1.50707
1.50337
1.49962
1.49584
1.49206
1.48829
1.48455
1.48086
1.47724
1.4737
1.47025
1.4669
1.46366
1.46054
1.45754
1.45466
1.45191
1.44927
1.44676
1.44437
1.44209
1.43992
1.43785
1.43589
1.43402
1.43224
1.43055
1.42895
1.42744
1.426
1.42465
1.42338
1.42218
1.42107
1.42004
1.41908
1.4182
1.4174
1.41667
1.41602
1.41544
1.41492
1.41448
1.41409
1.41376
1.41348
1.41325
1.41306
1.41291
1.41279
1.41269
1.41262
1.41257
1.41254
1.41252
1.41251
1.48525
1.48539
1.48568
1.4861
1.48667
1.48739
1.48824
1.48923
1.49035
1.49162
1.49301
1.49454
1.4962
1.49798
1.49989
1.50192
1.50406
1.50631
1.50866
1.51111
1.51366
1.51628
1.51897
1.52173
1.52454
1.52739
1.53026
1.53314
1.53602
1.53888
1.5417
1.54447
1.54716
1.54977
1.55228
1.55466
1.5569
1.55899
1.56091
1.56265
1.56419
1.56552
1.56664
1.56753
1.56818
1.5686
1.56876
1.56868
1.56835
1.56776
1.56692
1.56584
1.56451
1.56294
1.56115
1.55913
1.5569