/*--------------------------------*- C++ -*----------------------------------*\
| =========                 |                                                 |
| \\      /  F ield         | OpenFOAM: The Open Source CFD Toolbox           |
|  \\    /   O peration     | Version:  2406                                  |
|   \\  /    A nd           | Website:  www.openfoam.com                      |
|    \\/     M anipulation  |                                                 |
\*---------------------------------------------------------------------------*/
FoamFile
{
    version     2.0;
    format      ascii;
    arch        "LSB;label=32;scalar=64";
    class       volScalarField;
    location    "8.3";
    object      D;
}
// * * * * * * * * * * * * * * * * * * * * * * * * * * * * * * * * * * * * * //

dimensions      [0 2 -1 0 0 0 0];

internalField   nonuniform List<scalar> 
14400
(
7.23625e-05
7.23163e-05
7.22534e-05
7.22011e-05
7.21705e-05
7.2159e-05
7.2158e-05
7.21607e-05
7.21661e-05
7.21815e-05
7.22204e-05
7.22985e-05
7.24234e-05
7.25787e-05
7.27064e-05
7.27098e-05
7.25226e-05
7.22115e-05
7.18448e-05
7.14387e-05
7.09694e-05
7.03987e-05
6.96954e-05
6.88502e-05
6.78836e-05
6.68444e-05
6.57974e-05
6.48051e-05
6.39145e-05
6.3154e-05
6.25391e-05
6.20798e-05
6.17909e-05
6.17043e-05
6.18942e-05
6.25503e-05
6.42985e-05
7.05979e-05
0.000129778
0.00013824
0.00013824
0.00013824
0.00013824
0.00013824
0.00013824
0.00013824
0.00013824
0.00013824
0.00013824
0.00013824
0.00013824
0.00013824
0.00013824
0.00013824
0.00013824
0.00013824
0.00013824
0.00013824
0.00013824
0.000118971
6.97784e-05
6.43207e-05
6.29126e-05
6.24926e-05
6.25314e-05
6.28795e-05
6.34911e-05
6.43597e-05
6.54927e-05
6.68891e-05
6.85137e-05
7.0272e-05
7.20107e-05
7.35548e-05
7.47602e-05
7.55441e-05
7.5884e-05
7.58036e-05
7.53636e-05
7.4659e-05
7.38164e-05
7.29884e-05
7.23527e-05
7.21408e-05
7.27912e-05
7.57815e-05
9.01948e-05
0.000137741
0.000100785
7.57449e-05
7.11201e-05
6.96222e-05
6.90722e-05
6.89662e-05
6.91122e-05
6.94097e-05
6.97931e-05
7.02124e-05
7.06269e-05
7.10023e-05
7.13083e-05
7.15176e-05
7.16051e-05
7.15519e-05
7.1351e-05
7.10114e-05
7.05543e-05
7.00078e-05
6.94044e-05
6.87795e-05
6.81714e-05
6.76205e-05
6.71706e-05
6.68728e-05
6.67983e-05
6.7071e-05
6.79701e-05
7.03576e-05
7.84692e-05
0.000134253
7.18441e-05
7.17325e-05
7.15789e-05
7.14398e-05
7.13389e-05
7.12769e-05
7.12462e-05
7.12399e-05
7.12569e-05
7.13042e-05
7.13968e-05
7.15531e-05
7.17857e-05
7.20803e-05
7.23587e-05
7.24464e-05
7.21699e-05
7.1721e-05
7.12405e-05
7.07604e-05
7.02541e-05
6.96795e-05
6.90023e-05
6.82102e-05
6.73184e-05
6.63674e-05
6.54117e-05
6.45046e-05
6.3688e-05
6.29893e-05
6.24253e-05
6.20095e-05
6.17613e-05
6.17203e-05
6.19779e-05
6.27793e-05
6.5009e-05
7.37499e-05
0.000136208
0.00013824
0.00013824
0.00013824
0.00013824
0.00013824
0.00013824
0.00013824
0.00013824
0.00013824
0.00013824
0.00013824
0.00013824
0.00013824
0.00013824
0.00013824
0.00013824
0.00013824
0.00013824
0.00013824
0.00013824
0.000128073
7.08216e-05
6.46894e-05
6.30577e-05
6.25372e-05
6.25133e-05
6.28083e-05
6.33633e-05
6.41635e-05
6.52093e-05
6.64957e-05
6.79893e-05
6.96078e-05
7.1217e-05
7.26596e-05
7.3799e-05
7.45497e-05
7.48835e-05
7.48208e-05
7.44219e-05
7.37822e-05
7.30263e-05
7.23022e-05
7.17817e-05
7.16995e-05
7.25436e-05
7.6245e-05
9.75612e-05
0.000138157
0.000113038
7.66081e-05
7.1123e-05
6.9408e-05
6.8736e-05
6.85349e-05
6.85964e-05
6.88167e-05
6.91319e-05
6.94957e-05
6.98713e-05
7.02265e-05
7.05303e-05
7.07502e-05
7.08528e-05
7.08099e-05
7.06113e-05
7.02723e-05
6.98239e-05
6.93018e-05
6.87409e-05
6.81747e-05
6.76366e-05
6.71617e-05
6.67898e-05
6.65709e-05
6.6581e-05
6.69637e-05
6.808e-05
7.13144e-05
8.5798e-05
0.000137756
7.1107e-05
7.0837e-05
7.04906e-05
7.01865e-05
6.99616e-05
6.98149e-05
6.97351e-05
6.97129e-05
6.97462e-05
6.98427e-05
7.00208e-05
7.03087e-05
7.07381e-05
7.13201e-05
7.19703e-05
7.23296e-05
7.17467e-05
7.09479e-05
7.02263e-05
6.96057e-05
6.90341e-05
6.84536e-05
6.78218e-05
6.71196e-05
6.63527e-05
6.55476e-05
6.47427e-05
6.39781e-05
6.32875e-05
6.26962e-05
6.22232e-05
6.18875e-05
6.17166e-05
6.17647e-05
6.21597e-05
6.32886e-05
6.70839e-05
9.28823e-05
0.000138216
0.00013824
0.00013824
0.00013824
0.00013824
0.00013824
0.00013824
0.00013824
0.00013824
0.00013824
0.00013824
0.00013824
0.00013824
0.00013824
0.00013824
0.00013824
0.00013824
0.00013824
0.00013824
0.00013824
0.00013824
0.000137465
7.74131e-05
6.5899e-05
6.34161e-05
6.26448e-05
6.24899e-05
6.26822e-05
6.31325e-05
6.38094e-05
6.47014e-05
6.57961e-05
6.70618e-05
6.84324e-05
6.98032e-05
7.10477e-05
7.20484e-05
7.27239e-05
7.30414e-05
7.30161e-05
7.27047e-05
7.21984e-05
7.16142e-05
7.10888e-05
7.07855e-05
7.09463e-05
7.2135e-05
7.69851e-05
0.000111669
0.000138238
0.000130309
7.85572e-05
7.13896e-05
6.91392e-05
6.82071e-05
6.78279e-05
6.77424e-05
6.78334e-05
6.80364e-05
6.83095e-05
6.86215e-05
6.89439e-05
6.92453e-05
6.94863e-05
6.96184e-05
6.95959e-05
6.93998e-05
6.90589e-05
6.86231e-05
6.81399e-05
6.76472e-05
6.71745e-05
6.67482e-05
6.6396e-05
6.61527e-05
6.6069e-05
6.62313e-05
6.68185e-05
6.83377e-05
7.33165e-05
0.00010812
0.000138237
7.06913e-05
7.00553e-05
6.93668e-05
6.88229e-05
6.84413e-05
6.8196e-05
6.8061e-05
6.80196e-05
6.80674e-05
6.82133e-05
6.8483e-05
6.89253e-05
6.96205e-05
7.0683e-05
7.22007e-05
7.36893e-05
7.18218e-05
7.02191e-05
6.9095e-05
6.82769e-05
6.76208e-05
6.70314e-05
6.64505e-05
6.58485e-05
6.52195e-05
6.45753e-05
6.39385e-05
6.33358e-05
6.27928e-05
6.23322e-05
6.19753e-05
6.17471e-05
6.16863e-05
6.18694e-05
6.24808e-05
6.41187e-05
6.99944e-05
0.000122149
0.00013824
0.00013824
0.00013824
0.00013824
0.00013824
0.00013824
0.00013824
0.00013824
0.00013824
0.00013824
0.00013824
0.00013824
0.00013824
0.00013824
0.00013824
0.00013824
0.00013824
0.00013824
0.00013824
0.00013824
0.00013824
0.000138238
0.000105728
6.85589e-05
6.40446e-05
6.28424e-05
6.24867e-05
6.25321e-05
6.28413e-05
6.33603e-05
6.40626e-05
6.49269e-05
6.59217e-05
6.69948e-05
6.80698e-05
6.90551e-05
6.98619e-05
7.04246e-05
7.0714e-05
7.07413e-05
7.05551e-05
7.0234e-05
6.98801e-05
6.96164e-05
6.96048e-05
7.0121e-05
7.18797e-05
7.82557e-05
0.000128322
0.00013824
0.000138184
9.59291e-05
7.31619e-05
6.91276e-05
6.77098e-05
6.70724e-05
6.67999e-05
6.6739e-05
6.68169e-05
6.69923e-05
6.72378e-05
6.75294e-05
6.78366e-05
6.81137e-05
6.82933e-05
6.83013e-05
6.81007e-05
6.77443e-05
6.73105e-05
6.68613e-05
6.64364e-05
6.60602e-05
6.57518e-05
6.55333e-05
6.54375e-05
6.5521e-05
6.58944e-05
6.68104e-05
6.90353e-05
7.64354e-05
0.000132012
0.00013824
7.17288e-05
6.99221e-05
6.85617e-05
6.76707e-05
6.71021e-05
6.67515e-05
6.65601e-05
6.64982e-05
6.65574e-05
6.67483e-05
6.71075e-05
6.77179e-05
6.87593e-05
7.06705e-05
7.48367e-05
8.57032e-05
7.36017e-05
6.99001e-05
6.81236e-05
6.70453e-05
6.62849e-05
6.56768e-05
6.51368e-05
6.46218e-05
6.41143e-05
6.36138e-05
6.31307e-05
6.26811e-05
6.22838e-05
6.19594e-05
6.17317e-05
6.16332e-05
6.17194e-05
6.21074e-05
6.312e-05
6.61813e-05
8.34754e-05
0.00013809
0.00013824
0.00013824
0.00013824
0.00013824
0.00013824
0.00013824
0.00013824
0.00013824
0.00013824
0.00013824
0.00013824
0.00013824
0.00013824
0.00013824
0.00013824
0.00013824
0.00013824
0.00013824
0.00013824
0.00013824
0.00013824
0.00013824
0.000132724
7.21559e-05
6.5105e-05
6.32142e-05
6.25549e-05
6.24034e-05
6.25428e-05
6.28863e-05
6.33901e-05
6.40235e-05
6.4754e-05
6.55396e-05
6.6326e-05
6.70513e-05
6.76563e-05
6.80968e-05
6.83533e-05
6.84357e-05
6.83824e-05
6.82568e-05
6.81446e-05
6.81606e-05
6.84846e-05
6.95109e-05
7.27043e-05
8.87905e-05
0.000137964
0.00013824
0.00013824
0.000129541
7.67895e-05
6.97269e-05
6.75004e-05
6.649e-05
6.5988e-05
6.57638e-05
6.57206e-05
6.58098e-05
6.60039e-05
6.6283e-05
6.66204e-05
6.69658e-05
6.72281e-05
6.72846e-05
6.70548e-05
6.66426e-05
6.61759e-05
6.57325e-05
6.53524e-05
6.5053e-05
6.4847e-05
6.47532e-05
6.48076e-05
6.50829e-05
6.57506e-05
6.7305e-05
7.21463e-05
0.000106115
0.000138237
0.00013824
8.05541e-05
7.14961e-05
6.8422e-05
6.69514e-05
6.61328e-05
6.56561e-05
6.54001e-05
6.53146e-05
6.53855e-05
6.56252e-05
6.6086e-05
6.69048e-05
6.84585e-05
7.2279e-05
9.0575e-05
0.000136031
8.02494e-05
7.04803e-05
6.75428e-05
6.60913e-05
6.51894e-05
6.45415e-05
6.40211e-05
6.35672e-05
6.31516e-05
6.27644e-05
6.24072e-05
6.20891e-05
6.18246e-05
6.16336e-05
6.15442e-05
6.16013e-05
6.18907e-05
6.26141e-05
6.44167e-05
7.084e-05
0.000128019
0.00013824
0.00013824
0.00013824
0.00013824
0.00013824
0.00013824
0.00013824
0.00013824
0.00013824
0.00013824
0.00013824
0.00013824
0.00013824
0.00013824
0.00013824
0.00013824
0.00013824
0.00013824
0.00013824
0.00013824
0.00013824
0.00013824
0.00013824
0.000138239
0.000105712
6.85441e-05
6.40463e-05
6.27892e-05
6.23564e-05
6.22936e-05
6.24518e-05
6.27631e-05
6.31863e-05
6.36871e-05
6.423e-05
6.47761e-05
6.5285e-05
6.57206e-05
6.6057e-05
6.62848e-05
6.64142e-05
6.64762e-05
6.6523e-05
6.66313e-05
6.6919e-05
6.76081e-05
6.92986e-05
7.4946e-05
0.000119013
0.00013824
0.00013824
0.00013824
0.000138237
0.00010768
7.32344e-05
6.80735e-05
6.63143e-05
6.54765e-05
6.50581e-05
6.48943e-05
6.49123e-05
6.50789e-05
6.53798e-05
6.57998e-05
6.62906e-05
6.67304e-05
6.6892e-05
6.65578e-05
6.59825e-05
6.5404e-05
6.49109e-05
6.45369e-05
6.42856e-05
6.41615e-05
6.41835e-05
6.43981e-05
6.49106e-05
6.60225e-05
6.88181e-05
8.02912e-05
0.000137354
0.00013824
0.00013824
0.000135369
7.91179e-05
6.96328e-05
6.6903e-05
6.56681e-05
6.5001e-05
6.46518e-05
6.45326e-05
6.46217e-05
6.4934e-05
6.55477e-05
6.67084e-05
6.92132e-05
7.73238e-05
0.000134484
0.00013824
0.000118811
7.3744e-05
6.76689e-05
6.55405e-05
6.44153e-05
6.36893e-05
6.31588e-05
6.27363e-05
6.23814e-05
6.20766e-05
6.18175e-05
6.1609e-05
6.14641e-05
6.1405e-05
6.14701e-05
6.17296e-05
6.23429e-05
6.37966e-05
6.86008e-05
0.000106086
0.000138239
0.00013824
0.00013824
0.00013824
0.00013824
0.00013824
0.00013824
0.00013824
0.00013824
0.00013824
0.00013824
0.00013824
0.00013824
0.00013824
0.00013824
0.00013824
0.00013824
0.00013824
0.00013824
0.00013824
0.00013824
0.00013824
0.00013824
0.00013824
0.00013824
0.000137292
7.62244e-05
6.57265e-05
6.33334e-05
6.2474e-05
6.2156e-05
6.21131e-05
6.22387e-05
6.24761e-05
6.27868e-05
6.31381e-05
6.35006e-05
6.38478e-05
6.41581e-05
6.44184e-05
6.46265e-05
6.47938e-05
6.49483e-05
6.51389e-05
6.54457e-05
6.60135e-05
6.71716e-05
7.00775e-05
8.24207e-05
0.000137524
0.00013824
0.00013824
0.00013824
0.00013824
0.000138103
8.8991e-05
7.06973e-05
6.69301e-05
6.54571e-05
6.47445e-05
6.44363e-05
6.43913e-05
6.45598e-05
6.49422e-05
6.55645e-05
6.64178e-05
6.73834e-05
6.79224e-05
6.71617e-05
6.60497e-05
6.51659e-05
6.45102e-05
6.40832e-05
6.38471e-05
6.3791e-05
6.39389e-05
6.43686e-05
6.52618e-05
6.73475e-05
7.44191e-05
0.000131209
0.00013824
0.00013824
0.00013824
0.00013824
0.000132345
7.56245e-05
6.8206e-05
6.59775e-05
6.49218e-05
6.43954e-05
6.42135e-05
6.4341e-05
6.4797e-05
6.57233e-05
6.77823e-05
7.44519e-05
0.000125498
0.00013824
0.00013824
0.000138109
8.81641e-05
6.9285e-05
6.55546e-05
6.40262e-05
6.31524e-05
6.25703e-05
6.2146e-05
6.18226e-05
6.15739e-05
6.13909e-05
6.12765e-05
6.12457e-05
6.13293e-05
6.15892e-05
6.21554e-05
6.33955e-05
6.69864e-05
8.78065e-05
0.000138183
0.00013824
0.00013824
0.00013824
0.00013824
0.00013824
0.00013824
0.00013824
0.00013824
0.00013824
0.00013824
0.00013824
0.00013824
0.00013824
0.00013824
0.00013824
0.00013824
0.00013824
0.00013824
0.00013824
0.00013824
0.00013824
0.00013824
0.00013824
0.00013824
0.00013824
0.00013824
0.00012726
7.09581e-05
6.46898e-05
6.29307e-05
6.22185e-05
6.19275e-05
6.18596e-05
6.19266e-05
6.2078e-05
6.22791e-05
6.25045e-05
6.27351e-05
6.29582e-05
6.31679e-05
6.33669e-05
6.35685e-05
6.38018e-05
6.41209e-05
6.46272e-05
6.55387e-05
6.74838e-05
7.3606e-05
0.000122172
0.00013824
0.00013824
0.00013824
0.00013824
0.00013824
0.00013824
0.000137636
8.2529e-05
6.98445e-05
6.64145e-05
6.50403e-05
6.44978e-05
6.4382e-05
6.4596e-05
6.51894e-05
6.63887e-05
6.85114e-05
7.23962e-05
7.55371e-05
7.18586e-05
6.77332e-05
6.5873e-05
6.47289e-05
6.41341e-05
6.38678e-05
6.38806e-05
6.42159e-05
6.50777e-05
6.69024e-05
7.33042e-05
0.000124226
0.00013824
0.00013824
0.00013824
0.00013824
0.00013824
0.00013824
0.00012992
7.49211e-05
6.82027e-05
6.5886e-05
6.48811e-05
6.45374e-05
6.47709e-05
6.56229e-05
6.7423e-05
7.36057e-05
0.000120335
0.00013824
0.00013824
0.00013824
0.00013824
0.000133261
7.41624e-05
6.65625e-05
6.41705e-05
6.29913e-05
6.22858e-05
6.18155e-05
6.14933e-05
6.1279e-05
6.11574e-05
6.11328e-05
6.12282e-05
6.14945e-05
6.20612e-05
6.32408e-05
6.62456e-05
7.94246e-05
0.000137841
0.00013824
0.00013824
0.00013824
0.00013824
0.00013824
0.00013824
0.00013824
0.00013824
0.00013824
0.00013824
0.00013824
0.00013824
0.00013824
0.00013824
0.00013824
0.00013824
0.00013824
0.00013824
0.00013824
0.00013824
0.00013824
0.00013824
0.00013824
0.00013824
0.00013824
0.00013824
0.00013824
0.00013824
0.000110694
6.94268e-05
6.42167e-05
6.26491e-05
6.1975e-05
6.16708e-05
6.1563e-05
6.15702e-05
6.16469e-05
6.17661e-05
6.19114e-05
6.20745e-05
6.22537e-05
6.24552e-05
6.26956e-05
6.30091e-05
6.34654e-05
6.42155e-05
6.56677e-05
6.96638e-05
9.36182e-05
0.000138203
0.00013824
0.00013824
0.00013824
0.00013824
0.00013824
0.00013824
0.00013824
0.000137636
8.7371e-05
7.09076e-05
6.66587e-05
6.5557e-05
6.53146e-05
6.56791e-05
6.68957e-05
7.08696e-05
8.08349e-05
0.000123037
0.000135705
0.000118752
7.63329e-05
6.97022e-05
6.6233e-05
6.51363e-05
6.4727e-05
6.48536e-05
6.56172e-05
6.81039e-05
7.39522e-05
0.00012582
0.00013824
0.00013824
0.00013824
0.00013824
0.00013824
0.00013824
0.00013824
0.00013824
0.000133549
8.08087e-05
7.05737e-05
6.71962e-05
6.61699e-05
6.68513e-05
6.97699e-05
7.55332e-05
0.000126575
0.00013824
0.00013824
0.00013824
0.00013824
0.00013824
0.00013824
0.000122556
7.18629e-05
6.54495e-05
6.3398e-05
6.24019e-05
6.18028e-05
6.14406e-05
6.124e-05
6.11744e-05
6.12545e-05
6.15297e-05
6.20997e-05
6.33623e-05
6.66123e-05
7.89604e-05
0.000137531
0.00013824
0.00013824
0.00013824
0.00013824
0.00013824
0.00013824
0.00013824
0.00013824
0.00013824
0.00013824
0.00013824
0.00013824
0.00013824
0.00013824
0.00013824
0.00013824
0.00013824
0.00013824
0.00013824
0.00013824
0.00013824
0.00013824
0.00013824
0.00013824
0.00013824
0.00013824
0.00013824
0.00013824
0.00013824
0.000138234
9.86784e-05
6.84746e-05
6.39042e-05
6.24187e-05
6.17478e-05
6.14238e-05
6.12791e-05
6.12391e-05
6.12671e-05
6.13454e-05
6.14666e-05
6.16316e-05
6.18503e-05
6.21449e-05
6.25618e-05
6.32049e-05
6.43348e-05
6.67989e-05
7.54482e-05
0.000135917
0.00013824
0.00013824
0.00013824
0.00013824
0.00013824
0.00013824
0.00013824
0.00013824
0.00013824
0.000138106
0.000108666
7.35639e-05
7.0334e-05
6.95349e-05
7.06605e-05
7.45611e-05
0.000111048
0.000137669
0.00013824
0.00013824
0.00013824
0.000136334
0.000101438
7.27248e-05
6.95692e-05
6.82661e-05
6.88973e-05
7.13961e-05
8.78265e-05
0.000133757
0.00013824
0.00013824
0.00013824
0.00013824
0.00013824
0.00013824
0.00013824
0.00013824
0.00013824
0.00013824
0.000137729
0.000111493
7.88938e-05
7.2712e-05
7.64385e-05
0.000104758
0.000135847
0.00013824
0.00013824
0.00013824
0.00013824
0.00013824
0.00013824
0.00013824
0.00013824
0.000116394
7.10928e-05
6.50593e-05
6.32483e-05
6.22834e-05
6.17999e-05
6.15872e-05
6.15866e-05
6.18331e-05
6.24933e-05
6.37893e-05
6.798e-05
8.66622e-05
0.00013781
0.00013824
0.00013824
0.00013824
0.00013824
0.00013824
0.00013824
0.00013824
0.00013824
0.00013824
0.00013824
0.00013824
0.00013824
0.00013824
0.00013824
0.00013824
0.00013824
0.00013824
0.00013824
0.00013824
0.00013824
0.00013824
0.00013824
0.00013824
0.00013824
0.00013824
0.00013824
0.00013824
0.00013824
0.00013824
0.00013824
0.00013824
0.00013822
9.4035e-05
6.81893e-05
6.37577e-05
6.22716e-05
6.15979e-05
6.12522e-05
6.1077e-05
6.10109e-05
6.10283e-05
6.11191e-05
6.12854e-05
6.15438e-05
6.19295e-05
6.25159e-05
6.35037e-05
6.55642e-05
7.22297e-05
0.000127767
0.00013824
0.00013824
0.00013824
0.00013824
0.00013824
0.00013824
0.00013824
0.00013824
0.00013824
0.00013824
0.00013824
0.000138239
0.000132873
0.000111287
0.000101256
0.000114752
0.000135091
0.000138239
0.00013824
0.00013824
0.00013824
0.00013824
0.00013824
0.000138235
0.000130383
0.000105468
9.02877e-05
9.82692e-05
0.00012284
0.000138153
0.00013824
0.00013824
0.00013824
0.00013824
0.00013824
0.00013824
0.00013824
0.00013824
0.00013824
0.00013824
0.00013824
0.00013824
0.000138239
0.000137493
0.00013236
0.000136788
0.000138237
0.00013824
0.00013824
0.00013824
0.00013824
0.00013824
0.00013824
0.00013824
0.00013824
0.00013824
0.00013824
0.000121758
7.19401e-05
6.65285e-05
6.38816e-05
6.30339e-05
6.2755e-05
6.28728e-05
6.35099e-05
6.58088e-05
7.01509e-05
0.00010575
0.000138176
0.00013824
0.00013824
0.00013824
0.00013824
0.00013824
0.00013824
0.00013824
0.00013824
0.00013824
0.00013824
0.00013824
0.00013824
0.00013824
0.00013824
0.00013824
0.00013824
0.00013824
0.00013824
0.00013824
0.00013824
0.00013824
0.00013824
0.00013824
0.00013824
0.00013824
0.00013824
0.00013824
0.00013824
0.00013824
0.00013824
0.00013824
0.00013824
0.00013824
0.000138218
9.71314e-05
6.86513e-05
6.3845e-05
6.23401e-05
6.1627e-05
6.12402e-05
6.10451e-05
6.09932e-05
6.10597e-05
6.12474e-05
6.15896e-05
6.21582e-05
6.3101e-05
6.49878e-05
7.11536e-05
0.000119994
0.00013824
0.00013824
0.00013824
0.00013824
0.00013824
0.00013824
0.00013824
0.00013824
0.00013824
0.00013824
0.00013824
0.00013824
0.00013824
0.00013824
0.000138239
0.000138234
0.00013824
0.00013824
0.00013824
0.00013824
0.00013824
0.00013824
0.00013824
0.00013824
0.00013824
0.00013824
0.000138238
0.000138178
0.000138229
0.00013824
0.00013824
0.00013824
0.00013824
0.00013824
0.00013824
0.00013824
0.00013824
0.00013824
0.00013824
0.00013824
0.00013824
0.00013824
0.00013824
0.00013824
0.00013824
0.00013824
0.00013824
0.00013824
0.00013824
0.00013824
0.00013824
0.00013824
0.00013824
0.00013824
0.00013824
0.00013824
0.00013824
0.00013824
0.00013824
0.000133035
8.95276e-05
7.00152e-05
6.77099e-05
6.70813e-05
6.77205e-05
6.97489e-05
8.8499e-05
0.000128736
0.000138239
0.00013824
0.00013824
0.00013824
0.00013824
0.00013824
0.00013824
0.00013824
0.00013824
0.00013824
0.00013824
0.00013824
0.00013824
0.00013824
0.00013824
0.00013824
0.00013824
0.00013824
0.00013824
0.00013824
0.00013824
0.00013824
0.00013824
0.00013824
0.00013824
0.00013824
0.00013824
0.00013824
0.00013824
0.00013824
0.00013824
0.00013824
0.00013824
0.00013824
0.00013824
0.00013824
0.000138232
0.000108782
6.98874e-05
6.4685e-05
6.28789e-05
6.19809e-05
6.15284e-05
6.13693e-05
6.14129e-05
6.16578e-05
6.21949e-05
6.32621e-05
6.53044e-05
7.12736e-05
0.00012077
0.00013824
0.00013824
0.00013824
0.00013824
0.00013824
0.00013824
0.00013824
0.00013824
0.00013824
0.00013824
0.00013824
0.00013824
0.00013824
0.00013824
0.00013824
0.00013824
0.00013824
0.00013824
0.00013824
0.00013824
0.00013824
0.00013824
0.00013824
0.00013824
0.00013824
0.00013824
0.00013824
0.00013824
0.00013824
0.00013824
0.00013824
0.00013824
0.00013824
0.00013824
0.00013824
0.00013824
0.00013824
0.00013824
0.00013824
0.00013824
0.00013824
0.00013824
0.00013824
0.00013824
0.00013824
0.00013824
0.00013824
0.00013824
0.00013824
0.00013824
0.00013824
0.00013824
0.00013824
0.00013824
0.00013824
0.00013824
0.00013824
0.00013824
0.00013824
0.00013824
0.00013824
0.000138203
0.000127051
0.000106533
9.98809e-05
0.000109897
0.000129019
0.000138202
0.00013824
0.00013824
0.00013824
0.00013824
0.00013824
0.00013824
0.00013824
0.00013824
0.00013824
0.00013824
0.00013824
0.00013824
0.00013824
0.00013824
0.00013824
0.00013824
0.00013824
0.00013824
0.00013824
0.00013824
0.00013824
0.00013824
0.00013824
0.00013824
0.00013824
0.00013824
0.00013824
0.00013824
0.00013824
0.00013824
0.00013824
0.00013824
0.00013824
0.00013824
0.00013824
0.00013824
0.00013824
0.00013824
0.00013824
0.000126715
7.60152e-05
6.77208e-05
6.43456e-05
6.30235e-05
6.26286e-05
6.26397e-05
6.30362e-05
6.41695e-05
6.77458e-05
7.60482e-05
0.000129981
0.00013824
0.00013824
0.00013824
0.00013824
0.00013824
0.00013824
0.00013824
0.00013824
0.00013824
0.00013824
0.00013824
0.00013824
0.00013824
0.00013824
0.00013824
0.00013824
0.00013824
0.00013824
0.00013824
0.00013824
0.00013824
0.00013824
0.00013824
0.00013824
0.00013824
0.00013824
0.00013824
0.00013824
0.00013824
0.00013824
0.00013824
0.00013824
0.00013824
0.00013824
0.00013824
0.00013824
0.00013824
0.00013824
0.00013824
0.00013824
0.00013824
0.00013824
0.00013824
0.00013824
0.00013824
0.00013824
0.00013824
0.00013824
0.00013824
0.00013824
0.00013824
0.00013824
0.00013824
0.00013824
0.00013824
0.00013824
0.00013824
0.00013824
0.00013824
0.00013824
0.00013824
0.00013824
0.00013824
0.00013824
0.000138239
0.000138235
0.00013824
0.00013824
0.00013824
0.00013824
0.00013824
0.00013824
0.00013824
0.00013824
0.00013824
0.00013824
0.00013824
0.00013824
0.00013824
0.00013824
0.00013824
0.00013824
0.00013824
0.00013824
0.00013824
0.00013824
0.00013824
0.00013824
0.00013824
0.00013824
0.00013824
0.00013824
0.00013824
0.00013824
0.00013824
0.00013824
0.00013824
0.00013824
0.00013824
0.00013824
0.00013824
0.00013824
0.00013824
0.00013824
0.00013824
0.00013824
0.00013824
0.00013824
0.00013824
0.000137591
0.000112507
7.56335e-05
6.87138e-05
6.75001e-05
6.73938e-05
6.84064e-05
7.22917e-05
0.000107874
0.000137442
0.00013824
0.00013824
0.00013824
0.00013824
0.00013824
0.00013824
0.00013824
0.00013824
0.00013824
0.00013824
0.00013824
0.00013824
0.00013824
0.00013824
0.00013824
0.00013824
0.00013824
0.00013824
0.00013824
0.00013824
0.00013824
0.00013824
0.00013824
0.00013824
0.00013824
0.00013824
0.00013824
0.00013824
0.00013824
0.00013824
0.00013824
0.00013824
0.00013824
0.00013824
0.00013824
0.00013824
0.00013824
0.00013824
0.00013824
0.00013824
0.00013824
0.00013824
0.00013824
0.00013824
0.00013824
0.00013824
0.00013824
0.00013824
0.00013824
0.00013824
0.00013824
0.00013824
0.00013824
0.00013824
0.00013824
0.00013824
0.00013824
0.00013824
0.00013824
0.00013824
0.00013824
0.00013824
0.00013824
0.00013824
0.00013824
0.00013824
0.00013824
0.00013824
0.00013824
0.00013824
0.00013824
0.00013824
0.00013824
0.00013824
0.00013824
0.00013824
0.00013824
0.00013824
0.00013824
0.00013824
0.00013824
0.00013824
0.00013824
0.00013824
0.00013824
0.00013824
0.00013824
0.00013824
0.00013824
0.00013824
0.00013824
0.00013824
0.00013824
0.00013824
0.00013824
0.00013824
0.00013824
0.00013824
0.00013824
0.00013824
0.00013824
0.00013824
0.00013824
0.00013824
0.00013824
0.00013824
0.00013824
0.00013824
0.00013824
0.00013824
0.00013824
0.00013824
0.000137557
0.000124445
0.000110642
0.000108215
0.000119704
0.000135986
0.000138239
0.00013824
0.00013824
0.00013824
0.00013824
0.00013824
0.00013824
0.00013824
0.00013824
0.00013824
0.00013824
0.00013824
0.00013824
0.00013824
0.00013824
0.00013824
0.00013824
0.00013824
0.00013824
0.00013824
0.00013824
0.00013824
0.00013824
0.00013824
0.00013824
0.00013824
0.00013824
0.00013824
0.00013824
0.00013824
0.00013824
0.00013824
0.00013824
0.00013824
0.00013824
0.00013824
0.00013824
0.00013824
0.00013824
0.00013824
0.00013824
0.00013824
0.00013824
0.00013824
0.00013824
0.00013824
0.00013824
0.00013824
0.00013824
0.00013824
0.00013824
0.00013824
0.00013824
0.00013824
0.00013824
0.00013824
0.00013824
0.00013824
0.00013824
0.00013824
0.00013824
0.00013824
0.00013824
0.00013824
0.00013824
0.00013824
0.00013824
0.00013824
0.00013824
0.00013824
0.00013824
0.00013824
0.00013824
0.00013824
0.00013824
0.00013824
0.00013824
0.00013824
0.00013824
0.00013824
0.00013824
0.00013824
0.00013824
0.00013824
0.00013824
0.00013824
0.00013824
0.00013824
0.00013824
0.00013824
0.00013824
0.00013824
0.00013824
0.00013824
0.00013824
0.00013824
0.00013824
0.00013824
0.00013824
0.00013824
0.00013824
0.00013824
0.00013824
0.00013824
0.00013824
0.00013824
0.00013824
0.00013824
0.00013824
0.00013824
0.00013824
0.00013824
0.00013824
0.00013824
0.00013824
0.00013824
0.00013824
0.000138239
0.00013824
0.00013824
0.00013824
0.00013824
0.00013824
0.00013824
0.00013824
0.00013824
0.00013824
0.00013824
0.00013824
0.00013824
0.00013824
0.00013824
0.00013824
0.00013824
0.00013824
0.00013824
0.00013824
0.00013824
0.00013824
0.00013824
0.00013824
0.00013824
0.00013824
0.00013824
0.00013824
0.00013824
0.00013824
0.00013824
0.00013824
0.00013824
0.00013824
0.00013824
0.00013824
0.00013824
0.00013824
0.00013824
0.00013824
0.00013824
0.00013824
0.00013824
0.00013824
0.00013824
0.00013824
0.00013824
0.00013824
0.00013824
0.00013824
0.00013824
0.00013824
0.00013824
0.00013824
0.00013824
0.00013824
0.00013824
0.00013824
0.00013824
0.00013824
0.00013824
0.00013824
0.00013824
0.00013824
0.00013824
0.00013824
0.00013824
0.00013824
0.00013824
0.00013824
0.00013824
0.00013824
0.00013824
0.00013824
0.00013824
0.00013824
0.00013824
0.00013824
0.00013824
0.00013824
0.00013824
0.00013824
0.00013824
0.00013824
0.00013824
0.00013824
0.00013824
0.00013824
0.00013824
0.00013824
0.00013824
0.00013824
0.00013824
0.00013824
0.00013824
0.00013824
0.00013824
0.00013824
0.00013824
0.00013824
0.00013824
0.00013824
0.00013824
0.00013824
0.00013824
0.00013824
0.00013824
0.00013824
0.00013824
0.00013824
0.00013824
0.00013824
0.00013824
0.00013824
0.00013824
0.00013824
0.00013824
0.00013824
0.00013824
0.00013824
0.00013824
0.00013824
0.00013824
0.00013824
0.00013824
0.00013824
0.00013824
0.00013824
0.00013824
0.00013824
0.00013824
0.00013824
0.00013824
0.00013824
0.00013824
0.00013824
0.00013824
0.00013824
0.00013824
0.00013824
0.00013824
0.00013824
0.00013824
0.00013824
0.00013824
0.00013824
0.00013824
0.00013824
0.00013824
0.00013824
0.00013824
0.00013824
0.00013824
0.00013824
0.00013824
0.00013824
0.00013824
0.00013824
0.00013824
0.00013824
0.00013824
0.00013824
0.00013824
0.00013824
0.00013824
0.00013824
0.00013824
0.00013824
0.00013824
0.00013824
0.00013824
0.00013824
0.00013824
0.00013824
0.00013824
0.00013824
0.00013824
0.00013824
0.00013824
0.00013824
0.00013824
0.00013824
0.00013824
0.00013824
0.00013824
0.00013824
0.00013824
0.00013824
0.00013824
0.00013824
0.00013824
0.00013824
0.00013824
0.00013824
0.00013824
0.00013824
0.00013824
0.00013824
0.00013824
0.00013824
0.00013824
0.00013824
0.00013824
0.00013824
0.00013824
0.00013824
0.00013824
0.00013824
0.00013824
0.00013824
0.00013824
0.00013824
0.00013824
0.00013824
0.00013824
0.00013824
0.00013824
0.00013824
0.00013824
0.00013824
0.00013824
0.00013824
0.00013824
0.00013824
0.00013824
0.00013824
0.00013824
0.00013824
0.00013824
0.00013824
0.00013824
0.00013824
0.00013824
0.00013824
0.00013824
0.00013824
0.00013824
0.00013824
0.00013824
0.00013824
0.00013824
0.00013824
0.00013824
0.00013824
0.00013824
0.00013824
0.00013824
0.00013824
0.00013824
0.00013824
0.00013824
0.00013824
0.00013824
0.00013824
0.00013824
0.00013824
0.00013824
0.00013824
0.00013824
0.00013824
0.00013824
0.00013824
0.00013824
0.00013824
0.00013824
0.00013824
0.00013824
0.00013824
0.00013824
0.00013824
0.00013824
0.00013824
0.00013824
0.00013824
0.00013824
0.00013824
0.00013824
0.00013824
0.00013824
0.00013824
0.00013824
0.00013824
0.00013824
0.00013824
0.00013824
0.00013824
0.00013824
0.00013824
0.00013824
0.00013824
0.00013824
0.00013824
0.00013824
0.00013824
0.00013824
0.00013824
0.00013824
0.00013824
0.00013824
0.00013824
0.00013824
0.00013824
0.00013824
0.00013824
0.00013824
0.00013824
0.00013824
0.00013824
0.00013824
0.00013824
0.00013824
0.00013824
0.00013824
0.00013824
0.00013824
0.00013824
0.00013824
0.00013824
0.00013824
0.00013824
0.00013824
0.00013824
0.00013824
0.00013824
0.00013824
0.00013824
0.00013824
0.00013824
0.00013824
0.00013824
0.00013824
0.00013824
0.00013824
0.00013824
0.00013824
0.00013824
0.00013824
0.00013824
0.00013824
0.00013824
0.00013824
0.00013824
0.00013824
0.00013824
0.00013824
0.00013824
0.00013824
0.00013824
0.00013824
0.00013824
0.00013824
0.00013824
0.00013824
0.00013824
0.00013824
0.00013824
0.00013824
0.00013824
0.00013824
0.00013824
0.00013824
0.00013824
0.00013824
0.00013824
0.00013824
0.00013824
0.00013824
0.00013824
0.00013824
0.00013824
0.00013824
0.00013824
0.00013824
0.00013824
0.00013824
0.00013824
0.00013824
0.00013824
0.00013824
0.00013824
0.00013824
0.00013824
0.00013824
0.00013824
0.00013824
0.00013824
0.00013824
0.00013824
0.00013824
0.00013824
0.00013824
0.00013824
0.00013824
0.00013824
0.00013824
0.00013824
0.00013824
0.00013824
0.00013824
0.00013824
0.00013824
0.00013824
0.00013824
0.00013824
0.00013824
0.00013824
0.00013824
0.00013824
0.00013824
0.00013824
0.00013824
0.00013824
0.00013824
0.00013824
0.00013824
0.00013824
0.00013824
0.00013824
0.00013824
0.00013824
0.00013824
0.00013824
0.00013824
0.00013824
0.00013824
0.00013824
0.00013824
0.00013824
0.00013824
0.00013824
0.00013824
0.00013824
0.00013824
0.00013824
0.00013824
0.00013824
0.00013824
0.00013824
0.00013824
0.00013824
0.00013824
0.00013824
0.00013824
0.00013824
0.00013824
0.00013824
0.00013824
0.00013824
0.00013824
0.00013824
0.00013824
0.00013824
0.00013824
0.00013824
0.00013824
0.00013824
0.00013824
0.00013824
0.00013824
0.00013824
0.00013824
0.00013824
0.00013824
0.00013824
0.00013824
0.00013824
0.00013824
0.00013824
0.00013824
0.00013824
0.00013824
0.00013824
0.00013824
0.00013824
0.00013824
0.00013824
0.00013824
0.00013824
0.00013824
0.00013824
0.00013824
0.00013824
0.00013824
0.00013824
0.00013824
0.00013824
0.00013824
0.00013824
0.00013824
0.00013824
0.00013824
0.00013824
0.00013824
0.00013824
0.00013824
0.00013824
0.00013824
0.00013824
0.00013824
0.00013824
0.00013824
0.00013824
0.00013824
0.00013824
0.00013824
0.00013824
0.00013824
0.00013824
0.00013824
0.00013824
0.00013824
0.00013824
0.00013824
0.00013824
0.00013824
0.00013824
0.00013824
0.00013824
0.00013824
0.00013824
0.00013824
0.00013824
0.00013824
0.00013824
0.00013824
0.00013824
0.00013824
0.00013824
0.00013824
0.00013824
0.00013824
0.00013824
0.00013824
0.00013824
0.00013824
0.00013824
0.00013824
0.00013824
0.00013824
0.00013824
0.00013824
0.00013824
0.00013824
0.00013824
0.00013824
0.00013824
0.00013824
0.00013824
0.00013824
0.00013824
0.00013824
0.00013824
0.00013824
0.00013824
0.00013824
0.00013824
0.00013824
0.00013824
0.00013824
0.00013824
0.00013824
0.00013824
0.00013824
0.00013824
0.00013824
0.00013824
0.00013824