/*--------------------------------*- C++ -*----------------------------------*\
| =========                 |                                                 |
| \\      /  F ield         | OpenFOAM: The Open Source CFD Toolbox           |
|  \\    /   O peration     | Version:  2406                                  |
|   \\  /    A nd           | Website:  www.openfoam.com                      |
|    \\/     M anipulation  |                                                 |
\*---------------------------------------------------------------------------*/
FoamFile
{
    version     2.0;
    format      ascii;
    arch        "LSB;label=32;scalar=64";
    class       volScalarField;
    location    "8.3";
    object      Da;
}
// * * * * * * * * * * * * * * * * * * * * * * * * * * * * * * * * * * * * * //

dimensions      [0 2 -1 0 0 0 0];

internalField   nonuniform List<scalar> 
14400
(
4.8895e-05
4.88747e-05
4.88471e-05
4.88242e-05
4.88109e-05
4.8806e-05
4.88057e-05
4.88069e-05
4.88093e-05
4.8816e-05
4.88331e-05
4.88675e-05
4.89225e-05
4.8991e-05
4.90475e-05
4.90491e-05
4.89668e-05
4.88297e-05
4.86682e-05
4.84892e-05
4.82822e-05
4.80301e-05
4.77192e-05
4.73451e-05
4.6917e-05
4.64565e-05
4.59923e-05
4.55522e-05
4.51571e-05
4.48197e-05
4.45468e-05
4.43429e-05
4.42144e-05
4.41753e-05
4.42582e-05
4.45466e-05
4.53159e-05
4.80902e-05
7.41791e-05
7.8e-05
7.8e-05
7.8e-05
7.8e-05
7.8e-05
7.8e-05
7.8e-05
7.8e-05
7.8e-05
7.8e-05
7.8e-05
7.8e-05
7.8e-05
7.8e-05
7.8e-05
7.8e-05
7.8e-05
7.8e-05
7.8e-05
7.8e-05
6.93944e-05
4.77364e-05
4.53291e-05
4.47082e-05
4.45235e-05
4.45415e-05
4.46964e-05
4.49678e-05
4.53532e-05
4.58557e-05
4.64751e-05
4.71954e-05
4.79748e-05
4.8745e-05
4.94285e-05
4.99618e-05
5.03083e-05
5.04583e-05
5.04221e-05
5.02268e-05
4.99142e-05
4.95405e-05
4.91731e-05
4.88906e-05
4.87955e-05
4.90816e-05
5.04013e-05
5.67618e-05
7.77782e-05
6.14366e-05
5.03837e-05
4.83411e-05
4.76797e-05
4.74372e-05
4.7391e-05
4.74562e-05
4.75884e-05
4.77585e-05
4.79444e-05
4.8128e-05
4.82943e-05
4.84299e-05
4.85225e-05
4.85613e-05
4.85377e-05
4.84488e-05
4.82985e-05
4.80962e-05
4.78542e-05
4.75869e-05
4.731e-05
4.70404e-05
4.67961e-05
4.65964e-05
4.6464e-05
4.64303e-05
4.65501e-05
4.69466e-05
4.80001e-05
5.15788e-05
7.62252e-05
4.8665e-05
4.86157e-05
4.85479e-05
4.84867e-05
4.84422e-05
4.8415e-05
4.84016e-05
4.83989e-05
4.84064e-05
4.84272e-05
4.8468e-05
4.8537e-05
4.86397e-05
4.87698e-05
4.88929e-05
4.89318e-05
4.881e-05
4.8612e-05
4.84001e-05
4.81884e-05
4.7965e-05
4.77111e-05
4.74117e-05
4.70611e-05
4.66661e-05
4.62447e-05
4.5821e-05
4.54187e-05
4.50566e-05
4.47466e-05
4.44963e-05
4.43117e-05
4.42012e-05
4.41823e-05
4.42951e-05
4.46473e-05
4.5626e-05
4.94435e-05
7.70637e-05
7.8e-05
7.8e-05
7.8e-05
7.8e-05
7.8e-05
7.8e-05
7.8e-05
7.8e-05
7.8e-05
7.8e-05
7.8e-05
7.8e-05
7.8e-05
7.8e-05
7.8e-05
7.8e-05
7.8e-05
7.8e-05
7.8e-05
7.8e-05
7.34311e-05
4.81937e-05
4.54906e-05
4.47718e-05
4.4543e-05
4.45333e-05
4.46647e-05
4.49111e-05
4.52661e-05
4.573e-05
4.63005e-05
4.69628e-05
4.76802e-05
4.83932e-05
4.9032e-05
4.95362e-05
4.98681e-05
5.00154e-05
4.9987e-05
4.98099e-05
4.9526e-05
4.91905e-05
4.88691e-05
4.86376e-05
4.85999e-05
4.89717e-05
5.06056e-05
6.00138e-05
7.79629e-05
6.68496e-05
5.07648e-05
4.83419e-05
4.75845e-05
4.7288e-05
4.71997e-05
4.72274e-05
4.73254e-05
4.74652e-05
4.76265e-05
4.7793e-05
4.79503e-05
4.80849e-05
4.81823e-05
4.82277e-05
4.82087e-05
4.81208e-05
4.79707e-05
4.77722e-05
4.7541e-05
4.72926e-05
4.70417e-05
4.68031e-05
4.65925e-05
4.64274e-05
4.633e-05
4.63338e-05
4.65023e-05
4.69948e-05
4.84218e-05
5.48019e-05
7.77833e-05
4.83375e-05
4.82182e-05
4.80653e-05
4.7931e-05
4.78317e-05
4.77669e-05
4.77318e-05
4.7722e-05
4.77367e-05
4.77793e-05
4.7858e-05
4.79852e-05
4.8175e-05
4.84322e-05
4.87196e-05
4.88784e-05
4.86213e-05
4.82687e-05
4.79502e-05
4.76762e-05
4.74238e-05
4.71673e-05
4.68879e-05
4.65772e-05
4.62375e-05
4.58808e-05
4.5524e-05
4.5185e-05
4.48788e-05
4.46165e-05
4.44066e-05
4.42575e-05
4.41812e-05
4.42017e-05
4.43753e-05
4.48722e-05
4.65406e-05
5.78299e-05
7.79886e-05
7.8e-05
7.8e-05
7.8e-05
7.8e-05
7.8e-05
7.8e-05
7.8e-05
7.8e-05
7.8e-05
7.8e-05
7.8e-05
7.8e-05
7.8e-05
7.8e-05
7.8e-05
7.8e-05
7.8e-05
7.8e-05
7.8e-05
7.8e-05
7.7641e-05
5.10393e-05
4.60191e-05
4.49292e-05
4.45902e-05
4.45227e-05
4.46086e-05
4.48087e-05
4.5109e-05
4.55047e-05
4.59901e-05
4.65514e-05
4.7159e-05
4.77665e-05
4.83178e-05
4.87607e-05
4.90595e-05
4.91996e-05
4.91878e-05
4.90494e-05
4.88245e-05
4.85649e-05
4.83314e-05
4.8196e-05
4.82659e-05
4.87902e-05
5.09319e-05
6.62454e-05
7.79989e-05
7.44833e-05
5.16244e-05
4.84587e-05
4.74647e-05
4.70532e-05
4.68861e-05
4.68487e-05
4.68893e-05
4.69794e-05
4.71006e-05
4.72388e-05
4.73816e-05
4.7515e-05
4.76217e-05
4.76802e-05
4.76702e-05
4.75835e-05
4.74326e-05
4.72396e-05
4.70257e-05
4.68075e-05
4.65981e-05
4.64091e-05
4.62528e-05
4.61448e-05
4.61072e-05
4.61784e-05
4.64374e-05
4.71081e-05
4.93062e-05
6.46592e-05
7.79986e-05
4.81514e-05
4.78706e-05
4.75664e-05
4.73261e-05
4.71576e-05
4.70493e-05
4.69897e-05
4.69714e-05
4.69926e-05
4.7057e-05
4.71762e-05
4.73717e-05
4.7679e-05
4.81486e-05
4.8819e-05
4.94754e-05
4.8652e-05
4.79444e-05
4.7448e-05
4.70867e-05
4.67969e-05
4.65364e-05
4.62795e-05
4.60131e-05
4.57346e-05
4.54493e-05
4.51671e-05
4.49e-05
4.46592e-05
4.44549e-05
4.42965e-05
4.4195e-05
4.41675e-05
4.42477e-05
4.45168e-05
4.52383e-05
4.7827e-05
7.07996e-05
7.8e-05
7.8e-05
7.8e-05
7.8e-05
7.8e-05
7.8e-05
7.8e-05
7.8e-05
7.8e-05
7.8e-05
7.8e-05
7.8e-05
7.8e-05
7.8e-05
7.8e-05
7.8e-05
7.8e-05
7.8e-05
7.8e-05
7.8e-05
7.8e-05
7.79992e-05
6.35229e-05
4.71943e-05
4.52066e-05
4.46771e-05
4.45209e-05
4.45419e-05
4.46794e-05
4.49098e-05
4.52213e-05
4.56046e-05
4.60456e-05
4.65214e-05
4.69979e-05
4.74344e-05
4.77917e-05
4.80407e-05
4.81685e-05
4.818e-05
4.80969e-05
4.7954e-05
4.77965e-05
4.76789e-05
4.76727e-05
4.78998e-05
4.86759e-05
5.14917e-05
7.36043e-05
7.8e-05
7.7975e-05
5.92769e-05
4.92394e-05
4.74584e-05
4.68322e-05
4.65508e-05
4.64307e-05
4.6404e-05
4.64387e-05
4.65165e-05
4.66253e-05
4.67543e-05
4.68903e-05
4.70129e-05
4.70923e-05
4.70959e-05
4.70071e-05
4.68494e-05
4.66575e-05
4.64586e-05
4.62705e-05
4.61039e-05
4.59672e-05
4.58702e-05
4.58274e-05
4.58639e-05
4.60285e-05
4.64328e-05
4.74151e-05
5.0682e-05
7.52279e-05
7.8e-05
4.86057e-05
4.78091e-05
4.72084e-05
4.68149e-05
4.65637e-05
4.64089e-05
4.63244e-05
4.6297e-05
4.63232e-05
4.64075e-05
4.65663e-05
4.6836e-05
4.72962e-05
4.81405e-05
4.9979e-05
5.47598e-05
4.9434e-05
4.7801e-05
4.70165e-05
4.65401e-05
4.62041e-05
4.59354e-05
4.56967e-05
4.54688e-05
4.52442e-05
4.50227e-05
4.48087e-05
4.46094e-05
4.44333e-05
4.42894e-05
4.41882e-05
4.41442e-05
4.41817e-05
4.43524e-05
4.47982e-05
4.61421e-05
5.36734e-05
7.79293e-05
7.8e-05
7.8e-05
7.8e-05
7.8e-05
7.8e-05
7.8e-05
7.8e-05
7.8e-05
7.8e-05
7.8e-05
7.8e-05
7.8e-05
7.8e-05
7.8e-05
7.8e-05
7.8e-05
7.8e-05
7.8e-05
7.8e-05
7.8e-05
7.8e-05
7.8e-05
7.55058e-05
4.87787e-05
4.56736e-05
4.48406e-05
4.45505e-05
4.44845e-05
4.45469e-05
4.46995e-05
4.4923e-05
4.52038e-05
4.55277e-05
4.5876e-05
4.62245e-05
4.65459e-05
4.68139e-05
4.70088e-05
4.71221e-05
4.71581e-05
4.7134e-05
4.70777e-05
4.70273e-05
4.70336e-05
4.7176e-05
4.76286e-05
4.90376e-05
5.61262e-05
7.78768e-05
7.8e-05
7.8e-05
7.41376e-05
5.0841e-05
4.77219e-05
4.67384e-05
4.62921e-05
4.60705e-05
4.59716e-05
4.59526e-05
4.59922e-05
4.60781e-05
4.62016e-05
4.63509e-05
4.65036e-05
4.66194e-05
4.66443e-05
4.65428e-05
4.63605e-05
4.61541e-05
4.5958e-05
4.57898e-05
4.56572e-05
4.55659e-05
4.55242e-05
4.55478e-05
4.56691e-05
4.59637e-05
4.66496e-05
4.87855e-05
6.37546e-05
7.79985e-05
7.8e-05
5.24844e-05
4.84997e-05
4.71442e-05
4.64951e-05
4.61336e-05
4.59231e-05
4.58101e-05
4.57723e-05
4.58037e-05
4.59096e-05
4.61132e-05
4.6475e-05
4.71612e-05
4.88472e-05
5.69061e-05
7.70115e-05
5.23585e-05
4.80544e-05
4.67577e-05
4.61165e-05
4.57181e-05
4.54318e-05
4.52018e-05
4.50011e-05
4.48172e-05
4.46458e-05
4.44877e-05
4.43468e-05
4.42295e-05
4.41447e-05
4.41047e-05
4.41295e-05
4.42567e-05
4.45755e-05
4.53702e-05
4.8201e-05
7.34035e-05
7.8e-05
7.8e-05
7.8e-05
7.8e-05
7.8e-05
7.8e-05
7.8e-05
7.8e-05
7.8e-05
7.8e-05
7.8e-05
7.8e-05
7.8e-05
7.8e-05
7.8e-05
7.8e-05
7.8e-05
7.8e-05
7.8e-05
7.8e-05
7.8e-05
7.8e-05
7.8e-05
7.79994e-05
6.34931e-05
4.7185e-05
4.52065e-05
4.46533e-05
4.44631e-05
4.44361e-05
4.45067e-05
4.46449e-05
4.48326e-05
4.50546e-05
4.52952e-05
4.55372e-05
4.57627e-05
4.59556e-05
4.61044e-05
4.6205e-05
4.6262e-05
4.6289e-05
4.63092e-05
4.63565e-05
4.64831e-05
4.6787e-05
4.75331e-05
5.00264e-05
6.94776e-05
7.79999e-05
7.8e-05
7.8e-05
7.79988e-05
6.44542e-05
4.92675e-05
4.69898e-05
4.62131e-05
4.58432e-05
4.56584e-05
4.55862e-05
4.55942e-05
4.56679e-05
4.58009e-05
4.59865e-05
4.62033e-05
4.63975e-05
4.64685e-05
4.63212e-05
4.6067e-05
4.58114e-05
4.55935e-05
4.54281e-05
4.53169e-05
4.52618e-05
4.52713e-05
4.53658e-05
4.55918e-05
4.60825e-05
4.73145e-05
5.23544e-05
7.75998e-05
7.8e-05
7.8e-05
7.67123e-05
5.18506e-05
4.76756e-05
4.64717e-05
4.59267e-05
4.56322e-05
4.54781e-05
4.54254e-05
4.54648e-05
4.56028e-05
4.58739e-05
4.63867e-05
4.74927e-05
5.10703e-05
7.63225e-05
7.8e-05
6.93763e-05
4.9493e-05
4.68112e-05
4.58714e-05
4.53744e-05
4.50537e-05
4.48192e-05
4.46325e-05
4.44756e-05
4.43407e-05
4.4226e-05
4.41337e-05
4.40694e-05
4.40429e-05
4.40713e-05
4.41853e-05
4.44553e-05
4.50954e-05
4.72089e-05
6.36446e-05
7.79995e-05
7.8e-05
7.8e-05
7.8e-05
7.8e-05
7.8e-05
7.8e-05
7.8e-05
7.8e-05
7.8e-05
7.8e-05
7.8e-05
7.8e-05
7.8e-05
7.8e-05
7.8e-05
7.8e-05
7.8e-05
7.8e-05
7.8e-05
7.8e-05
7.8e-05
7.8e-05
7.8e-05
7.8e-05
7.75596e-05
5.05176e-05
4.59431e-05
4.48926e-05
4.45145e-05
4.43748e-05
4.43563e-05
4.44123e-05
4.45177e-05
4.46554e-05
4.48111e-05
4.49717e-05
4.51255e-05
4.52628e-05
4.5378e-05
4.54699e-05
4.55437e-05
4.56117e-05
4.56956e-05
4.58308e-05
4.60813e-05
4.65924e-05
4.78739e-05
5.33032e-05
7.76781e-05
7.8e-05
7.8e-05
7.8e-05
7.8e-05
7.79379e-05
5.61881e-05
4.81434e-05
4.64832e-05
4.58333e-05
4.55187e-05
4.53827e-05
4.53629e-05
4.54373e-05
4.56062e-05
4.5881e-05
4.62575e-05
4.66837e-05
4.69196e-05
4.65857e-05
4.60948e-05
4.57047e-05
4.54152e-05
4.52265e-05
4.51221e-05
4.50971e-05
4.51622e-05
4.53517e-05
4.57458e-05
4.66666e-05
4.97868e-05
7.48534e-05
7.8e-05
7.8e-05
7.8e-05
7.8e-05
7.53604e-05
5.03171e-05
4.70448e-05
4.60615e-05
4.55959e-05
4.53635e-05
4.52832e-05
4.53395e-05
4.5541e-05
4.595e-05
4.68598e-05
4.98046e-05
7.23252e-05
7.8e-05
7.8e-05
7.79404e-05
5.58134e-05
4.752e-05
4.58758e-05
4.52012e-05
4.48152e-05
4.4558e-05
4.43706e-05
4.42277e-05
4.41177e-05
4.40367e-05
4.3986e-05
4.39721e-05
4.40087e-05
4.4123e-05
4.4372e-05
4.49171e-05
4.64916e-05
5.55669e-05
7.79731e-05
7.8e-05
7.8e-05
7.8e-05
7.8e-05
7.8e-05
7.8e-05
7.8e-05
7.8e-05
7.8e-05
7.8e-05
7.8e-05
7.8e-05
7.8e-05
7.8e-05
7.8e-05
7.8e-05
7.8e-05
7.8e-05
7.8e-05
7.8e-05
7.8e-05
7.8e-05
7.8e-05
7.8e-05
7.8e-05
7.8e-05
7.30569e-05
4.82534e-05
4.54912e-05
4.47157e-05
4.44018e-05
4.42737e-05
4.4244e-05
4.4274e-05
4.43411e-05
4.44303e-05
4.45301e-05
4.46322e-05
4.4731e-05
4.48237e-05
4.49116e-05
4.50005e-05
4.51034e-05
4.52442e-05
4.54676e-05
4.58698e-05
4.67285e-05
4.94307e-05
7.08595e-05
7.8e-05
7.8e-05
7.8e-05
7.8e-05
7.8e-05
7.8e-05
7.77262e-05
5.33316e-05
4.77644e-05
4.62545e-05
4.56482e-05
4.54089e-05
4.53578e-05
4.54522e-05
4.57139e-05
4.62432e-05
4.71774e-05
4.8894e-05
5.02608e-05
4.8656e-05
4.68346e-05
4.60152e-05
4.55106e-05
4.52481e-05
4.51304e-05
4.51359e-05
4.52836e-05
4.56634e-05
4.64686e-05
4.92942e-05
7.17409e-05
7.8e-05
7.8e-05
7.8e-05
7.8e-05
7.8e-05
7.8e-05
7.42729e-05
5.00032e-05
4.70391e-05
4.60199e-05
4.55763e-05
4.54247e-05
4.55277e-05
4.5904e-05
4.66976e-05
4.94284e-05
7.0027e-05
7.8e-05
7.8e-05
7.8e-05
7.8e-05
7.57637e-05
4.96703e-05
4.63195e-05
4.52638e-05
4.4743e-05
4.44314e-05
4.42237e-05
4.40814e-05
4.39866e-05
4.39328e-05
4.39217e-05
4.39636e-05
4.40809e-05
4.43302e-05
4.48483e-05
4.61626e-05
5.18837e-05
7.78117e-05
7.8e-05
7.8e-05
7.8e-05
7.8e-05
7.8e-05
7.8e-05
7.8e-05
7.8e-05
7.8e-05
7.8e-05
7.8e-05
7.8e-05
7.8e-05
7.8e-05
7.8e-05
7.8e-05
7.8e-05
7.8e-05
7.8e-05
7.8e-05
7.8e-05
7.8e-05
7.8e-05
7.8e-05
7.8e-05
7.8e-05
7.8e-05
7.79998e-05
6.56892e-05
4.75761e-05
4.52821e-05
4.45912e-05
4.42939e-05
4.41599e-05
4.41125e-05
4.41158e-05
4.415e-05
4.42028e-05
4.42671e-05
4.43393e-05
4.44185e-05
4.45074e-05
4.46135e-05
4.47519e-05
4.49533e-05
4.52843e-05
4.59247e-05
4.76854e-05
5.82118e-05
7.79832e-05
7.8e-05
7.8e-05
7.8e-05
7.8e-05
7.8e-05
7.8e-05
7.8e-05
7.77257e-05
5.54513e-05
4.82339e-05
4.63613e-05
4.58757e-05
4.57687e-05
4.59293e-05
4.64647e-05
4.8217e-05
5.25762e-05
7.1227e-05
7.68546e-05
6.93205e-05
5.06085e-05
4.77009e-05
4.61735e-05
4.56896e-05
4.55087e-05
4.55645e-05
4.59012e-05
4.69938e-05
4.95735e-05
7.24401e-05
7.8e-05
7.8e-05
7.8e-05
7.8e-05
7.8e-05
7.8e-05
7.8e-05
7.8e-05
7.58903e-05
5.25565e-05
4.8085e-05
4.6593e-05
4.61425e-05
4.64413e-05
4.77301e-05
5.02603e-05
7.27855e-05
7.8e-05
7.8e-05
7.8e-05
7.8e-05
7.8e-05
7.8e-05
7.0987e-05
4.86568e-05
4.58274e-05
4.49215e-05
4.44817e-05
4.42173e-05
4.40574e-05
4.39687e-05
4.39396e-05
4.39748e-05
4.4096e-05
4.43472e-05
4.49025e-05
4.63244e-05
5.16756e-05
7.76651e-05
7.8e-05
7.8e-05
7.8e-05
7.8e-05
7.8e-05
7.8e-05
7.8e-05
7.8e-05
7.8e-05
7.8e-05
7.8e-05
7.8e-05
7.8e-05
7.8e-05
7.8e-05
7.8e-05
7.8e-05
7.8e-05
7.8e-05
7.8e-05
7.8e-05
7.8e-05
7.8e-05
7.8e-05
7.8e-05
7.8e-05
7.8e-05
7.8e-05
7.8e-05
7.79971e-05
6.03699e-05
4.7153e-05
4.51435e-05
4.4489e-05
4.41932e-05
4.40502e-05
4.39864e-05
4.39689e-05
4.39814e-05
4.40162e-05
4.40697e-05
4.41426e-05
4.42391e-05
4.43692e-05
4.45532e-05
4.48371e-05
4.53357e-05
4.64214e-05
5.02215e-05
7.69472e-05
7.8e-05
7.8e-05
7.8e-05
7.8e-05
7.8e-05
7.8e-05
7.8e-05
7.8e-05
7.8e-05
7.79387e-05
6.48469e-05
4.94044e-05
4.79823e-05
4.7629e-05
4.81261e-05
4.98344e-05
6.59021e-05
7.77399e-05
7.8e-05
7.8e-05
7.8e-05
7.71365e-05
6.16426e-05
4.90363e-05
4.76435e-05
4.70667e-05
4.7346e-05
4.84495e-05
5.56267e-05
7.59803e-05
7.8e-05
7.8e-05
7.8e-05
7.8e-05
7.8e-05
7.8e-05
7.8e-05
7.8e-05
7.8e-05
7.8e-05
7.77664e-05
6.61035e-05
5.17078e-05
4.9022e-05
5.06371e-05
6.31174e-05
7.6917e-05
7.8e-05
7.8e-05
7.8e-05
7.8e-05
7.8e-05
7.8e-05
7.8e-05
7.8e-05
6.82396e-05
4.83144e-05
4.5653e-05
4.48538e-05
4.44286e-05
4.42153e-05
4.41214e-05
4.41209e-05
4.42293e-05
4.45197e-05
4.50915e-05
4.69317e-05
5.50446e-05
7.77962e-05
7.8e-05
7.8e-05
7.8e-05
7.8e-05
7.8e-05
7.8e-05
7.8e-05
7.8e-05
7.8e-05
7.8e-05
7.8e-05
7.8e-05
7.8e-05
7.8e-05
7.8e-05
7.8e-05
7.8e-05
7.8e-05
7.8e-05
7.8e-05
7.8e-05
7.8e-05
7.8e-05
7.8e-05
7.8e-05
7.8e-05
7.8e-05
7.8e-05
7.8e-05
7.8e-05
7.8e-05
7.79903e-05
5.83121e-05
4.70258e-05
4.50785e-05
4.44235e-05
4.41261e-05
4.39736e-05
4.38965e-05
4.38674e-05
4.38753e-05
4.39154e-05
4.39888e-05
4.41028e-05
4.4273e-05
4.45318e-05
4.49681e-05
4.58776e-05
4.88175e-05
7.32972e-05
7.8e-05
7.8e-05
7.8e-05
7.8e-05
7.8e-05
7.8e-05
7.8e-05
7.8e-05
7.8e-05
7.8e-05
7.8e-05
7.79995e-05
7.55874e-05
6.6015e-05
6.15782e-05
6.7549e-05
7.65761e-05
7.79997e-05
7.8e-05
7.8e-05
7.8e-05
7.8e-05
7.8e-05
7.79976e-05
7.44787e-05
6.34349e-05
5.67254e-05
6.02501e-05
7.11295e-05
7.79596e-05
7.8e-05
7.8e-05
7.8e-05
7.8e-05
7.8e-05
7.8e-05
7.8e-05
7.8e-05
7.8e-05
7.8e-05
7.8e-05
7.8e-05
7.79997e-05
7.76578e-05
7.53518e-05
7.73377e-05
7.79987e-05
7.8e-05
7.8e-05
7.8e-05
7.8e-05
7.8e-05
7.8e-05
7.8e-05
7.8e-05
7.8e-05
7.8e-05
7.06016e-05
4.86818e-05
4.62933e-05
4.51326e-05
4.47591e-05
4.46359e-05
4.46877e-05
4.49676e-05
4.59736e-05
4.78934e-05
6.34666e-05
7.79695e-05
7.8e-05
7.8e-05
7.8e-05
7.8e-05
7.8e-05
7.8e-05
7.8e-05
7.8e-05
7.8e-05
7.8e-05
7.8e-05
7.8e-05
7.8e-05
7.8e-05
7.8e-05
7.8e-05
7.8e-05
7.8e-05
7.8e-05
7.8e-05
7.8e-05
7.8e-05
7.8e-05
7.8e-05
7.8e-05
7.8e-05
7.8e-05
7.8e-05
7.8e-05
7.8e-05
7.8e-05
7.8e-05
7.8e-05
7.79896e-05
5.96699e-05
4.72306e-05
4.51163e-05
4.44518e-05
4.41379e-05
4.39674e-05
4.38817e-05
4.3859e-05
4.38885e-05
4.39712e-05
4.4122e-05
4.43727e-05
4.47883e-05
4.56217e-05
4.83412e-05
6.98296e-05
7.8e-05
7.8e-05
7.8e-05
7.8e-05
7.8e-05
7.8e-05
7.8e-05
7.8e-05
7.8e-05
7.8e-05
7.8e-05
7.8e-05
7.8e-05
7.8e-05
7.79997e-05
7.7997e-05
7.79999e-05
7.8e-05
7.8e-05
7.8e-05
7.8e-05
7.8e-05
7.8e-05
7.8e-05
7.8e-05
7.8e-05
7.79989e-05
7.79713e-05
7.79948e-05
7.8e-05
7.8e-05
7.8e-05
7.8e-05
7.8e-05
7.8e-05
7.8e-05
7.8e-05
7.8e-05
7.8e-05
7.8e-05
7.8e-05
7.8e-05
7.8e-05
7.8e-05
7.8e-05
7.8e-05
7.8e-05
7.8e-05
7.8e-05
7.8e-05
7.8e-05
7.8e-05
7.8e-05
7.8e-05
7.8e-05
7.8e-05
7.8e-05
7.8e-05
7.8e-05
7.56384e-05
5.63169e-05
4.78348e-05
4.68183e-05
4.65397e-05
4.68226e-05
4.77146e-05
5.58364e-05
7.3706e-05
7.79995e-05
7.8e-05
7.8e-05
7.8e-05
7.8e-05
7.8e-05
7.8e-05
7.8e-05
7.8e-05
7.8e-05
7.8e-05
7.8e-05
7.8e-05
7.8e-05
7.8e-05
7.8e-05
7.8e-05
7.8e-05
7.8e-05
7.8e-05
7.8e-05
7.8e-05
7.8e-05
7.8e-05
7.8e-05
7.8e-05
7.8e-05
7.8e-05
7.8e-05
7.8e-05
7.8e-05
7.8e-05
7.8e-05
7.8e-05
7.8e-05
7.8e-05
7.79964e-05
6.48116e-05
4.77762e-05
4.54776e-05
4.46877e-05
4.42923e-05
4.4094e-05
4.40244e-05
4.40437e-05
4.41515e-05
4.43876e-05
4.48576e-05
4.57532e-05
4.83901e-05
7.01584e-05
7.8e-05
7.8e-05
7.8e-05
7.8e-05
7.8e-05
7.8e-05
7.8e-05
7.8e-05
7.8e-05
7.8e-05
7.8e-05
7.8e-05
7.8e-05
7.8e-05
7.8e-05
7.8e-05
7.8e-05
7.8e-05
7.8e-05
7.8e-05
7.8e-05
7.8e-05
7.8e-05
7.8e-05
7.8e-05
7.8e-05
7.8e-05
7.8e-05
7.8e-05
7.8e-05
7.8e-05
7.8e-05
7.8e-05
7.8e-05
7.8e-05
7.8e-05
7.8e-05
7.8e-05
7.8e-05
7.8e-05
7.8e-05
7.8e-05
7.8e-05
7.8e-05
7.8e-05
7.8e-05
7.8e-05
7.8e-05
7.8e-05
7.8e-05
7.8e-05
7.8e-05
7.8e-05
7.8e-05
7.8e-05
7.8e-05
7.8e-05
7.8e-05
7.8e-05
7.8e-05
7.8e-05
7.79826e-05
7.29604e-05
6.38513e-05
6.09038e-05
6.5331e-05
7.38217e-05
7.79816e-05
7.8e-05
7.8e-05
7.8e-05
7.8e-05
7.8e-05
7.8e-05
7.8e-05
7.8e-05
7.8e-05
7.8e-05
7.8e-05
7.8e-05
7.8e-05
7.8e-05
7.8e-05
7.8e-05
7.8e-05
7.8e-05
7.8e-05
7.8e-05
7.8e-05
7.8e-05
7.8e-05
7.8e-05
7.8e-05
7.8e-05
7.8e-05
7.8e-05
7.8e-05
7.8e-05
7.8e-05
7.8e-05
7.8e-05
7.8e-05
7.8e-05
7.8e-05
7.8e-05
7.8e-05
7.79998e-05
7.27912e-05
5.03788e-05
4.68147e-05
4.53261e-05
4.47519e-05
4.45792e-05
4.45843e-05
4.47583e-05
4.52534e-05
4.68269e-05
5.04179e-05
7.4261e-05
7.8e-05
7.8e-05
7.8e-05
7.8e-05
7.8e-05
7.8e-05
7.8e-05
7.8e-05
7.8e-05
7.8e-05
7.8e-05
7.8e-05
7.8e-05
7.8e-05
7.8e-05
7.8e-05
7.8e-05
7.8e-05
7.8e-05
7.8e-05
7.8e-05
7.8e-05
7.8e-05
7.8e-05
7.8e-05
7.8e-05
7.8e-05
7.8e-05
7.8e-05
7.8e-05
7.8e-05
7.8e-05
7.8e-05
7.8e-05
7.8e-05
7.8e-05
7.8e-05
7.8e-05
7.8e-05
7.8e-05
7.8e-05
7.8e-05
7.8e-05
7.8e-05
7.8e-05
7.8e-05
7.8e-05
7.8e-05
7.8e-05
7.8e-05
7.8e-05
7.8e-05
7.8e-05
7.8e-05
7.8e-05
7.8e-05
7.8e-05
7.8e-05
7.8e-05
7.8e-05
7.8e-05
7.8e-05
7.8e-05
7.8e-05
7.79995e-05
7.79978e-05
7.79998e-05
7.8e-05
7.8e-05
7.8e-05
7.8e-05
7.8e-05
7.8e-05
7.8e-05
7.8e-05
7.8e-05
7.8e-05
7.8e-05
7.8e-05
7.8e-05
7.8e-05
7.8e-05
7.8e-05
7.8e-05
7.8e-05
7.8e-05
7.8e-05
7.8e-05
7.8e-05
7.8e-05
7.8e-05
7.8e-05
7.8e-05
7.8e-05
7.8e-05
7.8e-05
7.8e-05
7.8e-05
7.8e-05
7.8e-05
7.8e-05
7.8e-05
7.8e-05
7.8e-05
7.8e-05
7.8e-05
7.8e-05
7.8e-05
7.8e-05
7.7691e-05
6.64658e-05
5.02042e-05
4.72575e-05
4.67247e-05
4.66777e-05
4.71236e-05
4.87952e-05
6.44141e-05
7.7625e-05
7.8e-05
7.8e-05
7.8e-05
7.8e-05
7.8e-05
7.8e-05
7.8e-05
7.8e-05
7.8e-05
7.8e-05
7.8e-05
7.8e-05
7.8e-05
7.8e-05
7.8e-05
7.8e-05
7.8e-05
7.8e-05
7.8e-05
7.8e-05
7.8e-05
7.8e-05
7.8e-05
7.8e-05
7.8e-05
7.8e-05
7.8e-05
7.8e-05
7.8e-05
7.8e-05
7.8e-05
7.8e-05
7.8e-05
7.8e-05
7.8e-05
7.8e-05
7.8e-05
7.8e-05
7.8e-05
7.8e-05
7.8e-05
7.8e-05
7.8e-05
7.8e-05
7.8e-05
7.8e-05
7.8e-05
7.8e-05
7.8e-05
7.8e-05
7.8e-05
7.8e-05
7.8e-05
7.8e-05
7.8e-05
7.8e-05
7.8e-05
7.8e-05
7.8e-05
7.8e-05
7.8e-05
7.8e-05
7.8e-05
7.8e-05
7.8e-05
7.8e-05
7.8e-05
7.8e-05
7.8e-05
7.8e-05
7.8e-05
7.8e-05
7.8e-05
7.8e-05
7.8e-05
7.8e-05
7.8e-05
7.8e-05
7.8e-05
7.8e-05
7.8e-05
7.8e-05
7.8e-05
7.8e-05
7.8e-05
7.8e-05
7.8e-05
7.8e-05
7.8e-05
7.8e-05
7.8e-05
7.8e-05
7.8e-05
7.8e-05
7.8e-05
7.8e-05
7.8e-05
7.8e-05
7.8e-05
7.8e-05
7.8e-05
7.8e-05
7.8e-05
7.8e-05
7.8e-05
7.8e-05
7.8e-05
7.8e-05
7.8e-05
7.8e-05
7.8e-05
7.79999e-05
7.76736e-05
7.17727e-05
6.56492e-05
6.45777e-05
6.9673e-05
7.69487e-05
7.79997e-05
7.8e-05
7.8e-05
7.8e-05
7.8e-05
7.8e-05
7.8e-05
7.8e-05
7.8e-05
7.8e-05
7.8e-05
7.8e-05
7.8e-05
7.8e-05
7.8e-05
7.8e-05
7.8e-05
7.8e-05
7.8e-05
7.8e-05
7.8e-05
7.8e-05
7.8e-05
7.8e-05
7.8e-05
7.8e-05
7.8e-05
7.8e-05
7.8e-05
7.8e-05
7.8e-05
7.8e-05
7.8e-05
7.8e-05
7.8e-05
7.8e-05
7.8e-05
7.8e-05
7.8e-05
7.8e-05
7.8e-05
7.8e-05
7.8e-05
7.8e-05
7.8e-05
7.8e-05
7.8e-05
7.8e-05
7.8e-05
7.8e-05
7.8e-05
7.8e-05
7.8e-05
7.8e-05
7.8e-05
7.8e-05
7.8e-05
7.8e-05
7.8e-05
7.8e-05
7.8e-05
7.8e-05
7.8e-05
7.8e-05
7.8e-05
7.8e-05
7.8e-05
7.8e-05
7.8e-05
7.8e-05
7.8e-05
7.8e-05
7.8e-05
7.8e-05
7.8e-05
7.8e-05
7.8e-05
7.8e-05
7.8e-05
7.8e-05
7.8e-05
7.8e-05
7.8e-05
7.8e-05
7.8e-05
7.8e-05
7.8e-05
7.8e-05
7.8e-05
7.8e-05
7.8e-05
7.8e-05
7.8e-05
7.8e-05
7.8e-05
7.8e-05
7.8e-05
7.8e-05
7.8e-05
7.8e-05
7.8e-05
7.8e-05
7.8e-05
7.8e-05
7.8e-05
7.8e-05
7.8e-05
7.8e-05
7.8e-05
7.8e-05
7.8e-05
7.8e-05
7.8e-05
7.8e-05
7.8e-05
7.8e-05
7.79999e-05
7.79997e-05
7.8e-05
7.8e-05
7.8e-05
7.8e-05
7.8e-05
7.8e-05
7.8e-05
7.8e-05
7.8e-05
7.8e-05
7.8e-05
7.8e-05
7.8e-05
7.8e-05
7.8e-05
7.8e-05
7.8e-05
7.8e-05
7.8e-05
7.8e-05
7.8e-05
7.8e-05
7.8e-05
7.8e-05
7.8e-05
7.8e-05
7.8e-05
7.8e-05
7.8e-05
7.8e-05
7.8e-05
7.8e-05
7.8e-05
7.8e-05
7.8e-05
7.8e-05
7.8e-05
7.8e-05
7.8e-05
7.8e-05
7.8e-05
7.8e-05
7.8e-05
7.8e-05
7.8e-05
7.8e-05
7.8e-05
7.8e-05
7.8e-05
7.8e-05
7.8e-05
7.8e-05
7.8e-05
7.8e-05
7.8e-05
7.8e-05
7.8e-05
7.8e-05
7.8e-05
7.8e-05
7.8e-05
7.8e-05
7.8e-05
7.8e-05
7.8e-05
7.8e-05
7.8e-05
7.8e-05
7.8e-05
7.8e-05
7.8e-05
7.8e-05
7.8e-05
7.8e-05
7.8e-05
7.8e-05
7.8e-05
7.8e-05
7.8e-05
7.8e-05
7.8e-05
7.8e-05
7.8e-05
7.8e-05
7.8e-05
7.8e-05
7.8e-05
7.8e-05
7.8e-05
7.8e-05
7.8e-05
7.8e-05
7.8e-05
7.8e-05
7.8e-05
7.8e-05
7.8e-05
7.8e-05
7.8e-05
7.8e-05
7.8e-05
7.8e-05
7.8e-05
7.8e-05
7.8e-05
7.8e-05
7.8e-05
7.8e-05
7.8e-05
7.8e-05
7.8e-05
7.8e-05
7.8e-05
7.8e-05
7.8e-05
7.8e-05
7.8e-05
7.8e-05
7.8e-05
7.8e-05
7.8e-05
7.8e-05
7.8e-05
7.8e-05
7.8e-05
7.8e-05
7.8e-05
7.8e-05
7.8e-05
7.8e-05
7.8e-05
7.8e-05
7.8e-05
7.8e-05
7.8e-05
7.8e-05
7.8e-05
7.8e-05
7.8e-05
7.8e-05
7.8e-05
7.8e-05
7.8e-05
7.8e-05
7.8e-05
7.8e-05
7.8e-05
7.8e-05
7.8e-05
7.8e-05
7.8e-05
7.8e-05
7.8e-05
7.8e-05
7.8e-05
7.8e-05
7.8e-05
7.8e-05
7.8e-05
7.8e-05
7.8e-05
7.8e-05
7.8e-05
7.8e-05
7.8e-05
7.8e-05
7.8e-05
7.8e-05
7.8e-05
7.8e-05
7.8e-05
7.8e-05
7.8e-05
7.8e-05
7.8e-05
7.8e-05
7.8e-05
7.8e-05
7.8e-05
7.8e-05
7.8e-05
7.8e-05
7.8e-05
7.8e-05
7.8e-05
7.8e-05
7.8e-05
7.8e-05
7.8e-05
7.8e-05
7.8e-05
7.8e-05
7.8e-05
7.8e-05
7.8e-05
7.8e-05
7.8e-05
7.8e-05
7.8e-05
7.8e-05
7.8e-05
7.8e-05
7.8e-05
7.8e-05
7.8e-05
7.8e-05
7.8e-05
7.8e-05
7.8e-05
7.8e-05
7.8e-05
7.8e-05
7.8e-05
7.8e-05
7.8e-05
7.8e-05
7.8e-05
7.8e-05
7.8e-05
7.8e-05
7.8e-05
7.8e-05
7.8e-05
7.8e-05
7.8e-05
7.8e-05
7.8e-05
7.8e-05
7.8e-05
7.8e-05
7.8e-05
7.8e-05
7.8e-05
7.8e-05
7.8e-05
7.8e-05
7.8e-05
7.8e-05
7.8e-05
7.8e-05
7.8e-05
7.8e-05
7.8e-05
7.8e-05
7.8e-05
7.8e-05
7.8e-05
7.8e-05
7.8e-05
7.8e-05
7.8e-05
7.8e-05
7.8e-05
7.8e-05
7.8e-05
7.8e-05
7.8e-05
7.8e-05
7.8e-05
7.8e-05
7.8e-05
7.8e-05
7.8e-05
7.8e-05
7.8e-05
7.8e-05
7.8e-05
7.8e-05
7.8e-05
7.8e-05
7.8e-05
7.8e-05
7.8e-05
7.8e-05
7.8e-05
7.8e-05
7.8e-05
7.8e-05
7.8e-05
7.8e-05
7.8e-05
7.8e-05
7.8e-05
7.8e-05
7.8e-05
7.8e-05
7.8e-05
7.8e-05
7.8e-05
7.8e-05
7.8e-05
7.8e-05
7.8e-05
7.8e-05
7.8e-05
7.8e-05
7.8e-05
7.8e-05
7.8e-05
7.8e-05
7.8e-05
7.8e-05
7.8e-05
7.8e-05
7.8e-05
7.8e-05
7.8e-05
7.8e-05
7.8e-05
7.8e-05
7.8e-05
7.8e-05
7.8e-05
7.8e-05
7.8e-05
7.8e-05
7.8e-05
7.8e-05
7.8e-05
7.8e-05
7.8e-05
7.8e-05
7.8e-05
7.8e-05
7.8e-05
7.8e-05
7.8e-05
7.8e-05
7.8e-05
7.8e-05
7.8e-05
7.8e-05
7.8e-05
7.8e-05
7.8e-05
7.8e-05
7.8e-05
7.8e-05
7.8e-05
7.8e-05
7.8e-05
7.8e-05
7.8e-05
7.8e-05
7.8e-05
7.8e-05
7.8e-05
7.8e-05
7.8e-05
7.8e-05
7.8e-05
7.8e-05
7.8e-05
7.8e-05
7.8e-05
7.8e-05
7.8e-05
7.8e-05
7.8e-05
7.8e-05
7.8e-05
7.8e-05
7.8e-05
7.8e-05
7.8e-05
7.8e-05
7.8e-05
7.8e-05
7.8e-05
7.8e-05
7.8e-05
7.8e-05
7.8e-05
7.8e-05
7.8e-05
7.8e-05
7.8e-05
7.8e-05
7.8e-05
7.8e-05
7.8e-05
7.8e-05
7.8e-05
7.8e-05
7.8e-05
7.8e-05
7.8e-05
7.8e-05
7.8e-05
7.8e-05
7.8e-05
7.8e-05
7.8e-05
7.8e-05
7.8e-05
7.8e-05
7.8e-05
7.8e-05
7.8e-05
7.8e-05
7.8e-05
7.8e-05
7.8e-05
7.8e-05
7.8e-05
7.8e-05
7.8e-05
7.8e-05
7.8e-05
7.8e-05
7.8e-05
7.8e-05
7.8e-05
7.8e-05
7.8e-05
7.8e-05
7.8e-05
7.8e-05
7.8e-05
7.8e-05
7.8e-05
7.8e-05
7.8e-05
7.8e-05
7.8e-05
7.8e-05
7.8e-05
7.8e-05
7.8e-05
7.8e-05
7.8e-05
7.8e-05
7.8e-05
7.8e-05
7.8e-05
7.8e-05
7.8e-05
7.8e-05
7.8e-05
7.8e-05
7.8e-05
7.8e-05
7.8e-05
7.8e-05
7.8e-05
7.8e-05
7.8e-05
7.8e-05
7.8e-05
7.8e-05
7.8e-05
7.8e-05
7.8e-05
7.8e-05
7.8e-05
7.8e-05
7.8e-05
7.8e-05
7.8e-05
7.8e-05
7.8e-05
7.8e-05
7.8e-05
7.8e-05
7.8e-05
7.8e-05
7.8e-05
7.8e-05
7.8e-05
7.8e-05
7.8e-05
7.8e-05
7.8e-05
7.8e-05
7.8e-05
7.8e-05
7.8e-05
7.8e-05
7.8e-05
7.8e-05
7.8e-05
7.8e-05
7.8e-05
7.8e-05
7.8e-05
7.8e-05
7.8e-05
7.8e-05
7.8e-05
7.8e-05
7.8e-05
7.8e-05
7.8e-05
7.8e-05
7.8e-05
7.8e-05
7.8e-05
7.8e-05
7.8e-05
7.8e-05
7.8e-05
7.8e-05
7.8e-05
7.8e-05
7.8e-05
7.8e-05
7.8e-05
7.8e-05
7.8e-05
7.8e-05
7.8e-05
7.8e-05
7.8e-05
7.8e-05
7.8e-05
7.8e-05
7.8e-05
7.8e-05
7.8e-05
7.8e-05
7.8e-05
7.8e-05
7.8e-05
7.8e-05
7.8e-05
7.8e-05
7.8e-05
7.8e-05
7.8e-05
7.8e-05
7.8e-05
7.8e-05
7.8e-05
7.8e-05
7.8e-05
7.8e-05
7.8e-05
7.8e-05
7.8e-05
7.8e-05
7.8e-05
7.8e-05
7.8e-05
7.8e-05
7.8e-05
7.8e-05
7.8e-05
7.8e-05
7.8e-05
7.8e-05
7.8e-05
7.8e-05
7.8e-05
7.8e-05
7.8e-05
7.8e-05
7.8e-05
7.8e-05
7.8e-05
7.8e-05
7.8e-05
7.8e-05
7.8e-05
7.8e-05
7.8e-05
7.8e-05
7.8e-05
7.8e-05
7.8e-05
7.8e-05
7.8e-05
7.8e-05
7.8e-05
7.8e-05
7.8e-05
7.8e-05
7.8e-05
7.8e-05
7.8e-05
7.8e-05
7.8e-05
7.8e-05
7.8e-05
7.8e-05
7.8e-05
7.8e-05
7.8e-05
7.8e-05
7.8e-05
7.8e-05
7.8e-05
7.8e-05
7.8e-05
7.8e-05
7.8e-05
7.8e-05
7.8e-05
7.8e-05
7.8e-05
7.8e-05
7.8e-05
7.8e-05
7.8e-05
7.8e-05
7.8e-05
7.8e-05
7.8e-05
7.8e-05
7.8e-05
7.8e-05
7.8e-05
7.8e-05
7.8e-05
7.8e-05
7.8e-05
7.8e-05
7.8e-05
7.8e-05
7.8e-05
7.8e-05
7.8e-05
7.8e-05
7.8e-05
7.8e-05
7.8e-05
7.8e-05
7.8e-05
7.8e-05
7.8e-05
7.8e-05
7.8e-05
7.8e-05
7.8e-05
7.8e-05
7.8e-05
7.8e-05
7.8e-05
7.8e-05
7.8e-05
7.8e-05
7.8e-05
7.8e-05
7.8e-05
7.8e-05
7.8e-05
7.8e-05
7.8e-05
7.8e-05
7.8e-05
7.8e-05
7.8e-05
7.8e-05
7.8e-05
7.8e-05
7.8e-05
7.8e-05
7.8e-05
7.8e-05
7.8e-05
7.8e-05
7.8e-05
7.8e-05
7.8e-05
7.8e-05
7.8e-05
7.8e-05
7.8e-05
7.8e-05
7.8e-05
7.8e-05
7.8e-05
7.8e-05
7.8e-05
7.8e-05
7.8e-05
7.8e-05
7.8e-05
7.8e-05
7.8e-05
7.8e-05
7.8e-05
7.8e-05
7.8e-05
7.8e-05
7.8e-05
7.8e-05
7.8e-05
7.8e-05
7.8e-05
7.8e-05
7.8e-05
7.8e-05
7.8e-05
7.8e-05
7.8e-05
7.8e-05
7.8e-05
7.8e-05
7.8e-05
7.8e-05
7.8e-05
7.8e-05
7.8e-05
7.8e-05
7.8e-05
7.8e-05
7.8e-05
7.8e-05
7.8e-05
7.8e-05
7.8e-05
7.8e-05
7.8e-05
7.8e-05
7.8e-05
7.8e-05
7.8e-05
7.8e-05
7.8e-05
7.8e-05
7.8e-05
7.8e-05
7.8e-05
7.8e-05
7.8e-05
7.8e-05
7.8e-05
7.8e-05
7.8e-05
7.8e-05
7.8e-05
7.8e-05
7.8e-05
7.8e-05
7.8e-05
7.8e-05
7.8e-05
7.8e-05
7.8e-05
7.8e-05
7.8e-05
7.8e-05
7.8e-05
7.8e-05
7.8e-05
7.8e-05
7.8e-05
7.8e-05
7.8e-05
7.8e-05
7.8e-05
7.8e-05
7.8e-05
7.8e-05
7.8e-05
7.8e-05
7.8e-05
7.8e-05
7.8e-05
7.8e-05
7.8e-05
7.8e-05
7.8e-05
7.8e-05
7.8e-05
7.8e-05
7.8e-05
7.8e-05
7.8e-05
7.8e-05
7.8e-05
7.8e-05
7.8e-05
7.8e-05
7.8e-05
7.8e-05
7.8e-05
7.8e-05
7.8e-05
7.8e-05
7.8e-05
7.8e-05
7.8e-05
7.8e-05
7.8e-05
7.8e-05
7.8e-05
7.8e-05
7.8e-05
7.8e-05
7.8e-05
7.8e-05
7.8e-05
7.8e-05
7.8e-05
7.8e-05
7.8e-05
7.8e-05
7.8e-05
7.8e-05
7.8e-05
7.8e-05
7.8e-05
7.8e-05
7.8e-05
7.8e-05
7.8e-05
7.8e-05
7.8e-05
7.8e-05
7.8e-05
7.8e-05
7.8e-05
7.8e-05
7.8e-05
7.8e-05
7.8e-05
7.8e-05
7.8e-05
7.8e-05
7.8e-05
7.8e-05
7.8e-05
7.8e-05
7.8e-05
7.8e-05
7.8e-05
7.8e-05
7.8e-05
7.8e-05
7.8e-05
7.8e-05
7.8e-05
7.8e-05
7.8e-05
7.8e-05
7.8e-05
7.8e-05
7.8e-05
7.8e-05
7.8e-05
7.8e-05
7.8e-05
7.8e-05
7.8e-05
7.8e-05
7.8e-05
7.8e-05
7.8e-05
7.8e-05
7.8e-05
7.8e-05
7.8e-05
7.8e-05
7.8e-05
7.8e-05
7.8e-05
7.8e-05
7.8e-05
7.8e-05
7.8e-05
7.8e-05
7.8e-05
7.8e-05
7.8e-05
7.8e-05
7.8e-05
7.8e-05
7.8e-05
7.8e-05
7.8e-05
7.8e-05
7.8e-05
7.8e-05
7.8e-05
7.8e-05
7.8e-05
7.8e-05
7.8e-05
7.8e-05
7.8e-05
7.8e-05
7.8e-05
7.8e-05
7.8e-05
7.8e-05
7.8e-05
7.8e-05
7.8e-05
7.8e-05
7.8e-05
7.8e-05
7.8e-05
7.8e-05
7.8e-05
7.8e-05
7.8e-05
7.8e-05
7.8e-05
7.8e-05
7.8e-05
7.8e-05
7.8e-05
7.8e-05
7.8e-05
7.8e-05
7.8e-05
7.8e-05
7.8e-05
7.8e-05
7.8e-05
7.8e-05
7.8e-05
7.8e-05
7.8e-05
7.8e-05
7.8e-05
7.8e-05
7.8e-05
7.8e-05
7.8e-05
7.8e-05
7.8e-05
7.8e-05
7.8e-05
7.8e-05
7.8e-05
7.8e-05
7.8e-05
7.8e-05
7.8e-05
7.8e-05
7.8e-05
7.8e-05
7.8e-05
7.8e-05
7.8e-05
7.8e-05
7.8e-05
7.8e-05
7.8e-05
7.8e-05
7.8e-05
7.8e-05
7.8e-05
7.8e-05
7.8e-05
7.8e-05
7.8e-05
7.8e-05
7.8e-05
7.8e-05
7.8e-05
7.8e-05
7.8e-05
7.8e-05
7.8e-05
7.8e-05
7.8e-05
7.8e-05
7.8e-05
7.8e-05
7.8e-05
7.8e-05
7.8e-05
7.8e-05
7.8e-05
7.8e-05
7.8e-05
7.8e-05
7.8e-05
7.8e-05
7.8e-05
7.8e-05
7.8e-05
7.8e-05
7.8e-05
7.8e-05
7.8e-05
7.8e-05
7.8e-05
7.8e-05
7.8e-05
7.8e-05
7.8e-05
7.8e-05
7.8e-05
7.8e-05
7.8e-05
7.8e-05
7.8e-05
7.8e-05
7.8e-05
7.8e-05
7.8e-05
7.8e-05
7.8e-05
7.8e-05
7.8e-05
7.8e-05
7.8e-05
7.8e-05
7.8e-05
7.8e-05
7.8e-05
7.8e-05
7.8e-05
7.8e-05
7.8e-05
7.8e-05
7.8e-05
7.8e-05
7.8e-05
7.8e-05
7.8e-05
7.8e-05
7.8e-05
7.8e-05
7.8e-05
7.8e-05
7.8e-05
7.8e-05
7.8e-05
7.8e-05
7.8e-05
7.8e-05
7.8e-05
7.8e-05
7.8e-05
7.8e-05
7.8e-05
7.8e-05
7.8e-05
7.8e-05
7.8e-05
7.8e-05
7.8e-05
7.8e-05
7.8e-05
7.8e-05
7.8e-05
7.8e-05
7.8e-05
7.8e-05
7.8e-05
7.8e-05
7.8e-05
7.8e-05
7.8e-05
7.8e-05
7.8e-05
7.8e-05
7.8e-05
7.8e-05
7.8e-05
7.8e-05
7.8e-05
7.8e-05
7.8e-05
7.8e-05
7.8e-05
7.8e-05
7.8e-05
7.8e-05
7.8e-05
7.8e-05
7.8e-05
7.8e-05
7.8e-05
7.8e-05
7.8e-05
7.8e-05
7.8e-05
7.8e-05
7.8e-05
7.8e-05
7.8e-05
7.8e-05
7.8e-05
7.8e-05
7.8e-05
7.8e-05
7.8e-05
7.8e-05
7.8e-05
7.8e-05
7.8e-05
7.8e-05
7.8e-05
7.8e-05
7.8e-05
7.8e-05
7.8e-05
7.8e-05
7.8e-05
7.8e-05
7.8e-05
7.8e-05
7.8e-05
7.8e-05
7.8e-05
7.8e-05
7.8e-05
7.8e-05
7.8e-05
7.8e-05
7.8e-05
7.8e-05
7.8e-05
7.8e-05
7.8e-05
7.8e-05
7.8e-05
7.8e-05
7.8e-05
7.8e-05
7.8e-05
7.8e-05
7.8e-05
7.8e-05
7.8e-05
7.8e-05
7.8e-05
7.8e-05
7.8e-05
7.8e-05
7.8e-05
7.8e-05
7.8e-05
7.8e-05
7.8e-05