/*--------------------------------*- C++ -*----------------------------------*\
| =========                 |                                                 |
| \\      /  F ield         | OpenFOAM: The Open Source CFD Toolbox           |
|  \\    /   O peration     | Version:  2406                                  |
|   \\  /    A nd           | Website:  www.openfoam.com                      |
|    \\/     M anipulation  |                                                 |
\*---------------------------------------------------------------------------*/
FoamFile
{
    version     2.0;
    format      ascii;
    arch        "LSB;label=32;scalar=64";
    class       volScalarField;
    location    "7.85";
    object      C_0;
}
// * * * * * * * * * * * * * * * * * * * * * * * * * * * * * * * * * * * * * //

dimensions      [1 -3 0 0 0 0 0];

internalField   nonuniform List<scalar> 
14400
(
0.226968
0.225977
0.22424
0.22213
0.220028
0.218265
0.217086
0.216645
0.217003
0.218124
0.219875
0.222017
0.224198
0.225966
0.226806
0.226255
0.224127
0.220734
0.216631
0.212409
0.2086
0.205648
0.203924
0.203743
0.20539
0.209131
0.215232
0.223964
0.235606
0.250458
0.268835
0.291076
0.317532
0.348545
0.384396
0.425123
0.469844
0.512919
0.543641
0.564856
0.58313
0.598766
0.611979
0.622936
0.631765
0.638565
0.643409
0.646348
0.647416
0.646629
0.643988
0.639477
0.633064
0.624698
0.614308
0.601801
0.587057
0.569917
0.550181
0.527321
0.493145
0.446793
0.402205
0.36204
0.326761
0.296253
0.270219
0.248308
0.230166
0.215453
0.20385
0.195056
0.188798
0.184828
0.182937
0.182966
0.184802
0.188381
0.193675
0.20068
0.209397
0.219807
0.23184
0.245317
0.259859
0.274618
0.287196
0.293694
0.292685
0.28556
0.275658
0.265385
0.25561
0.246765
0.239083
0.232669
0.227534
0.223621
0.22081
0.21894
0.217818
0.217246
0.217048
0.217106
0.217394
0.217982
0.219032
0.220761
0.223409
0.227214
0.232389
0.239111
0.247505
0.257637
0.269489
0.282926
0.297611
0.312799
0.32661
0.334528
0.233605
0.232357
0.230226
0.227699
0.225231
0.223189
0.221833
0.221324
0.221723
0.222999
0.225018
0.22754
0.230199
0.232492
0.233787
0.233407
0.230956
0.226986
0.222264
0.217487
0.213224
0.209927
0.207958
0.207623
0.209197
0.212938
0.219105
0.227961
0.239786
0.254873
0.27354
0.296124
0.322974
0.354435
0.390786
0.432085
0.477387
0.518512
0.546961
0.56778
0.58577
0.601188
0.614234
0.625063
0.633795
0.640522
0.645313
0.648219
0.649271
0.648484
0.645858
0.64138
0.635017
0.626721
0.616425
0.60404
0.589452
0.572513
0.553035
0.530736
0.498647
0.45377
0.408629
0.367834
0.332004
0.301015
0.274558
0.252274
0.233803
0.218804
0.206954
0.197955
0.191537
0.187455
0.185506
0.185534
0.187427
0.191124
0.196599
0.203849
0.21288
0.223678
0.236176
0.250208
0.265414
0.280946
0.293875
0.299985
0.299716
0.292714
0.28237
0.271614
0.261408
0.252206
0.244248
0.237638
0.23239
0.228442
0.225668
0.223892
0.222898
0.222457
0.222359
0.222455
0.222706
0.223198
0.224124
0.225735
0.228302
0.232083
0.237304
0.244148
0.252746
0.263166
0.275395
0.289306
0.304576
0.320439
0.334235
0.340881
0.247389
0.245521
0.242502
0.239081
0.235852
0.233239
0.231524
0.230874
0.231355
0.232935
0.235489
0.238778
0.242424
0.245856
0.24823
0.24836
0.245055
0.239763
0.233718
0.227797
0.222617
0.218625
0.216164
0.215519
0.216942
0.220677
0.226968
0.23607
0.248254
0.26381
0.283054
0.306318
0.33395
0.366278
0.40354
0.445666
0.491246
0.528432
0.55342
0.57353
0.59098
0.605983
0.618708
0.629288
0.637829
0.644414
0.649104
0.651944
0.652964
0.652176
0.649582
0.645167
0.638902
0.630743
0.62063
0.608482
0.594197
0.577647
0.558673
0.537081
0.508706
0.467358
0.421287
0.37939
0.342535
0.310616
0.283327
0.260304
0.241184
0.225618
0.213285
0.203886
0.197156
0.19286
0.190801
0.190829
0.192839
0.196772
0.202606
0.210344
0.219996
0.231555
0.244962
0.260057
0.276464
0.293211
0.306271
0.311775
0.312377
0.30676
0.295819
0.28417
0.273132
0.263234
0.254735
0.247747
0.242286
0.238285
0.235605
0.234043
0.233339
0.233198
0.233329
0.233512
0.233673
0.233939
0.234578
0.23592
0.238296
0.242006
0.2473
0.254373
0.263363
0.27434
0.287293
0.302085
0.318347
0.335073
0.3479
0.352708
0.269314
0.266182
0.261572
0.256673
0.25224
0.248748
0.246486
0.245621
0.246217
0.248245
0.25159
0.25603
0.261202
0.266511
0.270917
0.272382
0.267116
0.259447
0.251261
0.243581
0.237021
0.231991
0.228793
0.227676
0.228865
0.232579
0.239047
0.248508
0.261223
0.277476
0.297578
0.321857
0.350646
0.384246
0.422796
0.465802
0.509829
0.540953
0.562817
0.581941
0.598637
0.613056
0.625325
0.635551
0.64382
0.6502
0.654744
0.65749
0.658463
0.657675
0.655126
0.650804
0.644681
0.636721
0.62687
0.615061
0.601208
0.585205
0.566926
0.546211
0.521679
0.485775
0.439772
0.39671
0.358473
0.325218
0.296708
0.272595
0.252515
0.236117
0.223076
0.213098
0.205921
0.20132
0.19911
0.199147
0.201337
0.205625
0.211995
0.220454
0.231019
0.243692
0.25842
0.275032
0.293059
0.311051
0.323032
0.328002
0.329283
0.326392
0.315948
0.303188
0.290995
0.280104
0.270826
0.263296
0.257543
0.253498
0.251009
0.249836
0.249652
0.250058
0.250617
0.250964
0.250945
0.250779
0.250886
0.251734
0.253753
0.257305
0.262669
0.270055
0.279602
0.291375
0.305355
0.321368
0.338858
0.355937
0.365527
0.368925
0.300646
0.295064
0.287901
0.280856
0.274765
0.270087
0.267096
0.265941
0.266681
0.269286
0.27365
0.279576
0.286751
0.294626
0.302051
0.30468
0.297199
0.286152
0.275067
0.26507
0.256711
0.250327
0.246161
0.244416
0.245285
0.248961
0.255652
0.265581
0.278996
0.296172
0.31741
0.343025
0.373327
0.408567
0.448776
0.49287
0.53001
0.554617
0.57482
0.59278
0.608571
0.622278
0.633986
0.643772
0.651699
0.657822
0.662182
0.664809
0.665724
0.664936
0.662445
0.658239
0.652298
0.644589
0.635069
0.623684
0.610367
0.59504
0.577615
0.557998
0.536106
0.506945
0.46434
0.42004
0.380057
0.345075
0.31497
0.289429
0.268092
0.250607
0.236649
0.225926
0.218183
0.213204
0.210814
0.210882
0.21332
0.218083
0.225158
0.23456
0.246311
0.260419
0.276834
0.295361
0.315349
0.333564
0.343063
0.347788
0.349645
0.348769
0.341988
0.32868
0.315231
0.303129
0.292867
0.284654
0.27855
0.274503
0.272351
0.271817
0.272492
0.273826
0.275145
0.275804
0.275428
0.274483
0.273677
0.273701
0.275126
0.278382
0.283781
0.291536
0.301776
0.314541
0.32978
0.347247
0.365933
0.380049
0.385857
0.388509
0.33999
0.331955
0.321528
0.311822
0.303713
0.297594
0.293713
0.292205
0.293117
0.29641
0.301969
0.309598
0.318978
0.329343
0.337707
0.338219
0.332883
0.319303
0.305085
0.292434
0.281967
0.27397
0.268633
0.266117
0.266584
0.270206
0.277167
0.287674
0.301957
0.320279
0.342925
0.370184
0.402296
0.439337
0.48073
0.521832
0.549782
0.570396
0.589066
0.60579
0.620587
0.633498
0.64457
0.653851
0.661384
0.667208
0.671352
0.67384
0.674687
0.6739
0.671478
0.667411
0.661682
0.654268
0.645134
0.634239
0.621537
0.606974
0.590496
0.572051
0.551602
0.528217
0.494084
0.449382
0.407517
0.370493
0.338458
0.311169
0.28829
0.269474
0.254399
0.242776
0.234357
0.228937
0.22635
0.226476
0.229236
0.234592
0.242538
0.253093
0.266282
0.282108
0.30049
0.321102
0.342696
0.358428
0.365816
0.370439
0.372725
0.372805
0.370253
0.360358
0.346004
0.332608
0.321213
0.312199
0.305707
0.301725
0.300103
0.300542
0.302548
0.305394
0.30803
0.309321
0.30822
0.305908
0.303616
0.302357
0.302873
0.305656
0.311026
0.319188
0.330232
0.344107
0.360651
0.379238
0.396374
0.404727
0.408693
0.410744
0.377286
0.373154
0.361544
0.349427
0.339241
0.331538
0.326656
0.324745
0.325863
0.329937
0.336806
0.346184
0.35758
0.368931
0.37231
0.37085
0.368168
0.357727
0.341113
0.325803
0.313071
0.303282
0.296612
0.2932
0.293194
0.296751
0.304038
0.315239
0.330562
0.350249
0.374563
0.403754
0.437924
0.476763
0.518154
0.548467
0.569304
0.5881
0.605257
0.620726
0.634491
0.646558
0.656945
0.665677
0.672778
0.678272
0.682179
0.684513
0.685285
0.684499
0.682155
0.678244
0.672753
0.665666
0.656958
0.646602
0.634567
0.620823
0.605343
0.588109
0.569119
0.548401
0.522802
0.484346
0.441028
0.401807
0.367575
0.338251
0.313558
0.293173
0.276782
0.264105
0.254904
0.248981
0.246184
0.2464
0.24956
0.25563
0.264608
0.276515
0.291374
0.309166
0.329722
0.352351
0.373451
0.38456
0.390954
0.395426
0.398012
0.398836
0.39811
0.394013
0.382703
0.368647
0.356137
0.346252
0.339353
0.335522
0.334645
0.336447
0.340364
0.34553
0.350297
0.352855
0.350335
0.345771
0.341235
0.338127
0.337381
0.339497
0.344764
0.353352
0.365295
0.380276
0.397831
0.416019
0.425983
0.430371
0.433443
0.435031
0.410941
0.410614
0.405435
0.393069
0.381351
0.37208
0.366156
0.363806
0.36518
0.370111
0.378305
0.389169
0.401513
0.406625
0.405968
0.404529
0.402332
0.397306
0.382601
0.365261
0.350324
0.338667
0.330547
0.326134
0.325591
0.329081
0.33676
0.348783
0.365318
0.386572
0.412775
0.44411
0.480353
0.519876
0.550882
0.57196
0.590351
0.607442
0.623137
0.637366
0.650092
0.661297
0.670975
0.679133
0.685779
0.690924
0.694577
0.696748
0.69744
0.696658
0.694398
0.690655
0.685422
0.678685
0.67043
0.660643
0.649306
0.636409
0.621945
0.605921
0.588363
0.569324
0.548884
0.521149
0.480183
0.439285
0.402763
0.371168
0.34441
0.322222
0.304315
0.290426
0.280329
0.27384
0.270816
0.271156
0.274795
0.281699
0.291866
0.305311
0.322041
0.341986
0.364764
0.388686
0.404432
0.412146
0.418012
0.422298
0.425061
0.426417
0.42655
0.425711
0.421165
0.410604
0.397634
0.386946
0.379672
0.376087
0.376124
0.379624
0.385897
0.393948
0.401078
0.403277
0.401039
0.393779
0.38656
0.381104
0.378835
0.380143
0.385229
0.394214
0.407124
0.422753
0.439645
0.449621
0.45393
0.457302
0.459678
0.460905
0.444857
0.444749
0.444487
0.439595
0.429356
0.419033
0.412211
0.409374
0.411092
0.416868
0.425973
0.436582
0.441528
0.441245
0.440295
0.438965
0.437164
0.434865
0.427641
0.410673
0.393994
0.380553
0.370922
0.365414
0.364275
0.367708
0.375862
0.38885
0.406757
0.429725
0.457884
0.491273
0.528204
0.558014
0.578647
0.596136
0.612697
0.628182
0.64248
0.65551
0.667215
0.677561
0.686527
0.694101
0.700281
0.705066
0.708459
0.71046
0.711072
0.710293
0.708123
0.704558
0.699593
0.693221
0.685436
0.676232
0.665606
0.653561
0.640108
0.625269
0.609086
0.591625
0.572981
0.552995
0.524128
0.48317
0.444481
0.410447
0.381409
0.3572
0.337573
0.322304
0.311189
0.30406
0.300789
0.301284
0.305481
0.31334
0.324846
0.339983
0.358713
0.380839
0.405309
0.425094
0.43472
0.44133
0.44665
0.450694
0.453517
0.45522
0.455961
0.455952
0.455458
0.451938
0.444367
0.433712
0.426422
0.423233
0.424125
0.429171
0.437008
0.442386
0.445217
0.445841
0.445651
0.443139
0.437885
0.430476
0.426957
0.427496
0.432308
0.441354
0.45489
0.46751
0.475793
0.479477
0.482641
0.48523
0.48706
0.488008
0.478881
0.478904
0.479009
0.479275
0.476233
0.470522
0.463811
0.460453
0.462613
0.468672
0.47438
0.477529
0.476842
0.47595
0.475004
0.473872
0.472489
0.470842
0.468891
0.460826
0.444031
0.429286
0.418191
0.411518
0.409719
0.413116
0.421846
0.435966
0.455358
0.480026
0.509723
0.543729
0.570454
0.589453
0.60562
0.621239
0.636119
0.65011
0.663093
0.674978
0.685698
0.695206
0.703469
0.710464
0.716178
0.720602
0.723731
0.725562
0.726092
0.72532
0.723244
0.719862
0.715171
0.70917
0.70186
0.693243
0.683326
0.672123
0.659655
0.64596
0.631087
0.61511
0.59812
0.580229
0.560778
0.532234
0.492868
0.456507
0.425112
0.398716
0.377173
0.360355
0.348088
0.340231
0.336684
0.337365
0.342201
0.351132
0.36411
0.381025
0.401681
0.425368
0.447709
0.459322
0.466042
0.471805
0.476563
0.480312
0.483092
0.484986
0.486122
0.486675
0.486865
0.486972
0.485642
0.481918
0.477679
0.475319
0.476325
0.478868
0.481127
0.481629
0.481049
0.481134
0.481933
0.48339
0.483342
0.481716
0.479876
0.480066
0.484447
0.491833
0.499042
0.504265
0.506887
0.509518
0.51193
0.513916
0.515326
0.516057
0.512883
0.512976
0.513209
0.513681
0.514555
0.514221
0.512494
0.511377
0.511981
0.51347
0.513921
0.512573
0.511559
0.51071
0.509896
0.509032
0.508079
0.507049
0.505995
0.504767
0.497884
0.48446
0.472514
0.46472
0.462226
0.465642
0.475038
0.490476
0.511244
0.536953
0.565789
0.588079
0.604269
0.6188
0.633143
0.64708
0.660431
0.673045
0.684803
0.69561
0.705393
0.714096
0.721678
0.728108
0.733365
0.737433
0.740302
0.741965
0.742416
0.741652
0.739671
0.736473
0.732058
0.726429
0.719592
0.711554
0.702332
0.691947
0.680431
0.667827
0.654194
0.639607
0.624161
0.607969
0.591166
0.572815
0.546116
0.509203
0.475911
0.447351
0.423727
0.405212
0.391658
0.382967
0.379102
0.380002
0.38556
0.395662
0.410219
0.428844
0.450883
0.473693
0.486284
0.492631
0.498318
0.503287
0.507484
0.510898
0.513552
0.51551
0.516868
0.51776
0.518351
0.518835
0.519416
0.520156
0.519601
0.518822
0.518607
0.518072
0.51667
0.515806
0.515474
0.515692
0.516486
0.51787
0.519895
0.522442
0.523891
0.525605
0.52854
0.531896
0.533947
0.535729
0.537746
0.53978
0.541642
0.543179
0.544271
0.544837
0.546791
0.546908
0.547169
0.547623
0.548328
0.549291
0.550426
0.550922
0.550428
0.549173
0.547943
0.546926
0.546112
0.545436
0.544839
0.544278
0.543748
0.543278
0.542941
0.542867
0.543076
0.539253
0.532396
0.524358
0.521493
0.525136
0.535057
0.551686
0.572569
0.592842
0.609914
0.622805
0.635499
0.648333
0.661071
0.673509
0.685478
0.696836
0.707464
0.717267
0.726168
0.734108
0.741039
0.746925
0.75174
0.755463
0.758079
0.759579
0.759954
0.7592
0.757316
0.754301
0.75016
0.744897
0.738522
0.73105
0.722501
0.712903
0.702295
0.690724
0.678253
0.664962
0.650946
0.63632
0.62122
0.605807
0.589407
0.565815
0.533391
0.503437
0.477675
0.457451
0.442504
0.432844
0.428605
0.429763
0.436124
0.447399
0.463548
0.483189
0.503818
0.51579
0.521392
0.526569
0.531313
0.535539
0.53919
0.542244
0.544711
0.546632
0.548079
0.549145
0.549946
0.5506
0.551211
0.551805
0.552278
0.552318
0.551637
0.550733
0.549937
0.54945
0.549348
0.549672
0.550451
0.551696
0.55341
0.555551
0.55803
0.560463
0.562324
0.563805
0.56533
0.566929
0.56859
0.570213
0.571681
0.572886
0.573741
0.574184
0.580583
0.580697
0.580936
0.581316
0.58184
0.582468
0.58307
0.58334
0.583096
0.582465
0.58174
0.581077
0.580525
0.580085
0.579743
0.579495
0.579357
0.579373
0.579625
0.580243
0.581419
0.583429
0.58397
0.583604
0.584799
0.589433
0.598449
0.610356
0.622967
0.634407
0.644559
0.655375
0.666588
0.677964
0.689298
0.700408
0.711138
0.721356
0.730949
0.739825
0.747905
0.755128
0.761444
0.766814
0.771207
0.774599
0.776974
0.778317
0.77862
0.777879
0.776091
0.773257
0.769383
0.764476
0.75855
0.751623
0.743719
0.734871
0.72512
0.714519
0.703134
0.691043
0.678343
0.665146
0.651587
0.637821
0.624031
0.610101
0.590739
0.565823
0.538692
0.517369
0.501029
0.490218
0.485529
0.486994
0.494223
0.506221
0.523262
0.53859
0.548163
0.552516
0.556793
0.560939
0.564828
0.568366
0.571492
0.574176
0.576414
0.57823
0.579669
0.580797
0.581686
0.58241
0.583023
0.583531
0.583876
0.583945
0.583682
0.583268
0.582896
0.58271
0.582794
0.583198
0.583949
0.585054
0.586497
0.588226
0.590137
0.592031
0.59371
0.595203
0.596641
0.598066
0.599471
0.6008
0.601983
0.602944
0.603623
0.603974
0.61426
0.61436
0.614562
0.614863
0.615249
0.615672
0.616041
0.616223
0.616143
0.615852
0.615476
0.615115
0.614826
0.614634
0.614554
0.614603
0.614811
0.615231
0.615943
0.617062
0.618743
0.621185
0.624617
0.629172
0.63378
0.639239
0.646032
0.65317
0.660541
0.668867
0.677932
0.687548
0.697514
0.707639
0.717748
0.727685
0.73731
0.746501
0.755153
0.763177
0.770499
0.777055
0.782796
0.78768
0.791675
0.794754
0.796899
0.798094
0.798331
0.797604
0.795911
0.793253
0.789638
0.785075
0.779579
0.773172
0.765881
0.757741
0.748796
0.7391
0.72872
0.717733
0.706235
0.694335
0.68216
0.66986
0.657604
0.64559
0.634041
0.620049
0.602912
0.583759
0.566559
0.554608
0.549446
0.551072
0.558954
0.569314
0.577848
0.583421
0.586054
0.589095
0.592325
0.595568
0.598693
0.601604
0.604237
0.606554
0.60854
0.610204
0.611573
0.612686
0.61359
0.614331
0.614938
0.615419
0.615751
0.615902
0.615876
0.615762
0.61567
0.6157
0.615921
0.616377
0.617094
0.618073
0.619297
0.620719
0.622261
0.623814
0.625283
0.626656
0.627964
0.629224
0.630426
0.631536
0.632505
0.633285
0.633832
0.634114
0.647837
0.647921
0.648087
0.648327
0.64862
0.64893
0.649201
0.649369
0.649402
0.649324
0.649196
0.649083
0.64903
0.649073
0.649236
0.649551
0.650053
0.650797
0.651855
0.65332
0.655307
0.657944
0.661348
0.665561
0.670471
0.675895
0.681677
0.688025
0.694974
0.70258
0.710756
0.719372
0.72828
0.737328
0.746372
0.755275
0.763916
0.772185
0.779985
0.787233
0.793857
0.799798
0.805005
0.809435
0.813057
0.815843
0.817773
0.818831
0.819007
0.818296
0.816695
0.814207
0.810841
0.806606
0.80152
0.795606
0.788892
0.781416
0.773222
0.764365
0.754911
0.744935
0.734529
0.723797
0.71286
0.701853
0.690935
0.680282
0.670098
0.660616
0.651586
0.640885
0.630359
0.621878
0.616912
0.615809
0.617475
0.619987
0.620955
0.621802
0.623402
0.625486
0.627844
0.630314
0.632771
0.635121
0.637299
0.639261
0.640987
0.642473
0.643731
0.644784
0.645659
0.646385
0.646981
0.647456
0.647808
0.648036
0.64816
0.648232
0.648322
0.648498
0.648811
0.649297
0.649976
0.650848
0.651899
0.653092
0.654374
0.655679
0.656953
0.658173
0.659336
0.660441
0.661474
0.662411
0.663217
0.66386
0.664307
0.664537
0.68133
0.681401
0.68154
0.681737
0.681975
0.682228
0.682463
0.682648
0.682771
0.682844
0.682903
0.682989
0.68314
0.683389
0.683768
0.68431
0.685054
0.68605
0.687359
0.689054
0.69122
0.693937
0.697268
0.701231
0.705775
0.710818
0.716305
0.722276
0.728749
0.735723
0.743139
0.750904
0.758905
0.767022
0.775135
0.783128
0.790894
0.798337
0.805369
0.811912
0.8179
0.823275
0.827989
0.832
0.835275
0.837788
0.839518
0.840449
0.84057
0.839876
0.838365
0.836041
0.832911
0.828988
0.824289
0.818839
0.812666
0.805809
0.798312
0.790228
0.781622
0.772568
0.76315
0.753466
0.743628
0.733759
0.724
0.714504
0.705442
0.696991
0.68933
0.682721
0.677078
0.672017
0.667768
0.664533
0.661805
0.65992
0.65923
0.659411
0.660267
0.661603
0.663252
0.665073
0.666955
0.668811
0.670576
0.672206
0.673675
0.674971
0.676095
0.677059
0.677878
0.678569
0.679145
0.679616
0.67999
0.680275
0.680494
0.680684
0.68089
0.681158
0.681528
0.682024
0.682663
0.683446
0.684359
0.685377
0.686463
0.687575
0.688677
0.689746
0.690767
0.69173
0.692619
0.693415
0.694093
0.694629
0.694999
0.695189
0.714752
0.714814
0.714934
0.715105
0.715314
0.715543
0.715774
0.715992
0.71619
0.716379
0.716583
0.716829
0.717151
0.717576
0.718138
0.718867
0.719803
0.720989
0.722475
0.72432
0.726582
0.729315
0.732558
0.73632
0.74058
0.745299
0.750448
0.756025
0.762024
0.768423
0.775173
0.7822
0.789415
0.79672
0.804017
0.811206
0.818196
0.824901
0.831241
0.837146
0.842555
0.847414
0.851675
0.8553
0.858256
0.860517
0.862062
0.862876
0.862949
0.862273
0.86085
0.858681
0.855775
0.852146
0.84781
0.842793
0.837125
0.830841
0.823987
0.816614
0.808783
0.800563
0.792036
0.78329
0.774426
0.765556
0.756801
0.748294
0.740173
0.732578
0.725643
0.719488
0.714116
0.709474
0.705504
0.702149
0.699508
0.697649
0.696632
0.696345
0.69665
0.697408
0.698487
0.699772
0.701166
0.702591
0.703988
0.705312
0.706534
0.707639
0.70862
0.70948
0.710225
0.710867
0.711413
0.711874
0.712259
0.71258
0.712858
0.713119
0.713395
0.713718
0.714117
0.71461
0.715208
0.715912
0.716714
0.717593
0.718526
0.719482
0.720436
0.721366
0.722255
0.723091
0.723858
0.724537
0.725112
0.725562
0.725873
0.726031
0.748112
0.748168
0.748278
0.748436
0.748632
0.748857
0.7491
0.749354
0.749618
0.7499
0.750219
0.750596
0.751057
0.751628
0.752338
0.753218
0.754302
0.755626
0.757234
0.759168
0.761473
0.764184
0.767327
0.770911
0.774925
0.779349
0.784163
0.789352
0.794899
0.800773
0.80693
0.813308
0.819834
0.826428
0.833006
0.839485
0.845784
0.851828
0.857547
0.862877
0.867761
0.872149
0.875997
0.879268
0.881932
0.883962
0.885338
0.886045
0.886074
0.885419
0.884079
0.882058
0.879363
0.876009
0.872013
0.8674
0.862198
0.856445
0.850181
0.843458
0.836331
0.828868
0.82114
0.813231
0.80523
0.797236
0.789355
0.781698
0.774378
0.767504
0.761177
0.755471
0.750412
0.74599
0.742186
0.738989
0.736429
0.734533
0.733306
0.732686
0.732582
0.732892
0.733517
0.734361
0.735345
0.7364
0.737472
0.738519
0.739512
0.740431
0.741267
0.742015
0.742677
0.743259
0.743767
0.744208
0.744592
0.74493
0.745239
0.745539
0.745853
0.746204
0.746611
0.747089
0.747646
0.748282
0.74899
0.749757
0.750565
0.751392
0.752218
0.753025
0.753798
0.754522
0.755183
0.755765
0.756254
0.756636
0.756898
0.757031
0.781415
0.781469
0.781574
0.781727
0.781922
0.782153
0.782415
0.782706
0.783026
0.783386
0.783797
0.784279
0.784852
0.785541
0.786369
0.787366
0.788559
0.789981
0.791666
0.793647
0.795956
0.79862
0.801657
0.805071
0.80886
0.813009
0.817503
0.822323
0.827446
0.832841
0.838465
0.844268
0.850185
0.856151
0.862094
0.867943
0.873627
0.879082
0.884243
0.889054
0.893463
0.897424
0.900896
0.903845
0.906241
0.908059
0.909282
0.909893
0.909884
0.90925
0.90799
0.906107
0.903611
0.900513
0.896834
0.892594
0.887824
0.882558
0.876835
0.870704
0.864217
0.857436
0.850426
0.843263
0.836027
0.828804
0.821686
0.814765
0.808135
0.801884
0.796089
0.790807
0.786071
0.781889
0.778263
0.775191
0.772685
0.77075
0.769373
0.76851
0.768099
0.768063
0.768325
0.768811
0.769453
0.770192
0.770981
0.771781
0.772563
0.773307
0.774
0.774635
0.77521
0.775726
0.776187
0.776599
0.776969
0.777308
0.777628
0.777944
0.778273
0.778632
0.779034
0.77949
0.780005
0.78058
0.781208
0.781881
0.782584
0.783302
0.784019
0.78472
0.78539
0.786016
0.786586
0.787086
0.787504
0.787829
0.788052
0.788165
0.814665
0.814718
0.814823
0.814976
0.815176
0.815419
0.815702
0.816027
0.816397
0.816818
0.817304
0.81787
0.818533
0.819313
0.820233
0.821316
0.822587
0.824073
0.825801
0.827797
0.830085
0.832684
0.835607
0.838858
0.842435
0.846326
0.850517
0.85499
0.859721
0.864678
0.869824
0.875111
0.880489
0.885897
0.891276
0.896564
0.901701
0.906628
0.911289
0.915633
0.919614
0.923188
0.926319
0.928975
0.931127
0.932754
0.933836
0.934361
0.93432
0.933707
0.932523
0.93077
0.928459
0.9256
0.922213
0.918319
0.913946
0.909127
0.903898
0.898306
0.892398
0.886231
0.879866
0.873369
0.866811
0.860268
0.853819
0.847542
0.841515
0.835809
0.830487
0.825599
0.821175
0.817234
0.813783
0.810828
0.808371
0.806409
0.804924
0.803884
0.80324
0.802936
0.802911
0.803105
0.803462
0.803935
0.804479
0.805061
0.805652
0.806234
0.806791
0.807315
0.807801
0.808248
0.808657
0.809032
0.809379
0.809705
0.81002
0.810336
0.810665
0.811017
0.811404
0.811832
0.812305
0.812823
0.813382
0.813974
0.814588
0.815213
0.815836
0.816445
0.817026
0.817567
0.818059
0.818489
0.818848
0.819126
0.819315
0.819412
0.847862
0.847916
0.848022
0.848179
0.848387
0.848643
0.848948
0.849304
0.849715
0.850187
0.850733
0.851364
0.852096
0.852946
0.853933
0.855078
0.8564
0.857923
0.859668
0.861656
0.863903
0.866425
0.869229
0.87232
0.875694
0.879342
0.88325
0.8874
0.891768
0.896327
0.90104
0.905866
0.910761
0.915672
0.920549
0.925338
0.929985
0.934439
0.938651
0.942576
0.94617
0.949395
0.952218
0.954607
0.956539
0.957992
0.958948
0.959396
0.959327
0.958736
0.957623
0.955993
0.953853
0.951217
0.9481
0.944524
0.940515
0.936104
0.931326
0.926223
0.920839
0.915226
0.909438
0.903534
0.897579
0.891639
0.885779
0.880069
0.874572
0.869349
0.864453
0.859925
0.855796
0.852087
0.848808
0.845967
0.843562
0.841589
0.840032
0.838862
0.838042
0.83753
0.837277
0.837234
0.837358
0.837605
0.837939
0.83833
0.838752
0.839185
0.839616
0.840033
0.840431
0.840807
0.841161
0.841493
0.841809
0.842113
0.842413
0.842716
0.843032
0.843369
0.843733
0.844129
0.84456
0.845026
0.845522
0.846044
0.846582
0.847127
0.847669
0.848197
0.8487
0.849169
0.849593
0.849963
0.850271
0.85051
0.850672
0.850754
0.881006
0.881061
0.881169
0.881332
0.881548
0.881819
0.882144
0.882526
0.88297
0.883484
0.884075
0.884756
0.88554
0.886441
0.887476
0.888661
0.890014
0.891552
0.893294
0.895254
0.897446
0.899882
0.902565
0.905499
0.908679
0.912097
0.91574
0.919591
0.923627
0.927821
0.932142
0.936554
0.941015
0.945482
0.94991
0.954252
0.958461
0.962493
0.966302
0.969849
0.973095
0.976005
0.978548
0.980698
0.98243
0.983726
0.984569
0.984948
0.984855
0.984286
0.983242
0.981725
0.979745
0.977313
0.974445
0.971161
0.967486
0.963447
0.95908
0.95442
0.949509
0.944394
0.939124
0.933752
0.928334
0.922927
0.917591
0.912382
0.907355
0.902563
0.89805
0.893852
0.889998
0.886509
0.883397
0.880668
0.878323
0.876355
0.874751
0.873488
0.872538
0.871865
0.871431
0.871198
0.871129
0.871188
0.871344
0.871569
0.87184
0.87214
0.872453
0.87277
0.873084
0.873389
0.873685
0.873971
0.87425
0.874525
0.874801
0.875083
0.875379
0.875692
0.876029
0.876391
0.876781
0.877198
0.877638
0.878097
0.878568
0.879044
0.879515
0.879973
0.88041
0.880815
0.881181
0.8815
0.881765
0.88197
0.882109
0.882179
0.914095
0.914151
0.914263
0.914432
0.914657
0.914939
0.915281
0.915686
0.916157
0.916702
0.917329
0.918047
0.918868
0.919804
0.920868
0.922076
0.923441
0.924978
0.9267
0.92862
0.930747
0.93309
0.935651
0.938431
0.941427
0.944628
0.948024
0.951597
0.955326
0.959189
0.963154
0.967191
0.971263
0.975332
0.979358
0.983299
0.987116
0.990768
0.994215
0.997423
1.00035
1.00298
1.00527
1.00721
1.00876
1.00991
1.01065
1.01097
1.01086
1.01031
1.00933
1.00792
1.00609
1.00385
1.00121
0.99819
0.994819
0.991121
0.987125
0.982867
0.978384
0.973718
0.968913
0.964016
0.959077
0.954146
0.949275
0.944511
0.939905
0.935498
0.93133
0.927435
0.923836
0.920554
0.917602
0.914985
0.912706
0.910757
0.909129
0.907803
0.906756
0.90596
0.905385
0.904999
0.904772
0.904674
0.904678
0.90476
0.9049
0.90508
0.905287
0.905511
0.905744
0.905981
0.906219
0.906457
0.906695
0.906936
0.907182
0.907438
0.907707
0.907993
0.908298
0.908626
0.908975
0.909346
0.909735
0.910138
0.91055
0.910965
0.911374
0.911772
0.91215
0.9125
0.912816
0.913091
0.913319
0.913495
0.913615
0.913675
0.947128
0.947185
0.947301
0.947474
0.947707
0.948001
0.948357
0.948778
0.94927
0.949839
0.95049
0.951234
0.95208
0.953037
0.954118
0.955334
0.956697
0.958218
0.959909
0.961778
0.963833
0.966079
0.968518
0.971149
0.973968
0.976965
0.980129
0.983445
0.986894
0.990453
0.994095
0.997793
1.00151
1.00522
1.00889
1.01247
1.01594
1.01925
1.02237
1.02527
1.02792
1.03029
1.03236
1.03409
1.03548
1.03651
1.03716
1.03743
1.0373
1.03677
1.03585
1.03454
1.03284
1.03077
1.02834
1.02557
1.02248
1.01909
1.01543
1.01154
1.00744
1.00318
0.998793
0.994322
0.989812
0.985306
0.98085
0.976485
0.972254
0.968194
0.96434
0.96072
0.957357
0.954271
0.951471
0.948966
0.946757
0.944839
0.943204
0.941838
0.940722
0.939834
0.939149
0.938642
0.938286
0.938058
0.937934
0.937894
0.937919
0.937993
0.938105
0.938243
0.938401
0.938572
0.938753
0.938941
0.939137
0.939341
0.939555
0.93978
0.940019
0.940274
0.940547
0.940838
0.941148
0.941475
0.941817
0.94217
0.94253
0.94289
0.943246
0.94359
0.943917
0.94422
0.944492
0.944729
0.944925
0.945077
0.945179
0.945231
0.980103
0.980162
0.98028
0.980458
0.980697
0.980999
0.981366
0.9818
0.982307
0.982892
0.983561
0.98432
0.985179
0.986147
0.987232
0.988445
0.989794
0.991289
0.992939
0.99475
0.996728
0.998875
1.00119
1.00368
1.00633
1.00913
1.01208
1.01516
1.01835
1.02163
1.02498
1.02837
1.03178
1.03516
1.0385
1.04176
1.04491
1.04791
1.05074
1.05337
1.05577
1.05791
1.05977
1.06133
1.06257
1.06349
1.06406
1.06427
1.06413
1.06363
1.06276
1.06154
1.05997
1.05806
1.05582
1.05328
1.05044
1.04733
1.04398
1.04041
1.03667
1.03277
1.02876
1.02467
1.02054
1.01642
1.01233
1.00833
1.00443
1.00069
0.997115
0.993747
0.990603
0.987699
0.985046
0.982651
0.980516
0.978638
0.977012
0.975624
0.974461
0.973505
0.972736
0.972132
0.971673
0.971338
0.971107
0.970963
0.970888
0.97087
0.970896
0.970956
0.971044
0.971153
0.971278
0.971419
0.971571
0.971737
0.971915
0.972107
0.972314
0.972537
0.972776
0.973032
0.973304
0.97359
0.973889
0.974196
0.974508
0.974821
0.975129
0.975427
0.975709
0.97597
0.976204
0.976408
0.976577
0.976707
0.976795
0.976839
1.01302
1.01308
1.0132
1.01338
1.01362
1.01393
1.01431
1.01475
1.01527
1.01586
1.01654
1.01731
1.01817
1.01914
1.02022
1.02142
1.02275
1.02421
1.02581
1.02756
1.02945
1.0315
1.0337
1.03605
1.03854
1.04116
1.04391
1.04677
1.04972
1.05274
1.05583
1.05894
1.06205
1.06515
1.0682
1.07116
1.07403
1.07676
1.07932
1.0817
1.08387
1.0858
1.08748
1.08888
1.09
1.09081
1.0913
1.09148
1.09132
1.09084
1.09003
1.0889
1.08744
1.08568
1.08362
1.08127
1.07866
1.07581
1.07274
1.06947
1.06604
1.06247
1.0588
1.05505
1.05127
1.04749
1.04374
1.04005
1.03646
1.033
1.02969
1.02655
1.02361
1.02088
1.01836
1.01608
1.01402
1.01219
1.01058
1.00919
1.00799
1.00699
1.00616
1.00548
1.00494
1.00451
1.00419
1.00396
1.0038
1.0037
1.00365
1.00364
1.00367
1.00372
1.00379
1.00388
1.00399
1.00412
1.00426
1.00442
1.00459
1.00478
1.00499
1.00521
1.00544
1.00569
1.00595
1.00622
1.00649
1.00676
1.00702
1.00728
1.00752
1.00775
1.00795
1.00812
1.00827
1.00838
1.00845
1.00849
1.04588
1.04594
1.04606
1.04624
1.04649
1.0468
1.04718
1.04763
1.04815
1.04875
1.04943
1.0502
1.05106
1.05202
1.05309
1.05427
1.05556
1.05698
1.05853
1.06021
1.06203
1.06398
1.06606
1.06827
1.07061
1.07306
1.07562
1.07828
1.08101
1.0838
1.08664
1.0895
1.09235
1.09518
1.09797
1.10067
1.10328
1.10576
1.10809
1.11024
1.11221
1.11395
1.11546
1.11672
1.11772
1.11844
1.11887
1.11901
1.11885
1.11839
1.11763
1.11657
1.11522
1.11359
1.11169
1.10953
1.10713
1.10451
1.10169
1.0987
1.09555
1.09227
1.08891
1.08547
1.082
1.07853
1.07508
1.07168
1.06837
1.06516
1.06209
1.05916
1.05641
1.05383
1.05145
1.04927
1.04729
1.04551
1.04393
1.04254
1.04134
1.0403
1.03942
1.03869
1.03808
1.03759
1.03719
1.03689
1.03665
1.03648
1.03637
1.0363
1.03626
1.03626
1.03628
1.03633
1.0364
1.03649
1.03659
1.03672
1.03686
1.03701
1.03719
1.03737
1.03757
1.03779
1.03801
1.03823
1.03847
1.0387
1.03892
1.03914
1.03935
1.03954
1.03972
1.03987
1.03999
1.04009
1.04015
1.04018
1.07867
1.07873
1.07885
1.07904
1.07929
1.0796
1.07998
1.08043
1.08095
1.08155
1.08223
1.08299
1.08385
1.08479
1.08584
1.08699
1.08826
1.08963
1.09112
1.09273
1.09446
1.09632
1.09829
1.10037
1.10256
1.10486
1.10724
1.10971
1.11224
1.11482
1.11743
1.12006
1.12268
1.12527
1.12781
1.13028
1.13265
1.13491
1.13703
1.13898
1.14076
1.14234
1.1437
1.14483
1.14572
1.14636
1.14673
1.14684
1.14667
1.14623
1.14552
1.14453
1.14328
1.14177
1.14002
1.13803
1.13582
1.13341
1.13082
1.12807
1.12518
1.12218
1.11908
1.11593
1.11274
1.10954
1.10636
1.10323
1.10016
1.09719
1.09433
1.0916
1.08902
1.0866
1.08434
1.08226
1.08036
1.07864
1.0771
1.07572
1.07451
1.07346
1.07254