/*--------------------------------*- C++ -*----------------------------------*\
| =========                 |                                                 |
| \\      /  F ield         | OpenFOAM: The Open Source CFD Toolbox           |
|  \\    /   O peration     | Version:  2406                                  |
|   \\  /    A nd           | Website:  www.openfoam.com                      |
|    \\/     M anipulation  |                                                 |
\*---------------------------------------------------------------------------*/
FoamFile
{
    version     2.0;
    format      ascii;
    arch        "LSB;label=32;scalar=64";
    class       volScalarField;
    location    "7.85";
    object      D;
}
// * * * * * * * * * * * * * * * * * * * * * * * * * * * * * * * * * * * * * //

dimensions      [0 2 -1 0 0 0 0];

internalField   nonuniform List<scalar> 
14400
(
7.01376e-05
7.00726e-05
6.99765e-05
6.98827e-05
6.98091e-05
6.97595e-05
6.97309e-05
6.97202e-05
6.97279e-05
6.97603e-05
6.98279e-05
6.99406e-05
7.00988e-05
7.02769e-05
7.04054e-05
7.03762e-05
7.01207e-05
6.97196e-05
6.92573e-05
6.87654e-05
6.82369e-05
6.76513e-05
6.69943e-05
6.62677e-05
6.54915e-05
6.46989e-05
6.39277e-05
6.32119e-05
6.2578e-05
6.20444e-05
6.16258e-05
6.13377e-05
6.12056e-05
6.12807e-05
6.16821e-05
6.27534e-05
6.59675e-05
8.21879e-05
0.000138002
0.00013824
0.00013824
0.00013824
0.00013824
0.00013824
0.00013824
0.00013824
0.00013824
0.00013824
0.00013824
0.00013824
0.00013824
0.00013824
0.00013824
0.00013824
0.00013824
0.00013824
0.00013824
0.00013824
0.00013824
0.000134857
7.25403e-05
6.49123e-05
6.28721e-05
6.21553e-05
6.19815e-05
6.21278e-05
6.25145e-05
6.31136e-05
6.39173e-05
6.49211e-05
6.61069e-05
6.74258e-05
6.87851e-05
7.00573e-05
7.11126e-05
7.18557e-05
7.22436e-05
7.22841e-05
7.20282e-05
7.15624e-05
7.09998e-05
7.04729e-05
7.0136e-05
7.02038e-05
7.11239e-05
7.45382e-05
9.13179e-05
0.000137959
0.000103145
7.47819e-05
6.9854e-05
6.82353e-05
6.75718e-05
6.73436e-05
6.73603e-05
6.7527e-05
6.77841e-05
6.80882e-05
6.84038e-05
6.87001e-05
6.89485e-05
6.91214e-05
6.91932e-05
6.91448e-05
6.89703e-05
6.868e-05
6.82964e-05
6.78483e-05
6.73665e-05
6.68823e-05
6.64277e-05
6.60354e-05
6.5742e-05
6.55935e-05
6.56601e-05
6.6074e-05
6.71531e-05
6.99634e-05
8.01269e-05
0.000136467
6.98014e-05
6.96747e-05
6.94954e-05
6.93243e-05
6.91897e-05
6.90974e-05
6.90441e-05
6.90259e-05
6.90433e-05
6.91025e-05
6.92155e-05
6.9396e-05
6.96505e-05
6.99583e-05
7.02331e-05
7.02896e-05
6.99432e-05
6.94097e-05
6.88438e-05
6.82895e-05
6.77344e-05
6.71516e-05
6.65212e-05
6.58394e-05
6.51198e-05
6.43886e-05
6.36775e-05
6.30166e-05
6.24305e-05
6.1938e-05
6.1555e-05
6.12996e-05
6.12007e-05
6.13157e-05
6.17798e-05
6.30066e-05
6.70669e-05
9.43203e-05
0.000138222
0.00013824
0.00013824
0.00013824
0.00013824
0.00013824
0.00013824
0.00013824
0.00013824
0.00013824
0.00013824
0.00013824
0.00013824
0.00013824
0.00013824
0.00013824
0.00013824
0.00013824
0.00013824
0.00013824
0.00013824
0.000137725
7.89917e-05
6.58404e-05
6.31056e-05
6.22294e-05
6.19878e-05
6.20878e-05
6.24309e-05
6.29805e-05
6.37231e-05
6.46495e-05
6.57399e-05
6.69486e-05
6.81941e-05
6.93646e-05
7.03435e-05
7.10415e-05
7.14154e-05
7.14708e-05
7.12561e-05
7.08539e-05
7.03724e-05
6.99377e-05
6.97e-05
6.98795e-05
7.09752e-05
7.50962e-05
9.94644e-05
0.000138199
0.000115908
7.57415e-05
6.99598e-05
6.81259e-05
6.73502e-05
6.70424e-05
6.69933e-05
6.71022e-05
6.73094e-05
6.7573e-05
6.78602e-05
6.8142e-05
6.83896e-05
6.85722e-05
6.86575e-05
6.86189e-05
6.8447e-05
6.81574e-05
6.77805e-05
6.73505e-05
6.68997e-05
6.64578e-05
6.60535e-05
6.57163e-05
6.54806e-05
6.53928e-05
6.55283e-05
6.60394e-05
6.73336e-05
7.11402e-05
9.08559e-05
0.000138107
6.93878e-05
6.91033e-05
6.87401e-05
6.84171e-05
6.81718e-05
6.80056e-05
6.79105e-05
6.78793e-05
6.79111e-05
6.80129e-05
6.82005e-05
6.8498e-05
6.89328e-05
6.95152e-05
7.01671e-05
7.05266e-05
6.98443e-05
6.89586e-05
6.8165e-05
6.74883e-05
6.68837e-05
6.63037e-05
6.57159e-05
6.51066e-05
6.44789e-05
6.38485e-05
6.32377e-05
6.26701e-05
6.21672e-05
6.1748e-05
6.14306e-05
6.12376e-05
6.1205e-05
6.14038e-05
6.20022e-05
6.35356e-05
6.89473e-05
0.000116557
0.00013824
0.00013824
0.00013824
0.00013824
0.00013824
0.00013824
0.00013824
0.00013824
0.00013824
0.00013824
0.00013824
0.00013824
0.00013824
0.00013824
0.00013824
0.00013824
0.00013824
0.00013824
0.00013824
0.00013824
0.00013824
0.000138233
9.91303e-05
6.77808e-05
6.35628e-05
6.23848e-05
6.20125e-05
6.20226e-05
6.22827e-05
6.27411e-05
6.3374e-05
6.4165e-05
6.50908e-05
6.61106e-05
6.71588e-05
6.81479e-05
6.89854e-05
6.95961e-05
6.99411e-05
7.00233e-05
6.98854e-05
6.96013e-05
6.92681e-05
6.90014e-05
6.89469e-05
6.9338e-05
7.07538e-05
7.59932e-05
0.000114351
0.000138239
0.00013279
7.81691e-05
7.04543e-05
6.80431e-05
6.70149e-05
6.65515e-05
6.6384e-05
6.63943e-05
6.65185e-05
6.67166e-05
6.69593e-05
6.72204e-05
6.74716e-05
6.76768e-05
6.77913e-05
6.77718e-05
6.76004e-05
6.73054e-05
6.69332e-05
6.65281e-05
6.61245e-05
6.57494e-05
6.54265e-05
6.51807e-05
6.50442e-05
6.50655e-05
6.53317e-05
6.60318e-05
6.77216e-05
7.32434e-05
0.000114351
0.00013824
6.94247e-05
6.87321e-05
6.80146e-05
6.7454e-05
6.70577e-05
6.6799e-05
6.66535e-05
6.66059e-05
6.66521e-05
6.68005e-05
6.70749e-05
6.752e-05
6.82137e-05
6.92814e-05
7.08836e-05
7.27684e-05
7.04157e-05
6.8644e-05
6.74413e-05
6.65802e-05
6.59045e-05
6.53207e-05
6.47757e-05
6.42431e-05
6.37147e-05
6.31956e-05
6.26986e-05
6.22403e-05
6.18387e-05
6.15123e-05
6.12822e-05
6.11776e-05
6.12471e-05
6.15907e-05
6.24606e-05
6.47447e-05
7.36683e-05
0.000136445
0.00013824
0.00013824
0.00013824
0.00013824
0.00013824
0.00013824
0.00013824
0.00013824
0.00013824
0.00013824
0.00013824
0.00013824
0.00013824
0.00013824
0.00013824
0.00013824
0.00013824
0.00013824
0.00013824
0.00013824
0.00013824
0.00013824
0.000124977
7.04043e-05
6.43369e-05
6.26746e-05
6.20894e-05
6.19616e-05
6.21033e-05
6.24396e-05
6.2933e-05
6.35584e-05
6.42891e-05
6.50886e-05
6.59064e-05
6.66796e-05
6.73425e-05
6.7841e-05
6.81458e-05
6.82598e-05
6.82178e-05
6.8081e-05
6.79325e-05
6.78786e-05
6.807e-05
6.87852e-05
7.07851e-05
7.76894e-05
0.000131005
0.00013824
0.000138227
0.000101396
7.27776e-05
6.82747e-05
6.67453e-05
6.60421e-05
6.57147e-05
6.5603e-05
6.56311e-05
6.57576e-05
6.59558e-05
6.62029e-05
6.64714e-05
6.67206e-05
6.68875e-05
6.68997e-05
6.6716e-05
6.63946e-05
6.60094e-05
6.56182e-05
6.52575e-05
6.49505e-05
6.47162e-05
6.4576e-05
6.45621e-05
6.47309e-05
6.51971e-05
6.62364e-05
6.87433e-05
7.75966e-05
0.000135705
0.00013824
7.14194e-05
6.91348e-05
6.7636e-05
6.6694e-05
6.60963e-05
6.57265e-05
6.55239e-05
6.54572e-05
6.55165e-05
6.57126e-05
6.60822e-05
6.67061e-05
6.77708e-05
6.97688e-05
7.45849e-05
9.14806e-05
7.32749e-05
6.88251e-05
6.68884e-05
6.57629e-05
6.49872e-05
6.43829e-05
6.38665e-05
6.33966e-05
6.29548e-05
6.25367e-05
6.21472e-05
6.17969e-05
6.15001e-05
6.12756e-05
6.11483e-05
6.11569e-05
6.13728e-05
6.19594e-05
6.34285e-05
6.85326e-05
0.000113167
0.00013824
0.00013824
0.00013824
0.00013824
0.00013824
0.00013824
0.00013824
0.00013824
0.00013824
0.00013824
0.00013824
0.00013824
0.00013824
0.00013824
0.00013824
0.00013824
0.00013824
0.00013824
0.00013824
0.00013824
0.00013824
0.00013824
0.00013824
0.000138143
8.55684e-05
6.64561e-05
6.32799e-05
6.2286e-05
6.19486e-05
6.19349e-05
6.21265e-05
6.24671e-05
6.29213e-05
6.34589e-05
6.40473e-05
6.4648e-05
6.52179e-05
6.57141e-05
6.61027e-05
6.63665e-05
6.65103e-05
6.6562e-05
6.65713e-05
6.66099e-05
6.67821e-05
6.72667e-05
6.84882e-05
7.22042e-05
9.34819e-05
0.000138162
0.00013824
0.00013824
0.000133206
7.68688e-05
6.91502e-05
6.67761e-05
6.57024e-05
6.51608e-05
6.49062e-05
6.48337e-05
6.48939e-05
6.506e-05
6.53126e-05
6.56273e-05
6.59623e-05
6.62292e-05
6.63034e-05
6.60683e-05
6.56698e-05
6.52286e-05
6.48203e-05
6.44801e-05
6.42261e-05
6.40725e-05
6.40395e-05
6.41649e-05
6.45261e-05
6.53093e-05
6.70871e-05
7.27474e-05
0.000115979
0.00013824
0.00013824
8.62174e-05
7.18626e-05
6.80164e-05
6.63569e-05
6.54565e-05
6.49378e-05
6.46639e-05
6.45732e-05
6.46468e-05
6.48987e-05
6.53863e-05
6.6252e-05
6.79311e-05
7.23566e-05
9.72004e-05
0.000137717
8.4395e-05
7.01115e-05
6.67161e-05
6.51856e-05
6.42583e-05
6.36035e-05
6.30913e-05
6.26612e-05
6.22839e-05
6.19474e-05
6.16502e-05
6.13979e-05
6.12029e-05
6.10847e-05
6.1075e-05
6.12288e-05
6.16585e-05
6.26641e-05
6.55058e-05
8.02385e-05
0.00013797
0.00013824
0.00013824
0.00013824
0.00013824
0.00013824
0.00013824
0.00013824
0.00013824
0.00013824
0.00013824
0.00013824
0.00013824
0.00013824
0.00013824
0.00013824
0.00013824
0.00013824
0.00013824
0.00013824
0.00013824
0.00013824
0.00013824
0.00013824
0.00013824
0.000127306
7.07858e-05
6.44553e-05
6.27064e-05
6.20427e-05
6.18248e-05
6.18514e-05
6.20348e-05
6.2326e-05
6.26903e-05
6.30976e-05
6.35181e-05
6.39226e-05
6.42845e-05
6.45847e-05
6.48158e-05
6.49855e-05
6.51185e-05
6.52575e-05
6.54705e-05
6.58714e-05
6.66948e-05
6.86076e-05
7.48579e-05
0.000124187
0.00013824
0.00013824
0.00013824
0.00013824
0.000116162
7.3543e-05
6.76957e-05
6.57811e-05
6.4886e-05
6.44424e-05
6.42568e-05
6.42567e-05
6.44112e-05
6.47055e-05
6.5124e-05
6.56414e-05
6.61328e-05
6.63892e-05
6.59607e-05
6.53558e-05
6.4763e-05
6.42768e-05
6.39179e-05
6.36924e-05
6.36074e-05
6.36859e-05
6.3982e-05
6.46195e-05
6.59684e-05
6.9705e-05
9.0158e-05
0.000138158
0.00013824
0.00013824
0.000137694
8.54835e-05
7.02879e-05
6.67754e-05
6.53062e-05
6.45414e-05
6.41604e-05
6.40352e-05
6.41299e-05
6.4465e-05
6.51385e-05
6.64062e-05
6.93229e-05
8.043e-05
0.000137212
0.00013824
0.000126137
7.40302e-05
6.72833e-05
6.49978e-05
6.38057e-05
6.30478e-05
6.25057e-05
6.20877e-05
6.17508e-05
6.14751e-05
6.1254e-05
6.10898e-05
6.0994e-05
6.09905e-05
6.1124e-05
6.14845e-05
6.22798e-05
6.41796e-05
7.09223e-05
0.000131458
0.00013824
0.00013824
0.00013824
0.00013824
0.00013824
0.00013824
0.00013824
0.00013824
0.00013824
0.00013824
0.00013824
0.00013824
0.00013824
0.00013824
0.00013824
0.00013824
0.00013824
0.00013824
0.00013824
0.00013824
0.00013824
0.00013824
0.00013824
0.00013824
0.00013824
0.000138237
0.000101651
6.80369e-05
6.36519e-05
6.23443e-05
6.18318e-05
6.16632e-05
6.16845e-05
6.18235e-05
6.20375e-05
6.22965e-05
6.25763e-05
6.28559e-05
6.31192e-05
6.33564e-05
6.3567e-05
6.37621e-05
6.39666e-05
6.42237e-05
6.46085e-05
6.52684e-05
6.65822e-05
7.0164e-05
8.97824e-05
0.000138131
0.00013824
0.00013824
0.00013824
0.00013824
0.000138227
9.93578e-05
7.15592e-05
6.67876e-05
6.51152e-05
6.43571e-05
6.40133e-05
6.3951e-05
6.41245e-05
6.45336e-05
6.51886e-05
6.61825e-05
6.7336e-05
6.86072e-05
6.70848e-05
6.58361e-05
6.48238e-05
6.41264e-05
6.36791e-05
6.3449e-05
6.34252e-05
6.36411e-05
6.42001e-05
6.53456e-05
6.79921e-05
7.80192e-05
0.000136958
0.00013824
0.00013824
0.00013824
0.00013824
0.00013713
8.00131e-05
6.90933e-05
6.60449e-05
6.47219e-05
6.41395e-05
6.39516e-05
6.40889e-05
6.45866e-05
6.5675e-05
6.79442e-05
7.55253e-05
0.000133481
0.00013824
0.00013824
0.000138233
0.000100984
7.0292e-05
6.55018e-05
6.37353e-05
6.27735e-05
6.21498e-05
6.17098e-05
6.13875e-05
6.11536e-05
6.09966e-05
6.09163e-05
6.0926e-05
6.10608e-05
6.1396e-05
6.21231e-05
6.38192e-05
6.95873e-05
0.000118932
0.00013824
0.00013824
0.00013824
0.00013824
0.00013824
0.00013824
0.00013824
0.00013824
0.00013824
0.00013824
0.00013824
0.00013824
0.00013824
0.00013824
0.00013824
0.00013824
0.00013824
0.00013824
0.00013824
0.00013824
0.00013824
0.00013824
0.00013824
0.00013824
0.00013824
0.00013824
0.00013824
0.000137882
7.93738e-05
6.57776e-05
6.30285e-05
6.20418e-05
6.16197e-05
6.14619e-05
6.14515e-05
6.15313e-05
6.16676e-05
6.18376e-05
6.20246e-05
6.22181e-05
6.24141e-05
6.2617e-05
6.2842e-05
6.31185e-05
6.34992e-05
6.4085e-05
6.51043e-05
6.7245e-05
7.41298e-05
0.000129596
0.00013824
0.00013824
0.00013824
0.00013824
0.00013824
0.00013824
0.000138194
9.40991e-05
7.10597e-05
6.64589e-05
6.49551e-05
6.42953e-05
6.4145e-05
6.43967e-05
6.51265e-05
6.64387e-05
6.94931e-05
7.36755e-05
8.56302e-05
7.30123e-05
6.8691e-05
6.59724e-05
6.46491e-05
6.39466e-05
6.36567e-05
6.36997e-05
6.41449e-05
6.53144e-05
6.80269e-05
7.62742e-05
0.000135318
0.00013824
0.00013824
0.00013824
0.00013824
0.00013824
0.00013824
0.000136912
8.13053e-05
6.96709e-05
6.60856e-05
6.49838e-05
6.46289e-05
6.48891e-05
6.58268e-05
6.85166e-05
7.54467e-05
0.000131797
0.00013824
0.00013824
0.00013824
0.00013824
0.000137794
8.10054e-05
6.74486e-05
6.42713e-05
6.28885e-05
6.20862e-05
6.15717e-05
6.12315e-05
6.10217e-05
6.09241e-05
6.09376e-05
6.1081e-05
6.14204e-05
6.2108e-05
6.37293e-05
6.91434e-05
0.000110649
0.00013824
0.00013824
0.00013824
0.00013824
0.00013824
0.00013824
0.00013824
0.00013824
0.00013824
0.00013824
0.00013824
0.00013824
0.00013824
0.00013824
0.00013824
0.00013824
0.00013824
0.00013824
0.00013824
0.00013824
0.00013824
0.00013824
0.00013824
0.00013824
0.00013824
0.00013824
0.00013824
0.00013824
0.00013824
0.000134328
7.19292e-05
6.46525e-05
6.26499e-05
6.18194e-05
6.14281e-05
6.12503e-05
6.11966e-05
6.12228e-05
6.13022e-05
6.1418e-05
6.15622e-05
6.17342e-05
6.19426e-05
6.22086e-05
6.2573e-05
6.31122e-05
6.39991e-05
6.57491e-05
7.09176e-05
0.00010812
0.000138239
0.00013824
0.00013824
0.00013824
0.00013824
0.00013824
0.00013824
0.00013824
0.000138201
0.000102256
7.22269e-05
6.7457e-05
6.56968e-05
6.53522e-05
6.5851e-05
6.7944e-05
7.22224e-05
9.49196e-05
0.000132426
0.000138063
0.000129965
8.80739e-05
7.12377e-05
6.68972e-05
6.52823e-05
6.47935e-05
6.49476e-05
6.59567e-05
6.98769e-05
8.28086e-05
0.000136216
0.00013824
0.00013824
0.00013824
0.00013824
0.00013824
0.00013824
0.00013824
0.00013824
0.000137729
9.66069e-05
7.20109e-05
6.86758e-05
6.73813e-05
6.83385e-05
7.12965e-05
8.70616e-05
0.000135352
0.00013824
0.00013824
0.00013824
0.00013824
0.00013824
0.00013824
0.00013578
7.47303e-05
6.62717e-05
6.37298e-05
6.24774e-05
6.1775e-05
6.13577e-05
6.11509e-05
6.11229e-05
6.12757e-05
6.1642e-05
6.24065e-05
6.39569e-05
6.94694e-05
0.000111256
0.00013824
0.00013824
0.00013824
0.00013824
0.00013824
0.00013824
0.00013824
0.00013824
0.00013824
0.00013824
0.00013824
0.00013824
0.00013824
0.00013824
0.00013824
0.00013824
0.00013824
0.00013824
0.00013824
0.00013824
0.00013824
0.00013824
0.00013824
0.00013824
0.00013824
0.00013824
0.00013824
0.00013824
0.00013824
0.00013824
0.00013824
0.000128233
7.07233e-05
6.43157e-05
6.24935e-05
6.17016e-05
6.12865e-05
6.1071e-05
6.09814e-05
6.09758e-05
6.10313e-05
6.11395e-05
6.13024e-05
6.15327e-05
6.18623e-05
6.23565e-05
6.31459e-05
6.45931e-05
6.83023e-05
8.77858e-05
0.000138145
0.00013824
0.00013824
0.00013824
0.00013824
0.00013824
0.00013824
0.00013824
0.00013824
0.00013824
0.000138235
0.000123207
8.10873e-05
7.1489e-05
7.04868e-05
7.18962e-05
8.55915e-05
0.000124601
0.000138217
0.00013824
0.00013824
0.00013824
0.000138146
0.000118987
7.80098e-05
7.08036e-05
6.94673e-05
7.00543e-05
7.32377e-05
0.000108227
0.000137963
0.00013824
0.00013824
0.00013824
0.00013824
0.00013824
0.00013824
0.00013824
0.00013824
0.00013824
0.00013824
0.000138225
0.000124548
9.48314e-05
8.11387e-05
9.09895e-05
0.000119639
0.000138126
0.00013824
0.00013824
0.00013824
0.00013824
0.00013824
0.00013824
0.00013824
0.00013824
0.000134908
7.52913e-05
6.69562e-05
6.38802e-05
6.26224e-05
6.1958e-05
6.17156e-05
6.18076e-05
6.22839e-05
6.31972e-05
6.56081e-05
7.08692e-05
0.000120935
0.00013824
0.00013824
0.00013824
0.00013824
0.00013824
0.00013824
0.00013824
0.00013824
0.00013824
0.00013824
0.00013824
0.00013824
0.00013824
0.00013824
0.00013824
0.00013824
0.00013824
0.00013824
0.00013824
0.00013824
0.00013824
0.00013824
0.00013824
0.00013824
0.00013824
0.00013824
0.00013824
0.00013824
0.00013824
0.00013824
0.00013824
0.00013824
0.00013824
0.000125655
7.0629e-05
6.4409e-05
6.26048e-05
6.17151e-05
6.12366e-05
6.09934e-05
6.08902e-05
6.08838e-05
6.09635e-05
6.11337e-05
6.14125e-05
6.18533e-05
6.25869e-05
6.38955e-05
6.68e-05
7.79635e-05
0.00013741
0.00013824
0.00013824
0.00013824
0.00013824
0.00013824
0.00013824
0.00013824
0.00013824
0.00013824
0.00013824
0.00013824
0.00013824
0.000137828
0.000125317
0.000116683
0.00012798
0.00013809
0.00013824
0.00013824
0.00013824
0.00013824
0.00013824
0.00013824
0.00013824
0.000137406
0.000121243
0.000107421
0.000115311
0.000134115
0.000138239
0.00013824
0.00013824
0.00013824
0.00013824
0.00013824
0.00013824
0.00013824
0.00013824
0.00013824
0.00013824
0.00013824
0.00013824
0.00013824
0.000138216
0.000137792
0.000138186
0.00013824
0.00013824
0.00013824
0.00013824
0.00013824
0.00013824
0.00013824
0.00013824
0.00013824
0.00013824
0.00013824
0.000136852
8.82995e-05
6.93852e-05
6.54805e-05
6.36793e-05
6.32885e-05
6.37131e-05
6.56871e-05
6.89464e-05
8.63807e-05
0.000133233
0.00013824
0.00013824
0.00013824
0.00013824
0.00013824
0.00013824
0.00013824
0.00013824
0.00013824
0.00013824
0.00013824
0.00013824
0.00013824
0.00013824
0.00013824
0.00013824
0.00013824
0.00013824
0.00013824
0.00013824
0.00013824
0.00013824
0.00013824
0.00013824
0.00013824
0.00013824
0.00013824
0.00013824
0.00013824
0.00013824
0.00013824
0.00013824
0.00013824
0.00013824
0.00013824
0.000129457
7.20146e-05
6.56011e-05
6.30343e-05
6.19116e-05
6.13967e-05
6.11442e-05
6.1049e-05
6.11009e-05
6.1308e-05
6.16943e-05
6.23628e-05
6.37081e-05
6.67814e-05
7.66174e-05
0.000136625
0.00013824
0.00013824
0.00013824
0.00013824
0.00013824
0.00013824
0.00013824
0.00013824
0.00013824
0.00013824
0.00013824
0.00013824
0.00013824
0.00013824
0.00013824
0.00013824
0.00013824
0.00013824
0.00013824
0.00013824
0.00013824
0.00013824
0.00013824
0.00013824
0.00013824
0.00013824
0.00013824
0.000138239
0.00013824
0.00013824
0.00013824
0.00013824
0.00013824
0.00013824
0.00013824
0.00013824
0.00013824
0.00013824
0.00013824
0.00013824
0.00013824
0.00013824
0.00013824
0.00013824
0.00013824
0.00013824
0.00013824
0.00013824
0.00013824
0.00013824
0.00013824
0.00013824
0.00013824
0.00013824
0.00013824
0.00013824
0.00013824
0.00013824
0.00013824
0.000138187
0.000118982
8.18014e-05
7.00554e-05
6.91349e-05
7.08858e-05
8.85182e-05
0.000121895
0.000138182
0.00013824
0.00013824
0.00013824
0.00013824
0.00013824
0.00013824
0.00013824
0.00013824
0.00013824
0.00013824
0.00013824
0.00013824
0.00013824
0.00013824
0.00013824
0.00013824
0.00013824
0.00013824
0.00013824
0.00013824
0.00013824
0.00013824
0.00013824
0.00013824
0.00013824
0.00013824
0.00013824
0.00013824
0.00013824
0.00013824
0.00013824
0.00013824
0.00013824
0.00013824
0.00013824
0.00013824
0.00013824
0.000135545
8.39896e-05
6.79814e-05
6.3863e-05
6.26581e-05
6.20595e-05
6.17518e-05
6.17587e-05
6.20945e-05
6.27868e-05
6.40563e-05
6.81914e-05
8.391e-05
0.000137221
0.00013824
0.00013824
0.00013824
0.00013824
0.00013824
0.00013824
0.00013824
0.00013824
0.00013824
0.00013824
0.00013824
0.00013824
0.00013824
0.00013824
0.00013824
0.00013824
0.00013824
0.00013824
0.00013824
0.00013824
0.00013824
0.00013824
0.00013824
0.00013824
0.00013824
0.00013824
0.00013824
0.00013824
0.00013824
0.00013824
0.00013824
0.00013824
0.00013824
0.00013824
0.00013824
0.00013824
0.00013824
0.00013824
0.00013824
0.00013824
0.00013824
0.00013824
0.00013824
0.00013824
0.00013824
0.00013824
0.00013824
0.00013824
0.00013824
0.00013824
0.00013824
0.00013824
0.00013824
0.00013824
0.00013824
0.00013824
0.00013824
0.00013824
0.00013824
0.00013824
0.00013824
0.00013824
0.000138049
0.000131442
0.000127607
0.000134561
0.000138199
0.00013824
0.00013824
0.00013824
0.00013824
0.00013824
0.00013824
0.00013824
0.00013824
0.00013824
0.00013824
0.00013824
0.00013824
0.00013824
0.00013824
0.00013824
0.00013824
0.00013824
0.00013824
0.00013824
0.00013824
0.00013824
0.00013824
0.00013824
0.00013824
0.00013824
0.00013824
0.00013824
0.00013824
0.00013824
0.00013824
0.00013824
0.00013824
0.00013824
0.00013824
0.00013824
0.00013824
0.00013824
0.00013824
0.00013824
0.00013824
0.000138142
0.000112966
7.14972e-05
6.74649e-05
6.51904e-05
6.38303e-05
6.36822e-05
6.46625e-05
6.70068e-05
7.06772e-05
0.000106262
0.000138106
0.00013824
0.00013824
0.00013824
0.00013824
0.00013824
0.00013824
0.00013824
0.00013824
0.00013824
0.00013824
0.00013824
0.00013824
0.00013824
0.00013824
0.00013824
0.00013824
0.00013824
0.00013824
0.00013824
0.00013824
0.00013824
0.00013824
0.00013824
0.00013824
0.00013824
0.00013824
0.00013824
0.00013824
0.00013824
0.00013824
0.00013824
0.00013824
0.00013824
0.00013824
0.00013824
0.00013824
0.00013824
0.00013824
0.00013824
0.00013824
0.00013824
0.00013824
0.00013824
0.00013824
0.00013824
0.00013824
0.00013824
0.00013824
0.00013824
0.00013824
0.00013824
0.00013824
0.00013824
0.00013824
0.00013824
0.00013824
0.00013824
0.00013824
0.00013824
0.00013824
0.00013824
0.00013824
0.00013824
0.00013824
0.00013824
0.00013824
0.00013824
0.00013824
0.00013824
0.00013824
0.00013824
0.00013824
0.00013824
0.00013824
0.00013824
0.00013824
0.00013824
0.00013824
0.00013824
0.00013824
0.00013824
0.00013824
0.00013824
0.00013824
0.00013824
0.00013824
0.00013824
0.00013824
0.00013824
0.00013824
0.00013824
0.00013824
0.00013824
0.00013824
0.00013824
0.00013824
0.00013824
0.00013824
0.00013824
0.00013824
0.00013824
0.00013824
0.00013824
0.00013824
0.00013824
0.00013824
0.00013824
0.00013824
0.00013824
0.00013824
0.000135315
0.000110797
8.41814e-05
7.21128e-05
7.0981e-05
7.73881e-05
0.000101778
0.000131053
0.000138239
0.00013824
0.00013824
0.00013824
0.00013824
0.00013824
0.00013824
0.00013824
0.00013824
0.00013824
0.00013824
0.00013824
0.00013824
0.00013824
0.00013824
0.00013824
0.00013824
0.00013824
0.00013824
0.00013824
0.00013824
0.00013824
0.00013824
0.00013824
0.00013824
0.00013824
0.00013824
0.00013824
0.00013824
0.00013824
0.00013824
0.00013824
0.00013824
0.00013824
0.00013824
0.00013824
0.00013824
0.00013824
0.00013824
0.00013824
0.00013824
0.00013824
0.00013824
0.00013824
0.00013824
0.00013824
0.00013824
0.00013824
0.00013824
0.00013824
0.00013824
0.00013824
0.00013824
0.00013824
0.00013824
0.00013824
0.00013824
0.00013824
0.00013824
0.00013824
0.00013824
0.00013824
0.00013824
0.00013824
0.00013824
0.00013824
0.00013824
0.00013824
0.00013824
0.00013824
0.00013824
0.00013824
0.00013824
0.00013824
0.00013824
0.00013824
0.00013824
0.00013824
0.00013824
0.00013824
0.00013824
0.00013824
0.00013824
0.00013824
0.00013824
0.00013824
0.00013824
0.00013824
0.00013824
0.00013824
0.00013824
0.00013824
0.00013824
0.00013824
0.00013824
0.00013824
0.00013824
0.00013824
0.00013824
0.00013824
0.00013824
0.00013824
0.00013824
0.00013824
0.00013824
0.00013824
0.00013824
0.00013824
0.00013824
0.00013824
0.00013824
0.00013824
0.00013824
0.00013824
0.000138136
0.000136131
0.000134868
0.000137736
0.000138237
0.00013824
0.00013824
0.00013824
0.00013824
0.00013824
0.00013824
0.00013824
0.00013824
0.00013824
0.00013824
0.00013824
0.00013824
0.00013824
0.00013824
0.00013824
0.00013824
0.00013824
0.00013824
0.00013824
0.00013824
0.00013824
0.00013824
0.00013824
0.00013824
0.00013824
0.00013824
0.00013824
0.00013824
0.00013824
0.00013824
0.00013824
0.00013824
0.00013824
0.00013824
0.00013824
0.00013824
0.00013824
0.00013824
0.00013824
0.00013824
0.00013824
0.00013824
0.00013824
0.00013824
0.00013824
0.00013824
0.00013824
0.00013824
0.00013824
0.00013824
0.00013824
0.00013824
0.00013824
0.00013824
0.00013824
0.00013824
0.00013824
0.00013824
0.00013824
0.00013824
0.00013824
0.00013824
0.00013824
0.00013824
0.00013824
0.00013824
0.00013824
0.00013824
0.00013824
0.00013824
0.00013824
0.00013824
0.00013824
0.00013824
0.00013824
0.00013824
0.00013824
0.00013824
0.00013824
0.00013824
0.00013824
0.00013824
0.00013824
0.00013824
0.00013824
0.00013824
0.00013824
0.00013824
0.00013824
0.00013824
0.00013824
0.00013824
0.00013824
0.00013824
0.00013824
0.00013824
0.00013824
0.00013824
0.00013824
0.00013824
0.00013824
0.00013824
0.00013824
0.00013824
0.00013824
0.00013824
0.00013824
0.00013824
0.00013824
0.00013824
0.00013824
0.00013824
0.00013824
0.00013824
0.00013824
0.00013824
0.00013824
0.00013824
0.00013824
0.00013824
0.00013824
0.00013824
0.00013824
0.00013824
0.00013824
0.00013824
0.00013824
0.00013824
0.00013824
0.00013824
0.00013824
0.00013824
0.00013824
0.00013824
0.00013824
0.00013824
0.00013824
0.00013824
0.00013824
0.00013824
0.00013824
0.00013824
0.00013824
0.00013824
0.00013824
0.00013824
0.00013824
0.00013824
0.00013824
0.00013824
0.00013824
0.00013824
0.00013824
0.00013824
0.00013824
0.00013824
0.00013824
0.00013824
0.00013824
0.00013824
0.00013824
0.00013824
0.00013824
0.00013824
0.00013824
0.00013824
0.00013824
0.00013824
0.00013824
0.00013824
0.00013824
0.00013824
0.00013824
0.00013824
0.00013824
0.00013824
0.00013824
0.00013824
0.00013824
0.00013824
0.00013824
0.00013824
0.00013824
0.00013824
0.00013824
0.00013824
0.00013824
0.00013824
0.00013824
0.00013824
0.00013824
0.00013824
0.00013824
0.00013824
0.00013824
0.00013824
0.00013824
0.00013824
0.00013824
0.00013824
0.00013824
0.00013824
0.00013824
0.00013824
0.00013824
0.00013824
0.00013824
0.00013824
0.00013824
0.00013824
0.00013824
0.00013824
0.00013824
0.00013824
0.00013824
0.00013824
0.00013824
0.00013824
0.00013824
0.00013824
0.00013824
0.00013824
0.00013824
0.00013824
0.00013824
0.00013824
0.00013824
0.00013824
0.00013824
0.00013824
0.00013824
0.00013824
0.00013824
0.00013824
0.00013824
0.00013824
0.00013824
0.00013824
0.00013824
0.00013824
0.00013824
0.00013824
0.00013824
0.00013824
0.00013824
0.00013824
0.00013824
0.00013824
0.00013824
0.00013824
0.00013824
0.00013824
0.00013824
0.00013824
0.00013824
0.00013824
0.00013824
0.00013824
0.00013824
0.00013824
0.00013824
0.00013824
0.00013824
0.00013824
0.00013824
0.00013824
0.00013824
0.00013824
0.00013824
0.00013824
0.00013824
0.00013824
0.00013824
0.00013824
0.00013824
0.00013824
0.00013824
0.00013824
0.00013824
0.00013824
0.00013824
0.00013824
0.00013824
0.00013824
0.00013824
0.00013824
0.00013824
0.00013824
0.00013824
0.00013824
0.00013824
0.00013824
0.00013824
0.00013824
0.00013824
0.00013824
0.00013824
0.00013824
0.00013824
0.00013824
0.00013824
0.00013824
0.00013824
0.00013824
0.00013824
0.00013824
0.00013824
0.00013824
0.00013824
0.00013824
0.00013824
0.00013824
0.00013824
0.00013824
0.00013824
0.00013824
0.00013824
0.00013824
0.00013824
0.00013824
0.00013824
0.00013824
0.00013824
0.00013824
0.00013824
0.00013824
0.00013824
0.00013824
0.00013824
0.00013824
0.00013824
0.00013824
0.00013824
0.00013824
0.00013824
0.00013824
0.00013824
0.00013824
0.00013824
0.00013824
0.00013824
0.00013824
0.00013824
0.00013824
0.00013824
0.00013824
0.00013824
0.00013824
0.00013824
0.00013824
0.00013824
0.00013824
0.00013824
0.00013824
0.00013824
0.00013824
0.00013824
0.00013824
0.00013824
0.00013824
0.00013824
0.00013824
0.00013824
0.00013824
0.00013824
0.00013824
0.00013824
0.00013824
0.00013824
0.00013824
0.00013824
0.00013824
0.00013824
0.00013824
0.00013824
0.00013824
0.00013824
0.00013824
0.00013824
0.00013824
0.00013824
0.00013824
0.00013824
0.00013824
0.00013824
0.00013824
0.00013824
0.00013824
0.00013824
0.00013824
0.00013824
0.00013824
0.00013824
0.00013824
0.00013824
0.00013824
0.00013824
0.00013824
0.00013824
0.00013824
0.00013824
0.00013824
0.00013824
0.00013824
0.00013824
0.00013824
0.00013824
0.00013824
0.00013824
0.00013824
0.00013824
0.00013824
0.00013824
0.00013824
0.00013824
0.00013824
0.00013824
0.00013824
0.00013824
0.00013824
0.00013824
0.00013824
0.00013824
0.00013824
0.00013824
0.00013824
0.00013824
0.00013824
0.00013824
0.00013824
0.00013824
0.00013824
0.00013824
0.00013824
0.00013824
0.00013824
0.00013824
0.00013824
0.00013824
0.00013824
0.00013824
0.00013824
0.00013824
0.00013824
0.00013824
0.00013824
0.00013824
0.00013824
0.00013824
0.00013824
0.00013824
0.00013824
0.00013824
0.00013824
0.00013824
0.00013824
0.00013824
0.00013824
0.00013824
0.00013824
0.00013824
0.00013824
0.00013824
0.00013824
0.00013824
0.00013824
0.00013824
0.00013824
0.00013824
0.00013824
0.00013824
0.00013824
0.00013824
0.00013824
0.00013824
0.00013824
0.00013824
0.00013824
0.00013824
0.00013824
0.00013824
0.00013824
0.00013824
0.00013824
0.00013824
0.00013824
0.00013824
0.00013824
0.00013824
0.00013824
0.00013824
0.00013824
0.00013824
0.00013824
0.00013824
0.00013824
0.00013824
0.00013824
0.00013824
0.00013824
0.00013824
0.00013824
0.00013824
0.00013824
0.00013824
0.00013824
0.00013824
0.00013824
0.00013824
0.00013824
0.00013824
0.00013824
0.00013824
0.00013824
0.00013824
0.00013824
0.00013824
0.00013824
0.00013824
0.00013824
0.00013824
0.00013824
0.00013824
0.00013824
0.00013824
0.00013824
0.00013824
0.00013824
0.00013824
0.00013824
0.00013824
0.00013824
0.00013824
0.00013824
0.00013824
0.00013824
0.00013824
0.00013824
0.00013824
0.00013824
0.00013824
0.00013824
0.00013824
0.00013824
0.00013824
0.00013824
0.00013824
0.00013824
0.00013824
0.00013824
0.00013824
0.00013824
0.00013824
0.00013824
0.00013824
0.00013824
0.00013824
0.00013824
0.00013824
0.00013824
0.00013824
0.00013824
0.00013824
0.00013824
0.00013824
0.00013824
0.00013824
0.00013824
0.00013824
0.00013824
0.00013824
0.00013824
0.00013824
0.00013824
0.00013824
0.00013824
0.00013824
0.00013824
0.00013824
0.00013824
0.00013824
0.00013824
0.00013824
0.00013824
0.00013824
0.00013824
0.00013824
0.00013824
0.00013824
0.00013824
0.00013824
0.00013824
0.00013824
0.00013824
0.00013824
0.00013824
0.00013824
0.00013824
0.00013824
0.00013824
0.00013824
0.00013824
0.00013824
0.00013824
0.00013824
0.00013824
0.00013824
0.00013824
0.00013824
0.00013824
0.00013824
0.00013824
0.00013824
0.00013824
0.00013824
0.00013824
0.00013824
0.00013824
0.00013824
0.00013824
0.00013824
0.00013824
0.00013824
0.00013824
0.00013824
0.00013824
0.00013824
0.00013824
0.00013824
0.00013824
0.00013824
0.00013824
0.00013824
0.00013824
0.00013824
0.00013824
0.00013824
0.00013824
0.00013824
0.00013824
0.00013824
0.00013824
0.00013824
0.00013824
0.00013824
0.00013824
0.00013824
0.00013824
0.00013824
0.00013824
0.00013824
0.00013824
0.00013824
0.00013824
0.00013824
0.00013824
0.00013824
0.00013824
0.00013824
0.00013824
0.00013824
0.00013824
0.00013824
0.00013824
0.00013824
0.00013824
0.00013824
0.00013824
0.00013824
0.00013824
0.00013824
0.00013824
0.00013824
0.00013824
0.00013824
0.00013824
0.00013824
0.00013824
0.00013824
0.00013824
0.00013824
0.00013824
0.00013824
0.00013824
0.00013824
0.00013824