/*--------------------------------*- C++ -*----------------------------------*\
| =========                 |                                                 |
| \\      /  F ield         | OpenFOAM: The Open Source CFD Toolbox           |
|  \\    /   O peration     | Version:  2406                                  |
|   \\  /    A nd           | Website:  www.openfoam.com                      |
|    \\/     M anipulation  |                                                 |
\*---------------------------------------------------------------------------*/
FoamFile
{
    version     2.0;
    format      ascii;
    arch        "LSB;label=32;scalar=64";
    class       volScalarField;
    location    "7.85";
    object      Da;
}
// * * * * * * * * * * * * * * * * * * * * * * * * * * * * * * * * * * * * * //

dimensions      [0 2 -1 0 0 0 0];

internalField   nonuniform List<scalar> 
14400
(
4.79108e-05
4.78822e-05
4.78399e-05
4.77986e-05
4.77663e-05
4.77445e-05
4.7732e-05
4.77273e-05
4.77307e-05
4.7745e-05
4.77747e-05
4.78244e-05
4.78941e-05
4.79727e-05
4.80295e-05
4.80167e-05
4.79041e-05
4.77273e-05
4.75233e-05
4.73063e-05
4.70728e-05
4.6814e-05
4.65233e-05
4.62015e-05
4.58575e-05
4.55061e-05
4.5164e-05
4.48464e-05
4.45651e-05
4.43283e-05
4.41425e-05
4.40144e-05
4.39553e-05
4.39878e-05
4.41644e-05
4.46358e-05
4.6047e-05
5.31221e-05
7.7889e-05
7.8e-05
7.8e-05
7.8e-05
7.8e-05
7.8e-05
7.8e-05
7.8e-05
7.8e-05
7.8e-05
7.8e-05
7.8e-05
7.8e-05
7.8e-05
7.8e-05
7.8e-05
7.8e-05
7.8e-05
7.8e-05
7.8e-05
7.8e-05
7.64535e-05
4.89252e-05
4.55839e-05
4.46884e-05
4.43737e-05
4.42981e-05
4.43637e-05
4.45357e-05
4.48016e-05
4.51583e-05
4.56036e-05
4.61297e-05
4.67147e-05
4.73174e-05
4.78812e-05
4.83485e-05
4.86773e-05
4.88486e-05
4.88659e-05
4.8752e-05
4.85449e-05
4.82948e-05
4.80605e-05
4.79102e-05
4.79388e-05
4.83442e-05
4.98511e-05
5.72537e-05
7.7875e-05
6.24746e-05
4.99574e-05
4.77809e-05
4.70661e-05
4.67733e-05
4.6673e-05
4.6681e-05
4.67553e-05
4.68695e-05
4.70045e-05
4.71444e-05
4.72758e-05
4.73858e-05
4.74624e-05
4.74942e-05
4.74729e-05
4.73956e-05
4.7267e-05
4.70971e-05
4.68985e-05
4.6685e-05
4.64704e-05
4.62687e-05
4.60946e-05
4.59642e-05
4.58979e-05
4.59267e-05
4.6109e-05
4.6585e-05
4.78247e-05
5.23021e-05
7.72075e-05
4.77614e-05
4.77055e-05
4.76263e-05
4.75509e-05
4.74915e-05
4.74509e-05
4.74274e-05
4.74194e-05
4.74271e-05
4.74532e-05
4.75031e-05
4.75827e-05
4.76951e-05
4.78311e-05
4.79525e-05
4.79776e-05
4.78249e-05
4.75894e-05
4.73397e-05
4.7095e-05
4.68498e-05
4.65921e-05
4.63132e-05
4.60113e-05
4.56924e-05
4.53682e-05
4.50528e-05
4.47597e-05
4.44996e-05
4.4281e-05
4.4111e-05
4.39974e-05
4.3953e-05
4.40032e-05
4.42074e-05
4.47477e-05
4.65338e-05
5.84692e-05
7.79916e-05
7.8e-05
7.8e-05
7.8e-05
7.8e-05
7.8e-05
7.8e-05
7.8e-05
7.8e-05
7.8e-05
7.8e-05
7.8e-05
7.8e-05
7.8e-05
7.8e-05
7.8e-05
7.8e-05
7.8e-05
7.8e-05
7.8e-05
7.8e-05
7.77609e-05
5.17224e-05
4.59911e-05
4.47915e-05
4.44065e-05
4.43008e-05
4.43459e-05
4.44985e-05
4.47425e-05
4.5072e-05
4.54831e-05
4.59668e-05
4.65029e-05
4.70552e-05
4.75739e-05
4.80075e-05
4.83164e-05
4.84816e-05
4.85055e-05
4.84097e-05
4.82308e-05
4.80167e-05
4.78232e-05
4.77168e-05
4.77949e-05
4.8278e-05
5.00973e-05
6.08503e-05
7.79817e-05
6.81133e-05
5.0381e-05
4.78272e-05
4.70172e-05
4.66749e-05
4.65393e-05
4.65181e-05
4.65668e-05
4.66588e-05
4.67758e-05
4.69032e-05
4.70281e-05
4.71378e-05
4.72187e-05
4.72565e-05
4.72394e-05
4.71633e-05
4.7035e-05
4.68681e-05
4.66776e-05
4.64778e-05
4.62819e-05
4.61026e-05
4.5953e-05
4.58482e-05
4.58088e-05
4.58681e-05
4.60934e-05
4.66645e-05
4.83439e-05
5.70279e-05
7.79403e-05
4.75771e-05
4.74514e-05
4.7291e-05
4.71483e-05
4.70399e-05
4.69666e-05
4.69246e-05
4.69109e-05
4.69249e-05
4.69699e-05
4.70528e-05
4.71842e-05
4.73764e-05
4.76338e-05
4.79218e-05
4.80807e-05
4.77796e-05
4.73886e-05
4.70381e-05
4.67392e-05
4.64721e-05
4.62157e-05
4.59556e-05
4.56859e-05
4.54078e-05
4.51283e-05
4.48575e-05
4.46057e-05
4.43827e-05
4.41966e-05
4.40556e-05
4.39697e-05
4.39546e-05
4.40417e-05
4.43051e-05
4.49805e-05
4.73647e-05
6.83085e-05
7.8e-05
7.8e-05
7.8e-05
7.8e-05
7.8e-05
7.8e-05
7.8e-05
7.8e-05
7.8e-05
7.8e-05
7.8e-05
7.8e-05
7.8e-05
7.8e-05
7.8e-05
7.8e-05
7.8e-05
7.8e-05
7.8e-05
7.8e-05
7.8e-05
7.79968e-05
6.06018e-05
4.68502e-05
4.49939e-05
4.44751e-05
4.43116e-05
4.43168e-05
4.44327e-05
4.46362e-05
4.49171e-05
4.5268e-05
4.56787e-05
4.6131e-05
4.65958e-05
4.70342e-05
4.74052e-05
4.76756e-05
4.7828e-05
4.78639e-05
4.78021e-05
4.76755e-05
4.75271e-05
4.7408e-05
4.73828e-05
4.75545e-05
4.81792e-05
5.0493e-05
6.74263e-05
7.79996e-05
7.55785e-05
5.14508e-05
4.80445e-05
4.69797e-05
4.65258e-05
4.63214e-05
4.62477e-05
4.62526e-05
4.63079e-05
4.63958e-05
4.65034e-05
4.66191e-05
4.67304e-05
4.68213e-05
4.68719e-05
4.68633e-05
4.67874e-05
4.66568e-05
4.6492e-05
4.63126e-05
4.61338e-05
4.59675e-05
4.58243e-05
4.57153e-05
4.56544e-05
4.56634e-05
4.57805e-05
4.60894e-05
4.68353e-05
4.92729e-05
6.74091e-05
7.79998e-05
4.75913e-05
4.72855e-05
4.69685e-05
4.67208e-05
4.65457e-05
4.64314e-05
4.63671e-05
4.63461e-05
4.63665e-05
4.64321e-05
4.65534e-05
4.67501e-05
4.70567e-05
4.75286e-05
4.82362e-05
4.90668e-05
4.80298e-05
4.72476e-05
4.67164e-05
4.6336e-05
4.60374e-05
4.57793e-05
4.55382e-05
4.53025e-05
4.50684e-05
4.48384e-05
4.46181e-05
4.44149e-05
4.42367e-05
4.40918e-05
4.39895e-05
4.39427e-05
4.39728e-05
4.41237e-05
4.45064e-05
4.55095e-05
4.94051e-05
7.71675e-05
7.8e-05
7.8e-05
7.8e-05
7.8e-05
7.8e-05
7.8e-05
7.8e-05
7.8e-05
7.8e-05
7.8e-05
7.8e-05
7.8e-05
7.8e-05
7.8e-05
7.8e-05
7.8e-05
7.8e-05
7.8e-05
7.8e-05
7.8e-05
7.8e-05
7.8e-05
7.2056e-05
4.80091e-05
4.53352e-05
4.46028e-05
4.43452e-05
4.42895e-05
4.43529e-05
4.45023e-05
4.47213e-05
4.49988e-05
4.53229e-05
4.56775e-05
4.60401e-05
4.63828e-05
4.66765e-05
4.68971e-05
4.70318e-05
4.70819e-05
4.70627e-05
4.70014e-05
4.69349e-05
4.69101e-05
4.69938e-05
4.73089e-05
4.81916e-05
5.124e-05
7.4788e-05
7.8e-05
7.79939e-05
6.16849e-05
4.90685e-05
4.70809e-05
4.64056e-05
4.60951e-05
4.59507e-05
4.59015e-05
4.59142e-05
4.59703e-05
4.60582e-05
4.61676e-05
4.62864e-05
4.63967e-05
4.64706e-05
4.64759e-05
4.63947e-05
4.62524e-05
4.60819e-05
4.59088e-05
4.5749e-05
4.5613e-05
4.55091e-05
4.54468e-05
4.54403e-05
4.55145e-05
4.57201e-05
4.61788e-05
4.72848e-05
5.11849e-05
7.6864e-05
7.8e-05
4.84679e-05
4.7461e-05
4.67992e-05
4.63831e-05
4.6119e-05
4.59557e-05
4.58662e-05
4.58367e-05
4.58629e-05
4.59496e-05
4.61129e-05
4.63885e-05
4.6859e-05
4.77416e-05
4.98667e-05
5.72961e-05
4.92876e-05
4.73252e-05
4.64701e-05
4.59729e-05
4.56301e-05
4.5363e-05
4.51346e-05
4.49267e-05
4.47311e-05
4.45459e-05
4.43733e-05
4.42179e-05
4.40863e-05
4.39866e-05
4.39298e-05
4.39331e-05
4.40278e-05
4.42859e-05
4.49323e-05
4.7177e-05
6.67799e-05
7.79999e-05
7.8e-05
7.8e-05
7.8e-05
7.8e-05
7.8e-05
7.8e-05
7.8e-05
7.8e-05
7.8e-05
7.8e-05
7.8e-05
7.8e-05
7.8e-05
7.8e-05
7.8e-05
7.8e-05
7.8e-05
7.8e-05
7.8e-05
7.8e-05
7.8e-05
7.8e-05
7.79542e-05
5.45955e-05
4.62639e-05
4.4869e-05
4.44314e-05
4.42831e-05
4.42777e-05
4.43631e-05
4.45145e-05
4.4716e-05
4.49545e-05
4.52154e-05
4.54818e-05
4.57343e-05
4.59542e-05
4.61262e-05
4.62427e-05
4.6306e-05
4.63285e-05
4.6332e-05
4.63484e-05
4.64238e-05
4.66372e-05
4.71762e-05
4.88158e-05
5.819e-05
7.79651e-05
7.8e-05
7.8e-05
7.57572e-05
5.08732e-05
4.74664e-05
4.64181e-05
4.59439e-05
4.57046e-05
4.55923e-05
4.55604e-05
4.55871e-05
4.56607e-05
4.57724e-05
4.59116e-05
4.60598e-05
4.61777e-05
4.62104e-05
4.61065e-05
4.59303e-05
4.57352e-05
4.55546e-05
4.5404e-05
4.52916e-05
4.52234e-05
4.52086e-05
4.52637e-05
4.54229e-05
4.57685e-05
4.65532e-05
4.90508e-05
6.81127e-05
7.79999e-05
7.8e-05
5.49714e-05
4.86605e-05
4.69648e-05
4.62323e-05
4.58348e-05
4.56057e-05
4.54847e-05
4.54446e-05
4.54771e-05
4.55884e-05
4.58037e-05
4.6186e-05
4.69274e-05
4.888e-05
5.98237e-05
7.77644e-05
5.4171e-05
4.78898e-05
4.63921e-05
4.57161e-05
4.53063e-05
4.50169e-05
4.47905e-05
4.46003e-05
4.44333e-05
4.42843e-05
4.41526e-05
4.40407e-05
4.39542e-05
4.39016e-05
4.38969e-05
4.39643e-05
4.41535e-05
4.45959e-05
4.58415e-05
5.2236e-05
7.78722e-05
7.8e-05
7.8e-05
7.8e-05
7.8e-05
7.8e-05
7.8e-05
7.8e-05
7.8e-05
7.8e-05
7.8e-05
7.8e-05
7.8e-05
7.8e-05
7.8e-05
7.8e-05
7.8e-05
7.8e-05
7.8e-05
7.8e-05
7.8e-05
7.8e-05
7.8e-05
7.8e-05
7.8e-05
7.30891e-05
4.81771e-05
4.53871e-05
4.46161e-05
4.43239e-05
4.42283e-05
4.42407e-05
4.43224e-05
4.44518e-05
4.46135e-05
4.47941e-05
4.49806e-05
4.51598e-05
4.53201e-05
4.54529e-05
4.55551e-05
4.56299e-05
4.56884e-05
4.57495e-05
4.58431e-05
4.60198e-05
4.6383e-05
4.72273e-05
4.99867e-05
7.17626e-05
7.8e-05
7.8e-05
7.8e-05
7.79999e-05
6.8198e-05
4.94039e-05
4.6823e-05
4.59775e-05
4.55821e-05
4.53861e-05
4.53042e-05
4.53042e-05
4.53726e-05
4.55027e-05
4.56877e-05
4.59162e-05
4.61331e-05
4.6246e-05
4.60571e-05
4.57899e-05
4.5528e-05
4.5313e-05
4.51544e-05
4.50546e-05
4.50168e-05
4.50513e-05
4.51817e-05
4.54628e-05
4.60575e-05
4.77035e-05
5.66891e-05
7.79626e-05
7.8e-05
7.8e-05
7.77533e-05
5.464e-05
4.79624e-05
4.64149e-05
4.57669e-05
4.54293e-05
4.52611e-05
4.52058e-05
4.52476e-05
4.53955e-05
4.56927e-05
4.6252e-05
4.7538e-05
5.24222e-05
7.75372e-05
7.8e-05
7.26159e-05
4.96193e-05
4.66408e-05
4.56313e-05
4.51048e-05
4.477e-05
4.45304e-05
4.43456e-05
4.41966e-05
4.40745e-05
4.39766e-05
4.39038e-05
4.38611e-05
4.38593e-05
4.39179e-05
4.40768e-05
4.44274e-05
4.52646e-05
4.82336e-05
7.49188e-05
7.8e-05
7.8e-05
7.8e-05
7.8e-05
7.8e-05
7.8e-05
7.8e-05
7.8e-05
7.8e-05
7.8e-05
7.8e-05
7.8e-05
7.8e-05
7.8e-05
7.8e-05
7.8e-05
7.8e-05
7.8e-05
7.8e-05
7.8e-05
7.8e-05
7.8e-05
7.8e-05
7.8e-05
7.8e-05
7.79986e-05
6.16825e-05
4.69585e-05
4.50311e-05
4.44557e-05
4.42304e-05
4.41566e-05
4.41667e-05
4.42287e-05
4.43238e-05
4.44388e-05
4.45629e-05
4.46868e-05
4.48033e-05
4.49083e-05
4.50014e-05
4.50875e-05
4.51777e-05
4.5291e-05
4.54607e-05
4.57519e-05
4.63318e-05
4.7911e-05
5.65371e-05
7.79508e-05
7.8e-05
7.8e-05
7.8e-05
7.8e-05
7.79942e-05
6.0759e-05
4.85247e-05
4.64206e-05
4.56823e-05
4.53473e-05
4.51955e-05
4.51681e-05
4.52447e-05
4.54254e-05
4.57148e-05
4.61533e-05
4.66616e-05
4.72194e-05
4.65511e-05
4.60002e-05
4.55534e-05
4.52453e-05
4.50478e-05
4.4946e-05
4.49353e-05
4.50304e-05
4.52768e-05
4.57814e-05
4.69457e-05
5.13457e-05
7.74179e-05
7.8e-05
7.8e-05
7.8e-05
7.8e-05
7.74972e-05
5.22259e-05
4.74324e-05
4.60912e-05
4.55079e-05
4.52508e-05
4.51677e-05
4.52284e-05
4.5448e-05
4.59278e-05
4.69281e-05
5.02707e-05
7.58642e-05
7.8e-05
7.8e-05
7.79967e-05
6.14643e-05
4.79628e-05
4.58513e-05
4.50719e-05
4.46474e-05
4.4372e-05
4.41776e-05
4.4035e-05
4.39315e-05
4.3862e-05
4.38263e-05
4.38304e-05
4.38897e-05
4.40374e-05
4.43582e-05
4.51062e-05
4.76465e-05
6.93141e-05
7.8e-05
7.8e-05
7.8e-05
7.8e-05
7.8e-05
7.8e-05
7.8e-05
7.8e-05
7.8e-05
7.8e-05
7.8e-05
7.8e-05
7.8e-05
7.8e-05
7.8e-05
7.8e-05
7.8e-05
7.8e-05
7.8e-05
7.8e-05
7.8e-05
7.8e-05
7.8e-05
7.8e-05
7.8e-05
7.8e-05
7.8e-05
7.78312e-05
5.18657e-05
4.59603e-05
4.47557e-05
4.4322e-05
4.41364e-05
4.40674e-05
4.40634e-05
4.40991e-05
4.41598e-05
4.42352e-05
4.43181e-05
4.44038e-05
4.44904e-05
4.45801e-05
4.46794e-05
4.48015e-05
4.49695e-05
4.5228e-05
4.5678e-05
4.66231e-05
4.96619e-05
7.41454e-05
7.8e-05
7.8e-05
7.8e-05
7.8e-05
7.8e-05
7.8e-05
7.79789e-05
5.84256e-05
4.83025e-05
4.62744e-05
4.561e-05
4.5319e-05
4.52528e-05
4.53638e-05
4.56857e-05
4.62653e-05
4.76102e-05
4.94536e-05
5.4678e-05
4.91637e-05
4.72554e-05
4.60589e-05
4.54746e-05
4.51648e-05
4.50369e-05
4.50556e-05
4.52517e-05
4.57671e-05
4.69588e-05
5.05788e-05
7.66736e-05
7.8e-05
7.8e-05
7.8e-05
7.8e-05
7.8e-05
7.8e-05
7.73969e-05
5.27804e-05
4.76866e-05
4.61089e-05
4.56224e-05
4.54654e-05
4.55804e-05
4.59942e-05
4.71768e-05
5.02272e-05
7.5104e-05
7.8e-05
7.8e-05
7.8e-05
7.8e-05
7.77953e-05
5.26369e-05
4.67033e-05
4.53059e-05
4.46966e-05
4.43427e-05
4.41155e-05
4.39651e-05
4.38723e-05
4.38291e-05
4.38349e-05
4.3898e-05
4.40475e-05
4.43509e-05
4.5066e-05
4.74497e-05
6.56398e-05
7.79999e-05
7.8e-05
7.8e-05
7.8e-05
7.8e-05
7.8e-05
7.8e-05
7.8e-05
7.8e-05
7.8e-05
7.8e-05
7.8e-05
7.8e-05
7.8e-05
7.8e-05
7.8e-05
7.8e-05
7.8e-05
7.8e-05
7.8e-05
7.8e-05
7.8e-05
7.8e-05
7.8e-05
7.8e-05
7.8e-05
7.8e-05
7.8e-05
7.8e-05
7.62015e-05
4.86644e-05
4.54701e-05
4.45892e-05
4.42235e-05
4.40515e-05
4.39736e-05
4.39503e-05
4.39623e-05
4.39976e-05
4.4049e-05
4.41128e-05
4.41889e-05
4.4281e-05
4.43984e-05
4.45593e-05
4.47972e-05
4.51884e-05
4.59605e-05
4.82392e-05
6.46135e-05
7.79994e-05
7.8e-05
7.8e-05
7.8e-05
7.8e-05
7.8e-05
7.8e-05
7.8e-05
7.79823e-05
6.2018e-05
4.88178e-05
4.67094e-05
4.59365e-05
4.57849e-05
4.60045e-05
4.69243e-05
4.88156e-05
5.87721e-05
7.53916e-05
7.79188e-05
7.4297e-05
5.57485e-05
4.8379e-05
4.64621e-05
4.57533e-05
4.55379e-05
4.56056e-05
4.60495e-05
4.77759e-05
5.34227e-05
7.70792e-05
7.8e-05
7.8e-05
7.8e-05
7.8e-05
7.8e-05
7.8e-05
7.8e-05
7.8e-05
7.77669e-05
5.95115e-05
4.87223e-05
4.72478e-05
4.66752e-05
4.70984e-05
4.84057e-05
5.52984e-05
7.66958e-05
7.8e-05
7.8e-05
7.8e-05
7.8e-05
7.8e-05
7.8e-05
7.68755e-05
4.98924e-05
4.61818e-05
4.50656e-05
4.45142e-05
4.42041e-05
4.40198e-05
4.39284e-05
4.39158e-05
4.39831e-05
4.41445e-05
4.44809e-05
4.51647e-05
4.75931e-05
6.59031e-05
7.79998e-05
7.8e-05
7.8e-05
7.8e-05
7.8e-05
7.8e-05
7.8e-05
7.8e-05
7.8e-05
7.8e-05
7.8e-05
7.8e-05
7.8e-05
7.8e-05
7.8e-05
7.8e-05
7.8e-05
7.8e-05
7.8e-05
7.8e-05
7.8e-05
7.8e-05
7.8e-05
7.8e-05
7.8e-05
7.8e-05
7.8e-05
7.8e-05
7.8e-05
7.8e-05
7.8e-05
7.34467e-05
4.81447e-05
4.53227e-05
4.45196e-05
4.4171e-05
4.39885e-05
4.38939e-05
4.38547e-05
4.38525e-05
4.38772e-05
4.39251e-05
4.39971e-05
4.40989e-05
4.42444e-05
4.44624e-05
4.48104e-05
4.54479e-05
4.70791e-05
5.56145e-05
7.79564e-05
7.8e-05
7.8e-05
7.8e-05
7.8e-05
7.8e-05
7.8e-05
7.8e-05
7.8e-05
7.8e-05
7.79978e-05
7.12985e-05
5.26681e-05
4.8491e-05
4.805e-05
4.86703e-05
5.46474e-05
7.19176e-05
7.79894e-05
7.8e-05
7.8e-05
7.8e-05
7.79566e-05
6.94186e-05
5.13188e-05
4.8188e-05
4.75987e-05
4.78576e-05
4.92526e-05
6.46348e-05
7.78726e-05
7.8e-05
7.8e-05
7.8e-05
7.8e-05
7.8e-05
7.8e-05
7.8e-05
7.8e-05
7.8e-05
7.8e-05
7.7993e-05
7.18922e-05
5.87307e-05
5.2694e-05
5.70341e-05
6.97144e-05
7.79477e-05
7.8e-05
7.8e-05
7.8e-05
7.8e-05
7.8e-05
7.8e-05
7.8e-05
7.8e-05
7.64718e-05
5.01186e-05
4.64804e-05
4.51312e-05
4.45762e-05
4.42834e-05
4.41763e-05
4.42164e-05
4.44261e-05
4.48287e-05
4.58835e-05
4.82038e-05
7.01901e-05
7.79999e-05
7.8e-05
7.8e-05
7.8e-05
7.8e-05
7.8e-05
7.8e-05
7.8e-05
7.8e-05
7.8e-05
7.8e-05
7.8e-05
7.8e-05
7.8e-05
7.8e-05
7.8e-05
7.8e-05
7.8e-05
7.8e-05
7.8e-05
7.8e-05
7.8e-05
7.8e-05
7.8e-05
7.8e-05
7.8e-05
7.8e-05
7.8e-05
7.8e-05
7.8e-05
7.8e-05
7.8e-05
7.8e-05
7.22905e-05
4.81013e-05
4.536e-05
4.45671e-05
4.41765e-05
4.3966e-05
4.38591e-05
4.38137e-05
4.3811e-05
4.38463e-05
4.39216e-05
4.40449e-05
4.42394e-05
4.45628e-05
4.51386e-05
4.64129e-05
5.12883e-05
7.76168e-05
7.8e-05
7.8e-05
7.8e-05
7.8e-05
7.8e-05
7.8e-05
7.8e-05
7.8e-05
7.8e-05
7.8e-05
7.8e-05
7.8e-05
7.78107e-05
7.22247e-05
6.83978e-05
7.34068e-05
7.79307e-05
7.8e-05
7.8e-05
7.8e-05
7.8e-05
7.8e-05
7.8e-05
7.8e-05
7.76169e-05
7.04152e-05
6.42934e-05
6.77839e-05
7.61329e-05
7.79996e-05
7.8e-05
7.8e-05
7.8e-05
7.8e-05
7.8e-05
7.8e-05
7.8e-05
7.8e-05
7.8e-05
7.8e-05
7.8e-05
7.8e-05
7.8e-05
7.7989e-05
7.77948e-05
7.79754e-05
7.8e-05
7.8e-05
7.8e-05
7.8e-05
7.8e-05
7.8e-05
7.8e-05
7.8e-05
7.8e-05
7.8e-05
7.8e-05
7.73583e-05
5.5789e-05
4.75542e-05
4.58281e-05
4.50399e-05
4.4868e-05
4.50522e-05
4.59178e-05
4.73585e-05
5.4899e-05
7.57062e-05
7.8e-05
7.8e-05
7.8e-05
7.8e-05
7.8e-05
7.8e-05
7.8e-05
7.8e-05
7.8e-05
7.8e-05
7.8e-05
7.8e-05
7.8e-05
7.8e-05
7.8e-05
7.8e-05
7.8e-05
7.8e-05
7.8e-05
7.8e-05
7.8e-05
7.8e-05
7.8e-05
7.8e-05
7.8e-05
7.8e-05
7.8e-05
7.8e-05
7.8e-05
7.8e-05
7.8e-05
7.8e-05
7.8e-05
7.8e-05
7.8e-05
7.39851e-05
4.86848e-05
4.58777e-05
4.47562e-05
4.42625e-05
4.4036e-05
4.39247e-05
4.38827e-05
4.39057e-05
4.39973e-05
4.41682e-05
4.44633e-05
4.50555e-05
4.64021e-05
5.06885e-05
7.72525e-05
7.8e-05
7.8e-05
7.8e-05
7.8e-05
7.8e-05
7.8e-05
7.8e-05
7.8e-05
7.8e-05
7.8e-05
7.8e-05
7.8e-05
7.8e-05
7.8e-05
7.8e-05
7.8e-05
7.8e-05
7.8e-05
7.8e-05
7.8e-05
7.8e-05
7.8e-05
7.8e-05
7.8e-05
7.8e-05
7.8e-05
7.8e-05
7.79994e-05
7.79999e-05
7.8e-05
7.8e-05
7.8e-05
7.8e-05
7.8e-05
7.8e-05
7.8e-05
7.8e-05
7.8e-05
7.8e-05
7.8e-05
7.8e-05
7.8e-05
7.8e-05
7.8e-05
7.8e-05
7.8e-05
7.8e-05
7.8e-05
7.8e-05
7.8e-05
7.8e-05
7.8e-05
7.8e-05
7.8e-05
7.8e-05
7.8e-05
7.8e-05
7.8e-05
7.8e-05
7.79752e-05
6.93823e-05
5.29132e-05
4.78429e-05
4.7442e-05
4.81884e-05
5.58474e-05
7.0656e-05
7.79722e-05
7.8e-05
7.8e-05
7.8e-05
7.8e-05
7.8e-05
7.8e-05
7.8e-05
7.8e-05
7.8e-05
7.8e-05
7.8e-05
7.8e-05
7.8e-05
7.8e-05
7.8e-05
7.8e-05
7.8e-05
7.8e-05
7.8e-05
7.8e-05
7.8e-05
7.8e-05
7.8e-05
7.8e-05
7.8e-05
7.8e-05
7.8e-05
7.8e-05
7.8e-05
7.8e-05
7.8e-05
7.8e-05
7.8e-05
7.8e-05
7.8e-05
7.8e-05
7.8e-05
7.67463e-05
5.38483e-05
4.69295e-05
4.51191e-05
4.45907e-05
4.43263e-05
4.41904e-05
4.41937e-05
4.4342e-05
4.46486e-05
4.5209e-05
4.7026e-05
5.38561e-05
7.75261e-05
7.8e-05
7.8e-05
7.8e-05
7.8e-05
7.8e-05
7.8e-05
7.8e-05
7.8e-05
7.8e-05
7.8e-05
7.8e-05
7.8e-05
7.8e-05
7.8e-05
7.8e-05
7.8e-05
7.8e-05
7.8e-05
7.8e-05
7.8e-05
7.8e-05
7.8e-05
7.8e-05
7.8e-05
7.8e-05
7.8e-05
7.8e-05
7.8e-05
7.8e-05
7.8e-05
7.8e-05
7.8e-05
7.8e-05
7.8e-05
7.8e-05
7.8e-05
7.8e-05
7.8e-05
7.8e-05
7.8e-05
7.8e-05
7.8e-05
7.8e-05
7.8e-05
7.8e-05
7.8e-05
7.8e-05
7.8e-05
7.8e-05
7.8e-05
7.8e-05
7.8e-05
7.8e-05
7.8e-05
7.8e-05
7.8e-05
7.8e-05
7.8e-05
7.8e-05
7.8e-05
7.8e-05
7.8e-05
7.79093e-05
7.48992e-05
7.31813e-05
7.62953e-05
7.79804e-05
7.8e-05
7.8e-05
7.8e-05
7.8e-05
7.8e-05
7.8e-05
7.8e-05
7.8e-05
7.8e-05
7.8e-05
7.8e-05
7.8e-05
7.8e-05
7.8e-05
7.8e-05
7.8e-05
7.8e-05
7.8e-05
7.8e-05
7.8e-05
7.8e-05
7.8e-05
7.8e-05
7.8e-05
7.8e-05
7.8e-05
7.8e-05
7.8e-05
7.8e-05
7.8e-05
7.8e-05
7.8e-05
7.8e-05
7.8e-05
7.8e-05
7.8e-05
7.8e-05
7.8e-05
7.8e-05
7.8e-05
7.79529e-05
6.665e-05
4.84579e-05
4.67045e-05
4.56967e-05
4.50988e-05
4.50351e-05
4.54644e-05
4.65033e-05
4.81252e-05
6.37049e-05
7.79369e-05
7.8e-05
7.8e-05
7.8e-05
7.8e-05
7.8e-05
7.8e-05
7.8e-05
7.8e-05
7.8e-05
7.8e-05
7.8e-05
7.8e-05
7.8e-05
7.8e-05
7.8e-05
7.8e-05
7.8e-05
7.8e-05
7.8e-05
7.8e-05
7.8e-05
7.8e-05
7.8e-05
7.8e-05
7.8e-05
7.8e-05
7.8e-05
7.8e-05
7.8e-05
7.8e-05
7.8e-05
7.8e-05
7.8e-05
7.8e-05
7.8e-05
7.8e-05
7.8e-05
7.8e-05
7.8e-05
7.8e-05
7.8e-05
7.8e-05
7.8e-05
7.8e-05
7.8e-05
7.8e-05
7.8e-05
7.8e-05
7.8e-05
7.8e-05
7.8e-05
7.8e-05
7.8e-05
7.8e-05
7.8e-05
7.8e-05
7.8e-05
7.8e-05
7.8e-05
7.8e-05
7.8e-05
7.8e-05
7.8e-05
7.8e-05
7.8e-05
7.8e-05
7.8e-05
7.8e-05
7.8e-05
7.8e-05
7.8e-05
7.8e-05
7.8e-05
7.8e-05
7.8e-05
7.8e-05
7.8e-05
7.8e-05
7.8e-05
7.8e-05
7.8e-05
7.8e-05
7.8e-05
7.8e-05
7.8e-05
7.8e-05
7.8e-05
7.8e-05
7.8e-05
7.8e-05
7.8e-05
7.8e-05
7.8e-05
7.8e-05
7.8e-05
7.8e-05
7.8e-05
7.8e-05
7.8e-05
7.8e-05
7.8e-05
7.8e-05
7.8e-05
7.8e-05
7.8e-05
7.8e-05
7.8e-05
7.8e-05
7.8e-05
7.79999e-05
7.66397e-05
6.57149e-05
5.39399e-05
4.86954e-05
4.82192e-05
5.09733e-05
6.17284e-05
7.47412e-05
7.79996e-05
7.8e-05
7.8e-05
7.8e-05
7.8e-05
7.8e-05
7.8e-05
7.8e-05
7.8e-05
7.8e-05
7.8e-05
7.8e-05
7.8e-05
7.8e-05
7.8e-05
7.8e-05
7.8e-05
7.8e-05
7.8e-05
7.8e-05
7.8e-05
7.8e-05
7.8e-05
7.8e-05
7.8e-05
7.8e-05
7.8e-05
7.8e-05
7.8e-05
7.8e-05
7.8e-05
7.8e-05
7.8e-05
7.8e-05
7.8e-05
7.8e-05
7.8e-05
7.8e-05
7.8e-05
7.8e-05
7.8e-05
7.8e-05
7.8e-05
7.8e-05
7.8e-05
7.8e-05
7.8e-05
7.8e-05
7.8e-05
7.8e-05
7.8e-05
7.8e-05
7.8e-05
7.8e-05
7.8e-05
7.8e-05
7.8e-05
7.8e-05
7.8e-05
7.8e-05
7.8e-05
7.8e-05
7.8e-05
7.8e-05
7.8e-05
7.8e-05
7.8e-05
7.8e-05
7.8e-05
7.8e-05
7.8e-05
7.8e-05
7.8e-05
7.8e-05
7.8e-05
7.8e-05
7.8e-05
7.8e-05
7.8e-05
7.8e-05
7.8e-05
7.8e-05
7.8e-05
7.8e-05
7.8e-05
7.8e-05
7.8e-05
7.8e-05
7.8e-05
7.8e-05
7.8e-05
7.8e-05
7.8e-05
7.8e-05
7.8e-05
7.8e-05
7.8e-05
7.8e-05
7.8e-05
7.8e-05
7.8e-05
7.8e-05
7.8e-05
7.8e-05
7.8e-05
7.8e-05
7.8e-05
7.8e-05
7.8e-05
7.8e-05
7.8e-05
7.8e-05
7.8e-05
7.79999e-05
7.79504e-05
7.70103e-05
7.64329e-05
7.77609e-05
7.79987e-05
7.8e-05
7.8e-05
7.8e-05
7.8e-05
7.8e-05
7.8e-05
7.8e-05
7.8e-05
7.8e-05
7.8e-05
7.8e-05
7.8e-05
7.8e-05
7.8e-05
7.8e-05
7.8e-05
7.8e-05
7.8e-05
7.8e-05
7.8e-05
7.8e-05
7.8e-05
7.8e-05
7.8e-05
7.8e-05
7.8e-05
7.8e-05
7.8e-05
7.8e-05
7.8e-05
7.8e-05
7.8e-05
7.8e-05
7.8e-05
7.8e-05
7.8e-05
7.8e-05
7.8e-05
7.8e-05
7.8e-05
7.8e-05
7.8e-05
7.8e-05
7.8e-05
7.8e-05
7.8e-05
7.8e-05
7.8e-05
7.8e-05
7.8e-05
7.8e-05
7.8e-05
7.8e-05
7.8e-05
7.8e-05
7.8e-05
7.8e-05
7.8e-05
7.8e-05
7.8e-05
7.8e-05
7.8e-05
7.8e-05
7.8e-05
7.8e-05
7.8e-05
7.8e-05
7.8e-05
7.8e-05
7.8e-05
7.8e-05
7.8e-05
7.8e-05
7.8e-05
7.8e-05
7.8e-05
7.8e-05
7.8e-05
7.8e-05
7.8e-05
7.8e-05
7.8e-05
7.8e-05
7.8e-05
7.8e-05
7.8e-05
7.8e-05
7.8e-05
7.8e-05
7.8e-05
7.8e-05
7.8e-05
7.8e-05
7.8e-05
7.8e-05
7.8e-05
7.8e-05
7.8e-05
7.8e-05
7.8e-05
7.8e-05
7.8e-05
7.8e-05
7.8e-05
7.8e-05
7.8e-05
7.8e-05
7.8e-05
7.8e-05
7.8e-05
7.8e-05
7.8e-05
7.8e-05
7.8e-05
7.8e-05
7.8e-05
7.8e-05
7.8e-05
7.8e-05
7.8e-05
7.8e-05
7.8e-05
7.8e-05
7.8e-05
7.8e-05
7.8e-05
7.8e-05
7.8e-05
7.8e-05
7.8e-05
7.8e-05
7.8e-05
7.8e-05
7.8e-05
7.8e-05
7.8e-05
7.8e-05
7.8e-05
7.8e-05
7.8e-05
7.8e-05
7.8e-05
7.8e-05
7.8e-05
7.8e-05
7.8e-05
7.8e-05
7.8e-05
7.8e-05
7.8e-05
7.8e-05
7.8e-05
7.8e-05
7.8e-05
7.8e-05
7.8e-05
7.8e-05
7.8e-05
7.8e-05
7.8e-05
7.8e-05
7.8e-05
7.8e-05
7.8e-05
7.8e-05
7.8e-05
7.8e-05
7.8e-05
7.8e-05
7.8e-05
7.8e-05
7.8e-05
7.8e-05
7.8e-05
7.8e-05
7.8e-05
7.8e-05
7.8e-05
7.8e-05
7.8e-05
7.8e-05
7.8e-05
7.8e-05
7.8e-05
7.8e-05
7.8e-05
7.8e-05
7.8e-05
7.8e-05
7.8e-05
7.8e-05
7.8e-05
7.8e-05
7.8e-05
7.8e-05
7.8e-05
7.8e-05
7.8e-05
7.8e-05
7.8e-05
7.8e-05
7.8e-05
7.8e-05
7.8e-05
7.8e-05
7.8e-05
7.8e-05
7.8e-05
7.8e-05
7.8e-05
7.8e-05
7.8e-05
7.8e-05
7.8e-05
7.8e-05
7.8e-05
7.8e-05
7.8e-05
7.8e-05
7.8e-05
7.8e-05
7.8e-05
7.8e-05
7.8e-05
7.8e-05
7.8e-05
7.8e-05
7.8e-05
7.8e-05
7.8e-05
7.8e-05
7.8e-05
7.8e-05
7.8e-05
7.8e-05
7.8e-05
7.8e-05
7.8e-05
7.8e-05
7.8e-05
7.8e-05
7.8e-05
7.8e-05
7.8e-05
7.8e-05
7.8e-05
7.8e-05
7.8e-05
7.8e-05
7.8e-05
7.8e-05
7.8e-05
7.8e-05
7.8e-05
7.8e-05
7.8e-05
7.8e-05
7.8e-05
7.8e-05
7.8e-05
7.8e-05
7.8e-05
7.8e-05
7.8e-05
7.8e-05
7.8e-05
7.8e-05
7.8e-05
7.8e-05
7.8e-05
7.8e-05
7.8e-05
7.8e-05
7.8e-05
7.8e-05
7.8e-05
7.8e-05
7.8e-05
7.8e-05
7.8e-05
7.8e-05
7.8e-05
7.8e-05
7.8e-05
7.8e-05
7.8e-05
7.8e-05
7.8e-05
7.8e-05
7.8e-05
7.8e-05
7.8e-05
7.8e-05
7.8e-05
7.8e-05
7.8e-05
7.8e-05
7.8e-05
7.8e-05
7.8e-05
7.8e-05
7.8e-05
7.8e-05
7.8e-05
7.8e-05
7.8e-05
7.8e-05
7.8e-05
7.8e-05
7.8e-05
7.8e-05
7.8e-05
7.8e-05
7.8e-05
7.8e-05
7.8e-05
7.8e-05
7.8e-05
7.8e-05
7.8e-05
7.8e-05
7.8e-05
7.8e-05
7.8e-05
7.8e-05
7.8e-05
7.8e-05
7.8e-05
7.8e-05
7.8e-05
7.8e-05
7.8e-05
7.8e-05
7.8e-05
7.8e-05
7.8e-05
7.8e-05
7.8e-05
7.8e-05
7.8e-05
7.8e-05
7.8e-05
7.8e-05
7.8e-05
7.8e-05
7.8e-05
7.8e-05
7.8e-05
7.8e-05
7.8e-05
7.8e-05
7.8e-05
7.8e-05
7.8e-05
7.8e-05
7.8e-05
7.8e-05
7.8e-05
7.8e-05
7.8e-05
7.8e-05
7.8e-05
7.8e-05
7.8e-05
7.8e-05
7.8e-05
7.8e-05
7.8e-05
7.8e-05
7.8e-05
7.8e-05
7.8e-05
7.8e-05
7.8e-05
7.8e-05
7.8e-05
7.8e-05
7.8e-05
7.8e-05
7.8e-05
7.8e-05
7.8e-05
7.8e-05
7.8e-05
7.8e-05
7.8e-05
7.8e-05
7.8e-05
7.8e-05
7.8e-05
7.8e-05
7.8e-05
7.8e-05
7.8e-05
7.8e-05
7.8e-05
7.8e-05
7.8e-05
7.8e-05
7.8e-05
7.8e-05
7.8e-05
7.8e-05
7.8e-05
7.8e-05
7.8e-05
7.8e-05
7.8e-05
7.8e-05
7.8e-05
7.8e-05
7.8e-05
7.8e-05
7.8e-05
7.8e-05
7.8e-05
7.8e-05
7.8e-05
7.8e-05
7.8e-05
7.8e-05
7.8e-05
7.8e-05
7.8e-05
7.8e-05
7.8e-05
7.8e-05
7.8e-05
7.8e-05
7.8e-05
7.8e-05
7.8e-05
7.8e-05
7.8e-05
7.8e-05
7.8e-05
7.8e-05
7.8e-05
7.8e-05
7.8e-05
7.8e-05
7.8e-05
7.8e-05
7.8e-05
7.8e-05
7.8e-05
7.8e-05
7.8e-05
7.8e-05
7.8e-05
7.8e-05
7.8e-05
7.8e-05
7.8e-05
7.8e-05
7.8e-05
7.8e-05
7.8e-05
7.8e-05
7.8e-05
7.8e-05
7.8e-05
7.8e-05
7.8e-05
7.8e-05
7.8e-05
7.8e-05
7.8e-05
7.8e-05
7.8e-05
7.8e-05
7.8e-05
7.8e-05
7.8e-05
7.8e-05
7.8e-05
7.8e-05
7.8e-05
7.8e-05
7.8e-05
7.8e-05
7.8e-05
7.8e-05
7.8e-05
7.8e-05
7.8e-05
7.8e-05
7.8e-05
7.8e-05
7.8e-05
7.8e-05
7.8e-05
7.8e-05
7.8e-05
7.8e-05
7.8e-05
7.8e-05
7.8e-05
7.8e-05
7.8e-05
7.8e-05
7.8e-05
7.8e-05
7.8e-05
7.8e-05
7.8e-05
7.8e-05
7.8e-05
7.8e-05
7.8e-05
7.8e-05
7.8e-05
7.8e-05
7.8e-05
7.8e-05
7.8e-05
7.8e-05
7.8e-05
7.8e-05
7.8e-05
7.8e-05
7.8e-05
7.8e-05
7.8e-05
7.8e-05
7.8e-05
7.8e-05
7.8e-05
7.8e-05
7.8e-05
7.8e-05
7.8e-05
7.8e-05
7.8e-05
7.8e-05
7.8e-05
7.8e-05
7.8e-05
7.8e-05
7.8e-05
7.8e-05
7.8e-05
7.8e-05
7.8e-05
7.8e-05
7.8e-05
7.8e-05
7.8e-05
7.8e-05
7.8e-05
7.8e-05
7.8e-05
7.8e-05
7.8e-05
7.8e-05
7.8e-05
7.8e-05
7.8e-05
7.8e-05
7.8e-05
7.8e-05
7.8e-05
7.8e-05
7.8e-05
7.8e-05
7.8e-05
7.8e-05
7.8e-05
7.8e-05
7.8e-05
7.8e-05
7.8e-05
7.8e-05
7.8e-05
7.8e-05
7.8e-05
7.8e-05
7.8e-05
7.8e-05
7.8e-05
7.8e-05
7.8e-05
7.8e-05
7.8e-05
7.8e-05
7.8e-05
7.8e-05
7.8e-05
7.8e-05
7.8e-05
7.8e-05
7.8e-05
7.8e-05
7.8e-05
7.8e-05
7.8e-05
7.8e-05
7.8e-05
7.8e-05
7.8e-05
7.8e-05
7.8e-05
7.8e-05
7.8e-05
7.8e-05
7.8e-05
7.8e-05
7.8e-05
7.8e-05
7.8e-05
7.8e-05
7.8e-05
7.8e-05
7.8e-05
7.8e-05
7.8e-05
7.8e-05
7.8e-05
7.8e-05
7.8e-05
7.8e-05
7.8e-05
7.8e-05
7.8e-05
7.8e-05
7.8e-05
7.8e-05
7.8e-05
7.8e-05
7.8e-05
7.8e-05
7.8e-05
7.8e-05
7.8e-05
7.8e-05
7.8e-05
7.8e-05
7.8e-05
7.8e-05
7.8e-05
7.8e-05
7.8e-05
7.8e-05
7.8e-05
7.8e-05
7.8e-05
7.8e-05
7.8e-05
7.8e-05
7.8e-05
7.8e-05
7.8e-05
7.8e-05
7.8e-05
7.8e-05
7.8e-05
7.8e-05
7.8e-05
7.8e-05
7.8e-05
7.8e-05
7.8e-05
7.8e-05
7.8e-05
7.8e-05
7.8e-05
7.8e-05
7.8e-05
7.8e-05
7.8e-05
7.8e-05
7.8e-05
7.8e-05
7.8e-05
7.8e-05
7.8e-05
7.8e-05
7.8e-05
7.8e-05
7.8e-05
7.8e-05
7.8e-05
7.8e-05
7.8e-05
7.8e-05
7.8e-05
7.8e-05
7.8e-05
7.8e-05
7.8e-05
7.8e-05
7.8e-05
7.8e-05
7.8e-05
7.8e-05
7.8e-05
7.8e-05
7.8e-05
7.8e-05
7.8e-05
7.8e-05
7.8e-05
7.8e-05
7.8e-05
7.8e-05
7.8e-05
7.8e-05
7.8e-05
7.8e-05
7.8e-05
7.8e-05
7.8e-05
7.8e-05
7.8e-05
7.8e-05
7.8e-05
7.8e-05
7.8e-05
7.8e-05
7.8e-05
7.8e-05
7.8e-05
7.8e-05
7.8e-05
7.8e-05
7.8e-05
7.8e-05
7.8e-05
7.8e-05
7.8e-05
7.8e-05
7.8e-05
7.8e-05
7.8e-05
7.8e-05
7.8e-05
7.8e-05
7.8e-05
7.8e-05
7.8e-05
7.8e-05
7.8e-05
7.8e-05
7.8e-05
7.8e-05
7.8e-05
7.8e-05
7.8e-05
7.8e-05
7.8e-05
7.8e-05
7.8e-05
7.8e-05
7.8e-05
7.8e-05
7.8e-05
7.8e-05
7.8e-05
7.8e-05
7.8e-05
7.8e-05
7.8e-05
7.8e-05
7.8e-05
7.8e-05
7.8e-05
7.8e-05
7.8e-05
7.8e-05
7.8e-05
7.8e-05
7.8e-05
7.8e-05
7.8e-05
7.8e-05
7.8e-05
7.8e-05
7.8e-05
7.8e-05
7.8e-05
7.8e-05
7.8e-05
7.8e-05
7.8e-05
7.8e-05
7.8e-05
7.8e-05
7.8e-05
7.8e-05
7.8e-05
7.8e-05
7.8e-05
7.8e-05
7.8e-05
7.8e-05
7.8e-05
7.8e-05
7.8e-05
7.8e-05
7.8e-05
7.8e-05
7.8e-05
7.8e-05
7.8e-05
7.8e-05
7.8e-05
7.8e-05
7.8e-05
7.8e-05
7.8e-05
7.8e-05
7.8e-05
7.8e-05
7.8e-05
7.8e-05
7.8e-05
7.8e-05
7.8e-05
7.8e-05
7.8e-05
7.8e-05
7.8e-05
7.8e-05
7.8e-05
7.8e-05
7.8e-05
7.8e-05
7.8e-05
7.8e-05
7.8e-05
7.8e-05
7.8e-05
7.8e-05
7.8e-05
7.8e-05
7.8e-05
7.8e-05
7.8e-05
7.8e-05
7.8e-05
7.8e-05
7.8e-05
7.8e-05
7.8e-05
7.8e-05
7.8e-05
7.8e-05
7.8e-05
7.8e-05
7.8e-05
7.8e-05
7.8e-05
7.8e-05
7.8e-05
7.8e-05
7.8e-05
7.8e-05
7.8e-05
7.8e-05
7.8e-05
7.8e-05
7.8e-05
7.8e-05
7.8e-05
7.8e-05
7.8e-05
7.8e-05
7.8e-05
7.8e-05
7.8e-05
7.8e-05
7.8e-05
7.8e-05
7.8e-05
7.8e-05
7.8e-05
7.8e-05
7.8e-05
7.8e-05
7.8e-05
7.8e-05
7.8e-05
7.8e-05
7.8e-05
7.8e-05
7.8e-05
7.8e-05
7.8e-05
7.8e-05
7.8e-05
7.8e-05
7.8e-05
7.8e-05
7.8e-05
7.8e-05
7.8e-05
7.8e-05
7.8e-05
7.8e-05
7.8e-05
7.8e-05
7.8e-05
7.8e-05
7.8e-05
7.8e-05
7.8e-05
7.8e-05
7.8e-05
7.8e-05
7.8e-05
7.8e-05
7.8e-05
7.8e-05
7.8e-05
7.8e-05
7.8e-05
7.8e-05
7.8e-05
7.8e-05
7.8e-05
7.8e-05
7.8e-05
7.8e-05
7.8e-05
7.8e-05
7.8e-05
7.8e-05
7.8e-05
7.8e-05
7.8e-05
7.8e-05
7.8e-05
7.8e-05
7.8e-05
7.8e-05
7.8e-05
7.8e-05
7.8e-05
7.8e-05
7.8e-05
7.8e-05
7.8e-05
7.8e-05
7.8e-05
7.8e-05
7.8e-05
7.8e-05
7.8e-05
7.8e-05
7.8e-05
7.8e-05
7.8e-05
7.8e-05
7.8e-05
7.8e-05
7.8e-05
7.8e-05
7.8e-05
7.8e-05
7.8e-05
7.8e-05
7.8e-05
7.8e-05
7.8e-05
7.8e-05
7.8e-05
7.8e-05
7.8e-05
7.8e-05
7.8e-05
7.8e-05
7.8e-05
7.8e-05
7.8e-05
7.8e-05
7.8e-05
7.8e-05
7.8e-05
7.8e-05
7.8e-05
7.8e-05
7.8e-05
7.8e-05
7.8e-05
7.8e-05
7.8e-05
7.8e-05
7.8e-05
7.8e-05
7.8e-05
7.8e-05
7.8e-05
7.8e-05
7.8e-05
7.8e-05
7.8e-05
7.8e-05
7.8e-05
7.8e-05
7.8e-05
7.8e-05
7.8e-05
7.8e-05
7.8e-05
7.8e-05
7.8e-05
7.8e-05
7.8e-05
7.8e-05
7.8e-05
7.8e-05
7.8e-05
7.8e-05
7.8e-05
7.8e-05
7.8e-05
7.8e-05
7.8e-05
7.8e-05
7.8e-05
7.8e-05
7.8e-05
7.8e-05
7.8e-05
7.8e-05
7.8e-05
7.8e-05
7.8e-05
7.8e-05
7.8e-05
7.8e-05
7.8e-05
7.8e-05
7.8e-05
7.8e-05
7.8e-05
7.8e-05
7.8e-05
7.8e-05
7.8e-05
7.8e-05
7.8e-05
7.8e-05
7.8e-05
7.8e-05
7.8e-05
7.8e-05
7.8e-05
7.8e-05
7.8e-05
7.8e-05
7.8e-05
7.8e-05
7.8e-05
7.8e-05
7.8e-05
7.8e-05
7.8e-05
7.8e-05
7.8e-05
7.8e-05
7.8e-05
7.8e-05
7.8e-05
7.8e-05
7.8e-05
7.8e-05
7.8e-05
7.8e-05
7.8e-05
7.8e-05
7.8e-05
7.8e-05
7.8e-05
7.8e-05
7.8e-05
7.8e-05
7.8e-05
7.8e-05
7.8e-05
7.8e-05
7.8e-05
7.8e-05
7.8e-05
7.8e-05
7.8e-05
7.8e-05
7.8e-05
7.8e-05
7.8e-05
7.8e-05
7.8e-05
7.8e-05
7.8e-05
7.8e-05
7.8e-05
7.8e-05
7.8e-05
7.8e-05
7.8e-05
7.8e-05
7.8e-05
7.8e-05
7.8e-05
7.8e-05
7.8e-05
7.8e-05
7.8e-05
7.8e-05
7.8e-05
7.8e-05
7.8e-05
7.8e-05
7.8e-05
7.8e-05
7.8e-05
7.8e-05
7.8e-05
7.8e-05
7.8e-05
7.8e-05
7.8e-05
7.8e-05
7.8e-05
7.8e-05
7.8e-05
7.8e-05
7.8e-05
7.8e-05
7.8e-05
7.8e-05
7.8e-05
7.8e-05
7.8e-05
7.8e-05
7.8e-05
7.8e-05
7.8e-05
7.8e-05
7.8e-05
7.8e-05
7.8e-05
7.8e-05
7.8e-05
7.8e-05
7.8e-05
7.8e-05
7.8e-05
7.8e-05
7.8e-05
7.8e-05
7.8e-05
7.8e-05
7.8e-05
7.8e-05
7.8e-05
7.8e-05
7.8e-05
7.8e-05
7.8e-05
7.8e-05
7.8e-05
7.8e-05
7.8e-05
7.8e-05
7.8e-05
7.8e-05
7.8e-05
7.8e-05
7.8e-05
7.8e-05
7.8e-05
7.8e-05
7.8e-05
7.8e-05
7.8e-05
7.8e-05
7.8e-05
7.8e-05
7.8e-05
7.8e-05
7.8e-05
7.8e-05
7.8e-05
7.8e-05
7.8e-05
7.8e-05
7.8e-05
7.8e-05
7.8e-05
7.8e-05
7.8e-05
7.8e-05
7.8e-05
7.8e-05
7.8e-05
7.8e-05
7.8e-05
7.8e-05
7.8e-05
7.8e-05
7.8e-05
7.8e-05
7.8e-05
7.8e-05
7.8e-05
7.8e-05
7.8e-05
7.8e-05
7.8e-05
7.8e-05
7.8e-05
7.8e-05
7.8e-05
7.8e-05
7.8e-05
7.8e-05
7.8e-05
7.8e-05
7.8e-05
7.8e-05
7.8e-05
7.8e-05
7.8e-05
7.8e-05
7.8e-05
7.8e-05
7.8e-05
7.8e-05
7.8e-05
7.8e-05
7.8e-05
7.8e-05
7.8e-05
7.8e-05
7.8e-05
7.8e-05
7.8e-05
7.8e-05
7.8e-05
7.8e-05
7.8e-05
7.8e-05
7.8e-05
7.8e-05
7.8e-05
7.8e-05
7.8e-05
7.8e-05
7.8e-05
7.8e-05
7.8e-05
7.8e-05
7.8e-05
7.8e-05
7.8e-05
7.8e-05
7.8e-05
7.8e-05
7.8e-05
7.8e-05
7.8e-05
7.8e-05