/*--------------------------------*- C++ -*----------------------------------*\
| =========                 |                                                 |
| \\      /  F ield         | OpenFOAM: The Open Source CFD Toolbox           |
|  \\    /   O peration     | Version:  2406                                  |
|   \\  /    A nd           | Website:  www.openfoam.com                      |
|    \\/     M anipulation  |                                                 |
\*---------------------------------------------------------------------------*/
FoamFile
{
    version     2.0;
    format      ascii;
    arch        "LSB;label=32;scalar=64";
    class       volScalarField;
    location    "3.6";
    object      C;
}
// * * * * * * * * * * * * * * * * * * * * * * * * * * * * * * * * * * * * * //

dimensions      [1 -3 0 0 0 0 0];

internalField   nonuniform List<scalar> 
14400
(
0.534958
0.522868
0.50661
0.491176
0.478465
0.469512
0.464943
0.465134
0.470267
0.480361
0.495259
0.514583
0.537607
0.562803
0.585472
0.596883
0.595941
0.581845
0.560497
0.540538
0.524456
0.513478
0.508362
0.509659
0.517818
0.533235
0.556266
0.587231
0.626397
0.673905
0.729553
0.791663
0.848364
0.887336
0.915396
0.940093
0.961864
0.981048
0.99791
1.01266
1.02545
1.03642
1.04567
1.05328
1.05932
1.06384
1.06687
1.06845
1.06858
1.06727
1.06453
1.06032
1.05464
1.04744
1.03869
1.02831
1.01624
1.00238
0.986613
0.968798
0.948757
0.926266
0.901047
0.872745
0.839848
0.789721
0.721926
0.658397
0.602191
0.553886
0.513407
0.48047
0.454735
0.435871
0.423585
0.417635
0.417831
0.424035
0.436144
0.454077
0.47773
0.506911
0.541149
0.578853
0.610451
0.628906
0.638832
0.643271
0.642407
0.636067
0.621886
0.595749
0.563902
0.534851
0.510219
0.490499
0.475786
0.465944
0.460622
0.459223
0.460863
0.464307
0.467924
0.469795
0.468504
0.465499
0.46273
0.461861
0.46416
0.470551
0.481673
0.49793
0.519516
0.546401
0.578158
0.613173
0.64233
0.659284
0.668649
0.673192
0.550106
0.537977
0.520332
0.503724
0.490116
0.480533
0.47559
0.475648
0.480881
0.491305
0.506758
0.526848
0.550832
0.577092
0.598342
0.606816
0.606478
0.595536
0.574192
0.553187
0.536199
0.524544
0.518958
0.519977
0.528045
0.543556
0.566858
0.598258
0.637994
0.686145
0.74241
0.804881
0.856606
0.891238
0.918758
0.943018
0.96445
0.983371
1.00003
1.01461
1.02727
1.03814
1.0473
1.05485
1.06084
1.06532
1.06833
1.06989
1.07002
1.06871
1.06598
1.0618
1.05615
1.049
1.04031
1.03001
1.01803
1.00428
0.988661
0.971024
0.951205
0.928995
0.90413
0.876273
0.844904
0.799459
0.734454
0.670273
0.613214
0.564169
0.523076
0.489648
0.463542
0.444425
0.432002
0.42603
0.426319
0.43273
0.44516
0.463524
0.487708
0.517482
0.552244
0.590019
0.619039
0.634969
0.644318
0.648573
0.647882
0.642155
0.630564
0.607856
0.576152
0.546575
0.52144
0.501377
0.486525
0.476797
0.471889
0.471248
0.474024
0.479008
0.484445
0.487657
0.485016
0.480181
0.475862
0.473848
0.47538
0.481345
0.49234
0.508719
0.530626
0.557986
0.590224
0.625002
0.650505
0.664739
0.67347
0.677736
0.573626
0.565653
0.547094
0.528584
0.51332
0.502533
0.49687
0.496674
0.502106
0.513174
0.529705
0.551211
0.576646
0.603148
0.618768
0.624529
0.624731
0.618726
0.600709
0.578143
0.559565
0.546663
0.540186
0.54066
0.548548
0.56425
0.5881
0.620366
0.661227
0.710564
0.767402
0.826903
0.869184
0.899036
0.925379
0.948773
0.969547
0.987959
1.00422
1.01848
1.03089
1.04155
1.05056
1.05798
1.06387
1.06828
1.07124
1.07277
1.07288
1.07159
1.06888
1.06475
1.05917
1.05211
1.04353
1.03338
1.02159
1.00807
0.992724
0.975433
0.956045
0.934378
0.910205
0.883247
0.85315
0.815403
0.759174
0.69374
0.635184
0.584775
0.5425
0.508108
0.481269
0.46165
0.448955
0.442939
0.443413
0.450236
0.463303
0.482517
0.507752
0.538702
0.574376
0.610645
0.633565
0.646539
0.654898
0.658821
0.658395
0.653633
0.644512
0.628416
0.600256
0.569858
0.543805
0.523095
0.50795
0.498416
0.494296
0.495109
0.500068
0.508089
0.517484
0.524612
0.518032
0.509219
0.501847
0.497632
0.497692
0.502848
0.513623
0.530261
0.55277
0.58099
0.613965
0.64483
0.663463
0.675098
0.682755
0.686546
0.601299
0.598134
0.585491
0.565265
0.547842
0.53539
0.528728
0.528184
0.533902
0.545888
0.563966
0.587396
0.614209
0.634008
0.643038
0.64772
0.648599
0.645734
0.635836
0.61445
0.594301
0.579814
0.57211
0.571788
0.579405
0.595398
0.620068
0.653603
0.696129
0.747201
0.804518
0.85062
0.882723
0.910207
0.934948
0.957147
0.977005
0.994703
1.01039
1.02421
1.03626
1.04663
1.0554
1.06264
1.06839
1.07269
1.07557
1.07706
1.07715
1.07587
1.07321
1.06914
1.06366
1.05674
1.04833
1.03839
1.02687
1.01367
0.998733
0.981938
0.963165
0.942265
0.919066
0.89336
0.864909
0.833304
0.789526
0.727444
0.667929
0.615801
0.571853
0.536057
0.508137
0.487775
0.474676
0.468596
0.469343
0.476776
0.490778
0.511223
0.537947
0.570557
0.607289
0.635841
0.651695
0.662686
0.669916
0.673416
0.673243
0.669469
0.662226
0.651759
0.63318
0.603883
0.57705
0.555551
0.53992
0.530589
0.52754
0.53036
0.538179
0.549894
0.56298
0.567185
0.563426
0.550948
0.539868
0.532766
0.530792
0.534844
0.545378
0.56245
0.58568
0.614571
0.646239
0.667108
0.679789
0.689435
0.695906
0.699146
0.631906
0.630092
0.625156
0.611839
0.593018
0.578755
0.570988
0.570054
0.576108
0.589128
0.608964
0.633535
0.653488
0.664252
0.670636
0.674714
0.676209
0.675183
0.671979
0.660704
0.640004
0.623913
0.614788
0.613406
0.620649
0.637036
0.662787
0.697824
0.742184
0.793729
0.838994
0.871694
0.898994
0.924122
0.947058
0.96786
0.986624
1.00345
1.01845
1.0317
1.0433
1.0533
1.06178
1.06878
1.07435
1.07851
1.0813
1.08273
1.08281
1.08154
1.07893
1.07495
1.0696
1.06285
1.05466
1.045
1.03381
1.02103
1.0066
0.990421
0.972409
0.952453
0.930432
0.90622
0.879694
0.850767
0.818078
0.771514
0.711656
0.657449
0.611363
0.573771
0.544452
0.523123
0.509495
0.503327
0.504429
0.512655
0.527863
0.549807
0.578134
0.611807
0.643341
0.661596
0.673522
0.682594
0.688662
0.691685
0.691692
0.688775
0.683117
0.675036
0.664828
0.646805
0.620462
0.598476
0.582069
0.572852
0.571028
0.576191
0.586532
0.599171
0.605085
0.605226
0.605472
0.600052
0.588095
0.578433
0.574083
0.576867
0.587239
0.605016
0.628639
0.65688
0.676837
0.688979
0.699091
0.706947
0.712289
0.714986
0.664328
0.663268
0.661387
0.656919
0.646502
0.631501
0.623092
0.621838
0.628194
0.641804
0.662554
0.678894
0.688878
0.695271
0.700539
0.70429
0.706342
0.706754
0.70582
0.703617
0.694315
0.678203
0.668077
0.665332
0.672092
0.688982
0.716081
0.752267
0.797188
0.836971
0.867378
0.893056
0.917436
0.940229
0.961301
0.980613
0.998178
1.01404
1.02825
1.04086
1.05193
1.06151
1.06964
1.07636
1.08172
1.08572
1.08839
1.08975
1.08981
1.08856
1.08601
1.08214
1.07694
1.07039
1.06247
1.05313
1.04234
1.03005
1.0162
1.00074
0.983598
0.964704
0.943989
0.921393
0.896879
0.870462
0.842238
0.809596
0.764163
0.709397
0.661096
0.621511
0.59055
0.568069
0.553798
0.547518
0.549036
0.558203
0.57486
0.598367
0.627643
0.658578
0.67743
0.688736
0.698203
0.705506
0.710455
0.712971
0.713063
0.710822
0.706431
0.700192
0.692545
0.683794
0.669196
0.650486
0.63323
0.624114
0.623337
0.630573
0.637894
0.642036
0.641758
0.641758
0.642143
0.642829
0.639217
0.632588
0.626139
0.627812
0.638034
0.656556
0.676731
0.692887
0.703258
0.712609
0.72065
0.726974
0.731316
0.733522
0.69781
0.697265
0.696354
0.695425
0.693519
0.688185
0.682782
0.681527
0.68798
0.699082
0.709767
0.716763
0.722205
0.727413
0.73196
0.735565
0.738113
0.739672
0.740491
0.740989
0.741309
0.736906
0.730538
0.726414
0.732841
0.750235
0.77871
0.813327
0.844696
0.870101
0.893112
0.915717
0.937466
0.958056
0.977304
0.995111
1.01144
1.02627
1.03964
1.05155
1.06205
1.07115
1.0789
1.08532
1.09043
1.09425
1.0968
1.09808
1.09811
1.09689
1.0944
1.09066
1.08563
1.07932
1.07168
1.06271
1.05237
1.04061
1.02742
1.01274
0.996539
0.978777
0.959428
0.938484
0.915969
0.891962
0.866622
0.840218
0.809898
0.769365
0.720481
0.679348
0.646663
0.622947
0.607942
0.60152
0.603467
0.613579
0.631861
0.656243
0.682433
0.699378
0.709033
0.717704
0.725049
0.73077
0.734679
0.736681
0.736769
0.735018
0.731593
0.726755
0.720874
0.714435
0.707974
0.698801
0.688693
0.681238
0.679138
0.680015
0.680261
0.678714
0.678003
0.677904
0.678377
0.67948
0.681456
0.681754
0.681542
0.68451
0.692985
0.704221
0.71458
0.722375
0.73021
0.73755
0.743925
0.748983
0.75248
0.754264
0.731837
0.731628
0.731338
0.731219
0.731638
0.732942
0.733013
0.734256
0.738383
0.74352
0.747114
0.751268
0.755765
0.760216
0.764323
0.767897
0.770874
0.77333
0.775484
0.7777
0.780496
0.784518
0.786949
0.790573
0.799551
0.816112
0.837689
0.859704
0.879315
0.89911
0.919254
0.939234
0.958655
0.977225
0.994747
1.01109
1.02618
1.03999
1.05248
1.06367
1.07355
1.08216
1.0895
1.09558
1.10043
1.10405
1.10646
1.10767
1.10767
1.10647
1.10406
1.10045
1.09562
1.08955
1.08224
1.07366
1.0638
1.05263
1.04012
1.02627
1.01104
0.994436
0.976461
0.957144
0.936551
0.914797
0.892068
0.86864
0.844891
0.819111
0.785996
0.746297
0.712439
0.68776
0.67196
0.66538
0.667659
0.678081
0.697385
0.714977
0.727429
0.734579
0.741569
0.748
0.753516
0.757847
0.76081
0.762305
0.762312
0.760888
0.758167
0.754361
0.749763
0.744739
0.739712
0.735146
0.730947
0.726359
0.722701
0.718914
0.716158
0.714479
0.713633
0.713479
0.71398
0.715188
0.717266
0.720477
0.724829
0.7292
0.734606
0.739745
0.745357
0.751483
0.757658
0.763456
0.768517
0.772553
0.775355
0.77679
0.766073
0.76607
0.76615
0.766474
0.767253
0.768688
0.770865
0.773502
0.775902
0.778555
0.78176
0.785429
0.789371
0.793363
0.79722
0.800825
0.804155
0.807289
0.810414
0.813832
0.817953
0.823303
0.830541
0.839963
0.850794
0.864116
0.878446
0.893737
0.910343
0.927768
0.945558
0.963311
0.980693
0.997443
1.01337
1.02832
1.04222
1.055
1.06663
1.07708
1.08635
1.09443
1.10134
1.10708
1.11165
1.11507
1.11734
1.11845
1.11843
1.11725
1.11493
1.11146
1.10683
1.10104
1.09407
1.0859
1.07654
1.06597
1.05418
1.04116
1.02692
1.01147
0.994836
0.977081
0.958293
0.938606
0.918213
0.897381
0.876453
0.855865
0.835435
0.81094
0.784576
0.76073
0.744204
0.737482
0.739782
0.747189
0.755262
0.761242
0.765214
0.769862
0.774665
0.77921
0.783169
0.786293
0.788409
0.789417
0.789287
0.788056
0.785825
0.782759
0.779077
0.775045
0.770943
0.767021
0.763364
0.759894
0.756372
0.753308
0.750969
0.74941
0.748573
0.7484
0.748874
0.750028
0.751935
0.754672
0.758207
0.762288
0.766427
0.770836
0.775576
0.780544
0.785481
0.7901
0.794133
0.797356
0.7996
0.800749
0.800313
0.80043
0.800718
0.801273
0.802212
0.803628
0.805532
0.807795
0.810217
0.8129
0.815942
0.819318
0.822927
0.826646
0.830367
0.834029
0.837633
0.841255
0.845053
0.84926
0.854179
0.860166
0.867574
0.876601
0.887187
0.898901
0.911769
0.925692
0.940552
0.956062
0.9719
0.987759
1.00336
1.01849
1.03295
1.04662
1.05938
1.07117
1.08195
1.09167
1.10032
1.10788
1.11436
1.11974
1.12404
1.12724
1.12936
1.13039
1.13033
1.12919
1.12696
1.12363
1.11922
1.1137
1.10708
1.09934
1.0905
1.08054
1.06946
1.05728
1.04401
1.02968
1.01433
0.998053
0.980934
0.963119
0.944799
0.926217
0.907677
0.889543
0.872236
0.856233
0.8401
0.82417
0.811132
0.803275
0.800515
0.800365
0.799672
0.800324
0.802275
0.804989
0.80802
0.811007
0.813657
0.815746
0.817115
0.817667
0.817363
0.816223
0.814319
0.811772
0.808743
0.80542
0.801995
0.798629
0.795411
0.792359
0.789482
0.786976
0.784998
0.78362
0.782849
0.782673
0.78309
0.784115
0.785772
0.788069
0.790947
0.794258
0.797814
0.801594
0.805568
0.809635
0.813623
0.81733
0.820559
0.82314
0.824937
0.825859
0.834435
0.834619
0.835018
0.835689
0.836694
0.838078
0.839841
0.841927
0.844271
0.846885
0.849791
0.852972
0.856373
0.859926
0.863574
0.86729
0.871091
0.875047
0.879283
0.883975
0.889339
0.895607
0.902987
0.911588
0.921386
0.932227
0.944037
0.956711
0.970109
0.984026
0.998223
1.01246
1.02651
1.04019
1.05333
1.06581
1.07751
1.08837
1.09832
1.10734
1.11538
1.12242
1.12847
1.1335
1.13751
1.1405
1.14246
1.1434
1.14332
1.14221
1.14007
1.1369
1.1327
1.12747
1.1212
1.1139
1.10557
1.09621
1.08584
1.07448
1.06215
1.0489
1.03477
1.01986
1.00427
0.988139
0.971646
0.95501
0.938493
0.922394
0.907044
0.892779
0.879879
0.868748
0.859233
0.851314
0.845137
0.840974
0.838777
0.838104
0.838574
0.839797
0.84142
0.843139
0.844704
0.845919
0.846639
0.846772
0.846275
0.845154
0.843455
0.841266
0.838702
0.835896
0.832986
0.83009
0.827292
0.824649
0.822221
0.820115
0.818428
0.817224
0.816529
0.816352
0.816697
0.81757
0.818971
0.820883
0.823252
0.825985
0.828975
0.832157
0.835466
0.838805
0.842045
0.845037
0.847634
0.849707
0.851149
0.851889
0.868373
0.868592
0.869047
0.869771
0.870798
0.872149
0.873825
0.875803
0.878056
0.880577
0.883366
0.886406
0.889667
0.893112
0.896714
0.900466
0.904394
0.908558
0.913056
0.918018
0.923594
0.929938
0.937177
0.94538
0.95454
0.964586
0.97544
0.987004
0.999149
1.01171
1.02451
1.03734
1.05004
1.06243
1.07438
1.08576
1.09648
1.10646
1.11564
1.12397
1.13142
1.13797
1.14359
1.14827
1.152
1.15478
1.15659
1.15745
1.15734
1.15626
1.15421
1.1512
1.14721
1.14227
1.13635
1.12948
1.12166
1.1129
1.10323
1.09265
1.08122
1.06898
1.056
1.04235
1.02815
1.01352
0.998636
0.983686
0.96889
0.954497
0.940767
0.927956
0.916295
0.905991
0.897083
0.889608
0.883637
0.879244
0.876357
0.874741
0.87412
0.874206
0.874723
0.875425
0.876103
0.876587
0.87675
0.876506
0.875812
0.874662
0.873083
0.871135
0.868902
0.866478
0.863964
0.861451
0.859017
0.856725
0.854639
0.852833
0.851376
0.850319
0.849691
0.849508
0.849776
0.850496
0.851659
0.85324
0.855194
0.857454
0.859943
0.862594
0.865334
0.868075
0.870714
0.873137
0.875234
0.876904
0.878065
0.87866
0.902092
0.902327
0.902808
0.903551
0.904576
0.905894
0.907507
0.909404
0.911572
0.914003
0.916689
0.919619
0.922776
0.92614
0.929702
0.933467
0.937461
0.941736
0.946366
0.951446
0.95708
0.963372
0.970403
0.978215
0.986807
0.996135
1.00613
1.01672
1.02777
1.03916
1.05075
1.06236
1.07387
1.08512
1.096
1.10639
1.1162
1.12536
1.13381
1.14149
1.14838
1.15444
1.15965
1.16399
1.16745
1.17001
1.17169
1.17245
1.17232
1.17127
1.16932
1.16646
1.1627
1.15803
1.15247
1.14602
1.13869
1.13051
1.1215
1.11168
1.1011
1.08982
1.07788
1.06539
1.05244
1.03916
1.02569
1.0122
0.998885
0.985938
0.973569
0.961983
0.951356
0.941835
0.933498
0.926394
0.920561
0.916008
0.912665
0.910381
0.908959
0.908183
0.907841
0.907736
0.907695
0.907575
0.907266
0.906691
0.905806
0.904597
0.903079
0.901291
0.899291
0.89715
0.89494
0.892735
0.8906
0.888594
0.886776
0.885202
0.883924
0.882984
0.882408
0.882213
0.882404
0.88298
0.883928
0.885225
0.88683
0.888692
0.890751
0.892943
0.8952
0.897447
0.899598
0.901565
0.903262
0.904609
0.905545
0.906025
0.935576
0.935817
0.936305
0.937049
0.93806
0.939345
0.940904
0.942733
0.944824
0.947172
0.949769
0.952607
0.955676
0.95897
0.962487
0.966238
0.970248
0.974558
0.979225
0.984318
0.98991
0.996069
1.00285
1.01027
1.01834
1.02701
1.03625
1.04596
1.05605
1.06642
1.07695
1.0875
1.09795
1.10819
1.1181
1.12758
1.13656
1.14497
1.15273
1.15981
1.16616
1.17176
1.17658
1.18059
1.18378
1.18615
1.18768
1.18837
1.18821
1.1872
1.18534
1.18263
1.17908
1.17469
1.16947
1.16343
1.15658
1.14896
1.14058
1.13147
1.1217
1.11129
1.10033
1.08889
1.07707
1.06499
1.05277
1.04055
1.02851
1.0168
1.00559
0.995048
0.985312
0.976497
0.96868
0.961908
0.956205
0.951561
0.947916
0.94516
0.943151
0.941727
0.940723
0.939982
0.939365
0.938752
0.938049
0.937187
0.936123
0.934841
0.933344
0.931658
0.929823
0.927889
0.925912
0.923949
0.922053
0.920277
0.918668
0.917274
0.916135
0.915284
0.914745
0.91453
0.914647
0.915091
0.915849
0.9169
0.918209
0.919734
0.921425
0.923226
0.925077
0.926914
0.928666
0.930263
0.931637
0.932727
0.933482
0.933869
0.968819
0.96906
0.969546
0.970281
0.971271
0.972521
0.974031
0.975799
0.977821
0.980092
0.982607
0.985362
0.988352
0.991577
0.995039
0.99875
1.00273
1.00702
1.01166
1.01669
1.02217
1.02815
1.03464
1.04168
1.04926
1.05734
1.06588
1.07481
1.08406
1.09353
1.10313
1.11273
1.12225
1.13158
1.14062
1.14929
1.15751
1.16521
1.17234
1.17885
1.1847
1.18986
1.1943
1.19801
1.20095
1.20312
1.20452
1.20513
1.20495
1.20397
1.2022
1.19965
1.1963
1.19218
1.18729
1.18164
1.17525
1.16816
1.16038
1.15194
1.14291
1.13332
1.12325
1.11277
1.10197
1.09095
1.07983
1.06874
1.0578
1.04715
1.03695
1.02731
1.01835
1.01016
1.00282
0.996354
0.990791
0.986115
0.982276
0.979193
0.976758
0.97485
0.97334
0.972105
0.971031
0.97002
0.96899
0.967884
0.96666
0.965299
0.963799
0.962175
0.960454
0.958671
0.95687
0.955094
0.953387
0.951791
0.950346
0.949091
0.948058
0.947273
0.946756
0.946518
0.946563
0.946887
0.947478
0.948316
0.949372
0.950611
0.951988
0.953458
0.954969
0.956465
0.957889
0.959185
0.960297
0.961178
0.961788
0.9621
1.00182
1.00206
1.00254
1.00326
1.00422
1.00544
1.0069
1.00861
1.01057
1.01277
1.01521
1.01788
1.02079
1.02395
1.02734
1.03099
1.03492
1.03914
1.0437
1.04862
1.05394
1.0597
1.0659
1.07256
1.07967
1.0872
1.09511
1.10335
1.11185
1.12052
1.12929
1.13806
1.14674
1.15526
1.16352
1.17144
1.17897
1.18603
1.19257
1.19856
1.20394
1.20869
1.21277
1.21618
1.21888
1.22088
1.22214
1.22268
1.22248
1.22154
1.21986
1.21745
1.2143
1.21044
1.20586
1.20059
1.19464
1.18804
1.18082
1.17302
1.16467
1.15584
1.14658
1.13697
1.12709
1.11702
1.10688
1.09676
1.08679
1.07708
1.06774
1.05888
1.05061
1.04298
1.03607
1.0299
1.02449
1.01983
1.01588
1.01258
1.00984
1.00757
1.00568
1.00407
1.00263
1.0013
1.00001
0.998698
0.997333
0.995895
0.994378
0.992788
0.991145
0.989473
0.987803
0.98617
0.984608
0.983153
0.981835
0.980686
0.979732
0.978994
0.978488
0.978222
0.978199
0.978415
0.978859
0.979514
0.980353
0.981347
0.98246
0.98365
0.984875
0.986087
0.987241
0.988289
0.989188
0.989899
0.990392
0.990643
1.03458
1.03482
1.03528
1.03599
1.03693
1.0381
1.03952
1.04118
1.04307
1.0452
1.04757
1.05017
1.053
1.05607
1.05939
1.06296
1.0668
1.07093
1.07537
1.08014
1.08528
1.0908
1.0967
1.10299
1.10966
1.11669
1.12403
1.13163
1.13945
1.14741
1.15544
1.16347
1.17141
1.17919
1.18674
1.194
1.20089
1.20736
1.21336
1.21886
1.2238
1.22817
1.23193
1.23505
1.23753
1.23935
1.2405
1.24097
1.24075
1.23984
1.23825
1.23598
1.23302
1.2294
1.22513
1.22021
1.21468
1.20855
1.20185
1.19463
1.18693
1.17879
1.17027
1.16145
1.15238
1.14317
1.13389
1.12464
1.11552
1.10662
1.09805
1.08989
1.08221
1.07509
1.06857
1.06269
1.05744
1.05284
1.04884
1.04539
1.04245
1.03993
1.03775
1.03585
1.03413
1.03255
1.03104
1.02956
1.02808
1.02657
1.02503
1.02346
1.02186
1.02027
1.0187
1.01717
1.01572
1.01438
1.01316
1.01209
1.01119
1.01048
1.00998
1.00968
1.0096
1.00972
1.01003
1.01053
1.01118
1.01197
1.01285
1.01381
1.01479
1.01577
1.0167
1.01754
1.01827
1.01884
1.01924
1.01944
1.06712
1.06734
1.0678
1.06848
1.06939
1.07053
1.07191
1.07351
1.07534
1.0774
1.07969
1.08221
1.08497
1.08795
1.09118
1.09465
1.09839
1.1024
1.1067
1.11131
1.11624
1.12151
1.12711
1.13305
1.1393
1.14585
1.15267
1.15971
1.16691
1.17423
1.1816
1.18896
1.19623
1.20336
1.21027
1.21691
1.22323
1.22916
1.23467
1.23971
1.24425
1.24826
1.25171
1.25457
1.25684
1.2585
1.25954
1.25994
1.25971
1.25884
1.25733
1.25518
1.25241
1.24903
1.24503
1.24045
1.2353
1.22961
1.22341
1.21673
1.20961
1.20211
1.19427
1.18615
1.17783
1.16938
1.16087
1.15239
1.14402
1.13585
1.12795
1.1204
1.11326
1.1066
1.10045
1.09483
1.08976
1.08524
1.08123
1.07771
1.07463
1.07193
1.06955
1.06743
1.06551
1.06373
1.06205
1.06044
1.05885
1.05728
1.05571
1.05414
1.05259
1.05105
1.04955
1.0481
1.04674
1.04547
1.04432
1.04331
1.04246
1.04177
1.04126
1.04093
1.04079
1.04082
1.04102
1.04138
1.04187
1.04248
1.04318
1.04393
1.04472
1.0455
1.04624
1.04692
1.0475
1.04796
1.04827
1.04844
1.09942
1.09964
1.10008
1.10074
1.10162
1.10273
1.10406
1.10561
1.10738
1.10937
1.11159
1.11403
1.1167
1.11959
1.12272
1.12609
1.1297
1.13358
1.13773
1.14215
1.14687
1.15188
1.15719
1.16278
1.16864
1.17476
1.18109
1.18761
1.19426
1.201
1.20778
1.21453
1.2212
1.22773
1.23407
1.24016
1.24594
1.25139
1.25644
1.26106
1.26523
1.2689
1.27207
1.27469
1.27677
1.27827
1.2792
1.27955
1.2793
1.27846
1.27704
1.27502
1.27242
1.26926
1.26553
1.26126
1.25648
1.25119
1.24544
1.23926
1.23269
1.22576
1.21854
1.21107
1.20342
1.19565
1.18783
1.18003
1.17233
1.1648
1.1575
1.15049
1.14384
1.13759
1.13178
1.12643
1.12154
1.11712
1.11314
1.1096
1.10643
1.10361
1.10109
1.09881
1.09673
1.09481
1.093
1.09127
1.08961
1.08798
1.08639
1.08482
1.08329
1.08179
1.08034
1.07896
1.07765
1.07645
1.07535
1.07439
1.07356
1.07288
1.07236
1.072
1.0718
1.07176
1.07186
1.0721
1.07245
1.07291
1.07344
1.07403
1.07465
1.07526
1.07585
1.07639
1.07685
1.07721
1.07747
1.0776
1.1315
1.13172
1.13214
1.13278
1.13364
1.1347
1.13599
1.13748
1.1392
1.14112
1.14327
1.14562
1.1482
1.151
1.15402
1.15727
1.16076
1.16449
1.16847
1.17271
1.17721
1.18196
1.18698
1.19224
1.19773
1.20344
1.20933
1.21537
1.22152
1.22774
1.23398
1.24019
1.24631
1.25231
1.25812
1.2637
1.26901
1.274
1.27863
1.28288
1.2867
1.29007
1.29296
1.29536
1.29726
1.29862
1.29946
1.29975
1.29949
1.29868
1.29733
1.29544
1.293
1.29004
1.28657
1.28259
1.27814
1.27324
1.26791
1.26219
1.25611
1.24971
1.24305
1.23617
1.22912
1.22196
1.21476
1.20758
1.20047
1.19351
1.18675
1.18023
1.17402
1.16816
1.16266
1.15755
1.15285
1.14855
1.14463
1.14109
1.13789
1.135
1.13238
1.13
1.1278
1.12577
1.12386
1.12205
1.12032
1.11866
1.11704
1.11547
1.11395
1.11248
1.11107
1.10973
1.10847
1.10731
1.10626
1.10532
1.10451
1.10383
1.1033
1.10291
1.10266
1.10254
1.10256
1.10269
1.10293
1.10326
1.10366
1.1041
1.10458
1.10505
1.10551
1.10593
1.1063
1.10658
1.10678
1.10688
1.16337
1.16358
1.16399
1.16461
1.16543
1.16646
1.1677
1.16915
1.1708
1.17266
1.17472
1.177
1.17948
1.18218
1.18509
1.18822
1.19157
1.19515
1.19896
1.203
1.20728
1.21179
1.21652
1.22147
1.22661
1.23194
1.23742
1.24302
1.24872
1.25446
1.26021
1.26592
1.27155
1.27706
1.2824
1.28752
1.29239
1.29697
1.30122
1.30511
1.30861
1.3117
1.31435
1.31655
1.31827
1.31951
1.32025
1.32049
1.32023
1.31945
1.31817
1.31639
1.31411
1.31134
1.3081
1.3044
1.30027
1.29571
1.29077
1.28547
1.27985
1.27394
1.26778
1.26143
1.25493
1.24833
1.24168
1.23505
1.22848
1.22202
1.21574
1.20968
1.20386
1.19835
1.19314
1.18828
1.18376
1.17959
1.17575
1.17224
1.16904
1.16612
1.16344
1.16098
1.15872
1.1566
1.15463
1.15276
1.15098
1.14928
1.14764
1.14607
1.14456
1.14311
1.14173
1.14042
1.1392
1.13807
1.13704
1.13612
1.13532
1.13465
1.1341
1.13367
1.13338
1.1332
1.13314
1.13319
1.13332
1.13354
1.13382
1.13415
1.1345
1.13486
1.13521
1.13554
1.13582
1.13604
1.13619
1.13627
1.19504
1.19524
1.19563
1.19623
1.19702
1.19802
1.19921
1.2006
1.20219
1.20398
1.20597
1.20816
1.21055
1.21314
1.21594
1.21895
1.22216
1.22558
1.22922
1.23306
1.23712
1.24138
1.24584
1.25049
1.25531
1.26028
1.26539
1.27059
1.27586
1.28117
1.28647
1.29174
1.29692
1.30199
1.30689
1.3116
1.31607
1.32027
1.32417
1.32773
1.33094
1.33377
1.3362
1.3382
1.33977
1.34089
1.34155
1.34174
1.34147
1.34073
1.33951
1.33784
1.3357
1.33311
1.33009
1.32665
1.3228
1.31858
1.31399
1.30908
1.30387
1.2984
1.29271
1.28684
1.28083
1.27473
1.26859
1.26245
1.25636
1.25037
1.24452
1.23886
1.23341
1.22822
1.22329
1.21866
1.21432
1.21028
1.20655
1.20309
1.19991
1.19698
1.19428
1.19179
1.18947
1.18731
1.18528
1.18337
1.18156
1.17983
1.17818
1.17661
1.1751
1.17367
1.17231
1.17103
1.16983
1.16872
1.16772
1.16681
1.16602
1.16533
1.16477
1.16431
1.16397
1.16374
1.16362
1.16358
1.16364
1.16376
1.16394
1.16416
1.16442
1.16468
1.16494
1.16518
1.1654
1.16557
1.16568
1.16574
1.2265
1.22669
1.22708
1.22765
1.22842
1.22937
1.23052
1.23186
1.23339
1.23511
1.23702
1.23912
1.24142
1.24391
1.24659
1.24946
1.25254
1.2558
1.25926
1.26292
1.26676
1.27078
1.27498
1.27935
1.28386
1.2885
1.29325
1.29808
1.30297
1.30788
1.31278
1.31763
1.32241
1.32707
1.33158
1.3359
1.34001
1.34387
1.34745
1.35072
1.35366
1.35625
1.35846
1.36029
1.36171
1.36272
1.36331
1.36346
1.36318
1.36247
1.36132
1.35974
1.35774
1.35533
1.35251
1.3493
1.34572
1.34179
1.33754
1.33298
1.32816
1.32309
1.31782
1.31239
1.30683
1.30118
1.29549
1.2898
1.28414
1.27857
1.27312
1.26782
1.26271
1.25782
1.25315
1.24874
1.24458
1.24069
1.23705
1.23367
1.23053
1.22762
1.22492
1.22241
1.22007
1.21788
1.21582
1.21388
1.21205
1.21031
1.20865
1.20707
1.20558
1.20415
1.20281
1.20155
1.20037
1.19928
1.19829
1.19739
1.1966
1.19591
1.19532
1.19484
1.19446
1.19418
1.194
1.1939
1.19387
1.19392
1.19401
1.19415
1.19432
1.1945
1.19469
1.19486
1.19502
1.19514
1.19523
1.19527
1.25778
1.25796
1.25833
1.25888
1.25962
1.26053
1.26164
1.26292
1.26439
1.26604
1.26788
1.26989
1.27209
1.27448
1.27704
1.27979
1.28272
1.28583
1.28911
1.29258
1.29621
1.30001
1.30396
1.30805
1.31228
1.31661
1.32103
1.32552
1.33005
1.3346
1.33913
1.34361
1.34801
1.3523
1.35645
1.36043
1.3642
1.36775
1.37103
1.37403
1.37672
1.37909
1.38112
1.38278
1.38407
1.38498
1.3855
1.38562
1.38533
1.38465
1.38356
1.38207
1.3802
1.37794
1.37531
1.37232
1.36899
1.36534
1.36138
1.35716
1.35268
1.34798
1.3431
1.33806
1.33291
1.32767
1.32239
1.31711
1.31185
1.30666
1.30156
1.2966
1.2918
1.28718
1.28276
1.27856
1.27458
1.27083
1.2673
1.26401
1.26093
1.25805
1.25537
1.25286
1.25051
1.24831
1.24624
1.24429
1.24244
1.2407
1.23904
1.23747
1.23597
1.23456
1.23323
1.23198
1.23082
1.22974
1.22876
1.22787
1.22707
1.22637
1.22577
1.22526
1.22485
1.22453
1.22429
1.22414
1.22405
1.22402
1.22405
1.22411
1.22421
1.22432
1.22444
1.22456
1.22467
1.22476
1.22482
1.22485
1.28887
1.28904
1.2894
1.28993
1.29063
1.29151
1.29257
1.2938
1.29521
1.29679
1.29855
1.30048
1.30258
1.30486
1.30731
1.30993
1.31272
1.31567
1.31879
1.32207
1.3255
1.32908
1.33279
1.33663
1.34058
1.34463
1.34875
1.35292
1.35713
1.36133
1.36552
1.36966
1.37372
1.37768
1.3815
1.38516
1.38863
1.39188
1.3949
1.39765
1.40012
1.40228
1.40413
1.40565
1.40682
1.40764
1.40809
1.40817
1.40789
1.40723
1.40619
1.4048
1.40304
1.40092
1.39847
1.39568
1.39258
1.38918
1.38551
1.38158
1.37742
1.37306
1.36853
1.36386
1.35907
1.35421
1.3493
1.34438
1.33949
1.33464
1.32988
1.32523
1.32071
1.31634
1.31216
1.30815
1.30434
1.30074
1.29733
1.29413
1.29111
1.28829
1.28564
1.28315
1.28081
1.27861
1.27654
1.27459
1.27274
1.271
1.26934
1.26777
1.26629
1.26489
1.26357
1.26233
1.26118
1.26012
1.25914
1.25825
1.25745
1.25674
1.25612
1.25559
1.25515
1.25479
1.25451
1.2543
1.25416
1.25408
1.25404
1.25404
1.25408
1.25413
1.2542
1.25427
1.25434
1.25439
1.25443
1.25446
1.31978
1.31995
1.32029
1.3208
1.32147
1.32232
1.32333
1.32451
1.32586
1.32737
1.32905
1.33089
1.3329
1.33507
1.33741
1.3399
1.34255
1.34535
1.34831
1.35141
1.35464
1.35801
1.3615
1.3651
1.36879
1.37257
1.37641
1.38029
1.38419
1.38809
1.39197
1.39579
1.39954
1.40319
1.40671
1.41008
1.41327
1.41626
1.41902
1.42155
1.42381
1.42579
1.42748
1.42886
1.42992
1.43065
1.43105
1.4311
1.43081
1.43018
1.4292
1.42788
1.42623
1.42425
1.42195
1.41935
1.41646
1.4133
1.40988
1.40623
1.40237
1.39832
1.39411
1.38976
1.38531
1.38079
1.37622
1.37164
1.36707
1.36254
1.35808
1.35371
1.34946
1.34534
1.34136
1.33755
1.33391
1.33045
1.32716
1.32405
1.32112
1.31835
1.31574
1.31329
1.31097
1.30879
1.30673
1.30479
1.30295
1.30121
1.29956
1.298
1.29652
1.29513
1.29383
1.2926
1.29146
1.2904
1.28943
1.28854
1.28774
1.28702
1.28638
1.28583
1.28537
1.28497
1.28466
1.2844
1.28422
1.28408
1.28399
1.28394
1.28393
1.28393
1.28396
1.28399
1.28402
1.28405
1.28407
1.28408
1.35053
1.35069
1.35101
1.3515
1.35214
1.35295
1.35392
1.35505
1.35634
1.35778
1.35939
1.36114
1.36306
1.36513
1.36735
1.36971
1.37223
1.37488
1.37768
1.3806
1.38365
1.38682
1.3901
1.39347
1.39693
1.40045
1.40403
1.40763
1.41126
1.41488
1.41846
1.422
1.42546
1.42883
1.43207
1.43517
1.43811
1.44086
1.4434
1.44571
1.44778
1.4496
1.45113
1.45239
1.45335
1.454
1.45434
1.45437
1.45408
1.45347
1.45254
1.4513
1.44975
1.44789
1.44575
1.44332
1.44062
1.43768
1.43449
1.43109
1.4275
1.42373
1.41981
1.41577
1.41163
1.40742
1.40316
1.39888
1.39461
1.39037
1.38619
1.38208
1.37807
1.37418
1.37041
1.36678
1.3633
1.35998
1.35681
1.3538
1.35095
1.34825
1.3457
1.34328
1.341
1.33884
1.3368
1.33487
1.33305
1.33132
1.32968
1.32814
1.32668
1.3253
1.324
1.32279
1.32165
1.3206
1.31963
1.31874
1.31794
1.31721
1.31656
1.316
1.3155
1.31508
1.31473
1.31444
1.31421
1.31404
1.31391
1.31381
1.31375
1.31372
1.3137
1.3137
1.3137
1.31371
1.31372
1.31372
1.38111
1.38126
1.38157
1.38204
1.38265
1.38343
1.38435
1.38543
1.38666
1.38804
1.38956
1.39124
1.39306
1.39503
1.39714
1.39938
1.40176
1.40428
1.40692
1.40968
1.41255
1.41553
1.4186
1.42176
1.42499
1.42828
1.43161
1.43497
1.43833
1.44169
1.44501
1.44828
1.45148
1.45459
1.45758
1.46043
1.46314
1.46566
1.46799
1.47012
1.47201
1.47367
1.47508
1.47621
1.47708
1.47766
1.47796
1.47796
1.47767
1.47708
1.4762
1.47503
1.47357
1.47183
1.46982
1.46755
1.46504
1.46229
1.45932
1.45615
1.4528
1.44929
1.44564
1.44188
1.43802
1.43409
1.43012
1.42612
1.42212
1.41815
1.41422
1.41036
1.40658
1.40289
1.39932
1.39586
1.39254
1.38935
1.38631
1.3834
1.38063
1.378
1.37551
1.37314
1.3709
1.36878
1.36677
1.36486
1.36305
1.36134
1.35972
1.35819
1.35674
1.35538
1.35409
1.35289
1.35177
1.35072
1.34975
1.34887
1.34806
1.34732
1.34667
1.34608
1.34557
1.34512
1.34475
1.34443
1.34416
1.34395
1.34378
1.34365
1.34355
1.34348
1.34343
1.3434
1.34338
1.34337
1.34337
1.34337
1.41153
1.41168
1.41198
1.41242
1.41301
1.41375
1.41463
1.41566
1.41683
1.41814
1.41959
1.42119
1.42292
1.42479
1.42679
1.42892
1.43117
1.43354
1.43604
1.43864
1.44134
1.44414
1.44702
1.44998
1.45299
1.45606
1.45917
1.46229
1.46542
1.46853
1.47161
1.47464
1.47759
1.48046
1.48322
1.48585
1.48834
1.49066
1.4928
1.49475
1.49649
1.498
1.49928
1.50031
1.50109
1.50161
1.50186
1.50184
1.50155
1.50098
1.50015
1.49904
1.49767
1.49603
1.49415
1.49203
1.48968
1.48711
1.48434
1.48139
1.47827
1.47499
1.47159
1.46808
1.46448
1.46081
1.45709
1.45335
1.44961
1.44588
1.44219
1.43855
1.43498
1.43149
1.4281
1.42481
1.42164
1.41859
1.41566
1.41285
1.41018
1.40762
1.4052
1.40288
1.40069
1.3986
1.39662
1.39474
1.39296
1.39127
1.38967
1.38816
1.38673
1.38538
1.38411
1.38291
1.3818
1.38076
1.3798
1.37891
1.3781
1.37736
1.37669
1.3761
1.37557
1.3751
1.3747
1.37435
1.37406
1.37381
1.37361
1.37345
1.37332
1.37323
1.37315
1.3731
1.37306
1.37303
1.37301
1.37301
1.44181
1.44195
1.44224
1.44266
1.44322
1.44392
1.44476
1.44574
1.44685
1.4481
1.44949
1.451
1.45264
1.45441
1.45631
1.45832
1.46045
1.4627
1.46504
1.46749
1.47003
1.47266
1.47536
1.47813
1.48095
1.48381
1.4867
1.48961
1.49252
1.4954
1.49826
1.50106
1.50379
1.50644
1.50899
1.51141
1.5137