/*--------------------------------*- C++ -*----------------------------------*\
| =========                 |                                                 |
| \\      /  F ield         | OpenFOAM: The Open Source CFD Toolbox           |
|  \\    /   O peration     | Version:  2406                                  |
|   \\  /    A nd           | Website:  www.openfoam.com                      |
|    \\/     M anipulation  |                                                 |
\*---------------------------------------------------------------------------*/
FoamFile
{
    version     2.0;
    format      ascii;
    arch        "LSB;label=32;scalar=64";
    class       volScalarField;
    location    "3.6";
    object      C_0;
}
// * * * * * * * * * * * * * * * * * * * * * * * * * * * * * * * * * * * * * //

dimensions      [1 -3 0 0 0 0 0];

internalField   nonuniform List<scalar> 
14400
(
0.536273
0.52414
0.507804
0.492302
0.47954
0.470551
0.465964
0.466154
0.471302
0.481429
0.496376
0.515766
0.538874
0.564162
0.586865
0.598257
0.597336
0.58326
0.561869
0.541848
0.525708
0.514684
0.509538
0.51082
0.518983
0.53442
0.557488
0.58851
0.627749
0.675347
0.731095
0.793299
0.849841
0.888652
0.91669
0.941368
0.963122
0.982291
0.99914
1.01387
1.02666
1.03762
1.04686
1.05446
1.0605
1.06501
1.06804
1.06961
1.06974
1.06844
1.06569
1.06149
1.0558
1.04861
1.03986
1.02949
1.01742
1.00356
0.987804
0.969997
0.949966
0.927488
0.902283
0.873996
0.841188
0.791202
0.723423
0.659814
0.603506
0.555102
0.514536
0.481527
0.455737
0.436833
0.424522
0.418562
0.418762
0.424985
0.437127
0.455103
0.478812
0.508058
0.542366
0.580137
0.6117
0.630091
0.640005
0.644436
0.64357
0.637232
0.623088
0.596962
0.565057
0.535948
0.511267
0.491508
0.476769
0.466916
0.461597
0.460216
0.461884
0.465362
0.469008
0.47089
0.469587
0.466551
0.463746
0.462846
0.465125
0.471509
0.482639
0.498918
0.520538
0.547467
0.579276
0.614341
0.64347
0.660376
0.669733
0.674273
0.551381
0.53925
0.521539
0.504866
0.491207
0.481588
0.476627
0.476683
0.481932
0.492389
0.507891
0.528047
0.552109
0.578448
0.599707
0.60817
0.607844
0.596951
0.575599
0.554524
0.537473
0.52577
0.520153
0.521157
0.529227
0.544758
0.5681
0.599556
0.639366
0.687605
0.743959
0.806479
0.858039
0.89255
0.920049
0.944291
0.965706
0.984612
1.00125
1.01582
1.02848
1.03933
1.04849
1.05603
1.06202
1.0665
1.0695
1.07106
1.07118
1.06988
1.06714
1.06296
1.05732
1.05017
1.04148
1.03118
1.01921
1.00547
0.989851
0.972222
0.952413
0.930214
0.905363
0.877522
0.846189
0.800902
0.736026
0.671731
0.614554
0.565405
0.524223
0.490722
0.46456
0.445403
0.432955
0.426973
0.427267
0.433698
0.446162
0.464571
0.488813
0.518652
0.553481
0.591301
0.620264
0.636148
0.645486
0.649734
0.64904
0.643313
0.631742
0.60907
0.577327
0.547693
0.522506
0.502402
0.487523
0.477784
0.472881
0.472259
0.475069
0.480094
0.485572
0.488798
0.486141
0.481264
0.476902
0.474851
0.476361
0.482319
0.493322
0.509724
0.531666
0.559072
0.591361
0.626167
0.651621
0.665825
0.674549
0.678813
0.574859
0.566913
0.548329
0.529757
0.514442
0.50362
0.497938
0.49774
0.503188
0.51429
0.530872
0.552444
0.57795
0.604499
0.620094
0.625858
0.626068
0.620092
0.602141
0.579517
0.560876
0.547927
0.541418
0.541877
0.549767
0.565489
0.589378
0.621701
0.662638
0.712065
0.768987
0.828412
0.870546
0.900346
0.926665
0.95004
0.970798
0.989196
1.00544
1.01969
1.03209
1.04275
1.05175
1.05916
1.06505
1.06945
1.0724
1.07393
1.07404
1.07275
1.07004
1.06591
1.06033
1.05328
1.0447
1.03455
1.02276
1.00925
0.993911
0.976628
0.957249
0.935593
0.911432
0.884488
0.854403
0.816775
0.760737
0.695229
0.636561
0.586046
0.543682
0.509217
0.48232
0.46266
0.44994
0.443915
0.444396
0.45124
0.464343
0.483607
0.508902
0.53992
0.575662
0.611905
0.634751
0.647708
0.656059
0.659974
0.659544
0.654779
0.645655
0.629598
0.601473
0.571013
0.544906
0.524153
0.508979
0.499432
0.495317
0.496153
0.501153
0.509228
0.518682
0.525826
0.51923
0.510356
0.502927
0.498669
0.498703
0.503851
0.514634
0.531297
0.553845
0.582113
0.615144
0.645959
0.664542
0.676174
0.683827
0.687616
0.602508
0.599353
0.586752
0.566481
0.549009
0.536524
0.529843
0.529296
0.535031
0.547053
0.565182
0.588683
0.615561
0.635321
0.644329
0.649022
0.649909
0.647047
0.637214
0.61586
0.595659
0.581133
0.573397
0.573059
0.580677
0.59669
0.621399
0.654993
0.697597
0.748752
0.806105
0.852036
0.884042
0.911505
0.936225
0.958407
0.978251
0.995935
1.01161
1.02542
1.03746
1.04782
1.05659
1.06382
1.06956
1.07386
1.07674
1.07822
1.07831
1.07703
1.07436
1.0703
1.06482
1.0579
1.0495
1.03956
1.02804
1.01485
0.999916
0.983129
0.964364
0.943474
0.920286
0.894594
0.866156
0.834592
0.79097
0.728972
0.669357
0.617124
0.573085
0.537216
0.509238
0.488835
0.475711
0.469621
0.470376
0.477833
0.491876
0.512375
0.539163
0.571837
0.608601
0.637049
0.652859
0.663843
0.671065
0.674559
0.674381
0.670602
0.663354
0.652885
0.63435
0.605064
0.578197
0.556654
0.540991
0.531645
0.528603
0.531447
0.539311
0.551071
0.564118
0.56831
0.564562
0.552123
0.540995
0.533845
0.531843
0.535887
0.546431
0.563531
0.586799
0.615719
0.647364
0.668179
0.680854
0.690499
0.696969
0.700208
0.633095
0.631276
0.626376
0.613108
0.594239
0.579954
0.572161
0.571224
0.577296
0.590355
0.610239
0.634878
0.654778
0.665503
0.671903
0.675992
0.677497
0.676476
0.673286
0.662087
0.641399
0.625302
0.616147
0.614747
0.621988
0.638396
0.664187
0.699279
0.743726
0.795354
0.840441
0.873011
0.900294
0.925405
0.948324
0.969112
0.987862
1.00468
1.01966
1.03291
1.04449
1.05449
1.06296
1.06996
1.07552
1.07968
1.08246
1.08389
1.08397
1.0827
1.08008
1.07611
1.07076
1.06401
1.05582
1.04616
1.03498
1.0222
1.00777
0.991606
0.973602
0.953655
0.931644
0.907444
0.880931
0.852019
0.819421
0.773032
0.713136
0.658837
0.612662
0.574997
0.54562
0.524249
0.510595
0.504418
0.505528
0.513781
0.529035
0.551041
0.579436
0.613162
0.64457
0.662747
0.674671
0.683738
0.6898
0.692817
0.692818
0.689896
0.684232
0.676144
0.665947
0.64796
0.621658
0.599632
0.58319
0.573953
0.572138
0.57732
0.587701
0.600264
0.606125
0.606252
0.606509
0.601141
0.589258
0.579553
0.575182
0.577954
0.588342
0.606149
0.629806
0.657998
0.677908
0.690032
0.700145
0.708001
0.713342
0.716038
0.6655
0.664437
0.66255
0.658127
0.647753
0.632774
0.624329
0.623072
0.629443
0.643098
0.663861
0.680156
0.690095
0.696504
0.701786
0.705548
0.707608
0.708028
0.707101
0.704942
0.695704
0.679679
0.669516
0.666756
0.673504
0.690421
0.717562
0.75378
0.798783
0.838411
0.868685
0.894351
0.918718
0.941496
0.962554
0.981853
0.999407
1.01526
1.02945
1.04205
1.05312
1.06269
1.07081
1.07753
1.08288
1.08688
1.08955
1.09091
1.09096
1.08971
1.08716
1.08329
1.07809
1.07155
1.06362
1.05429
1.0435
1.03121
1.01737
1.00192
0.984784
0.965898
0.945192
0.922606
0.898103
0.871698
0.843486
0.810972
0.76572
0.710869
0.662475
0.622822
0.591801
0.569277
0.55498
0.548689
0.550215
0.55941
0.576118
0.599695
0.629018
0.65981
0.678569
0.689874
0.699339
0.706637
0.711581
0.714092
0.714178
0.711931
0.707533
0.701286
0.693631
0.68489
0.67033
0.65168
0.634396
0.625249
0.624491
0.631717
0.638977
0.643063
0.642779
0.642777
0.643162
0.643852
0.640293
0.633723
0.627282
0.628932
0.639182
0.657724
0.677831
0.693941
0.704296
0.71365
0.721692
0.728017
0.732359
0.734564
0.698969
0.698422
0.697507
0.696573
0.694704
0.689405
0.68405
0.682817
0.689266
0.700333
0.71099
0.717952
0.723408
0.72863
0.733189
0.736804
0.739361
0.740927
0.741753
0.742255
0.742618
0.738282
0.732016
0.727914
0.734306
0.751744
0.780275
0.814828
0.846103
0.871394
0.894397
0.916992
0.938729
0.959308
0.978544
0.99634
1.01266
1.02748
1.04084
1.05274
1.06323
1.07233
1.08007
1.08648
1.09159
1.0954
1.09795
1.09923
1.09926
1.09803
1.09555
1.0918
1.08678
1.08046
1.07283
1.06386
1.05352
1.04178
1.02859
1.01391
0.997717
0.979961
0.96062
0.939685
0.917179
0.893182
0.867851
0.841456
0.811269
0.770897
0.721934
0.680765
0.648012
0.624251
0.60922
0.602786
0.604734
0.614872
0.633205
0.65765
0.683674
0.700517
0.710163
0.718832
0.726173
0.73189
0.735794
0.73779
0.737872
0.736115
0.732683
0.727838
0.721948
0.715498
0.709032
0.699897
0.689808
0.682353
0.680228
0.681078
0.681277
0.679728
0.679016
0.678917
0.679388
0.680489
0.682463
0.682806
0.682617
0.685605
0.694076
0.705286
0.715601
0.723396
0.731237
0.73858
0.744956
0.750015
0.753512
0.755297
0.732985
0.732774
0.732482
0.732359
0.732775
0.734089
0.734201
0.735462
0.739582
0.744692
0.748279
0.752446
0.756956
0.761419
0.765536
0.769119
0.772104
0.774567
0.776727
0.778948
0.781748
0.785783
0.788288
0.791949
0.800968
0.817548
0.839082
0.861032
0.88059
0.900379
0.920516
0.940489
0.9599
0.978461
0.995973
1.01231
1.02739
1.04118
1.05367
1.06485
1.07473
1.08333
1.09066
1.09674
1.10158
1.1052
1.10761
1.10881
1.10881
1.10761
1.10521
1.10159
1.09676
1.0907
1.08339
1.07481
1.06495
1.05378
1.04128
1.02743
1.01221
0.99561
0.977642
0.958333
0.937747
0.916
0.893279
0.869858
0.846116
0.820451
0.787445
0.747838
0.713884
0.689168
0.673351
0.666754
0.669015
0.679445
0.698773
0.716227
0.72857
0.735707
0.742692
0.749118
0.75463
0.758957
0.761914
0.763404
0.763405
0.761975
0.759246
0.755433
0.750826
0.745793
0.740755
0.736176
0.731986
0.727407
0.723724
0.719921
0.717167
0.715488
0.714642
0.714486
0.714985
0.716192
0.718266
0.721472
0.725835
0.730226
0.735619
0.740744
0.746364
0.752496
0.758674
0.764476
0.769538
0.773575
0.776378
0.777813
0.767212
0.767208
0.767286
0.767608
0.768385
0.769819
0.771991
0.774629
0.777036
0.779702
0.782918
0.786598
0.79055
0.794552
0.798418
0.802032
0.805369
0.808509
0.81164
0.815062
0.819186
0.82454
0.831775
0.84122
0.852088
0.865394
0.879688
0.894986
0.911593
0.929015
0.9468
0.964547
0.981921
0.998663
1.01458
1.02953
1.04342
1.05619
1.06781
1.07825
1.08751
1.09559
1.1025
1.10823
1.1128
1.11621
1.11848
1.11959
1.11956
1.11839
1.11607
1.1126
1.10797
1.10217
1.0952
1.08704
1.07769
1.06712
1.05533
1.04231
1.02808
1.01263
0.996005
0.978257
0.959475
0.939794
0.919407
0.89858
0.877657
0.857071
0.836699
0.812296
0.786032
0.762218
0.745704
0.738958
0.741195
0.748504
0.756498
0.76238
0.766341
0.770982
0.77578
0.780319
0.784273
0.787392
0.789502
0.790505
0.790369
0.789132
0.786895
0.783821
0.780132
0.776091
0.77198
0.768048
0.764384
0.760904
0.757381
0.754314
0.751974
0.750414
0.749576
0.749401
0.749874
0.751026
0.75293
0.755665
0.759199
0.763278
0.767421
0.771832
0.776576
0.781548
0.786489
0.79111
0.795145
0.798369
0.800613
0.801763
0.801443
0.80156
0.801847
0.802401
0.803339
0.804753
0.806657
0.808922
0.81135
0.814041
0.817092
0.820477
0.824095
0.827823
0.831552
0.835221
0.838831
0.842459
0.846262
0.850473
0.855396
0.861385
0.868793
0.877823
0.888407
0.900125
0.912995
0.926921
0.94178
0.957288
0.973123
0.988976
1.00457
1.01969
1.03415
1.04781
1.06056
1.07235
1.08312
1.09283
1.10148
1.10904
1.11551
1.12089
1.12518
1.12838
1.13049
1.13152
1.13146
1.13032
1.12808
1.12476
1.12035
1.11483
1.10821
1.10048
1.09163
1.08167
1.0706
1.05842
1.04515
1.03083
1.01549
0.999215
0.982101
0.964292
0.945976
0.927397
0.908859
0.890727
0.873418
0.857411
0.84135
0.825463
0.812441
0.804572
0.801775
0.801562
0.800809
0.801451
0.803393
0.8061
0.809125
0.812106
0.814751
0.816835
0.818199
0.818745
0.818435
0.817289
0.815379
0.812825
0.809789
0.806458
0.803025
0.799652
0.796427
0.793369
0.790488
0.787979
0.785999
0.78462
0.783847
0.783669
0.784084
0.785108
0.786763
0.789058
0.791935
0.795246
0.798803
0.802585
0.806562
0.810632
0.814622
0.818331
0.821562
0.824144
0.825942
0.826864
0.835557
0.835741
0.83614
0.83681
0.837815
0.839199
0.840962
0.843052
0.8454
0.84802
0.850934
0.854122
0.85753
0.861091
0.864746
0.868468
0.872275
0.876236
0.880476
0.885172
0.890539
0.89681
0.904191
0.912794
0.922592
0.933435
0.945246
0.957921
0.971319
0.985234
0.999428
1.01366
1.02771
1.04138
1.05452
1.06698
1.07868
1.08953
1.09948
1.10849
1.11653
1.12357
1.12961
1.13463
1.13864
1.14163
1.14359
1.14453
1.14444
1.14333
1.14119
1.13802
1.13382
1.12859
1.12232
1.11502
1.10669
1.09734
1.08698
1.07562
1.06329
1.05004
1.03592
1.02101
1.00542
0.989296
0.972807
0.956173
0.939657
0.923558
0.908206
0.893936
0.88103
0.869891
0.86037
0.852447
0.846266
0.842104
0.839899
0.839219
0.839682
0.840898
0.842515
0.844229
0.845789
0.846998
0.847713
0.84784
0.847338
0.846211
0.844506
0.842311
0.83974
0.836928
0.834011
0.831107
0.828304
0.825656
0.823224
0.821114
0.819425
0.818219
0.817522
0.817343
0.817686
0.818558
0.819957
0.821868
0.824237
0.826969
0.82996
0.833144
0.836454
0.839795
0.843037
0.84603
0.848629
0.850703
0.852146
0.852886
0.869487
0.869706
0.870161
0.870885
0.871912
0.873264
0.874941
0.876922
0.879179
0.881706
0.8845
0.887546
0.890813
0.894264
0.897872
0.901631
0.905564
0.909733
0.914234
0.919199
0.924778
0.931124
0.938366
0.94657
0.955731
0.965778
0.976633
0.988197
1.00034
1.0129
1.02569
1.03853
1.05122
1.06361
1.07555
1.08693
1.09764
1.10762
1.11679
1.12512
1.13256
1.1391
1.14472
1.1494
1.15312
1.1559
1.15771
1.15856
1.15845
1.15737
1.15533
1.15231
1.14833
1.14338
1.13747
1.1306
1.12278
1.11402
1.10435
1.09378
1.08235
1.07011
1.05713
1.04349
1.02929
1.01466
0.999781
0.984832
0.970037
0.955644
0.941911
0.929097
0.917431
0.907121
0.898208
0.890728
0.884755
0.880358
0.877466
0.875843
0.875217
0.875297
0.875808
0.876505
0.877177
0.877656
0.877813
0.877565
0.876866
0.875709
0.874125
0.872171
0.869932
0.867502
0.864982
0.862464
0.860024
0.857727
0.855637
0.853828
0.852368
0.851309
0.850679
0.850494
0.850761
0.851479
0.85264
0.854221
0.856174
0.858433
0.860923
0.863575
0.866316
0.869058
0.871698
0.874123
0.876221
0.877891
0.879053
0.879648
0.903199
0.903434
0.903914
0.904658
0.905683
0.907003
0.908617
0.910517
0.912688
0.915123
0.917815
0.92075
0.923912
0.927281
0.930849
0.934619
0.938617
0.942896
0.94753
0.952613
0.95825
0.964544
0.971577
0.97939
0.987983
0.997312
1.00731
1.01789
1.02895
1.04034
1.05192
1.06353
1.07504
1.08628
1.09715
1.10754
1.11735
1.1265
1.13494
1.14263
1.14951
1.15557
1.16077
1.16511
1.16856
1.17113
1.1728
1.17356
1.17343
1.17238
1.17043
1.16757
1.1638
1.15914
1.15357
1.14713
1.1398
1.13162
1.12261
1.1128
1.10222
1.09093
1.07901
1.06652
1.05357
1.04029
1.02682
1.01334
1.00002
0.987067
0.974697
0.963108
0.952477
0.942952
0.93461
0.927502
0.921666
0.917109
0.913761
0.911472
0.910044
0.909263
0.908916
0.908805
0.908759
0.908634
0.90832
0.90774
0.90685
0.905635
0.904112
0.902319
0.900314
0.898166
0.895952
0.893741
0.891601
0.889591
0.887769
0.886192
0.884911
0.883968
0.883391
0.883193
0.883383
0.883957
0.884904
0.8862
0.887805
0.889667
0.891725
0.893918
0.896176
0.898423
0.900576
0.902544
0.904241
0.905589
0.906525
0.907005
0.936675
0.936916
0.937404
0.938149
0.939161
0.940447
0.942007
0.943839
0.945933
0.948285
0.950885
0.953728
0.956802
0.9601
0.963622
0.967377
0.971391
0.975705
0.980375
0.985471
0.991065
0.997226
1.00401
1.01143
1.0195
1.02818
1.03741
1.04712
1.05721
1.06758
1.07811
1.08866
1.0991
1.10934
1.11924
1.12872
1.1377
1.1461
1.15386
1.16093
1.16728
1.17288
1.17769
1.1817
1.18489
1.18726
1.18878
1.18947
1.18931
1.1883
1.18644
1.18373
1.18018
1.17579
1.17056
1.16453
1.15768
1.15006
1.14168
1.13258
1.1228
1.1124
1.10144
1.09
1.07819
1.0661
1.05388
1.04167
1.02962
1.01791
1.0067
0.996158
0.986419
0.9776
0.969779
0.963004
0.957297
0.952649
0.948999
0.946239
0.944225
0.942796
0.941787
0.941041
0.940419
0.939801
0.939093
0.938226
0.937158
0.93587
0.934369
0.932678
0.930837
0.928898
0.926916
0.924948
0.923048
0.921268
0.919656
0.918258
0.917117
0.916263
0.915722
0.915506
0.91562
0.916063
0.91682
0.917869
0.919178
0.920703
0.922394
0.924195
0.926047
0.927884
0.929637
0.931234
0.932609
0.933699
0.934455
0.934842
0.96991
0.970151
0.970637
0.971373
0.972364
0.973615
0.975127
0.976897
0.978922
0.981196
0.983715
0.986473
0.989467
0.992696
0.996162
0.999877
1.00386
1.00816
1.0128
1.01783
1.02331
1.02929
1.03579
1.04283
1.0504
1.05848
1.06702
1.07596
1.08521
1.09468
1.10427
1.11387
1.12339
1.13272
1.14175
1.15042
1.15863
1.16633
1.17346
1.17997
1.18581
1.19097
1.19541
1.19911
1.20205
1.20422
1.20561
1.20622
1.20604
1.20506
1.20329
1.20073
1.19739
1.19327
1.18837
1.18273
1.17634
1.16925
1.16147
1.15304
1.144
1.13442
1.12435
1.11387
1.10307
1.09206
1.08094
1.06984
1.0589
1.04826
1.03805
1.0284
1.01944
1.01125
1.0039
0.997437
0.991871
0.98719
0.983347
0.98026
0.977821
0.975908
0.974394
0.973154
0.972075
0.971059
0.970025
0.968914
0.967685
0.966319
0.964815
0.963186
0.96146
0.959673
0.957867
0.956087
0.954375
0.952776
0.951328
0.95007
0.949034
0.948246
0.947727
0.947487
0.94753
0.947853
0.948443
0.94928
0.950335
0.951573
0.952951
0.954421
0.955932
0.957428
0.958853
0.960149
0.961261
0.962142
0.962753
0.963065
1.0029
1.00314
1.00362
1.00434
1.00531
1.00652
1.00799
1.0097
1.01166
1.01386
1.0163
1.01898
1.0219
1.02505
1.02845
1.0321
1.03603
1.04026
1.04482
1.04974
1.05507
1.06083
1.06703
1.07369
1.0808
1.08834
1.09625
1.10448
1.11298
1.12165
1.13041
1.13918
1.14787
1.15638
1.16464
1.17256
1.18008
1.18714
1.19368
1.19966
1.20504
1.20978
1.21387
1.21727
1.21997
1.22196
1.22323
1.22376
1.22356
1.22262
1.22094
1.21853
1.21538
1.21151
1.20694
1.20167
1.19572
1.18912
1.1819
1.1741
1.16576
1.15693
1.14767
1.13806
1.12818
1.11811
1.10797
1.09785
1.08788
1.07816
1.06882
1.05997
1.05169
1.04406
1.03714
1.03097
1.02556
1.02089
1.01694
1.01363
1.01089
1.00862
1.00673
1.00511
1.00367
1.00233
1.00103
0.999718
0.998349
0.996907
0.995385
0.993791
0.992143
0.990467
0.988793
0.987156
0.985591
0.984131
0.98281
0.981659
0.980702
0.979961
0.979453
0.979185
0.97916
0.979375
0.979818
0.980471
0.98131
0.982304
0.983416
0.984606
0.985831
0.987044
0.988198
0.989246
0.990145
0.990856
0.991349
0.991601
1.03566
1.03589
1.03636
1.03706
1.038
1.03918
1.0406
1.04226
1.04416
1.04629
1.04866
1.05126
1.05409
1.05717
1.06049
1.06406
1.0679
1.07203
1.07648
1.08126
1.0864
1.09191
1.09782
1.10411
1.11078
1.1178
1.12514
1.13275
1.14057
1.14853
1.15656
1.16458
1.17252
1.1803
1.18785
1.1951
1.20199
1.20846
1.21446
1.21995
1.22489
1.22925
1.23301
1.23613
1.23861
1.24043
1.24158
1.24204
1.24182
1.24092
1.23932
1.23705
1.23409
1.23047
1.2262
1.22128
1.21575
1.20962
1.20292
1.1957
1.188
1.17986
1.17135
1.16252
1.15346
1.14425
1.13497
1.12572
1.11659
1.1077
1.09912
1.09095
1.08328
1.07616
1.06963
1.06375
1.0585
1.05389
1.04988
1.04644
1.04349
1.04096
1.03878
1.03687
1.03516
1.03357
1.03206
1.03058
1.02909
1.02757
1.02603
1.02445
1.02285
1.02126
1.01968
1.01815
1.0167
1.01535
1.01412
1.01305
1.01215
1.01144
1.01094
1.01064
1.01055
1.01067
1.01098
1.01148
1.01213
1.01292
1.0138
1.01476
1.01574
1.01672
1.01765
1.01849
1.01922
1.01979
1.02019
1.02039
1.06818
1.06841
1.06886
1.06955
1.07046
1.0716
1.07298
1.07458
1.07641
1.07848
1.08077
1.08329
1.08605
1.08904
1.09227
1.09574
1.09948
1.10349
1.1078
1.11241
1.11734
1.12261
1.12821
1.13415
1.14041
1.14696
1.15377
1.16081
1.16802
1.17534
1.1827
1.19006
1.19733
1.20445
1.21137
1.218
1.22432
1.23025
1.23575
1.24079
1.24533
1.24933
1.25278
1.25565
1.25791
1.25957
1.2606
1.261
1.26077
1.2599
1.25839
1.25625
1.25348
1.25009
1.24609
1.24151
1.23636
1.23067
1.22447
1.21779
1.21067
1.20317
1.19533
1.18722
1.1789
1.17044
1.16194
1.15345
1.14508
1.13691
1.12901
1.12145
1.11432
1.10765
1.10149
1.09588
1.09081
1.08628
1.08227
1.07875
1.07566
1.07296
1.07057
1.06845
1.06652
1.06474
1.06306
1.06144
1.05985
1.05827
1.0567
1.05513
1.05357
1.05203
1.05052
1.04908
1.04771
1.04644
1.04529
1.04427
1.04342
1.04273
1.04221
1.04188
1.04174
1.04177
1.04197
1.04232
1.04282
1.04343
1.04412
1.04488
1.04566
1.04644
1.04718
1.04786
1.04844
1.0489
1.04922
1.04938
1.10048
1.1007
1.10114
1.1018
1.10268
1.10379
1.10512
1.10667
1.10844
1.11044
1.11266
1.1151
1.11777
1.12067
1.1238
1.12717
1.13078
1.13466
1.13881
1.14324
1.14796
1.15297
1.15828
1.16387
1.16973
1.17585
1.18218
1.1887
1.19535
1.20209
1.20887
1.21562
1.22229
1.22882
1.23515
1.24124
1.24702
1.25246
1.25751
1.26213
1.2663
1.26997
1.27313
1.27575
1.27783
1.27933
1.28026
1.2806
1.28036
1.27952
1.27809
1.27607
1.27347
1.27031
1.26658
1.26231
1.25753
1.25224
1.24649
1.24031
1.23374
1.22681
1.21959
1.21212
1.20447
1.1967
1.18888
1.18108
1.17338
1.16584
1.15854
1.15154
1.14489
1.13863
1.13282
1.12746
1.12257
1.11815
1.11417
1.11062
1.10745
1.10463
1.1021
1.09982
1.09774
1.09581
1.094
1.09227
1.0906
1.08897
1.08737
1.0858
1.08426
1.08276
1.08131
1.07992
1.07861
1.07741
1.07631
1.07534
1.07451
1.07383
1.07331
1.07294
1.07274
1.0727
1.0728
1.07303
1.07339
1.07385
1.07438
1.07497
1.07558
1.0762
1.07679
1.07732
1.07778
1.07815
1.0784
1.07853
1.13255
1.13276
1.13319
1.13383
1.13469
1.13575
1.13704
1.13854
1.14025
1.14218
1.14432
1.14668
1.14926
1.15206
1.15509
1.15834
1.16183
1.16556
1.16954
1.17378
1.17828
1.18304
1.18805
1.19332
1.19881
1.20452
1.21041
1.21645
1.2226
1.22882
1.23505
1.24126
1.24739
1.25338
1.25919
1.26477
1.27008
1.27506
1.27969
1.28394
1.28775
1.29112
1.29402
1.29642
1.29831
1.29967
1.3005
1.30079
1.30053
1.29973
1.29837
1.29648
1.29404
1.29108
1.28761
1.28363
1.27918
1.27428
1.26895
1.26323
1.25715
1.25075
1.24409
1.23721
1.23016
1.223
1.2158
1.20862
1.20151
1.19455
1.18778
1.18127
1.17505
1.16918
1.16368
1.15858
1.15387
1.14956
1.14565
1.1421
1.1389
1.136
1.13338
1.13099
1.1288
1.12676
1.12485
1.12304
1.1213
1.11963
1.11801
1.11644
1.11491
1.11344
1.11203
1.11069
1.10943
1.10826
1.1072
1.10626
1.10545
1.10478
1.10424
1.10384
1.10359
1.10348
1.10349
1.10362
1.10386
1.10419
1.10459
1.10503
1.1055
1.10598
1.10644
1.10686
1.10722
1.10751
1.10771
1.10781
1.16441
1.16462
1.16503
1.16565
1.16647
1.16751
1.16874
1.17019
1.17184
1.1737
1.17577
1.17805
1.18053
1.18323
1.18614
1.18928
1.19263
1.19621
1.20002
1.20407
1.20834
1.21285
1.21758
1.22253
1.22768
1.23301
1.23849
1.24409
1.24978
1.25552
1.26127
1.26698
1.27261
1.27812
1.28346
1.28858
1.29345
1.29802
1.30227
1.30616
1.30966
1.31275
1.31539
1.31759
1.31931
1.32055
1.32129
1.32153
1.32126
1.32049
1.3192
1.31742
1.31514
1.31237
1.30913
1.30543
1.3013
1.29674
1.2918
1.2865
1.28088
1.27497
1.26881
1.26246
1.25595
1.24935
1.24271
1.23607
1.2295
1.22305
1.21676
1.2107
1.20488
1.19936
1.19416
1.18929
1.18477
1.18059
1.17676
1.17324
1.17004
1.16711
1.16443
1.16197
1.1597
1.15759
1.1556
1.15373
1.15195
1.15024
1.1486
1.14703
1.14551
1.14406
1.14268
1.14137
1.14014
1.13901
1.13798
1.13706
1.13626
1.13558
1.13503
1.1346
1.1343
1.13413
1.13407
1.13411
1.13425
1.13446
1.13474
1.13507
1.13542
1.13578
1.13613
1.13646
1.13674
1.13696
1.13711
1.13719
1.19607
1.19627
1.19666
1.19726
1.19805
1.19905
1.20024
1.20164
1.20323
1.20502
1.20701
1.2092
1.21159
1.21419
1.21699
1.21999
1.22321
1.22663
1.23027
1.23411
1.23817
1.24244
1.2469
1.25155
1.25637
1.26134
1.26644
1.27164
1.27691
1.28222
1.28752
1.29279
1.29797
1.30303
1.30794
1.31264
1.31711
1.32131
1.32521
1.32877
1.33198
1.33481
1.33723
1.33923
1.3408
1.34191
1.34257
1.34277
1.34249
1.34175
1.34054
1.33886
1.33672
1.33413
1.33111
1.32767
1.32382
1.31959
1.31501
1.3101
1.30489
1.29942
1.29373
1.28786
1.28185
1.27575
1.2696
1.26346
1.25737
1.25138
1.24553
1.23987
1.23442
1.22922
1.22429
1.21966
1.21532
1.21128
1.20754
1.20408
1.2009
1.19797
1.19526
1.19276
1.19044
1.18828
1.18625
1.18433
1.18252
1.18079
1.17914
1.17756
1.17605
1.17461
1.17325
1.17197
1.17077
1.16966
1.16865
1.16774
1.16694
1.16626
1.16569
1.16524
1.1649
1.16466
1.16454
1.1645
1.16455
1.16467
1.16485
1.16508
1.16533
1.16559
1.16585
1.1661
1.16631
1.16648
1.1666
1.16666
1.22752
1.22771
1.2281
1.22867
1.22944
1.23039
1.23154
1.23288
1.23441
1.23613
1.23805
1.24015
1.24245
1.24494
1.24762
1.2505
1.25357
1.25684
1.2603
1.26395
1.2678
1.27182
1.27602
1.28039
1.2849
1.28954
1.29429
1.29912
1.30401
1.30892
1.31382
1.31867
1.32344
1.3281
1.33261
1.33694
1.34104
1.3449
1.34847
1.35174
1.35468
1.35727
1.35948
1.36131
1.36273
1.36374
1.36432
1.36448
1.3642
1.36348
1.36233
1.36075
1.35875
1.35633
1.35351
1.35031
1.34673
1.3428
1.33855
1.33399
1.32916
1.3241
1.31883
1.31339
1.30783
1.30218
1.29649
1.2908
1.28515
1.27957
1.27412
1.26882
1.26371
1.25881
1.25414
1.24972
1.24557
1.24167
1.23803
1.23465
1.23151
1.22859
1.22589
1.22337
1.22103
1.21884
1.21678
1.21484
1.213
1.21125
1.2096
1.20802
1.20652
1.20509
1.20374
1.20248
1.2013
1.20021
1.19921
1.19831
1.19752
1.19682
1.19624
1.19576
1.19538
1.1951
1.19491
1.19481
1.19478
1.19483
1.19492
1.19506
1.19523
1.19541
1.19559
1.19577
1.19592
1.19605
1.19613
1.19618
1.25879
1.25897
1.25934
1.25989
1.26063
1.26155
1.26265
1.26394
1.26541
1.26706
1.26889
1.27091
1.27311
1.2755
1.27806
1.28081
1.28374
1.28685
1.29014
1.2936
1.29724
1.30104
1.30499
1.30908
1.3133
1.31764
1.32206
1.32655
1.33108
1.33563
1.34015
1.34463
1.34904
1.35333
1.35748
1.36145
1.36522
1.36876
1.37205
1.37504
1.37774
1.38011
1.38213
1.38379
1.38508
1.38599
1.3865
1.38662
1.38634
1.38565
1.38456
1.38307
1.3812
1.37894
1.37631
1.37332
1.36999
1.36633
1.36238
1.35815
1.35368
1.34898
1.3441
1.33906
1.3339
1.32867
1.32338
1.3181
1.31284
1.30764
1.30255
1.29759
1.29278
1.28816
1.28374
1.27953
1.27555
1.2718
1.26827
1.26497
1.26189
1.25901
1.25633
1.25382
1.25147
1.24926
1.24719
1.24523
1.24339
1.24164
1.23998
1.2384
1.2369
1.23549
1.23416
1.23291
1.23174
1.23066
1.22968
1.22878
1.22798
1.22728
1.22668
1.22617
1.22576
1.22544
1.2252
1.22504
1.22495
1.22492
1.22495
1.22501
1.22511
1.22522
1.22534
1.22546
1.22557
1.22565
1.22571
1.22575
1.28987
1.29004
1.2904
1.29093
1.29163
1.29252
1.29357
1.29481
1.29622
1.2978
1.29956
1.30149
1.30359
1.30587
1.30832
1.31094
1.31373
1.31668
1.3198
1.32308
1.32652
1.33009
1.33381
1.33765
1.3416
1.34564
1.34976
1.35394
1.35814
1.36235
1.36654
1.37068
1.37474
1.37869
1.38251
1.38617
1.38964
1.39289
1.3959
1.39865
1.40112
1.40328
1.40513
1.40665
1.40782
1.40863
1.40908
1.40917
1.40888
1.40822
1.40719
1.40579
1.40403
1.40191
1.39945
1.39667
1.39357
1.39017
1.38649
1.38256
1.37841
1.37405
1.36952
1.36484
1.36006
1.35519
1.35028
1.34536
1.34046
1.33562
1.33085
1.3262
1.32168
1.31731
1.31312
1.30912
1.30531
1.3017
1.29829
1.29508
1.29207
1.28924
1.28659
1.28409
1.28176
1.27956
1.27748
1.27553
1.27368
1.27193
1.27027
1.2687
1.26721
1.26581
1.26449
1.26325
1.2621
1.26103
1.26005
1.25915
1.25835
1.25764
1.25702
1.25649
1.25605
1.25569
1.25541
1.2552
1.25505
1.25497
1.25493
1.25494
1.25497
1.25503
1.25509
1.25516
1.25523
1.25528
1.25532
1.25535
1.32077
1.32094
1.32128
1.32179
1.32246
1.32331
1.32432
1.3255
1.32685
1.32837
1.33005
1.33189
1.3339
1.33607
1.33841
1.3409
1.34355
1.34635
1.34931
1.35241
1.35565
1.35902
1.36251
1.3661
1.3698
1.37357
1.37741
1.38129
1.38519
1.3891
1.39297
1.3968
1.40054
1.40419
1.40771
1.41108
1.41426
1.41725
1.42002
1.42254
1.4248
1.42678
1.42847
1.42985
1.43091
1.43164
1.43203
1.43208
1.43179
1.43116
1.43018
1.42886
1.42721
1.42523
1.42293
1.42033
1.41744
1.41428
1.41086
1.40721
1.40334
1.39929
1.39508
1.39073
1.38629
1.38176
1.37719
1.37261
1.36804
1.36351
1.35904
1.35467
1.35042
1.34629
1.34232
1.33851
1.33487
1.3314
1.32811
1.325
1.32206
1.31929
1.31668
1.31422
1.31191
1.30972
1.30766
1.30571
1.30387
1.30213
1.30048
1.29891
1.29744
1.29605
1.29474
1.29351
1.29236
1.2913
1.29033
1.28944
1.28863
1.28791
1.28728
1.28673
1.28626
1.28586
1.28554
1.28529
1.2851
1.28497
1.28488
1.28483
1.28481
1.28482
1.28484
1.28487
1.2849
1.28493
1.28495
1.28497
1.35151
1.35167
1.35199
1.35248
1.35312
1.35393
1.3549
1.35603
1.35732
1.35877
1.36037
1.36213
1.36405
1.36611
1.36833
1.3707
1.37322
1.37587
1.37867
1.38159
1.38465
1.38782
1.39109
1.39446
1.39792
1.40144
1.40502
1.40863
1.41225
1.41587
1.41945
1.42299
1.42645
1.42982
1.43306
1.43616
1.43909
1.44184
1.44438
1.44669
1.44876
1.45058
1.45211
1.45337
1.45432
1.45498
1.45532
1.45534
1.45505
1.45444
1.45351
1.45227
1.45071
1.44886
1.44671
1.44429
1.44159
1.43864
1.43546
1.43206
1.42846
1.42469
1.42077
1.41673
1.41259
1.40838
1.40412
1.39984
1.39557
1.39133
1.38714
1.38303
1.37902
1.37513
1.37136
1.36773
1.36425
1.36092
1.35775
1.35474
1.35188
1.34918
1.34663
1.34421
1.34192
1.33977
1.33772
1.33579
1.33396
1.33223
1.33059
1.32904
1.32758
1.3262
1.3249
1.32369
1.32255
1.3215
1.32052
1.31963
1.31883
1.3181
1.31745
1.31688
1.31639
1.31597
1.31561
1.31532
1.31509
1.31492
1.31478
1.31469
1.31463
1.31459
1.31458
1.31457
1.31458
1.31459
1.31459
1.3146
1.38208
1.38223
1.38254
1.38301
1.38363
1.3844
1.38532
1.3864
1.38763
1.38901
1.39054
1.39222
1.39404
1.396
1.39811
1.40036
1.40274
1.40526
1.4079
1.41066
1.41353
1.41651
1.41958
1.42274
1.42597
1.42926
1.43259
1.43595
1.43931
1.44267
1.44599
1.44926
1.45246
1.45556
1.45855
1.46141
1.46411
1.46663
1.46897
1.47109
1.47298
1.47464
1.47604
1.47718
1.47804
1.47863
1.47892
1.47892
1.47863
1.47804
1.47716
1.47598
1.47452
1.47279
1.47078
1.46851
1.46599
1.46324
1.46027
1.4571
1.45375
1.45024
1.44659
1.44283
1.43897
1.43504
1.43106
1.42706
1.42307
1.41909
1.41516
1.4113
1.40751
1.40383
1.40025
1.3968
1.39347
1.39028
1.38723
1.38432
1.38156
1.37893
1.37643
1.37406
1.37182
1.36969
1.36768
1.36577
1.36396
1.36225
1.36062
1.35909
1.35764
1.35627
1.35499
1.35378
1.35265
1.35161
1.35064
1.34975
1.34894
1.3482
1.34754
1.34696
1.34644
1.346
1.34562
1.3453
1.34503
1.34482
1.34465
1.34452
1.34442
1.34435
1.3443
1.34427
1.34425
1.34424
1.34423
1.34423
1.4125
1.41264
1.41294
1.41338
1.41397
1.41471
1.41559
1.41662
1.41779
1.4191
1.42056
1.42215
1.42389
1.42575
1.42775
1.42988
1.43214
1.43451
1.437
1.4396
1.44231
1.44511
1.44799
1.45094
1.45396
1.45703
1.46014
1.46326
1.46639
1.4695
1.47258
1.4756
1.47856
1.48143
1.48418
1.48681
1.4893
1.49162
1.49376
1.49571
1.49745
1.49896
1.50024
1.50127
1.50205
1.50257
1.50282
1.5028
1.5025
1.50193
1.5011
1.49999
1.49861
1.49698
1.4951
1.49298
1.49062
1.48806
1.48529
1.48233
1.47921
1.47594
1.47253
1.46902
1.46542
1.46175
1.45803
1.45429
1.45054
1.44682
1.44312
1.43948
1.43591
1.43242
1.42902
1.42574
1.42256
1.41951
1.41658
1.41377
1.41109
1.40854
1.4061
1.40379
1.40159
1.39951
1.39752
1.39564
1.39386
1.39217
1.39056
1.38905
1.38761
1.38626
1.38499
1.38379
1.38268
1.38164
1.38067
1.37979
1.37897
1.37823
1.37756
1.37696
1.37643
1.37597
1.37556
1.37522
1.37492
1.37468
1.37448
1.37431
1.37418
1.37409
1.37401
1.37395
1.37392
1.37389
1.37387
1.37387
1.44276
1.4429
1.44319
1.44361
1.44417
1.44487
1.44571
1.44669
1.44781
1.44906
1.45044
1.45195
1.4536
1.45537
1.45726
1.45928
1.46141
1.46365
1.466
1.46845
1.47099
1.47362
1.47632
1.47909
1.48191
1.48477
1.48766
1.49057
1.49347
1.49636
1.49921