/*--------------------------------*- C++ -*----------------------------------*\
| =========                 |                                                 |
| \\      /  F ield         | OpenFOAM: The Open Source CFD Toolbox           |
|  \\    /   O peration     | Version:  2406                                  |
|   \\  /    A nd           | Website:  www.openfoam.com                      |
|    \\/     M anipulation  |                                                 |
\*---------------------------------------------------------------------------*/
FoamFile
{
    version     2.0;
    format      ascii;
    arch        "LSB;label=32;scalar=64";
    class       volScalarField;
    location    "3.6";
    object      C_0_0;
}
// * * * * * * * * * * * * * * * * * * * * * * * * * * * * * * * * * * * * * //

dimensions      [1 -3 0 0 0 0 0];

internalField   nonuniform List<scalar> 
14400
(
0.537593
0.525417
0.509004
0.493435
0.48062
0.471596
0.46699
0.467178
0.472342
0.482501
0.497498
0.516955
0.540145
0.565526
0.588264
0.599635
0.598736
0.58468
0.563249
0.543166
0.526967
0.515897
0.51072
0.511988
0.520153
0.53561
0.558717
0.589794
0.629108
0.676795
0.732643
0.794939
0.851323
0.889973
0.917989
0.942647
0.964383
0.983538
1.00037
1.0151
1.02787
1.03882
1.04805
1.05565
1.06168
1.06619
1.06922
1.07078
1.07091
1.0696
1.06685
1.06265
1.05697
1.04978
1.04103
1.03066
1.0186
1.00475
0.988998
0.9712
0.951179
0.928712
0.903521
0.875251
0.842529
0.792687
0.724928
0.66124
0.604828
0.556324
0.51567
0.48259
0.456743
0.437798
0.425463
0.419492
0.419698
0.425939
0.438113
0.456134
0.479899
0.50921
0.543588
0.581426
0.612952
0.631281
0.641183
0.645607
0.644737
0.638402
0.624294
0.59818
0.566218
0.537051
0.51232
0.492521
0.477757
0.467893
0.462578
0.461214
0.462911
0.466423
0.470099
0.471992
0.470676
0.467609
0.464768
0.463836
0.466095
0.472472
0.48361
0.49991
0.521565
0.548539
0.580399
0.615513
0.644614
0.661471
0.67082
0.675357
0.552662
0.54053
0.522753
0.506014
0.492303
0.482649
0.477669
0.477723
0.482988
0.493477
0.50903
0.529251
0.553391
0.579809
0.601077
0.609529
0.609215
0.598372
0.577012
0.555867
0.538753
0.527003
0.521354
0.522343
0.530416
0.545967
0.569346
0.60086
0.640743
0.689071
0.745515
0.808081
0.859475
0.893867
0.921345
0.945567
0.966965
0.985857
1.00249
1.01705
1.02969
1.04054
1.04969
1.05722
1.0632
1.06767
1.07067
1.07223
1.07235
1.07104
1.06831
1.06413
1.05848
1.05134
1.04265
1.03236
1.02039
1.00665
0.991044
0.973424
0.953624
0.931437
0.906599
0.878775
0.847474
0.802348
0.737609
0.673197
0.615901
0.566647
0.525375
0.491801
0.465582
0.446385
0.433912
0.42792
0.42822
0.43467
0.447168
0.465624
0.489923
0.519828
0.554724
0.592589
0.621492
0.637332
0.64666
0.6509
0.650203
0.644476
0.632925
0.610289
0.578507
0.548816
0.523577
0.503433
0.488527
0.478776
0.473877
0.473276
0.476119
0.481187
0.486704
0.489944
0.487273
0.482353
0.477946
0.47586
0.477347
0.483298
0.494309
0.510733
0.532712
0.560163
0.592502
0.627336
0.652741
0.666915
0.675633
0.679893
0.576097
0.568179
0.549571
0.530936
0.515569
0.504712
0.499011
0.498812
0.504276
0.515412
0.532044
0.553681
0.57926
0.605855
0.621424
0.627192
0.627411
0.621463
0.603579
0.580897
0.562195
0.549199
0.542657
0.5431
0.550991
0.566734
0.590661
0.623042
0.664055
0.713572
0.770582
0.829924
0.87191
0.901659
0.927956
0.951312
0.972054
0.990438
1.00667
1.02091
1.0333
1.04395
1.05294
1.06035
1.06623
1.07063
1.07358
1.0751
1.07521
1.07391
1.07121
1.06707
1.0615
1.05444
1.04587
1.03572
1.02394
1.01043
0.995101
0.977826
0.958457
0.936811
0.912663
0.885732
0.855659
0.818148
0.762305
0.696726
0.637946
0.587324
0.544869
0.51033
0.483376
0.463675
0.45093
0.444896
0.445382
0.452248
0.465387
0.484701
0.510057
0.541144
0.576955
0.61317
0.635942
0.648882
0.657223
0.661132
0.660697
0.655929
0.646803
0.630784
0.602696
0.572174
0.546013
0.525217
0.510013
0.500454
0.496344
0.497203
0.502244
0.510374
0.519888
0.527043
0.520436
0.511498
0.504013
0.499711
0.499719
0.504858
0.515651
0.532339
0.554926
0.583243
0.616329
0.647092
0.665625
0.677253
0.684903
0.68869
0.603722
0.600577
0.588017
0.567702
0.55018
0.537664
0.530962
0.530413
0.536165
0.548223
0.566404
0.589974
0.616919
0.636638
0.645626
0.650329
0.651224
0.648364
0.638597
0.617278
0.597025
0.582459
0.574692
0.574336
0.581955
0.597988
0.622736
0.656387
0.69907
0.750307
0.807693
0.853455
0.885366
0.912806
0.937507
0.959672
0.9795
0.997171
1.01284
1.02663
1.03866
1.04902
1.05778
1.065
1.07074
1.07503
1.0779
1.07938
1.07948
1.07819
1.07553
1.07146
1.06599
1.05906
1.05066
1.04073
1.02921
1.01603
1.0011
0.984323
0.965567
0.944687
0.92151
0.89583
0.867407
0.835881
0.792416
0.73051
0.670791
0.618453
0.574323
0.538379
0.510344
0.489899
0.47675
0.470651
0.471413
0.478895
0.492978
0.513532
0.540385
0.573121
0.609917
0.638261
0.654029
0.665004
0.672219
0.675707
0.675523
0.67174
0.664486
0.654014
0.635523
0.606253
0.579351
0.557763
0.542068
0.532707
0.529671
0.532539
0.540449
0.552255
0.56526
0.569437
0.565702
0.553304
0.542127
0.534929
0.5329
0.536934
0.547491
0.564618
0.587926
0.616874
0.648492
0.669253
0.681923
0.691567
0.698035
0.701273
0.634288
0.632465
0.627601
0.614381
0.595465
0.581158
0.57334
0.572399
0.578489
0.591589
0.611518
0.636226
0.656072
0.66676
0.673175
0.677276
0.678788
0.677775
0.674597
0.663474
0.642803
0.6267
0.617513
0.616096
0.623334
0.639762
0.665593
0.700739
0.745272
0.796981
0.841891
0.874333
0.901599
0.926692
0.949595
0.970367
0.989104
1.00591
1.02088
1.03412
1.04569
1.05568
1.06415
1.07114
1.07669
1.08085
1.08363
1.08505
1.08513
1.08386
1.08124
1.07727
1.07192
1.06517
1.05699
1.04733
1.03615
1.02338
1.00896
0.992795
0.974799
0.95486
0.93286
0.908671
0.882171
0.853273
0.820765
0.774551
0.714619
0.660229
0.613965
0.576228
0.546792
0.525378
0.511699
0.505513
0.506631
0.514911
0.530212
0.55228
0.580745
0.614522
0.645803
0.663902
0.675824
0.684886
0.690943
0.693954
0.693949
0.691021
0.685351
0.677256
0.667068
0.64912
0.622861
0.600794
0.584318
0.57506
0.573253
0.578453
0.588874
0.601361
0.607168
0.607283
0.60755
0.602234
0.590426
0.580678
0.576286
0.579046
0.589451
0.607287
0.63098
0.659118
0.678981
0.691088
0.701201
0.709057
0.714398
0.717094
0.666678
0.665611
0.663718
0.65934
0.649009
0.634055
0.625571
0.624311
0.630699
0.644399
0.665173
0.681423
0.691317
0.697741
0.703037
0.70681
0.70888
0.709307
0.708386
0.706268
0.697095
0.681163
0.670962
0.668188
0.674925
0.691867
0.719048
0.755298
0.80038
0.839855
0.869996
0.895651
0.920004
0.942768
0.963812
0.983098
1.00064
1.01648
1.03066
1.04326
1.05431
1.06387
1.07199
1.07871
1.08405
1.08804
1.09071
1.09207
1.09212
1.09087
1.08831
1.08445
1.07925
1.0727
1.06478
1.05545
1.04467
1.03238
1.01855
1.0031
0.985973
0.967096
0.946399
0.923822
0.899331
0.872937
0.844738
0.812351
0.767278
0.712343
0.663858
0.624139
0.593057
0.570488
0.556165
0.549865
0.551398
0.560622
0.577381
0.601027
0.630401
0.661048
0.679712
0.691016
0.700479
0.707773
0.712711
0.715217
0.715297
0.713043
0.708639
0.702385
0.694721
0.68599
0.671467
0.652877
0.635569
0.62639
0.625651
0.632866
0.640063
0.644094
0.643803
0.643801
0.644184
0.644878
0.641372
0.63486
0.628431
0.630057
0.640336
0.658895
0.678934
0.694998
0.705337
0.714694
0.722737
0.729062
0.733405
0.735611
0.700133
0.699584
0.698665
0.697726
0.695894
0.69063
0.685322
0.684111
0.690556
0.701587
0.712217
0.719145
0.724616
0.729852
0.734423
0.738048
0.740613
0.742187
0.743018
0.743526
0.74393
0.739663
0.733497
0.729423
0.735779
0.753263
0.781843
0.816331
0.847513
0.872692
0.895685
0.91827
0.939997
0.960564
0.979788
0.997573
1.01388
1.0287
1.04204
1.05394
1.06442
1.07351
1.08125
1.08765
1.09275
1.09656
1.09911
1.10039
1.10041
1.09918
1.0967
1.09295
1.08793
1.08162
1.07399
1.06502
1.05468
1.04294
1.02975
1.01509
0.998898
0.98115
0.961816
0.940889
0.918393
0.894406
0.869084
0.842698
0.812643
0.77243
0.723391
0.682187
0.649365
0.625559
0.610503
0.604057
0.606006
0.616171
0.634553
0.659062
0.684921
0.70166
0.711297
0.719964
0.727301
0.733014
0.736913
0.738904
0.73898
0.737217
0.733778
0.728925
0.723026
0.716565
0.710093
0.700995
0.690926
0.683471
0.681322
0.682144
0.682296
0.680746
0.680035
0.679934
0.680404
0.681503
0.683475
0.683861
0.683696
0.686704
0.69517
0.706354
0.716625
0.724421
0.732266
0.739612
0.745991
0.751051
0.754548
0.756333
0.734138
0.733926
0.733631
0.733505
0.733917
0.735239
0.735393
0.736672
0.740785
0.745867
0.749448
0.753629
0.758151
0.762626
0.766754
0.770346
0.773339
0.775808
0.777974
0.7802
0.783005
0.787051
0.78963
0.79333
0.802388
0.818985
0.840477
0.862363
0.881869
0.901653
0.921783
0.941748
0.96115
0.979701
0.997203
1.01353
1.0286
1.04239
1.05486
1.06603
1.07591
1.0845
1.09183
1.0979
1.10274
1.10636
1.10876
1.10996
1.10996
1.10876
1.10635
1.10274
1.0979
1.09184
1.08453
1.07596
1.0661
1.05494
1.04244
1.0286
1.01338
0.996789
0.978827
0.959525
0.938947
0.917208
0.894494
0.87108
0.847345
0.821795
0.788896
0.749383
0.715332
0.690579
0.674746
0.668131
0.670376
0.680816
0.700164
0.717482
0.729714
0.736839
0.743819
0.750241
0.755749
0.76007
0.763023
0.764507
0.764502
0.763065
0.76033
0.756509
0.751894
0.74685
0.741802
0.73721
0.733029
0.728457
0.72475
0.720932
0.718179
0.716501
0.715654
0.715497
0.715995
0.717199
0.71927
0.722471
0.726844
0.731256
0.736635
0.741747
0.747374
0.753511
0.759694
0.765498
0.770563
0.774601
0.777405
0.77884
0.768356
0.768351
0.768427
0.768747
0.769522
0.770954
0.773121
0.775761
0.778175
0.780854
0.78408
0.787771
0.791734
0.795746
0.799621
0.803243
0.806587
0.809733
0.81287
0.816296
0.820424
0.82578
0.833012
0.842479
0.853385
0.866673
0.880934
0.896239
0.912847
0.930266
0.948047
0.965787
0.983154
0.999888
1.01579
1.03074
1.04462
1.05738
1.06899
1.07943
1.08868
1.09676
1.10366
1.10939
1.11395
1.11736
1.11962
1.12074
1.1207
1.11953
1.11721
1.11374
1.10911
1.10331
1.09634
1.08819
1.07883
1.06827
1.05648
1.04347
1.02924
1.0138
0.997179
0.979437
0.96066
0.940985
0.920605
0.899783
0.878864
0.858283
0.837966
0.813657
0.78749
0.763709
0.747207
0.740438
0.742611
0.749822
0.757737
0.763522
0.767473
0.772106
0.776898
0.781433
0.785381
0.788495
0.7906
0.791598
0.791456
0.790212
0.787968
0.784887
0.78119
0.77714
0.77302
0.769079
0.765407
0.761919
0.758394
0.755324
0.752983
0.751422
0.750583
0.750407
0.750878
0.752028
0.753929
0.756662
0.760195
0.764271
0.768417
0.772831
0.77758
0.782556
0.7875
0.792124
0.79616
0.799386
0.80163
0.802781
0.802578
0.802694
0.80298
0.803533
0.80447
0.805884
0.807787
0.810054
0.812487
0.815187
0.818247
0.82164
0.825267
0.829003
0.832741
0.836417
0.840034
0.843668
0.847475
0.85169
0.856616
0.862607
0.870017
0.879049
0.889631
0.901353
0.914225
0.928153
0.943013
0.958519
0.97435
0.990199
1.00579
1.0209
1.03535
1.049
1.06175
1.07353
1.08429
1.094
1.10264
1.11019
1.11666
1.12204
1.12632
1.12952
1.13163
1.13265
1.13259
1.13145
1.12922
1.12589
1.12148
1.11596
1.10934
1.10161
1.09277
1.08281
1.07174
1.05957
1.04631
1.03199
1.01665
1.00038
0.983273
0.965468
0.947156
0.928582
0.910047
0.891915
0.874605
0.858593
0.842605
0.826759
0.813754
0.805874
0.803038
0.802761
0.801949
0.802582
0.804516
0.807215
0.810234
0.81321
0.815849
0.817928
0.819287
0.819827
0.819512
0.81836
0.816443
0.813882
0.810838
0.8075
0.80406
0.800679
0.797447
0.794383
0.791498
0.788986
0.787004
0.785623
0.784848
0.784669
0.785083
0.786105
0.787758
0.790051
0.792927
0.796238
0.799796
0.80358
0.80756
0.811633
0.815625
0.819336
0.822569
0.825152
0.82695
0.827872
0.836684
0.836867
0.837266
0.837936
0.83894
0.840324
0.842089
0.844181
0.846534
0.84916
0.852081
0.855276
0.858692
0.86226
0.865921
0.86965
0.873463
0.877429
0.881674
0.886373
0.891743
0.898016
0.905399
0.914004
0.923802
0.934647
0.946459
0.959135
0.972533
0.986447
1.00064
1.01487
1.02891
1.04258
1.05571
1.06817
1.07986
1.0907
1.10065
1.10965
1.11768
1.12472
1.13075
1.13577
1.13978
1.14276
1.14472
1.14566
1.14557
1.14446
1.14232
1.13915
1.13495
1.12971
1.12345
1.11615
1.10782
1.09847
1.08811
1.07675
1.06443
1.05118
1.03707
1.02216
1.00658
0.990457
0.973971
0.95734
0.940825
0.924727
0.909372
0.895099
0.882186
0.871038
0.861512
0.853584
0.8474
0.843239
0.841026
0.840338
0.840794
0.842004
0.843615
0.845322
0.846877
0.848081
0.84879
0.848912
0.848405
0.847272
0.845561
0.843359
0.840781
0.837963
0.835039
0.832129
0.829319
0.826666
0.82423
0.822117
0.820426
0.819217
0.818519
0.818338
0.81868
0.819549
0.820948
0.822857
0.825224
0.827957
0.830948
0.834134
0.837446
0.840789
0.844032
0.847027
0.849627
0.851702
0.853146
0.853886
0.870606
0.870824
0.87128
0.872004
0.873031
0.874383
0.876063
0.878046
0.880307
0.882838
0.885639
0.888691
0.891964
0.895422
0.899036
0.902799
0.906738
0.910911
0.915417
0.920385
0.925967
0.932315
0.939558
0.947764
0.956926
0.966974
0.97783
0.989394
1.00154
1.0141
1.02689
1.03972
1.05241
1.06479
1.07673
1.0881
1.09881
1.10878
1.11795
1.12627
1.13371
1.14024
1.14586
1.15053
1.15425
1.15702
1.15884
1.15969
1.15957
1.15849
1.15644
1.15343
1.14945
1.1445
1.13859
1.13172
1.1239
1.11515
1.10547
1.09491
1.08348
1.07125
1.05827
1.04463
1.03043
1.01581
1.00093
0.985982
0.971188
0.956794
0.94306
0.930242
0.918571
0.908255
0.899337
0.891853
0.885876
0.881477
0.878579
0.87695
0.876317
0.876391
0.876897
0.877588
0.878255
0.878729
0.878881
0.878627
0.877923
0.876761
0.87517
0.873211
0.870966
0.86853
0.866004
0.86348
0.861034
0.858733
0.856639
0.854826
0.853364
0.852302
0.85167
0.851484
0.851749
0.852465
0.853625
0.855205
0.857157
0.859416
0.861907
0.86456
0.867302
0.870045
0.872687
0.875113
0.877212
0.878883
0.880044
0.88064
0.90431
0.904545
0.905025
0.905769
0.906795
0.908116
0.909732
0.911634
0.913809
0.916248
0.918945
0.921885
0.925052
0.928427
0.931999
0.935774
0.939778
0.94406
0.948698
0.953784
0.959424
0.96572
0.972754
0.980569
0.989163
0.998493
1.00849
1.01907
1.03013
1.04152
1.05309
1.06471
1.07621
1.08745
1.09832
1.1087
1.1185
1.12765
1.13609
1.14377
1.15064
1.1567
1.1619
1.16623
1.16968
1.17225
1.17391
1.17468
1.17454
1.17349
1.17154
1.16868
1.16491
1.16024
1.15468
1.14824
1.14092
1.13274
1.12373
1.11392
1.10334
1.09206
1.08013
1.06764
1.0547
1.04142
1.02796
1.01447
1.00115
0.988201
0.97583
0.964237
0.953603
0.944073
0.935727
0.928615
0.922775
0.918214
0.914862
0.912567
0.911134
0.910347
0.909994
0.909879
0.909827
0.909697
0.909378
0.908793
0.907898
0.906678
0.905149
0.90335
0.90134
0.899187
0.896967
0.894751
0.892606
0.890592
0.888766
0.887185
0.885902
0.884957
0.884377
0.884178
0.884365
0.884938
0.885884
0.887179
0.888783
0.890644
0.892703
0.894896
0.897155
0.899404
0.901557
0.903525
0.905223
0.906572
0.907509
0.907989
0.937778
0.938019
0.938507
0.939253
0.940266
0.941553
0.943115
0.944949
0.947047
0.949401
0.952006
0.954853
0.957932
0.961235
0.964761
0.96852
0.972538
0.976855
0.981529
0.986628
0.992225
0.998387
1.00517
1.0126
1.02066
1.02934
1.03857
1.04828
1.05838
1.06875
1.07927
1.08981
1.10026
1.11049
1.12039
1.12987
1.13884
1.14723
1.15499
1.16206
1.16841
1.174
1.17881
1.18281
1.186
1.18836
1.18989
1.19057
1.19041
1.1894
1.18754
1.18483
1.18128
1.17689
1.17167
1.16563
1.15879
1.15116
1.14279
1.13369
1.12391
1.11351
1.10255
1.09112
1.0793
1.06722
1.055
1.04279
1.03074
1.01903
1.00782
0.997273
0.98753
0.978708
0.970883
0.964104
0.958393
0.953741
0.950087
0.947322
0.945303
0.943869
0.942855
0.942104
0.941477
0.940855
0.940142
0.93927
0.938196
0.936904
0.935397
0.933701
0.931855
0.929911
0.927924
0.925951
0.924047
0.922263
0.920647
0.919247
0.918102
0.917246
0.916702
0.916484
0.916597
0.917038
0.917794
0.918843
0.920151
0.921675
0.923366
0.925167
0.927019
0.928857
0.930611
0.932209
0.933584
0.934674
0.935431
0.935818
0.971005
0.971246
0.971732
0.972469
0.973461
0.974714
0.976227
0.977999
0.980027
0.982304
0.984826
0.987589
0.990587
0.993819
0.997289
1.00101
1.005
1.00929
1.01394
1.01897
1.02446
1.03044
1.03694
1.04398
1.05155
1.05964
1.06818
1.07711
1.08636
1.09583
1.10541
1.11502
1.12453
1.13385
1.14289
1.15155
1.15976
1.16746
1.17458
1.18108
1.18693
1.19208
1.19652
1.20021
1.20315
1.20532
1.20671
1.20732
1.20713
1.20616
1.20439
1.20183
1.19848
1.19436
1.18947
1.18382
1.17744
1.17034
1.16256
1.15413
1.1451
1.13552
1.12545
1.11497
1.10418
1.09316
1.08204
1.07094
1.06
1.04936
1.03915
1.0295
1.02054
1.01234
1.00499
0.998524
0.992954
0.98827
0.984423
0.981331
0.978888
0.97697
0.975451
0.974207
0.973123
0.972102
0.971064
0.969948
0.968714
0.967344
0.965834
0.964201
0.96247
0.960679
0.958868
0.957083
0.955368
0.953764
0.952313
0.951052
0.950013
0.949223
0.948702
0.94846
0.948501
0.948822
0.949411
0.950247
0.951302
0.95254
0.953917
0.955387
0.956898
0.958395
0.95982
0.961116
0.962229
0.96311
0.963721
0.964033
1.00399
1.00423
1.00471
1.00543
1.0064
1.00761
1.00908
1.0108
1.01276
1.01496
1.01741
1.02009
1.02301
1.02617
1.02957
1.03322
1.03715
1.04138
1.04595
1.05087
1.0562
1.06196
1.06817
1.07483
1.08194
1.08947
1.09738
1.10562
1.11411
1.12278
1.13155
1.14032
1.149
1.15751
1.16576
1.17368
1.18119
1.18825
1.19479
1.20076
1.20614
1.21088
1.21497
1.21837
1.22107
1.22305
1.22432
1.22485
1.22465
1.2237
1.22202
1.21961
1.21646
1.2126
1.20802
1.20275
1.1968
1.19021
1.18299
1.17519
1.16685
1.15802
1.14876
1.13915
1.12927
1.1192
1.10906
1.09894
1.08897
1.07925
1.06991
1.06105
1.05277
1.04514
1.03822
1.03205
1.02663
1.02196
1.018
1.01469
1.01195
1.00967
1.00777
1.00615
1.00471
1.00337
1.00206
1.00074
0.999369
0.997922
0.996396
0.994798
0.993145
0.991464
0.989787
0.988145
0.986576
0.985113
0.983789
0.982635
0.981675
0.980932
0.980421
0.980152
0.980126
0.980339
0.980781
0.981433
0.982271
0.983264
0.984376
0.985566
0.98679
0.988003
0.989158
0.990206
0.991106
0.991817
0.99231
0.992562
1.03674
1.03697
1.03744
1.03814
1.03908
1.04026
1.04168
1.04334
1.04524
1.04738
1.04975
1.05235
1.05519
1.05827
1.06159
1.06517
1.06901
1.07315
1.07759
1.08237
1.08751
1.09303
1.09894
1.10523
1.1119
1.11893
1.12627
1.13387
1.14169
1.14965
1.15768
1.1657
1.17364
1.18141
1.18896
1.19621
1.20309
1.20956
1.21556
1.22105
1.22599
1.23034
1.2341
1.23722
1.2397
1.24151
1.24266
1.24312
1.2429
1.24199
1.2404
1.23812
1.23517
1.23155
1.22727
1.22235
1.21682
1.21069
1.204
1.19678
1.18908
1.18094
1.17242
1.1636
1.15454
1.14532
1.13604
1.12679
1.11767
1.10877
1.1002
1.09203
1.08435
1.07722
1.0707
1.06481
1.05956
1.05494
1.05094
1.04749
1.04453
1.042
1.03982
1.03791
1.03619
1.0346
1.03308
1.03159
1.0301
1.02858
1.02703
1.02545
1.02385
1.02225
1.02067
1.01914
1.01768
1.01632
1.0151
1.01402
1.01312
1.01241
1.0119
1.0116
1.01151
1.01163
1.01194
1.01243
1.01308
1.01387
1.01476
1.01571
1.01669
1.01767
1.0186
1.01945
1.02017
1.02074
1.02114
1.02134
1.06925
1.06948
1.06993
1.07062
1.07153
1.07267
1.07405
1.07566
1.07749
1.07956
1.08185
1.08438
1.08714
1.09013
1.09336
1.09684
1.10058
1.10459
1.1089
1.11351
1.11845
1.12372
1.12932
1.13526
1.14151
1.14807
1.15488
1.16192
1.16912
1.17644
1.18381
1.19116
1.19843
1.20555
1.21246
1.2191
1.22541
1.23134
1.23684
1.24188
1.24641
1.25041
1.25386
1.25672
1.25899
1.26064
1.26167
1.26207
1.26184
1.26096
1.25945
1.25731
1.25454
1.25115
1.24716
1.24258
1.23743
1.23174
1.22553
1.21885
1.21174
1.20423
1.1964
1.18828
1.17996
1.17151
1.163
1.15452
1.14615
1.13797
1.13007
1.12251
1.11538
1.10871
1.10255
1.09693
1.09185
1.08732
1.08331
1.07978
1.07669
1.07398
1.0716
1.06947
1.06754
1.06575
1.06407
1.06244
1.06085
1.05927
1.05769
1.05612
1.05455
1.05301
1.0515
1.05005
1.04868
1.0474
1.04625
1.04524
1.04438
1.04368
1.04317
1.04284
1.04269
1.04272
1.04292
1.04327
1.04377
1.04437
1.04507
1.04582
1.04661
1.04739
1.04813
1.04881
1.04939
1.04984
1.05016
1.05032
1.10154
1.10176
1.1022
1.10286
1.10375
1.10485
1.10618
1.10774
1.10951
1.11151
1.11373
1.11618
1.11885
1.12174
1.12488
1.12825
1.13187
1.13575
1.1399
1.14433
1.14905
1.15406
1.15937
1.16496
1.17083
1.17694
1.18328
1.18979
1.19645
1.20319
1.20996
1.21671
1.22338
1.22991
1.23624
1.24232
1.2481
1.25354
1.25859
1.26321
1.26737
1.27104
1.2742
1.27682
1.27889
1.28039
1.28132
1.28166
1.28141
1.28057
1.27914
1.27713
1.27453
1.27136
1.26763
1.26337
1.25858
1.2533
1.24755
1.24137
1.23479
1.22787
1.22064
1.21317
1.20552
1.19775
1.18993
1.18214
1.17443
1.16689
1.15959
1.15258
1.14593
1.13968
1.13386
1.1285
1.12361
1.11918
1.1152
1.11164
1.10847
1.10565
1.10311
1.10083
1.09874
1.09681
1.095
1.09326
1.09159
1.08996
1.08835
1.08678
1.08524
1.08373
1.08228
1.08089
1.07958
1.07837
1.07727
1.07629
1.07546
1.07478
1.07426
1.07389
1.07369
1.07364
1.07374
1.07398
1.07433
1.07479
1.07532
1.07591
1.07652
1.07714
1.07772
1.07826
1.07872
1.07909
1.07934
1.07947
1.1336
1.13382
1.13424
1.13488
1.13574
1.13681
1.13809
1.13959
1.14131
1.14324
1.14539
1.14775
1.15033
1.15313
1.15615
1.15941
1.1629
1.16664
1.17062
1.17486
1.17936
1.18412
1.18914
1.1944
1.19989
1.2056
1.21149
1.21753
1.22368
1.2299
1.23613
1.24234
1.24846
1.25445
1.26026
1.26584
1.27114
1.27613
1.28076
1.285
1.28881
1.29218
1.29507
1.29747
1.29936
1.30072
1.30155
1.30184
1.30158
1.30077
1.29942
1.29752
1.29509
1.29213
1.28865
1.28468
1.28023
1.27532
1.26999
1.26427
1.25819
1.2518
1.24513
1.23825
1.2312
1.22405
1.21684
1.20966
1.20255
1.19558
1.18882
1.1823
1.17609
1.17021
1.16471
1.1596
1.15489
1.15058
1.14667
1.14312
1.13991
1.13701
1.13439
1.13199
1.12979
1.12775
1.12584
1.12402
1.12229
1.12061
1.11899
1.11741
1.11588
1.11441
1.11299
1.11165
1.11038
1.10922
1.10815
1.10721
1.1064
1.10572
1.10518
1.10478
1.10453
1.10441
1.10443
1.10456
1.1048
1.10512
1.10552
1.10596
1.10644
1.10691
1.10737
1.10779
1.10815
1.10844
1.10864
1.10874
1.16545
1.16566
1.16607
1.16669
1.16752
1.16855
1.16979
1.17124
1.17289
1.17475
1.17682
1.1791
1.18159
1.18429
1.1872
1.19034
1.19369
1.19727
1.20109
1.20513
1.20941
1.21392
1.21865
1.2236
1.22875
1.23407
1.23955
1.24516
1.25085
1.25659
1.26234
1.26805
1.27368
1.27918
1.28452
1.28964
1.2945
1.29908
1.30332
1.30721
1.31071
1.31379
1.31644
1.31863
1.32035
1.32159
1.32233
1.32257
1.3223
1.32152
1.32024
1.31845
1.31617
1.31341
1.31016
1.30646
1.30233
1.29777
1.29283
1.28753
1.28191
1.276
1.26984
1.26349
1.25698
1.25038
1.24374
1.2371
1.23053
1.22407
1.21779
1.21172
1.2059
1.20038
1.19517
1.1903
1.18578
1.1816
1.17776
1.17425
1.17104
1.16811
1.16543
1.16296
1.16069
1.15857
1.15658
1.15471
1.15292
1.15121
1.14957
1.14799
1.14647
1.14502
1.14363
1.14232
1.14109
1.13996
1.13892
1.138
1.1372
1.13652
1.13596
1.13554
1.13524
1.13506
1.135
1.13504
1.13517
1.13539
1.13567
1.13599
1.13635
1.13671
1.13706
1.13738
1.13766
1.13788
1.13804
1.13812
1.1971
1.1973
1.1977
1.19829
1.19909
1.20008
1.20128
1.20267
1.20427
1.20606
1.20805
1.21024
1.21264
1.21523
1.21803
1.22104
1.22426
1.22768
1.23132
1.23517
1.23923
1.24349
1.24795
1.2526
1.25742
1.26239
1.2675
1.2727
1.27797
1.28327
1.28858
1.29384
1.29902
1.30408
1.30898
1.31369
1.31815
1.32235
1.32625
1.32981
1.33302
1.33584
1.33826
1.34026
1.34183
1.34294
1.3436
1.3438
1.34352
1.34278
1.34156
1.33988
1.33774
1.33516
1.33214
1.32869
1.32484
1.32062
1.31603
1.31112
1.30591
1.30044
1.29475
1.28888
1.28287
1.27677
1.27062
1.26448
1.25839
1.2524
1.24655
1.24088
1.23543
1.23023
1.2253
1.22066
1.21632
1.21228
1.20853
1.20508
1.20189
1.19895
1.19625
1.19374
1.19142
1.18925
1.18722
1.1853
1.18348
1.18175
1.18009
1.17851
1.177
1.17556
1.1742
1.17291
1.17171
1.1706
1.16958
1.16868
1.16788
1.16719
1.16662
1.16616
1.16582
1.16559
1.16546
1.16542
1.16547
1.16559
1.16577
1.166
1.16625
1.16651
1.16677
1.16701
1.16723
1.16739
1.16751
1.16757
1.22855
1.22874
1.22912
1.2297
1.23046
1.23142
1.23257
1.23391
1.23544
1.23716
1.23908
1.24118
1.24348
1.24597
1.24866
1.25154
1.25461
1.25788
1.26134
1.265
1.26884
1.27287
1.27707
1.28143
1.28594
1.29059
1.29534
1.30017
1.30505
1.30996
1.31486
1.31971
1.32448
1.32914
1.33365
1.33797
1.34208
1.34593
1.3495
1.35277
1.35571
1.3583
1.36051
1.36233
1.36375
1.36476
1.36534
1.3655
1.36522
1.3645
1.36335
1.36177
1.35977
1.35735
1.35453
1.35132
1.34774
1.34381
1.33956
1.335
1.33017
1.32511
1.31984
1.3144
1.30884
1.30319
1.2975
1.2918
1.28615
1.28058
1.27512
1.26982
1.26471
1.2598
1.25514
1.25072
1.24655
1.24266
1.23902
1.23563
1.23249
1.22957
1.22686
1.22434
1.222
1.2198
1.21774
1.21579
1.21395
1.21221
1.21055
1.20896
1.20746
1.20603
1.20468
1.20341
1.20223
1.20114
1.20014
1.19924
1.19844
1.19775
1.19716
1.19667
1.19629
1.19601
1.19582
1.19572
1.1957
1.19574
1.19583
1.19597
1.19614
1.19632
1.1965
1.19668
1.19683
1.19696
1.19704
1.19709
1.2598
1.25999
1.26035
1.26091
1.26164
1.26256
1.26367
1.26495
1.26642
1.26808
1.26991
1.27193
1.27413
1.27652
1.27909
1.28184
1.28477
1.28788
1.29117
1.29463
1.29827
1.30207
1.30602
1.31011
1.31434
1.31867
1.32309
1.32758
1.33211
1.33666
1.34118
1.34566
1.35006
1.35435
1.3585
1.36247
1.36625
1.36978
1.37307
1.37606
1.37876
1.38112
1.38314
1.3848
1.38609
1.387
1.38751
1.38763
1.38734
1.38666
1.38557
1.38408
1.3822
1.37994
1.37731
1.37432
1.37099
1.36733
1.36338
1.35915
1.35468
1.34998
1.34509
1.34006
1.3349
1.32966
1.32438
1.31909
1.31383
1.30864
1.30354
1.29858
1.29377
1.28915
1.28472
1.28051
1.27653
1.27277
1.26925
1.26595
1.26286
1.25998
1.25729
1.25478
1.25242
1.25022
1.24814
1.24618
1.24433
1.24258
1.24092
1.23934
1.23784
1.23642
1.23509
1.23383
1.23267
1.23159
1.2306
1.2297
1.2289
1.2282
1.22759
1.22708
1.22667
1.22634
1.2261
1.22594
1.22586
1.22583
1.22585
1.22592
1.22601
1.22612
1.22624
1.22636
1.22647
1.22655
1.22662
1.22665
1.29087
1.29105
1.2914
1.29193
1.29264
1.29352
1.29458
1.29581
1.29722
1.29881
1.30057
1.3025
1.3046
1.30688
1.30933
1.31195
1.31474
1.3177
1.32082
1.3241
1.32753
1.33111
1.33483
1.33867
1.34262
1.34666
1.35078
1.35496
1.35916
1.36337
1.36756
1.37169
1.37575
1.37971
1.38352
1.38718
1.39065
1.3939
1.39691
1.39966
1.40213
1.40429
1.40614
1.40765
1.40882
1.40963
1.41008
1.41016
1.40988
1.40921
1.40818
1.40678
1.40502
1.4029
1.40045
1.39766
1.39456
1.39116
1.38748
1.38355
1.3794
1.37504
1.3705
1.36583
1.36104
1.35618
1.35127
1.34634
1.34144
1.3366
1.33183
1.32718
1.32265
1.31829
1.3141
1.31009
1.30628
1.30266
1.29925
1.29604
1.29303
1.29019
1.28754
1.28504
1.2827
1.2805
1.27843
1.27647
1.27461
1.27286
1.2712
1.26963
1.26814
1.26673
1.26541
1.26417
1.26301
1.26194
1.26096
1.26006
1.25926
1.25855
1.25793
1.2574
1.25695
1.25659
1.25631
1.2561
1.25595
1.25587
1.25583
1.25583
1.25586
1.25592
1.25599
1.25606
1.25612
1.25618
1.25622
1.25624
1.32177
1.32194
1.32227
1.32278
1.32346
1.3243
1.32532
1.3265
1.32785
1.32936
1.33105
1.33289
1.3349
1.33707
1.33941
1.3419
1.34455
1.34736
1.35031
1.35341
1.35665
1.36002
1.36351
1.36711
1.37081
1.37458
1.37842
1.3823
1.3862
1.3901
1.39398
1.3978
1.40155
1.40519
1.40871
1.41208
1.41526
1.41825
1.42102
1.42354
1.4258
1.42778
1.42946
1.43084
1.4319
1.43262
1.43302
1.43307
1.43278
1.43214
1.43116
1.42984
1.42819
1.42621
1.42391
1.42131
1.41842
1.41526
1.41184
1.40818
1.40432
1.40027
1.39605
1.39171
1.38726
1.38274
1.37816
1.37358
1.36901
1.36447
1.36001
1.35564
1.35138
1.34726
1.34328
1.33947
1.33582
1.33235
1.32906
1.32595
1.32301
1.32024
1.31762
1.31516
1.31284
1.31066
1.30859
1.30664
1.3048
1.30305
1.3014
1.29983
1.29836
1.29696
1.29565
1.29442
1.29327
1.29221
1.29123
1.29034
1.28953
1.28881
1.28818
1.28762
1.28715
1.28676
1.28644
1.28618
1.28599
1.28586
1.28577
1.28572
1.2857
1.2857
1.28573
1.28576
1.28579
1.28582
1.28584
1.28585
1.35249
1.35265
1.35298
1.35346
1.35411
1.35492
1.35589
1.35702
1.35831
1.35975
1.36136
1.36312
1.36504
1.36711
1.36933
1.3717
1.37421
1.37687
1.37966
1.38259
1.38564
1.38881
1.39209
1.39546
1.39892
1.40244
1.40601
1.40962
1.41325
1.41686
1.42045
1.42398
1.42745
1.43081
1.43405
1.43715
1.44008
1.44283
1.44537
1.44768
1.44975
1.45156
1.4531
1.45435
1.4553
1.45595
1.45629
1.45632
1.45603
1.45541
1.45448
1.45324
1.45169
1.44983
1.44768
1.44526
1.44256
1.43961
1.43642
1.43302
1.42943
1.42566
1.42174
1.4177
1.41355
1.40934
1.40508
1.4008
1.39653
1.39229
1.3881
1.38399
1.37998
1.37608
1.37231
1.36867
1.36519
1.36186
1.35869
1.35568
1.35282
1.35012
1.34756
1.34514
1.34285
1.34069
1.33865
1.33671
1.33488
1.33315
1.33151
1.32995
1.32849
1.32711
1.32581
1.32459
1.32345
1.32239
1.32142
1.32053
1.31972
1.31899
1.31834
1.31777
1.31727
1.31685
1.3165
1.31621
1.31598
1.3158
1.31566
1.31557
1.31551
1.31547
1.31546
1.31545
1.31546
1.31546
1.31547
1.31547
1.38305
1.38321
1.38352
1.38398
1.3846
1.38537
1.3863
1.38738
1.38861
1.38999
1.39152
1.39319
1.39502
1.39698
1.39909
1.40134
1.40372
1.40624
1.40888
1.41164
1.41451
1.41749
1.42057
1.42372
1.42696
1.43024
1.43357
1.43693
1.4403
1.44365
1.44697
1.45024
1.45344
1.45654
1.45953
1.46239
1.46509
1.46761
1.46994
1.47206
1.47396
1.47561
1.47701
1.47815
1.47901
1.47959
1.47989
1.47989
1.47959
1.479
1.47812
1.47695
1.47549
1.47375
1.47174
1.46947
1.46695
1.4642
1.46123
1.45806
1.45471
1.4512
1.44755
1.44378
1.43992
1.43599
1.43201
1.42801
1.42402
1.42004
1.41611
1.41224
1.40846
1.40477
1.40119
1.39773
1.39441
1.39122
1.38816
1.38525
1.38248
1.37985
1.37735
1.37498
1.37274
1.37061
1.36859
1.36668
1.36487
1.36315
1.36153
1.35999
1.35854
1.35717
1.35588
1.35467
1.35354
1.3525
1.35153
1.35063
1.34982
1.34909
1.34842
1.34784
1.34732
1.34688
1.34649
1.34617
1.34591
1.34569
1.34552
1.34539
1.34529
1.34522
1.34517
1.34514
1.34512
1.34511
1.3451
1.3451
1.41346
1.41361
1.4139
1.41435
1.41494
1.41567
1.41656
1.41758
1.41876
1.42007
1.42153
1.42312
1.42485
1.42672
1.42872
1.43085
1.43311
1.43548
1.43797
1.44058
1.44328
1.44608
1.44896
1.45192
1.45494
1.45801
1.46111
1.46423
1.46736
1.47047
1.47355
1.47657
1.47953
1.48239
1.48515
1.48778
1.49027
1.49259
1.49473
1.49667
1.49841
1.49992
1.5012
1.50223
1.50301
1.50352
1.50377
1.50375
1.50346
1.50289
1.50205
1.50094
1.49956
1.49793
1.49605
1.49393
1.49157
1.489
1.48623
1.48328
1.48015
1.47688
1.47347
1.46996
1.46636
1.46269
1.45897
1.45523
1.45148
1.44775
1.44406
1.44041
1.43684
1.43335
1.42995
1.42666
1.42349
1.42043
1.4175
1.41469
1.41201
1.40945
1.40702
1.4047
1.4025
1.40041
1.39843
1.39654
1.39476
1.39306
1.39146
1.38994
1.3885
1.38715
1.38587
1.38468
1.38356
1.38252
1.38155
1.38066
1.37985
1.37911
1.37844
1.37784
1.3773
1.37684
1.37643
1.37608
1.37579
1.37554
1.37534
1.37518
1.37505
1.37495
1.37487
1.37482
1.37478
1.37475
1.37473
1.37473
1.44372
1.44386
1.44414
1.44456
1.44513
1.44583
1.44667
1.44765
1.44876
1.45001
1.4514
1.45291
1.45456
1.45633
1.45822
1.46024
1.46237
1.46461
1.46696
1.46941
1.47195
1.47458
1.47728
1.48005
1.48287
1.48573
1.48862
1.49153
1.49443
1.49732
1.50017
1.50297
1.50571
1.50835