/*--------------------------------*- C++ -*----------------------------------*\
| =========                 |                                                 |
| \\      /  F ield         | OpenFOAM: The Open Source CFD Toolbox           |
|  \\    /   O peration     | Version:  2406                                  |
|   \\  /    A nd           | Website:  www.openfoam.com                      |
|    \\/     M anipulation  |                                                 |
\*---------------------------------------------------------------------------*/
FoamFile
{
    version     2.0;
    format      ascii;
    arch        "LSB;label=32;scalar=64";
    class       volScalarField;
    location    "7.45";
    object      Da;
}
// * * * * * * * * * * * * * * * * * * * * * * * * * * * * * * * * * * * * * //

dimensions      [0 2 -1 0 0 0 0];

internalField   nonuniform List<scalar> 
14400
(
4.71059e-05
4.70709e-05
4.70172e-05
4.69621e-05
4.69156e-05
4.68814e-05
4.68599e-05
4.6851e-05
4.68555e-05
4.68758e-05
4.69158e-05
4.69783e-05
4.70613e-05
4.71504e-05
4.721e-05
4.71872e-05
4.70513e-05
4.68455e-05
4.66144e-05
4.63776e-05
4.61373e-05
4.58889e-05
4.56295e-05
4.53599e-05
4.50859e-05
4.48163e-05
4.45606e-05
4.43276e-05
4.41244e-05
4.39573e-05
4.38323e-05
4.37578e-05
4.37475e-05
4.38293e-05
4.40696e-05
4.46772e-05
4.67596e-05
6.26523e-05
7.7999e-05
7.8e-05
7.8e-05
7.8e-05
7.8e-05
7.8e-05
7.8e-05
7.8e-05
7.8e-05
7.8e-05
7.8e-05
7.8e-05
7.8e-05
7.8e-05
7.8e-05
7.8e-05
7.8e-05
7.8e-05
7.8e-05
7.8e-05
7.8e-05
7.79613e-05
5.53346e-05
4.63181e-05
4.47437e-05
4.42593e-05
4.40976e-05
4.40931e-05
4.41921e-05
4.43734e-05
4.46281e-05
4.49511e-05
4.53352e-05
4.57663e-05
4.6219e-05
4.66569e-05
4.70384e-05
4.73272e-05
4.75019e-05
4.75598e-05
4.75166e-05
4.74032e-05
4.7261e-05
4.71391e-05
4.70972e-05
4.72258e-05
4.77299e-05
4.9418e-05
5.80923e-05
7.79379e-05
6.38153e-05
4.96319e-05
4.73272e-05
4.65685e-05
4.62369e-05
4.60954e-05
4.60596e-05
4.6089e-05
4.6159e-05
4.62526e-05
4.63561e-05
4.64574e-05
4.65448e-05
4.66068e-05
4.66325e-05
4.66139e-05
4.65485e-05
4.64411e-05
4.63014e-05
4.61414e-05
4.59732e-05
4.58088e-05
4.56599e-05
4.55387e-05
4.54598e-05
4.54425e-05
4.55184e-05
4.57505e-05
4.62995e-05
4.77659e-05
5.38329e-05
7.77305e-05
4.70201e-05
4.69592e-05
4.68718e-05
4.67864e-05
4.67167e-05
4.66668e-05
4.66364e-05
4.66249e-05
4.66328e-05
4.66628e-05
4.67196e-05
4.68079e-05
4.69293e-05
4.70724e-05
4.71957e-05
4.72114e-05
4.70342e-05
4.67717e-05
4.64985e-05
4.62376e-05
4.59875e-05
4.574e-05
4.54892e-05
4.52336e-05
4.49766e-05
4.47251e-05
4.44871e-05
4.42705e-05
4.40822e-05
4.39284e-05
4.38159e-05
4.37538e-05
4.37575e-05
4.38579e-05
4.41286e-05
4.48043e-05
4.71793e-05
6.82029e-05
7.8e-05
7.8e-05
7.8e-05
7.8e-05
7.8e-05
7.8e-05
7.8e-05
7.8e-05
7.8e-05
7.8e-05
7.8e-05
7.8e-05
7.8e-05
7.8e-05
7.8e-05
7.8e-05
7.8e-05
7.8e-05
7.8e-05
7.8e-05
7.8e-05
7.79966e-05
6.03897e-05
4.67442e-05
4.48425e-05
4.42968e-05
4.41088e-05
4.40864e-05
4.41693e-05
4.43335e-05
4.45682e-05
4.48669e-05
4.52215e-05
4.56181e-05
4.60337e-05
4.64355e-05
4.67868e-05
4.70552e-05
4.72212e-05
4.72824e-05
4.72535e-05
4.71632e-05
4.70501e-05
4.69612e-05
4.69552e-05
4.7126e-05
4.7701e-05
4.96953e-05
6.1996e-05
7.79921e-05
6.95957e-05
5.01051e-05
4.74177e-05
4.65588e-05
4.61785e-05
4.60056e-05
4.59462e-05
4.59563e-05
4.60103e-05
4.60913e-05
4.61863e-05
4.62837e-05
4.63719e-05
4.64383e-05
4.64695e-05
4.64547e-05
4.63902e-05
4.62825e-05
4.61441e-05
4.59889e-05
4.58296e-05
4.56778e-05
4.55443e-05
4.54405e-05
4.53806e-05
4.53846e-05
4.54866e-05
4.57585e-05
4.64005e-05
4.83295e-05
5.96882e-05
7.79859e-05
4.69471e-05
4.68163e-05
4.66508e-05
4.65032e-05
4.63898e-05
4.63116e-05
4.62656e-05
4.62494e-05
4.62628e-05
4.63089e-05
4.63943e-05
4.6529e-05
4.67243e-05
4.69854e-05
4.72797e-05
4.74448e-05
4.71037e-05
4.66834e-05
4.63132e-05
4.60023e-05
4.57324e-05
4.5485e-05
4.52477e-05
4.50147e-05
4.47857e-05
4.45646e-05
4.43568e-05
4.41688e-05
4.4007e-05
4.38777e-05
4.37888e-05
4.37512e-05
4.37841e-05
4.39267e-05
4.42764e-05
4.51592e-05
4.83033e-05
7.58694e-05
7.8e-05
7.8e-05
7.8e-05
7.8e-05
7.8e-05
7.8e-05
7.8e-05
7.8e-05
7.8e-05
7.8e-05
7.8e-05
7.8e-05
7.8e-05
7.8e-05
7.8e-05
7.8e-05
7.8e-05
7.8e-05
7.8e-05
7.8e-05
7.8e-05
7.8e-05
6.93352e-05
4.74953e-05
4.5059e-05
4.43854e-05
4.41396e-05
4.40794e-05
4.41303e-05
4.42621e-05
4.44604e-05
4.47157e-05
4.50189e-05
4.53564e-05
4.57085e-05
4.60487e-05
4.63479e-05
4.65805e-05
4.67309e-05
4.67977e-05
4.67934e-05
4.67432e-05
4.66815e-05
4.66516e-05
4.67124e-05
4.69654e-05
4.76765e-05
5.01566e-05
6.88399e-05
7.79999e-05
7.66149e-05
5.15718e-05
4.7747e-05
4.65938e-05
4.6098e-05
4.58614e-05
4.57581e-05
4.57341e-05
4.57611e-05
4.58217e-05
4.59036e-05
4.59964e-05
4.60886e-05
4.61657e-05
4.62096e-05
4.62025e-05
4.61375e-05
4.60255e-05
4.58856e-05
4.57357e-05
4.55894e-05
4.54575e-05
4.53493e-05
4.52754e-05
4.52496e-05
4.52937e-05
4.5448e-05
4.58032e-05
4.6633e-05
4.93223e-05
7.01087e-05
7.8e-05
4.71204e-05
4.67897e-05
4.64623e-05
4.62109e-05
4.60336e-05
4.59174e-05
4.58512e-05
4.58286e-05
4.5848e-05
4.59135e-05
4.60352e-05
4.62324e-05
4.65397e-05
4.70187e-05
4.77735e-05
4.88269e-05
4.75381e-05
4.66877e-05
4.61304e-05
4.57382e-05
4.54372e-05
4.51857e-05
4.49612e-05
4.47521e-05
4.45541e-05
4.43675e-05
4.41953e-05
4.40422e-05
4.3914e-05
4.38173e-05
4.37615e-05
4.37606e-05
4.38409e-05
4.40606e-05
4.45938e-05
4.63513e-05
5.96485e-05
7.79967e-05
7.8e-05
7.8e-05
7.8e-05
7.8e-05
7.8e-05
7.8e-05
7.8e-05
7.8e-05
7.8e-05
7.8e-05
7.8e-05
7.8e-05
7.8e-05
7.8e-05
7.8e-05
7.8e-05
7.8e-05
7.8e-05
7.8e-05
7.8e-05
7.8e-05
7.8e-05
7.72976e-05
4.96422e-05
4.55775e-05
4.45718e-05
4.42088e-05
4.40846e-05
4.40873e-05
4.4174e-05
4.43242e-05
4.45251e-05
4.47658e-05
4.50335e-05
4.53118e-05
4.55808e-05
4.58196e-05
4.60101e-05
4.61418e-05
4.62146e-05
4.62392e-05
4.62368e-05
4.62374e-05
4.62826e-05
4.64355e-05
4.68226e-05
4.78113e-05
5.11898e-05
7.59762e-05
7.8e-05
7.79988e-05
6.44595e-05
4.90107e-05
4.67935e-05
4.60598e-05
4.572e-05
4.55542e-05
4.54862e-05
4.54806e-05
4.55185e-05
4.55882e-05
4.56801e-05
4.57837e-05
4.5883e-05
4.59516e-05
4.5958e-05
4.58857e-05
4.57579e-05
4.56064e-05
4.54555e-05
4.53194e-05
4.52077e-05
4.51283e-05
4.50908e-05
4.51101e-05
4.52128e-05
4.54535e-05
4.59728e-05
4.73038e-05
5.30832e-05
7.77412e-05
7.8e-05
4.84098e-05
4.71546e-05
4.64365e-05
4.6005e-05
4.57352e-05
4.55691e-05
4.54778e-05
4.54471e-05
4.54729e-05
4.55605e-05
4.57269e-05
4.60079e-05
4.64882e-05
4.74095e-05
4.9844e-05
6.10657e-05
4.92884e-05
4.69547e-05
4.60276e-05
4.55098e-05
4.51619e-05
4.48981e-05
4.46806e-05
4.4491e-05
4.43205e-05
4.41664e-05
4.40293e-05
4.39125e-05
4.38211e-05
4.37627e-05
4.37487e-05
4.37988e-05
4.39521e-05
4.43027e-05
4.51569e-05
4.81958e-05
7.50622e-05
7.8e-05
7.8e-05
7.8e-05
7.8e-05
7.8e-05
7.8e-05
7.8e-05
7.8e-05
7.8e-05
7.8e-05
7.8e-05
7.8e-05
7.8e-05
7.8e-05
7.8e-05
7.8e-05
7.8e-05
7.8e-05
7.8e-05
7.8e-05
7.8e-05
7.8e-05
7.8e-05
7.79999e-05
6.60241e-05
4.71086e-05
4.49531e-05
4.43483e-05
4.4121e-05
4.40568e-05
4.40873e-05
4.4182e-05
4.43241e-05
4.45006e-05
4.46994e-05
4.4907e-05
4.5109e-05
4.52913e-05
4.54425e-05
4.55567e-05
4.56353e-05
4.56879e-05
4.57328e-05
4.57976e-05
4.59256e-05
4.61953e-05
4.68069e-05
4.86791e-05
6.08124e-05
7.79921e-05
7.8e-05
7.8e-05
7.70737e-05
5.14195e-05
4.73218e-05
4.61598e-05
4.56526e-05
4.53978e-05
4.52749e-05
4.5233e-05
4.5249e-05
4.5311e-05
4.54109e-05
4.55403e-05
4.56843e-05
4.5805e-05
4.58399e-05
4.57399e-05
4.55686e-05
4.5383e-05
4.52162e-05
4.5081e-05
4.49843e-05
4.49327e-05
4.49357e-05
4.50113e-05
4.51986e-05
4.55873e-05
4.64583e-05
4.92859e-05
7.18005e-05
7.8e-05
7.8e-05
5.84377e-05
4.8848e-05
4.679e-05
4.5986e-05
4.55644e-05
4.53258e-05
4.52006e-05
4.5159e-05
4.51923e-05
4.53087e-05
4.5537e-05
4.59464e-05
4.67499e-05
4.89851e-05
6.31991e-05
7.79657e-05
5.74599e-05
4.78682e-05
4.60944e-05
4.53749e-05
4.49541e-05
4.46635e-05
4.44426e-05
4.4264e-05
4.41143e-05
4.39874e-05
4.38819e-05
4.38e-05
4.37471e-05
4.37321e-05
4.37708e-05
4.38936e-05
4.41715e-05
4.48246e-05
4.70077e-05
6.51156e-05
7.79998e-05
7.8e-05
7.8e-05
7.8e-05
7.8e-05
7.8e-05
7.8e-05
7.8e-05
7.8e-05
7.8e-05
7.8e-05
7.8e-05
7.8e-05
7.8e-05
7.8e-05
7.8e-05
7.8e-05
7.8e-05
7.8e-05
7.8e-05
7.8e-05
7.8e-05
7.8e-05
7.8e-05
7.8e-05
7.76452e-05
5.05455e-05
4.57042e-05
4.46171e-05
4.42202e-05
4.40616e-05
4.40223e-05
4.40557e-05
4.41379e-05
4.42536e-05
4.43905e-05
4.45372e-05
4.46832e-05
4.48193e-05
4.49389e-05
4.50397e-05
4.51246e-05
4.52029e-05
4.5292e-05
4.54203e-05
4.56384e-05
4.6055e-05
4.69886e-05
5.00155e-05
7.39107e-05
7.8e-05
7.8e-05
7.8e-05
7.8e-05
7.17636e-05
4.95345e-05
4.66729e-05
4.57707e-05
4.53589e-05
4.51576e-05
4.5071e-05
4.50655e-05
4.5128e-05
4.5252e-05
4.54352e-05
4.56776e-05
4.59301e-05
4.60599e-05
4.58496e-05
4.55587e-05
4.52872e-05
4.5076e-05
4.49242e-05
4.48334e-05
4.48078e-05
4.48582e-05
4.50111e-05
4.53394e-05
4.60501e-05
4.8156e-05
6.19358e-05
7.79975e-05
7.8e-05
7.8e-05
7.79667e-05
5.86761e-05
4.83194e-05
4.63526e-05
4.56088e-05
4.52414e-05
4.50628e-05
4.50049e-05
4.50491e-05
4.52101e-05
4.55457e-05
4.62039e-05
4.78302e-05
5.55184e-05
7.79235e-05
7.8e-05
7.53079e-05
4.97923e-05
4.64871e-05
4.54098e-05
4.48584e-05
4.45131e-05
4.42725e-05
4.40939e-05
4.39566e-05
4.38505e-05
4.37724e-05
4.37241e-05
4.37121e-05
4.37488e-05
4.38586e-05
4.40946e-05
4.46109e-05
4.61101e-05
5.49063e-05
7.79692e-05
7.8e-05
7.8e-05
7.8e-05
7.8e-05
7.8e-05
7.8e-05
7.8e-05
7.8e-05
7.8e-05
7.8e-05
7.8e-05
7.8e-05
7.8e-05
7.8e-05
7.8e-05
7.8e-05
7.8e-05
7.8e-05
7.8e-05
7.8e-05
7.8e-05
7.8e-05
7.8e-05
7.8e-05
7.8e-05
7.8e-05
7.24521e-05
4.79274e-05
4.52178e-05
4.44516e-05
4.41371e-05
4.40036e-05
4.3966e-05
4.39868e-05
4.40457e-05
4.41286e-05
4.42252e-05
4.43271e-05
4.44281e-05
4.45249e-05
4.46175e-05
4.47104e-05
4.48141e-05
4.49474e-05
4.5144e-05
4.54743e-05
4.61323e-05
4.80489e-05
6.08082e-05
7.79948e-05
7.8e-05
7.8e-05
7.8e-05
7.8e-05
7.79996e-05
6.55485e-05
4.88156e-05
4.63433e-05
4.55491e-05
4.52088e-05
4.50515e-05
4.50204e-05
4.50977e-05
4.52804e-05
4.55817e-05
4.60938e-05
4.68192e-05
4.76004e-05
4.66394e-05
4.59406e-05
4.54258e-05
4.51066e-05
4.49026e-05
4.48027e-05
4.48042e-05
4.49226e-05
4.52054e-05
4.58411e-05
4.75588e-05
5.60185e-05
7.79564e-05
7.8e-05
7.8e-05
7.8e-05
7.8e-05
7.79469e-05
5.64859e-05
4.79566e-05
4.6098e-05
4.54149e-05
4.51337e-05
4.50471e-05
4.51112e-05
4.53582e-05
4.59529e-05
4.7357e-05
5.23399e-05
7.7607e-05
7.8e-05
7.8e-05
7.79999e-05
6.72868e-05
4.83883e-05
4.5832e-05
4.49488e-05
4.4484e-05
4.41946e-05
4.40005e-05
4.38658e-05
4.37744e-05
4.37207e-05
4.37068e-05
4.37429e-05
4.38503e-05
4.40738e-05
4.45247e-05
4.56297e-05
5.01727e-05
7.75999e-05
7.8e-05
7.8e-05
7.8e-05
7.8e-05
7.8e-05
7.8e-05
7.8e-05
7.8e-05
7.8e-05
7.8e-05
7.8e-05
7.8e-05
7.8e-05
7.8e-05
7.8e-05
7.8e-05
7.8e-05
7.8e-05
7.8e-05
7.8e-05
7.8e-05
7.8e-05
7.8e-05
7.8e-05
7.8e-05
7.8e-05
7.8e-05
7.79996e-05
6.36545e-05
4.7146e-05
4.50058e-05
4.4351e-05
4.40663e-05
4.39361e-05
4.38888e-05
4.38918e-05
4.39266e-05
4.39814e-05
4.40488e-05
4.41241e-05
4.42057e-05
4.42958e-05
4.44007e-05
4.45336e-05
4.47189e-05
4.50039e-05
4.54996e-05
4.65653e-05
5.01965e-05
7.66553e-05
7.8e-05
7.8e-05
7.8e-05
7.8e-05
7.8e-05
7.8e-05
7.79989e-05
6.40462e-05
4.86985e-05
4.62866e-05
4.5609e-05
4.52835e-05
4.52059e-05
4.53355e-05
4.56876e-05
4.63055e-05
4.80703e-05
5.14934e-05
6.08755e-05
5.04753e-05
4.77377e-05
4.6101e-05
4.54798e-05
4.51167e-05
4.49753e-05
4.50151e-05
4.52757e-05
4.58679e-05
4.76706e-05
5.54446e-05
7.79103e-05
7.8e-05
7.8e-05
7.8e-05
7.8e-05
7.8e-05
7.8e-05
7.7949e-05
5.83793e-05
4.82535e-05
4.61693e-05
4.56244e-05
4.54681e-05
4.55817e-05
4.60507e-05
4.77876e-05
5.37864e-05
7.75606e-05
7.8e-05
7.8e-05
7.8e-05
7.8e-05
7.79933e-05
5.93743e-05
4.74566e-05
4.54128e-05
4.46487e-05
4.42482e-05
4.40127e-05
4.38679e-05
4.3785e-05
4.37552e-05
4.37825e-05
4.38873e-05
4.4117e-05
4.45913e-05
4.56711e-05
4.93454e-05
7.69985e-05
7.8e-05
7.8e-05
7.8e-05
7.8e-05
7.8e-05
7.8e-05
7.8e-05
7.8e-05
7.8e-05
7.8e-05
7.8e-05
7.8e-05
7.8e-05
7.8e-05
7.8e-05
7.8e-05
7.8e-05
7.8e-05
7.8e-05
7.8e-05
7.8e-05
7.8e-05
7.8e-05
7.8e-05
7.8e-05
7.8e-05
7.8e-05
7.8e-05
7.8e-05
7.79889e-05
5.72863e-05
4.66317e-05
4.48752e-05
4.42778e-05
4.40012e-05
4.38656e-05
4.3807e-05
4.37945e-05
4.38123e-05
4.38516e-05
4.3908e-05
4.39811e-05
4.40747e-05
4.41987e-05
4.43718e-05
4.46332e-05
4.50695e-05
4.5945e-05
4.86663e-05
7.05986e-05
7.8e-05
7.8e-05
7.8e-05
7.8e-05
7.8e-05
7.8e-05
7.8e-05
7.8e-05
7.79992e-05
6.84012e-05
4.93038e-05
4.72627e-05
4.61205e-05
4.58991e-05
4.62385e-05
4.7479e-05
4.9394e-05
6.56817e-05
7.75643e-05
7.79958e-05
7.71745e-05
6.287e-05
4.89495e-05
4.7035e-05
4.58831e-05
4.55972e-05
4.57233e-05
4.65306e-05
4.84665e-05
6.06942e-05
7.79478e-05
7.8e-05
7.8e-05
7.8e-05
7.8e-05
7.8e-05
7.8e-05
7.8e-05
7.8e-05
7.79868e-05
6.67179e-05
4.93065e-05
4.77125e-05
4.71977e-05
4.75734e-05
4.89163e-05
6.25717e-05
7.78781e-05
7.8e-05
7.8e-05
7.8e-05
7.8e-05
7.8e-05
7.8e-05
7.79686e-05
5.62834e-05
4.71381e-05
4.52354e-05
4.45286e-05
4.41954e-05
4.40174e-05
4.39355e-05
4.39358e-05
4.40259e-05
4.42612e-05
4.47976e-05
4.62527e-05
5.09696e-05
7.71505e-05
7.8e-05
7.8e-05
7.8e-05
7.8e-05
7.8e-05
7.8e-05
7.8e-05
7.8e-05
7.8e-05
7.8e-05
7.8e-05
7.8e-05
7.8e-05
7.8e-05
7.8e-05
7.8e-05
7.8e-05
7.8e-05
7.8e-05
7.8e-05
7.8e-05
7.8e-05
7.8e-05
7.8e-05
7.8e-05
7.8e-05
7.8e-05
7.8e-05
7.8e-05
7.8e-05
7.8e-05
7.79526e-05
5.46196e-05
4.64623e-05
4.48313e-05
4.42372e-05
4.39562e-05
4.38156e-05
4.37481e-05
4.37279e-05
4.3742e-05
4.37841e-05
4.38546e-05
4.39601e-05
4.41163e-05
4.43547e-05
4.47546e-05
4.55392e-05
4.78092e-05
6.31423e-05
7.7999e-05
7.8e-05
7.8e-05
7.8e-05
7.8e-05
7.8e-05
7.8e-05
7.8e-05
7.8e-05
7.8e-05
7.8e-05
7.5244e-05
5.98029e-05
4.94853e-05
4.85886e-05
5.01127e-05
6.2039e-05
7.57373e-05
7.79997e-05
7.8e-05
7.8e-05
7.8e-05
7.79988e-05
7.42236e-05
5.83855e-05
4.88933e-05
4.80409e-05
4.84421e-05
5.37269e-05
7.13292e-05
7.79965e-05
7.8e-05
7.8e-05
7.8e-05
7.8e-05
7.8e-05
7.8e-05
7.8e-05
7.8e-05
7.8e-05
7.8e-05
7.79999e-05
7.59368e-05
6.54488e-05
5.90838e-05
6.37749e-05
7.43812e-05
7.79986e-05
7.8e-05
7.8e-05
7.8e-05
7.8e-05
7.8e-05
7.8e-05
7.8e-05
7.8e-05
7.79685e-05
5.86788e-05
4.74984e-05
4.53627e-05
4.4755e-05
4.44741e-05
4.43757e-05
4.44399e-05
4.4672e-05
4.52923e-05
4.72441e-05
5.77434e-05
7.77784e-05
7.8e-05
7.8e-05
7.8e-05
7.8e-05
7.8e-05
7.8e-05
7.8e-05
7.8e-05
7.8e-05
7.8e-05
7.8e-05
7.8e-05
7.8e-05
7.8e-05
7.8e-05
7.8e-05
7.8e-05
7.8e-05
7.8e-05
7.8e-05
7.8e-05
7.8e-05
7.8e-05
7.8e-05
7.8e-05
7.8e-05
7.8e-05
7.8e-05
7.8e-05
7.8e-05
7.8e-05
7.8e-05
7.8e-05
7.79391e-05
5.53958e-05
4.6688e-05
4.48821e-05
4.42548e-05
4.39727e-05
4.38215e-05
4.37526e-05
4.37393e-05
4.377e-05
4.38448e-05
4.39762e-05
4.41942e-05
4.45595e-05
4.52989e-05
4.73762e-05
5.9234e-05
7.79932e-05
7.8e-05
7.8e-05
7.8e-05
7.8e-05
7.8e-05
7.8e-05
7.8e-05
7.8e-05
7.8e-05
7.8e-05
7.8e-05
7.8e-05
7.79942e-05
7.65413e-05
7.40052e-05
7.71325e-05
7.7998e-05
7.8e-05
7.8e-05
7.8e-05
7.8e-05
7.8e-05
7.8e-05
7.8e-05
7.79897e-05
7.55826e-05
7.09765e-05
7.38502e-05
7.79083e-05
7.8e-05
7.8e-05
7.8e-05
7.8e-05
7.8e-05
7.8e-05
7.8e-05
7.8e-05
7.8e-05
7.8e-05
7.8e-05
7.8e-05
7.8e-05
7.8e-05
7.79997e-05
7.79912e-05
7.79992e-05
7.8e-05
7.8e-05
7.8e-05
7.8e-05
7.8e-05
7.8e-05
7.8e-05
7.8e-05
7.8e-05
7.8e-05
7.8e-05
7.79932e-05
6.7412e-05
4.85781e-05
4.68407e-05
4.59855e-05
4.57598e-05
4.61634e-05
4.70212e-05
4.97786e-05
6.97339e-05
7.79928e-05
7.8e-05
7.8e-05
7.8e-05
7.8e-05
7.8e-05
7.8e-05
7.8e-05
7.8e-05
7.8e-05
7.8e-05
7.8e-05
7.8e-05
7.8e-05
7.8e-05
7.8e-05
7.8e-05
7.8e-05
7.8e-05
7.8e-05
7.8e-05
7.8e-05
7.8e-05
7.8e-05
7.8e-05
7.8e-05
7.8e-05
7.8e-05
7.8e-05
7.8e-05
7.8e-05
7.8e-05
7.8e-05
7.8e-05
7.8e-05
7.8e-05
7.79733e-05
6.00254e-05
4.72448e-05
4.50811e-05
4.44513e-05
4.41051e-05
4.39511e-05
4.38993e-05
4.39187e-05
4.40095e-05
4.41983e-05
4.45689e-05
4.52644e-05
4.74518e-05
5.9826e-05
7.79903e-05
7.8e-05
7.8e-05
7.8e-05
7.8e-05
7.8e-05
7.8e-05
7.8e-05
7.8e-05
7.8e-05
7.8e-05
7.8e-05
7.8e-05
7.8e-05
7.8e-05
7.8e-05
7.8e-05
7.8e-05
7.8e-05
7.8e-05
7.8e-05
7.8e-05
7.8e-05
7.8e-05
7.8e-05
7.8e-05
7.8e-05
7.8e-05
7.8e-05
7.8e-05
7.8e-05
7.8e-05
7.8e-05
7.8e-05
7.8e-05
7.8e-05
7.8e-05
7.8e-05
7.8e-05
7.8e-05
7.8e-05
7.8e-05
7.8e-05
7.8e-05
7.8e-05
7.8e-05
7.8e-05
7.8e-05
7.8e-05
7.8e-05
7.8e-05
7.8e-05
7.8e-05
7.8e-05
7.8e-05
7.8e-05
7.8e-05
7.8e-05
7.8e-05
7.8e-05
7.79999e-05
7.62028e-05
6.47039e-05
5.49517e-05
5.30663e-05
5.81616e-05
6.86831e-05
7.7566e-05
7.8e-05
7.8e-05
7.8e-05
7.8e-05
7.8e-05
7.8e-05
7.8e-05
7.8e-05
7.8e-05
7.8e-05
7.8e-05
7.8e-05
7.8e-05
7.8e-05
7.8e-05
7.8e-05
7.8e-05
7.8e-05
7.8e-05
7.8e-05
7.8e-05
7.8e-05
7.8e-05
7.8e-05
7.8e-05
7.8e-05
7.8e-05
7.8e-05
7.8e-05
7.8e-05
7.8e-05
7.8e-05
7.8e-05
7.8e-05
7.8e-05
7.8e-05
7.8e-05
7.8e-05
7.79975e-05
6.87466e-05
4.82623e-05
4.62038e-05
4.49128e-05
4.45415e-05
4.44075e-05
4.44082e-05
4.45474e-05
4.48936e-05
4.59127e-05
4.80643e-05
6.54902e-05
7.7996e-05
7.8e-05
7.8e-05
7.8e-05
7.8e-05
7.8e-05
7.8e-05
7.8e-05
7.8e-05
7.8e-05
7.8e-05
7.8e-05
7.8e-05
7.8e-05
7.8e-05
7.8e-05
7.8e-05
7.8e-05
7.8e-05
7.8e-05
7.8e-05
7.8e-05
7.8e-05
7.8e-05
7.8e-05
7.8e-05
7.8e-05
7.8e-05
7.8e-05
7.8e-05
7.8e-05
7.8e-05
7.8e-05
7.8e-05
7.8e-05
7.8e-05
7.8e-05
7.8e-05
7.8e-05
7.8e-05
7.8e-05
7.8e-05
7.8e-05
7.8e-05
7.8e-05
7.8e-05
7.8e-05
7.8e-05
7.8e-05
7.8e-05
7.8e-05
7.8e-05
7.8e-05
7.8e-05
7.8e-05
7.8e-05
7.8e-05
7.8e-05
7.8e-05
7.8e-05
7.8e-05
7.8e-05
7.8e-05
7.79997e-05
7.79637e-05
7.79126e-05
7.79926e-05
7.8e-05
7.8e-05
7.8e-05
7.8e-05
7.8e-05
7.8e-05
7.8e-05
7.8e-05
7.8e-05
7.8e-05
7.8e-05
7.8e-05
7.8e-05
7.8e-05
7.8e-05
7.8e-05
7.8e-05
7.8e-05
7.8e-05
7.8e-05
7.8e-05
7.8e-05
7.8e-05
7.8e-05
7.8e-05
7.8e-05
7.8e-05
7.8e-05
7.8e-05
7.8e-05
7.8e-05
7.8e-05
7.8e-05
7.8e-05
7.8e-05
7.8e-05
7.8e-05
7.8e-05
7.8e-05
7.8e-05
7.8e-05
7.8e-05
7.62848e-05
6.0816e-05
4.79536e-05
4.67642e-05
4.62549e-05
4.61603e-05
4.656e-05
4.75316e-05
5.45668e-05
7.39058e-05
7.79998e-05
7.8e-05
7.8e-05
7.8e-05
7.8e-05
7.8e-05
7.8e-05
7.8e-05
7.8e-05
7.8e-05
7.8e-05
7.8e-05
7.8e-05
7.8e-05
7.8e-05
7.8e-05
7.8e-05
7.8e-05
7.8e-05
7.8e-05
7.8e-05
7.8e-05
7.8e-05
7.8e-05
7.8e-05
7.8e-05
7.8e-05
7.8e-05
7.8e-05
7.8e-05
7.8e-05
7.8e-05
7.8e-05
7.8e-05
7.8e-05
7.8e-05
7.8e-05
7.8e-05
7.8e-05
7.8e-05
7.8e-05
7.8e-05
7.8e-05
7.8e-05
7.8e-05
7.8e-05
7.8e-05
7.8e-05
7.8e-05
7.8e-05
7.8e-05
7.8e-05
7.8e-05
7.8e-05
7.8e-05
7.8e-05
7.8e-05
7.8e-05
7.8e-05
7.8e-05
7.8e-05
7.8e-05
7.8e-05
7.8e-05
7.8e-05
7.8e-05
7.8e-05
7.8e-05
7.8e-05
7.8e-05
7.8e-05
7.8e-05
7.8e-05
7.8e-05
7.8e-05
7.8e-05
7.8e-05
7.8e-05
7.8e-05
7.8e-05
7.8e-05
7.8e-05
7.8e-05
7.8e-05
7.8e-05
7.8e-05
7.8e-05
7.8e-05
7.8e-05
7.8e-05
7.8e-05
7.8e-05
7.8e-05
7.8e-05
7.8e-05
7.8e-05
7.8e-05
7.8e-05
7.8e-05
7.8e-05
7.8e-05
7.8e-05
7.8e-05
7.8e-05
7.8e-05
7.8e-05
7.8e-05
7.8e-05
7.8e-05
7.8e-05
7.8e-05
7.79985e-05
7.58542e-05
6.70876e-05
6.00185e-05
5.8355e-05
6.31248e-05
7.25412e-05
7.79655e-05
7.8e-05
7.8e-05
7.8e-05
7.8e-05
7.8e-05
7.8e-05
7.8e-05
7.8e-05
7.8e-05
7.8e-05
7.8e-05
7.8e-05
7.8e-05
7.8e-05
7.8e-05
7.8e-05
7.8e-05
7.8e-05
7.8e-05
7.8e-05
7.8e-05
7.8e-05
7.8e-05
7.8e-05
7.8e-05
7.8e-05
7.8e-05
7.8e-05
7.8e-05
7.8e-05
7.8e-05
7.8e-05
7.8e-05
7.8e-05
7.8e-05
7.8e-05
7.8e-05
7.8e-05
7.8e-05
7.8e-05
7.8e-05
7.8e-05
7.8e-05
7.8e-05
7.8e-05
7.8e-05
7.8e-05
7.8e-05
7.8e-05
7.8e-05
7.8e-05
7.8e-05
7.8e-05
7.8e-05
7.8e-05
7.8e-05
7.8e-05
7.8e-05
7.8e-05
7.8e-05
7.8e-05
7.8e-05
7.8e-05
7.8e-05
7.8e-05
7.8e-05
7.8e-05
7.8e-05
7.8e-05
7.8e-05
7.8e-05
7.8e-05
7.8e-05
7.8e-05
7.8e-05
7.8e-05
7.8e-05
7.8e-05
7.8e-05
7.8e-05
7.8e-05
7.8e-05
7.8e-05
7.8e-05
7.8e-05
7.8e-05
7.8e-05
7.8e-05
7.8e-05
7.8e-05
7.8e-05
7.8e-05
7.8e-05
7.8e-05
7.8e-05
7.8e-05
7.8e-05
7.8e-05
7.8e-05
7.8e-05
7.8e-05
7.8e-05
7.8e-05
7.8e-05
7.8e-05
7.8e-05
7.8e-05
7.8e-05
7.8e-05
7.8e-05
7.8e-05
7.8e-05
7.8e-05
7.8e-05
7.79999e-05
7.79971e-05
7.79934e-05
7.79994e-05
7.8e-05
7.8e-05
7.8e-05
7.8e-05
7.8e-05
7.8e-05
7.8e-05
7.8e-05
7.8e-05
7.8e-05
7.8e-05
7.8e-05
7.8e-05
7.8e-05
7.8e-05
7.8e-05
7.8e-05
7.8e-05
7.8e-05
7.8e-05
7.8e-05
7.8e-05
7.8e-05
7.8e-05
7.8e-05
7.8e-05
7.8e-05
7.8e-05
7.8e-05
7.8e-05
7.8e-05
7.8e-05
7.8e-05
7.8e-05
7.8e-05
7.8e-05
7.8e-05
7.8e-05
7.8e-05
7.8e-05
7.8e-05
7.8e-05
7.8e-05
7.8e-05
7.8e-05
7.8e-05
7.8e-05
7.8e-05
7.8e-05
7.8e-05
7.8e-05
7.8e-05
7.8e-05
7.8e-05
7.8e-05
7.8e-05
7.8e-05
7.8e-05
7.8e-05
7.8e-05
7.8e-05
7.8e-05
7.8e-05
7.8e-05
7.8e-05
7.8e-05
7.8e-05
7.8e-05
7.8e-05
7.8e-05
7.8e-05
7.8e-05
7.8e-05
7.8e-05
7.8e-05
7.8e-05
7.8e-05
7.8e-05
7.8e-05
7.8e-05
7.8e-05
7.8e-05
7.8e-05
7.8e-05
7.8e-05
7.8e-05
7.8e-05
7.8e-05
7.8e-05
7.8e-05
7.8e-05
7.8e-05
7.8e-05
7.8e-05
7.8e-05
7.8e-05
7.8e-05
7.8e-05
7.8e-05
7.8e-05
7.8e-05
7.8e-05
7.8e-05
7.8e-05
7.8e-05
7.8e-05
7.8e-05
7.8e-05
7.8e-05
7.8e-05
7.8e-05
7.8e-05
7.8e-05
7.8e-05
7.8e-05
7.8e-05
7.8e-05
7.8e-05
7.8e-05
7.8e-05
7.8e-05
7.8e-05
7.8e-05
7.8e-05
7.8e-05
7.8e-05
7.8e-05
7.8e-05
7.8e-05
7.8e-05
7.8e-05
7.8e-05
7.8e-05
7.8e-05
7.8e-05
7.8e-05
7.8e-05
7.8e-05
7.8e-05
7.8e-05
7.8e-05
7.8e-05
7.8e-05
7.8e-05
7.8e-05
7.8e-05
7.8e-05
7.8e-05
7.8e-05
7.8e-05
7.8e-05
7.8e-05
7.8e-05
7.8e-05
7.8e-05
7.8e-05
7.8e-05
7.8e-05
7.8e-05
7.8e-05
7.8e-05
7.8e-05
7.8e-05
7.8e-05
7.8e-05
7.8e-05
7.8e-05
7.8e-05
7.8e-05
7.8e-05
7.8e-05
7.8e-05
7.8e-05
7.8e-05
7.8e-05
7.8e-05
7.8e-05
7.8e-05
7.8e-05
7.8e-05
7.8e-05
7.8e-05
7.8e-05
7.8e-05
7.8e-05
7.8e-05
7.8e-05
7.8e-05
7.8e-05
7.8e-05
7.8e-05
7.8e-05
7.8e-05
7.8e-05
7.8e-05
7.8e-05
7.8e-05
7.8e-05
7.8e-05
7.8e-05
7.8e-05
7.8e-05
7.8e-05
7.8e-05
7.8e-05
7.8e-05
7.8e-05
7.8e-05
7.8e-05
7.8e-05
7.8e-05
7.8e-05
7.8e-05
7.8e-05
7.8e-05
7.8e-05
7.8e-05
7.8e-05
7.8e-05
7.8e-05
7.8e-05
7.8e-05
7.8e-05
7.8e-05
7.8e-05
7.8e-05
7.8e-05
7.8e-05
7.8e-05
7.8e-05
7.8e-05
7.8e-05
7.8e-05
7.8e-05
7.8e-05
7.8e-05
7.8e-05
7.8e-05
7.8e-05
7.8e-05
7.8e-05
7.8e-05
7.8e-05
7.8e-05
7.8e-05
7.8e-05
7.8e-05
7.8e-05
7.8e-05
7.8e-05
7.8e-05
7.8e-05
7.8e-05
7.8e-05
7.8e-05
7.8e-05
7.8e-05
7.8e-05
7.8e-05
7.8e-05
7.8e-05
7.8e-05
7.8e-05
7.8e-05
7.8e-05
7.8e-05
7.8e-05
7.8e-05
7.8e-05
7.8e-05
7.8e-05
7.8e-05
7.8e-05
7.8e-05
7.8e-05
7.8e-05
7.8e-05
7.8e-05
7.8e-05
7.8e-05
7.8e-05
7.8e-05
7.8e-05
7.8e-05
7.8e-05
7.8e-05
7.8e-05
7.8e-05
7.8e-05
7.8e-05
7.8e-05
7.8e-05
7.8e-05
7.8e-05
7.8e-05
7.8e-05
7.8e-05
7.8e-05
7.8e-05
7.8e-05
7.8e-05
7.8e-05
7.8e-05
7.8e-05
7.8e-05
7.8e-05
7.8e-05
7.8e-05
7.8e-05
7.8e-05
7.8e-05
7.8e-05
7.8e-05
7.8e-05
7.8e-05
7.8e-05
7.8e-05
7.8e-05
7.8e-05
7.8e-05
7.8e-05
7.8e-05
7.8e-05
7.8e-05
7.8e-05
7.8e-05
7.8e-05
7.8e-05
7.8e-05
7.8e-05
7.8e-05
7.8e-05
7.8e-05
7.8e-05
7.8e-05
7.8e-05
7.8e-05
7.8e-05
7.8e-05
7.8e-05
7.8e-05
7.8e-05
7.8e-05
7.8e-05
7.8e-05
7.8e-05
7.8e-05
7.8e-05
7.8e-05
7.8e-05
7.8e-05
7.8e-05
7.8e-05
7.8e-05
7.8e-05
7.8e-05
7.8e-05
7.8e-05
7.8e-05
7.8e-05
7.8e-05
7.8e-05
7.8e-05
7.8e-05
7.8e-05
7.8e-05
7.8e-05
7.8e-05
7.8e-05
7.8e-05
7.8e-05
7.8e-05
7.8e-05
7.8e-05
7.8e-05
7.8e-05
7.8e-05
7.8e-05
7.8e-05
7.8e-05
7.8e-05
7.8e-05
7.8e-05
7.8e-05
7.8e-05
7.8e-05
7.8e-05
7.8e-05
7.8e-05
7.8e-05
7.8e-05
7.8e-05
7.8e-05
7.8e-05
7.8e-05
7.8e-05
7.8e-05
7.8e-05
7.8e-05
7.8e-05
7.8e-05
7.8e-05
7.8e-05
7.8e-05
7.8e-05
7.8e-05
7.8e-05
7.8e-05
7.8e-05
7.8e-05
7.8e-05
7.8e-05
7.8e-05
7.8e-05
7.8e-05
7.8e-05
7.8e-05
7.8e-05
7.8e-05
7.8e-05
7.8e-05
7.8e-05
7.8e-05
7.8e-05
7.8e-05
7.8e-05
7.8e-05
7.8e-05
7.8e-05
7.8e-05
7.8e-05
7.8e-05
7.8e-05
7.8e-05
7.8e-05
7.8e-05
7.8e-05
7.8e-05
7.8e-05
7.8e-05
7.8e-05
7.8e-05
7.8e-05
7.8e-05
7.8e-05
7.8e-05
7.8e-05
7.8e-05
7.8e-05
7.8e-05
7.8e-05
7.8e-05
7.8e-05
7.8e-05
7.8e-05
7.8e-05
7.8e-05
7.8e-05
7.8e-05
7.8e-05
7.8e-05
7.8e-05
7.8e-05
7.8e-05
7.8e-05
7.8e-05
7.8e-05
7.8e-05
7.8e-05
7.8e-05
7.8e-05
7.8e-05
7.8e-05
7.8e-05
7.8e-05
7.8e-05
7.8e-05
7.8e-05
7.8e-05
7.8e-05
7.8e-05
7.8e-05
7.8e-05
7.8e-05
7.8e-05
7.8e-05
7.8e-05
7.8e-05
7.8e-05
7.8e-05
7.8e-05
7.8e-05
7.8e-05
7.8e-05
7.8e-05
7.8e-05
7.8e-05
7.8e-05
7.8e-05
7.8e-05
7.8e-05
7.8e-05
7.8e-05
7.8e-05
7.8e-05
7.8e-05
7.8e-05
7.8e-05
7.8e-05
7.8e-05
7.8e-05
7.8e-05
7.8e-05
7.8e-05
7.8e-05
7.8e-05
7.8e-05
7.8e-05
7.8e-05
7.8e-05
7.8e-05
7.8e-05
7.8e-05
7.8e-05
7.8e-05
7.8e-05
7.8e-05
7.8e-05
7.8e-05
7.8e-05
7.8e-05
7.8e-05
7.8e-05
7.8e-05
7.8e-05
7.8e-05
7.8e-05
7.8e-05
7.8e-05
7.8e-05
7.8e-05
7.8e-05
7.8e-05
7.8e-05
7.8e-05
7.8e-05
7.8e-05
7.8e-05
7.8e-05
7.8e-05
7.8e-05
7.8e-05
7.8e-05
7.8e-05
7.8e-05
7.8e-05
7.8e-05
7.8e-05
7.8e-05
7.8e-05
7.8e-05
7.8e-05
7.8e-05
7.8e-05
7.8e-05
7.8e-05
7.8e-05
7.8e-05
7.8e-05
7.8e-05
7.8e-05
7.8e-05
7.8e-05
7.8e-05
7.8e-05
7.8e-05
7.8e-05
7.8e-05
7.8e-05
7.8e-05
7.8e-05
7.8e-05
7.8e-05
7.8e-05
7.8e-05
7.8e-05
7.8e-05
7.8e-05
7.8e-05
7.8e-05
7.8e-05
7.8e-05
7.8e-05
7.8e-05
7.8e-05
7.8e-05
7.8e-05
7.8e-05
7.8e-05
7.8e-05
7.8e-05
7.8e-05
7.8e-05
7.8e-05
7.8e-05
7.8e-05
7.8e-05
7.8e-05
7.8e-05
7.8e-05
7.8e-05
7.8e-05
7.8e-05
7.8e-05
7.8e-05
7.8e-05
7.8e-05
7.8e-05
7.8e-05
7.8e-05
7.8e-05
7.8e-05
7.8e-05
7.8e-05
7.8e-05
7.8e-05
7.8e-05
7.8e-05
7.8e-05
7.8e-05
7.8e-05
7.8e-05
7.8e-05
7.8e-05
7.8e-05
7.8e-05
7.8e-05
7.8e-05
7.8e-05
7.8e-05
7.8e-05
7.8e-05
7.8e-05
7.8e-05
7.8e-05
7.8e-05
7.8e-05
7.8e-05
7.8e-05
7.8e-05
7.8e-05
7.8e-05
7.8e-05
7.8e-05
7.8e-05
7.8e-05
7.8e-05
7.8e-05
7.8e-05
7.8e-05
7.8e-05
7.8e-05
7.8e-05
7.8e-05
7.8e-05
7.8e-05
7.8e-05
7.8e-05
7.8e-05
7.8e-05
7.8e-05
7.8e-05
7.8e-05
7.8e-05
7.8e-05
7.8e-05
7.8e-05
7.8e-05
7.8e-05
7.8e-05
7.8e-05
7.8e-05
7.8e-05
7.8e-05
7.8e-05
7.8e-05
7.8e-05
7.8e-05
7.8e-05
7.8e-05
7.8e-05
7.8e-05
7.8e-05
7.8e-05
7.8e-05
7.8e-05
7.8e-05
7.8e-05
7.8e-05
7.8e-05
7.8e-05
7.8e-05
7.8e-05
7.8e-05
7.8e-05
7.8e-05
7.8e-05
7.8e-05
7.8e-05
7.8e-05
7.8e-05
7.8e-05
7.8e-05
7.8e-05
7.8e-05
7.8e-05
7.8e-05
7.8e-05
7.8e-05
7.8e-05
7.8e-05
7.8e-05
7.8e-05
7.8e-05
7.8e-05
7.8e-05
7.8e-05
7.8e-05
7.8e-05
7.8e-05
7.8e-05
7.8e-05
7.8e-05
7.8e-05
7.8e-05
7.8e-05
7.8e-05
7.8e-05
7.8e-05
7.8e-05
7.8e-05
7.8e-05
7.8e-05
7.8e-05
7.8e-05
7.8e-05
7.8e-05
7.8e-05
7.8e-05
7.8e-05
7.8e-05
7.8e-05
7.8e-05
7.8e-05
7.8e-05
7.8e-05
7.8e-05
7.8e-05
7.8e-05
7.8e-05
7.8e-05
7.8e-05
7.8e-05
7.8e-05
7.8e-05
7.8e-05
7.8e-05
7.8e-05
7.8e-05
7.8e-05
7.8e-05
7.8e-05
7.8e-05
7.8e-05
7.8e-05
7.8e-05
7.8e-05
7.8e-05
7.8e-05
7.8e-05
7.8e-05
7.8e-05
7.8e-05
7.8e-05
7.8e-05
7.8e-05
7.8e-05
7.8e-05
7.8e-05
7.8e-05
7.8e-05
7.8e-05
7.8e-05
7.8e-05
7.8e-05
7.8e-05
7.8e-05
7.8e-05
7.8e-05
7.8e-05
7.8e-05
7.8e-05
7.8e-05
7.8e-05
7.8e-05
7.8e-05
7.8e-05
7.8e-05
7.8e-05
7.8e-05
7.8e-05
7.8e-05
7.8e-05
7.8e-05
7.8e-05
7.8e-05
7.8e-05
7.8e-05
7.8e-05
7.8e-05
7.8e-05
7.8e-05
7.8e-05
7.8e-05
7.8e-05
7.8e-05
7.8e-05
7.8e-05
7.8e-05
7.8e-05
7.8e-05
7.8e-05
7.8e-05
7.8e-05
7.8e-05
7.8e-05
7.8e-05
7.8e-05
7.8e-05
7.8e-05
7.8e-05
7.8e-05
7.8e-05
7.8e-05
7.8e-05
7.8e-05
7.8e-05
7.8e-05
7.8e-05
7.8e-05
7.8e-05
7.8e-05
7.8e-05
7.8e-05
7.8e-05
7.8e-05
7.8e-05
7.8e-05
7.8e-05
7.8e-05
7.8e-05
7.8e-05
7.8e-05
7.8e-05
7.8e-05
7.8e-05
7.8e-05
7.8e-05
7.8e-05
7.8e-05
7.8e-05
7.8e-05
7.8e-05
7.8e-05
7.8e-05
7.8e-05
7.8e-05
7.8e-05
7.8e-05
7.8e-05
7.8e-05
7.8e-05
7.8e-05
7.8e-05
7.8e-05
7.8e-05
7.8e-05
7.8e-05
7.8e-05
7.8e-05
7.8e-05
7.8e-05
7.8e-05
7.8e-05
7.8e-05
7.8e-05
7.8e-05
7.8e-05
7.8e-05
7.8e-05
7.8e-05
7.8e-05
7.8e-05
7.8e-05
7.8e-05
7.8e-05
7.8e-05
7.8e-05
7.8e-05
7.8e-05
7.8e-05
7.8e-05
7.8e-05
7.8e-05
7.8e-05
7.8e-05
7.8e-05
7.8e-05
7.8e-05
7.8e-05
7.8e-05
7.8e-05
7.8e-05
7.8e-05
7.8e-05
7.8e-05
7.8e-05
7.8e-05
7.8e-05
7.8e-05
7.8e-05
7.8e-05
7.8e-05
7.8e-05
7.8e-05
7.8e-05
7.8e-05
7.8e-05
7.8e-05
7.8e-05
7.8e-05
7.8e-05
7.8e-05
7.8e-05
7.8e-05
7.8e-05
7.8e-05
7.8e-05
7.8e-05
7.8e-05
7.8e-05
7.8e-05
7.8e-05
7.8e-05
7.8e-05
7.8e-05
7.8e-05
7.8e-05
7.8e-05
7.8e-05
7.8e-05
7.8e-05
7.8e-05
7.8e-05
7.8e-05
7.8e-05
7.8e-05
7.8e-05
7.8e-05
7.8e-05
7.8e-05
7.8e-05
7.8e-05
7.8e-05
7.8e-05
7.8e-05
7.8e-05
7.8e-05
7.8e-05
7.8e-05
7.8e-05
7.8e-05
7.8e-05
7.8e-05
7.8e-05
7.8e-05
7.8e-05
7.8e-05
7.8e-05
7.8e-05
7.8e-05
7.8e-05
7.8e-05
7.8e-05
7.8e-05
7.8e-05
7.8e-05
7.8e-05
7.8e-05
7.8e-05
7.8e-05
7.8e-05
7.8e-05
7.8e-05
7.8e-05
7.8e-05
7.8e-05
7.8e-05
7.8e-05
7.8e-05
7.8e-05
7.8e-05
7.8e-05
7.8e-05
7.8e-05
7.8e-05
7.8e-05
7.8e-05
7.8e-05
7.8e-05
7.8e-05
7.8e-05
7.8e-05
7.8e-05
7.8e-05
7.8e-05
7.8e-05
7.8e-05
7.8e-05
7.8e-05
7.8e-05
7.8e-05
7.8e-05
7.8e-05
7.8e-05
7.8e-05
7.8e-05
7.8e-05
7.8e-05
7.8e-05
7.8e-05
7.8e-05
7.8e-05
7.8e-05
7.8e-05
7.8e-05
7.8e-05
7.8e-05
7.8e-05
7.8e-05
7.8e-05
7.8e-05
7.8e-05
7.8e-05
7.8e-05
7.8e-05
7.8e-05
7.8e-05
7.8e-05
7.8e-05
7.8e-05
7.8e-05
7.8e-05
7.8e-05
7.8e-05
7.8e-05
7.8e-05
7.8e-05
7.8e-05
7.8e-05
7.8e-05
7.8e-05
7.8e-05
7.8e-05
7.8e-05
7.8e-05
7.8e-05
7.8e-05
7.8e-05
7.8e-05
7.8e-05
7.8e-05
7.8e-05
7.8e-05
7.8e-05
7.8e-05
7.8e-05
7.8e-05
7.8e-05
7.8e-05
7.8e-05
7.8e-05
7.8e-05
7.8e-05
7.8e-05
7.8e-05
7.8e-05
7.8e-05
7.8e-05
7.8e-05
7.8e-05
7.8e-05
7.8e-05
7.8e-05
7.8e-05
7.8e-05
7.8e-05
7.8e-05
7.8e-05
7.8e-05
7.8e-05
7.8e-05
7.8e-05
7.8e-05
7.8e-05
7.8e-05
7.8e-05
7.8e-05
7.8e-05
7.8e-05
7.8e-05
7.8e-05
7.8e-05
7.8e-05
7.8e-05
7.8e-05
7.8e-05
7.8e-05
7.8e-05
7.8e-05
7.8e-05
7.8e-05
7.8e-05
7.8e-05
7.8e-05
7.8e-05
7.8e-05
7.8e-05
7.8e-05
7.8e-05
7.8e-05
7.8e-05
7.8e-05
7.8e-05
7.8e-05
7.8e-05
7.8e-05
7.8e-05
7.8e-05
7.8e-05
7.8e-05
7.8e-05
7.8e-05
7.8e-05
7.8e-05
7.8e-05
7.8e-05
7.8e-05
7.8e-05
7.8e-05
7.8e-05
7.8e-05
7.8e-05
7.8e-05
7.8e-05
7.8e-05
7.8e-05
7.8e-05
7.8e-05
7.8e-05
7.8e-05
7.8e-05
7.8e-05
7.8e-05
7.8e-05
7.8e-05
7.8e-05
7.8e-05
7.8e-05
7.8e-05
7.8e-05
7.8e-05
7.8e-05
7.8e-05
7.8e-05
7.8e-05
7.8e-05
7.8e-05
7.8e-05
7.8e-05
7.8e-05
7.8e-05
7.8e-05
7.8e-05
7.8e-05
7.8e-05
7.8e-05
7.8e-05
7.8e-05
7.8e-05
7.8e-05
7.8e-05
7.8e-05
7.8e-05
7.8e-05
7.8e-05
7.8e-05
7.8e-05
7.8e-05
7.8e-05
7.8e-05
7.8e-05
7.8e-05
7.8e-05
7.8e-05
7.8e-05
7.8e-05
7.8e-05
7.8e-05
7.8e-05
7.8e-05
7.8e-05
7.8e-05
7.8e-05
7.8e-05
7.8e-05
7.8e-05
7.8e-05
7.8e-05
7.8e-05
7.8e-05
7.8e-05
7.8e-05
7.8e-05
7.8e-05
7.8e-05
7.8e-05
7.8e-05
7.8e-05
7.8e-05
7.8e-05
7.8e-05
7.8e-05
7.8e-05
7.8e-05
7.8e-05
7.8e-05
7.8e-05
7.8e-05
7.8e-05
7.8e-05
7.8e-05
7.8e-05
7.8e-05
7.8e-05
7.8e-05
7.8e-05
7.8e-05
7.8e-05
7.8e-05
7.8e-05
7.8e-05
7.8e-05
7.8e-05
7.8e-05
7.8e-05
7.8e-05
7.8e-05
7.8e-05
7.8e-05
7.8e-05
7.8e-05
7.8e-05