/*--------------------------------*- C++ -*----------------------------------*\
| =========                 |                                                 |
| \\      /  F ield         | OpenFOAM: The Open Source CFD Toolbox           |
|  \\    /   O peration     | Version:  2406                                  |
|   \\  /    A nd           | Website:  www.openfoam.com                      |
|    \\/     M anipulation  |                                                 |
\*---------------------------------------------------------------------------*/
FoamFile
{
    version     2.0;
    format      ascii;
    arch        "LSB;label=32;scalar=64";
    class       volScalarField;
    location    "6.45";
    object      C_0;
}
// * * * * * * * * * * * * * * * * * * * * * * * * * * * * * * * * * * * * * //

dimensions      [1 -3 0 0 0 0 0];

internalField   nonuniform List<scalar> 
14400
(
0.253615
0.252223
0.24983
0.246991
0.24425
0.242059
0.240749
0.240526
0.241476
0.243566
0.246637
0.25039
0.254367
0.257935
0.260312
0.260701
0.258667
0.25478
0.249958
0.245093
0.240936
0.23808
0.236996
0.23807
0.241632
0.247986
0.257427
0.270256
0.28679
0.307367
0.332352
0.362121
0.397046
0.437423
0.483271
0.533334
0.577704
0.608393
0.630929
0.650503
0.66742
0.681914
0.694166
0.704318
0.712478
0.71873
0.723138
0.725746
0.726581
0.725656
0.722971
0.718508
0.712238
0.704113
0.694069
0.68202
0.667855
0.651434
0.632579
0.611062
0.586488
0.550197
0.499962
0.450319
0.405382
0.365856
0.331641
0.302408
0.277767
0.257336
0.240757
0.22771
0.217917
0.211139
0.207179
0.205876
0.207107
0.210785
0.216849
0.225257
0.235971
0.248934
0.26404
0.281074
0.299592
0.318475
0.333363
0.340043
0.339234
0.330355
0.317085
0.303382
0.290428
0.27877
0.268687
0.260295
0.2536
0.248523
0.244909
0.242549
0.241186
0.24055
0.240396
0.24055
0.240966
0.241737
0.24308
0.245282
0.248657
0.253505
0.26009
0.268628
0.279275
0.292118
0.307151
0.324229
0.342959
0.362263
0.377671
0.384718
0.262321
0.260527
0.257555
0.254138
0.25091
0.24836
0.246827
0.246519
0.247523
0.249811
0.25323
0.257492
0.26214
0.266512
0.269693
0.270516
0.267948
0.26317
0.25746
0.251843
0.247094
0.243794
0.242397
0.243268
0.246724
0.253061
0.262564
0.275532
0.292277
0.313136
0.33847
0.36865
0.404034
0.444894
0.491189
0.541504
0.58342
0.611751
0.633889
0.65316
0.669843
0.684156
0.696267
0.706309
0.714385
0.720575
0.724939
0.727518
0.72834
0.727417
0.724747
0.720316
0.714093
0.706033
0.696074
0.684135
0.67011
0.653868
0.635241
0.614018
0.589923
0.556191
0.508112
0.457762
0.412133
0.372033
0.337326
0.307664
0.282653
0.261906
0.245064
0.231808
0.221858
0.214976
0.210966
0.209668
0.210962
0.214763
0.221012
0.229672
0.240707
0.254066
0.269644
0.287226
0.306347
0.32581
0.340547
0.346649
0.346502
0.33867
0.325179
0.310959
0.29751
0.28545
0.275068
0.26648
0.25969
0.254614
0.251092
0.248894
0.247739
0.247313
0.247317
0.247529
0.247881
0.248491
0.249624
0.251622
0.254838
0.259599
0.266183
0.274814
0.285651
0.298782
0.314196
0.331733
0.350944
0.370567
0.385073
0.390852
0.280296
0.277501
0.273219
0.268567
0.264337
0.261059
0.259078
0.2586
0.25971
0.262384
0.266487
0.271753
0.277751
0.283807
0.28884
0.290978
0.286897
0.280081
0.272513
0.265384
0.259465
0.255295
0.25328
0.253752
0.257002
0.263305
0.272937
0.286184
0.303354
0.324778
0.350809
0.381808
0.418106
0.459894
0.506837
0.55634
0.593215
0.61834
0.639717
0.658404
0.674637
0.688599
0.700437
0.710266
0.718179
0.724246
0.728523
0.731048
0.731844
0.730924
0.728286
0.723915
0.717784
0.709851
0.70006
0.688336
0.674584
0.658687
0.640499
0.619838
0.596477
0.566899
0.523323
0.472248
0.425562
0.384431
0.348778
0.318273
0.292525
0.271148
0.253783
0.240109
0.229847
0.222759
0.21865
0.217365
0.218787
0.222834
0.229455
0.238615
0.250288
0.264429
0.28094
0.299594
0.319836
0.340048
0.353616
0.358968
0.359545
0.354427
0.341308
0.326117
0.311718
0.298885
0.287924
0.278955
0.271985
0.266925
0.263604
0.261764
0.261068
0.261115
0.261484
0.261829
0.262032
0.262267
0.262929
0.264475
0.267343
0.27191
0.278481
0.287289
0.298496
0.312188
0.328347
0.346776
0.366856
0.386482
0.398007
0.402339
0.308668
0.303732
0.29712
0.290471
0.284693
0.28032
0.277672
0.276938
0.278198
0.281434
0.286526
0.293247
0.301216
0.309816
0.317933
0.322792
0.315715
0.305502
0.295103
0.285755
0.278142
0.272713
0.269804
0.269698
0.27265
0.278911
0.28874
0.30241
0.32022
0.342492
0.369566
0.401785
0.439439
0.482626
0.530566
0.575071
0.6051
0.62795
0.648236
0.666102
0.681701
0.695167
0.706615
0.71614
0.723817
0.729708
0.73386
0.736305
0.737065
0.73615
0.733557
0.729274
0.723277
0.715528
0.705978
0.694563
0.681202
0.665798
0.64823
0.628356
0.605996
0.580359
0.543561
0.493438
0.445714
0.403197
0.366182
0.334433
0.307587
0.285267
0.267118
0.25282
0.242092
0.234699
0.230447
0.229185
0.230803
0.235222
0.242398
0.252305
0.264921
0.280212
0.298083
0.318293
0.340122
0.360294
0.371061
0.375893
0.377069
0.374597
0.364613
0.348679
0.333094
0.319204
0.307427
0.297914
0.290694
0.285688
0.282713
0.281482
0.281586
0.282483
0.283543
0.284145
0.284057
0.283584
0.283396
0.284156
0.286431
0.290664
0.297188
0.306242
0.317981
0.332476
0.349689
0.369349
0.390461
0.407197
0.41471
0.41812
0.348361
0.339438
0.329333
0.319945
0.312128
0.306333
0.302818
0.301749
0.303201
0.307148
0.31348
0.322003
0.332349
0.343845
0.354649
0.357301
0.352215
0.338725
0.324993
0.312949
0.303246
0.296243
0.292204
0.291361
0.293937
0.300157
0.310258
0.3245
0.343168
0.366568
0.395018
0.428812
0.46813
0.512656
0.559851
0.594624
0.618827
0.640122
0.659173
0.676067
0.690897
0.703753
0.714717
0.72386
0.731241
0.73691
0.740903
0.743247
0.743961
0.743052
0.740518
0.736348
0.730522
0.723007
0.713762
0.702736
0.689864
0.675071
0.658268
0.639359
0.618241
0.594841
0.565591
0.521853
0.472869
0.428589
0.389819
0.356438
0.328137
0.304562
0.285369
0.270239
0.258894
0.251098
0.246663
0.24544
0.247323
0.252242
0.260158
0.271049
0.2849
0.301673
0.321247
0.343272
0.366497
0.383908
0.391912
0.39647
0.398127
0.397042
0.391968
0.378218
0.361642
0.346568
0.333805
0.32361
0.316089
0.311194
0.30875
0.308453
0.309825
0.312139
0.314456
0.31554
0.314904
0.313141
0.311543
0.31106
0.312428
0.31615
0.322573
0.331925
0.344333
0.359809
0.378233
0.398941
0.418912
0.429527
0.434661
0.437311
0.387958
0.382214
0.369165
0.356817
0.346699
0.339271
0.334733
0.333263
0.334946
0.339734
0.347477
0.357998
0.370748
0.384212
0.390721
0.390277
0.388367
0.378038
0.361708
0.346917
0.334929
0.326139
0.320784
0.319076
0.321214
0.327402
0.33786
0.352828
0.37257
0.397369
0.427495
0.463152
0.504317
0.549683
0.587584
0.613302
0.63488
0.654538
0.672269
0.688097
0.702068
0.714232
0.72464
0.733342
0.740379
0.745787
0.749594
0.751821
0.752481
0.75158
0.749116
0.745079
0.739454
0.732214
0.723328
0.712755
0.700448
0.686354
0.670413
0.652569
0.63277
0.610988
0.587068
0.553776
0.506468
0.460782
0.420025
0.384665
0.354562
0.329423
0.308924
0.292755
0.280641
0.272348
0.267688
0.26652
0.268741
0.274289
0.283127
0.295236
0.310595
0.329143
0.350672
0.374459
0.397054
0.409135
0.415684
0.419947
0.421929
0.421768
0.419749
0.41259
0.396998
0.38106
0.367292
0.356299
0.348445
0.343735
0.342029
0.343039
0.346281
0.350785
0.355383
0.357343
0.355713
0.351615
0.347853
0.345549
0.345649
0.348662
0.354918
0.364605
0.377791
0.394322
0.413939
0.434769
0.447295
0.453094
0.45709
0.459153
0.422821
0.421807
0.414599
0.400532
0.388309
0.379259
0.373594
0.371664
0.37363
0.37937
0.388545
0.401019
0.415198
0.423535
0.4248
0.424258
0.42294
0.418532
0.404379
0.387577
0.373388
0.362721
0.355917
0.353241
0.354895
0.361077
0.371984
0.387829
0.408852
0.435292
0.467302
0.504789
0.546785
0.585482
0.612154
0.633239
0.652854
0.670882
0.687265
0.701984
0.715045
0.726465
0.73627
0.744488
0.751145
0.756264
0.759865
0.761961
0.762561
0.76167
0.759285
0.7554
0.75
0.743068
0.73458
0.724508
0.712819
0.699482
0.684463
0.667734
0.649281
0.629112
0.607265
0.582592
0.54654
0.500113
0.457193
0.419549
0.387319
0.360314
0.338252
0.320838
0.307801
0.298913
0.293989
0.292892
0.295525
0.30183
0.31177
0.325316
0.342425
0.362977
0.386564
0.411472
0.428001
0.435922
0.441734
0.445707
0.447871
0.44835
0.447362
0.44515
0.437352
0.422334
0.407988
0.396119
0.387949
0.383502
0.382709
0.385333
0.391069
0.3983
0.406512
0.409598
0.406679
0.3989
0.392449
0.387735
0.386268
0.388396
0.394427
0.404452
0.418463
0.435726
0.455491
0.46796
0.473929
0.478347
0.481453
0.483056
0.457239
0.457086
0.455906
0.449193
0.436349
0.426255
0.419403
0.416952
0.419275
0.426091
0.436236
0.449654
0.457506
0.459493
0.459454
0.459017
0.4581
0.456681
0.4504
0.43456
0.418795
0.406346
0.398008
0.394295
0.395434
0.401644
0.413104
0.429967
0.452438
0.480684
0.514569
0.552875
0.589652
0.615759
0.635695
0.654645
0.672416
0.688871
0.703926
0.717531
0.729662
0.740313
0.749488
0.757196
0.76345
0.768261
0.77164
0.773596
0.774133
0.773254
0.770956
0.767234
0.762079
0.755478
0.747416
0.737876
0.72684
0.714292
0.700221
0.684623
0.667509
0.648913
0.628895
0.607549
0.582158
0.545221
0.501361
0.461463
0.426886
0.39775
0.373888
0.355025
0.340914
0.331334
0.326103
0.325091
0.328206
0.335393
0.346604
0.361779
0.380796
0.403374
0.428362
0.448226
0.457965
0.464513
0.469624
0.473275
0.475499
0.476399
0.47615
0.474992
0.473112
0.46647
0.455077
0.442668
0.434471
0.430366
0.430549
0.434628
0.442909
0.450074
0.453858
0.455141
0.454324
0.450996
0.444172
0.437005
0.434083
0.435234
0.441004
0.451191
0.465685
0.481447
0.492032
0.497316
0.501502
0.504914
0.50732
0.508563
0.491809
0.491821
0.491914
0.491499
0.486916
0.479188
0.471396
0.468495
0.471174
0.479048
0.487787
0.493289
0.494606
0.494581
0.494508
0.494256
0.493762
0.493022
0.492052
0.485476
0.470822
0.457252
0.447373
0.442635
0.443242
0.449531
0.461664
0.479631
0.503571
0.533525
0.568266
0.600338
0.624131
0.642441
0.660217
0.67723
0.693292
0.708261
0.722037
0.73455
0.745759
0.755637
0.764172
0.771358
0.777197
0.781689
0.784839
0.786649
0.787121
0.786256
0.78405
0.780501
0.775603
0.769349
0.76173
0.75274
0.742373
0.730626
0.717506
0.703027
0.687219
0.670135
0.651852
0.632481
0.612173
0.587113
0.551357
0.510525
0.473673
0.442244
0.416402
0.395908
0.380577
0.370209
0.364627
0.363705
0.367362
0.375544
0.388173
0.405102
0.425953
0.449751
0.471208
0.482426
0.488994
0.494539
0.498976
0.502271
0.504451
0.505596
0.505846
0.505396
0.504498
0.503435
0.499477
0.493254
0.486536
0.482854
0.483871
0.48744
0.490644
0.492363
0.491907
0.491852
0.492716
0.49387
0.492722
0.490241
0.487533
0.487761
0.493257
0.502538
0.51193
0.519249
0.52308
0.526632
0.52985
0.532485
0.534349
0.535313
0.526367
0.526474
0.526744
0.527289
0.528189
0.526731
0.524463
0.523407
0.524908
0.527825
0.530199
0.529995
0.529757
0.529718
0.52974
0.529735
0.52967
0.52956
0.529478
0.52947
0.524638
0.51463
0.503786
0.4984
0.498462
0.5049
0.517876
0.536835
0.561612
0.591776
0.617246
0.637097
0.653424
0.669647
0.685501
0.700766
0.715261
0.728845
0.741409
0.752875
0.763186
0.772304
0.780204
0.786869
0.792289
0.79646
0.799378
0.801041
0.801448
0.800598
0.798488
0.795118
0.790484
0.784583
0.777416
0.768981
0.759284
0.748335
0.73615
0.722759
0.708207
0.692557
0.675898
0.658347
0.640056
0.621212
0.597874
0.565522
0.527739
0.494148
0.466342
0.444072
0.427405
0.416168
0.410186
0.409348
0.413577
0.422832
0.436962
0.455608
0.477459
0.498155
0.509621
0.515654
0.521044
0.525675
0.529467
0.532383
0.534437
0.535687
0.536241
0.536249
0.535902
0.535431
0.535099
0.534204
0.531886
0.530045
0.529624
0.529693
0.528497
0.527334
0.526857
0.526973
0.527754
0.529157
0.531334
0.533362
0.534357
0.53624
0.539989
0.544598
0.548187
0.550735
0.553526
0.556284
0.558781
0.560828
0.562277
0.563027
0.560816
0.560966
0.561299
0.56188
0.562797
0.564153
0.565611
0.566258
0.566515
0.565933
0.565177
0.564808
0.564709
0.564796
0.564999
0.565276
0.565621
0.566072
0.566716
0.567702
0.56925
0.567998
0.56455
0.560452
0.560051
0.566744
0.580687
0.599728
0.620497
0.639192
0.654265
0.668398
0.682813
0.69722
0.711374
0.725072
0.738142
0.750448
0.76188
0.772354
0.781807
0.79019
0.797471
0.803624
0.808632
0.812483
0.815171
0.816688
0.817031
0.816199
0.814188
0.810998
0.80663
0.801086
0.794368
0.786485
0.777449
0.767278
0.755999
0.743653
0.730291
0.715987
0.700835
0.684953
0.668492
0.651632
0.634583
0.614373
0.587228
0.553073
0.524057
0.499938
0.481925
0.469791
0.463363
0.46257
0.467316
0.477604
0.49306
0.512553
0.529674
0.539732
0.544765
0.549517
0.553852
0.557651
0.560833
0.563358
0.565226
0.566475
0.567182
0.567457
0.567432
0.567257
0.567067
0.566912
0.5668
0.566233
0.564938
0.563439
0.562273
0.561502
0.561215
0.561428
0.56217
0.563446
0.565281
0.567626
0.570489
0.573316
0.57559
0.577499
0.579556
0.581744
0.584005
0.586195
0.588162
0.589769
0.590904
0.591492
0.595117
0.595274
0.595604
0.596135
0.596887
0.597838
0.598819
0.599548
0.599738
0.599607
0.599409
0.599353
0.599473
0.599757
0.600184
0.600748
0.601466
0.60239
0.60361
0.60527
0.607579
0.610832
0.614022
0.616253
0.620228
0.62772
0.638603
0.651261
0.663768
0.674937
0.686896
0.699412
0.71221
0.725046
0.737705
0.750004
0.761787
0.772924
0.783308
0.792855
0.801496
0.809179
0.815865
0.821523
0.826131
0.829671
0.832134
0.833509
0.833791
0.832977
0.831066
0.828057
0.823953
0.81876
0.812486
0.805142
0.796748
0.787328
0.776917
0.765561
0.753318
0.740266
0.7265
0.71214
0.697328
0.682238
0.66707
0.652068
0.635958
0.614709
0.588696
0.563118
0.544258
0.531353
0.524426
0.523603
0.528552
0.539267
0.554549
0.565946
0.572892
0.576462
0.580166
0.583798
0.587197
0.590244
0.592857
0.594991
0.596633
0.597805
0.598557
0.598963
0.599113
0.5991
0.599
0.598841
0.598591
0.598094
0.597294
0.596398
0.595655
0.595187
0.595073
0.595354
0.596053
0.597177
0.598717
0.600623
0.602803
0.605014
0.607043
0.608919
0.610789
0.612681
0.614555
0.61633
0.617903
0.61918
0.62008
0.620544
0.62926
0.629408
0.62971
0.630169
0.630778
0.631494
0.632214
0.632802
0.633158
0.633349
0.633499
0.633723
0.634074
0.634574
0.635232
0.636066
0.637107
0.638411
0.640065
0.642189
0.644943
0.648516
0.653089
0.658937
0.665641
0.672863
0.680598
0.688926
0.69818
0.708248
0.718968
0.730144
0.74157
0.753048
0.764396
0.775453
0.786079
0.796153
0.805575
0.814261
0.822143
0.829166
0.835287
0.840473
0.844696
0.847938
0.850184
0.851422
0.851647
0.850854
0.849041
0.846211
0.842366
0.837516
0.831672
0.82485
0.817073
0.80837
0.798781
0.788355
0.777155
0.765258
0.752761
0.739777
0.726443
0.71292
0.699394
0.686081
0.673231
0.660936
0.645962
0.629229
0.612555
0.599443
0.591984
0.591004
0.595035
0.600883
0.606178
0.60891
0.610702
0.613035
0.615639
0.61831
0.620893
0.62327
0.625361
0.627115
0.62851
0.629555
0.630277
0.630725
0.630956
0.631029
0.630991
0.630862
0.63063
0.630255
0.629747
0.629205
0.628763
0.628517
0.628536
0.628861
0.629512
0.630493
0.631785
0.633344
0.635088
0.636892
0.638649
0.640343
0.642003
0.643634
0.645206
0.646665
0.647942
0.64897
0.64969
0.650061
0.663256
0.66339
0.663657
0.664053
0.664561
0.665144
0.665743
0.666289
0.666743
0.667131
0.667516
0.667965
0.668526
0.669231
0.670106
0.671177
0.672484
0.674083
0.676049
0.678478
0.681487
0.685199
0.689722
0.695127
0.701278
0.708021
0.715311
0.723192
0.73174
0.740907
0.750584
0.760627
0.770879
0.781179
0.791377
0.801332
0.810921
0.820035
0.828578
0.836471
0.843649
0.850055
0.855645
0.860384
0.864243
0.867201
0.869241
0.87035
0.870521
0.86975
0.868034
0.865378
0.861785
0.857267
0.851836
0.845513
0.838323
0.830298
0.821481
0.811923
0.801688
0.790852
0.779508
0.767764
0.755748
0.743605
0.731504
0.71963
0.708193
0.697414
0.687561
0.678319
0.668232
0.65915
0.652653
0.649413
0.648613
0.648261
0.647156
0.647149
0.647964
0.649336
0.651045
0.652912
0.654794
0.656584
0.658202
0.659596
0.660739
0.661627
0.662272
0.662703
0.662957
0.663069
0.663073
0.662985
0.662811
0.662552
0.662232
0.661913
0.661673
0.661583
0.661694
0.662041
0.662641
0.663496
0.664588
0.66588
0.667314
0.668815
0.67032
0.6718
0.673246
0.674645
0.675971
0.677181
0.678229
0.679066
0.679649
0.679949
0.697117
0.697238
0.697477
0.697825
0.698268
0.69878
0.699325
0.699868
0.700394
0.700915
0.701468
0.702095
0.702835
0.703721
0.704782
0.706051
0.70757
0.709388
0.711569
0.714188
0.717328
0.721069
0.725475
0.730569
0.7363
0.7426
0.749431
0.756791
0.76468
0.773055
0.781832
0.790902
0.800139
0.809413
0.8186
0.827579
0.83624
0.844486
0.85223
0.859398
0.865925
0.871759
0.876854
0.881175
0.884692
0.887382
0.889228
0.890216
0.890338
0.889589
0.887969
0.88548
0.88213
0.877929
0.872893
0.867043
0.860407
0.853019
0.844923
0.836169
0.826821
0.816954
0.806654
0.796023
0.785178
0.77425
0.763385
0.752744
0.742497
0.732821
0.723885
0.715801
0.708761
0.702692
0.697427
0.692907
0.689239
0.686703
0.685184
0.684565
0.684667
0.685301
0.686294
0.687497
0.688788
0.690069
0.691266
0.692328
0.693224
0.693941
0.694481
0.69486
0.695098
0.695219
0.695246
0.695194
0.695077
0.694909
0.694716
0.694541
0.694435
0.694447
0.694615
0.694967
0.695516
0.696263
0.697192
0.698275
0.699472
0.700733
0.702016
0.70329
0.704535
0.705731
0.70685
0.707861
0.708728
0.709415
0.709893
0.710137
0.730858
0.730968
0.731186
0.731503
0.731907
0.732382
0.732907
0.733465
0.734049
0.734668
0.735346
0.736113
0.736998
0.738034
0.739249
0.740677
0.742356
0.74433
0.746652
0.749378
0.752568
0.756276
0.76054
0.765373
0.770754
0.776647
0.783023
0.789861
0.797136
0.804802
0.812789
0.821009
0.82936
0.837736
0.846031
0.854142
0.861974
0.86944
0.876459
0.882965
0.888896
0.894201
0.898838
0.90277
0.905967
0.908407
0.910072
0.910947
0.911025
0.9103
0.908772
0.906445
0.903325
0.899425
0.894763
0.889359
0.883243
0.876449
0.869021
0.861009
0.852474
0.843488
0.834131
0.824497
0.814692
0.804832
0.795043
0.785463
0.776231
0.767486
0.759359
0.75195
0.745351
0.739557
0.734522
0.730232
0.726735
0.724107
0.72231
0.721261
0.720839
0.720907
0.721332
0.721996
0.722792
0.723638
0.724466
0.725226
0.725887
0.726431
0.726852
0.727157
0.727356
0.727464
0.727496
0.727469
0.727395
0.727292
0.727183
0.7271
0.727079
0.727154
0.727353
0.727696
0.728194
0.728846
0.729641
0.730557
0.731565
0.73263
0.733721
0.734811
0.735875
0.736892
0.737837
0.738685
0.739406
0.739975
0.740368
0.740569
0.764489
0.764592
0.764795
0.765093
0.765476
0.765935
0.766458
0.767036
0.767668
0.768362
0.769136
0.770011
0.771012
0.772167
0.773504
0.775052
0.776847
0.778925
0.781329
0.784103
0.78729
0.790926
0.795036
0.79963
0.804695
0.810211
0.816153
0.822493
0.8292
0.836227
0.843513
0.850984
0.858556
0.86614
0.873646
0.880985
0.888075
0.894838
0.901203
0.907106
0.912492
0.917313
0.921526
0.925098
0.928
0.930208
0.931705
0.932476
0.932514
0.931814
0.930375
0.928201
0.9253
0.921685
0.917374
0.912388
0.906756
0.900514
0.893703
0.886372
0.878579
0.870392
0.861885
0.853143
0.844261
0.835341
0.826493
0.817833
0.809476
0.801535
0.794112
0.787291
0.781134
0.775661
0.770871
0.766765
0.763362
0.760679
0.758689
0.757332
0.75652
0.756155
0.756133
0.75636
0.756748
0.757225
0.757732
0.758223
0.758667
0.759043
0.759341
0.75956
0.759704
0.759783
0.759808
0.759789
0.759741
0.759679
0.759624
0.759598
0.759627
0.759736
0.759946
0.760271
0.760718
0.761287
0.761968
0.762747
0.763599
0.764502
0.765429
0.766356
0.767261
0.768124
0.768923
0.769634
0.770237
0.77071
0.771036
0.771203
0.798017
0.798115
0.798309
0.798596
0.79897
0.799424
0.799952
0.800552
0.801225
0.801977
0.802824
0.803782
0.804873
0.806119
0.807546
0.809181
0.811053
0.813194
0.815637
0.818416
0.821562
0.825101
0.82905
0.833414
0.838186
0.84335
0.848883
0.85476
0.860944
0.867393
0.874053
0.880858
0.88774
0.894621
0.901426
0.908078
0.914504
0.920635
0.926408
0.931764
0.936654
0.941031
0.944857
0.948098
0.950727
0.952721
0.954063
0.95474
0.954742
0.954067
0.952713
0.950684
0.94799
0.944642
0.940659
0.936062
0.93088
0.925147
0.918904
0.912196
0.90508
0.897615
0.889873
0.881929
0.873867
0.865778
0.857757
0.8499
0.842306
0.835066
0.828264
0.821969
0.816233
0.811083
0.806534
0.802594
0.799269
0.796557
0.794435
0.792856
0.791755
0.791059
0.790686
0.790562
0.790614
0.790782
0.791014
0.791269
0.791515
0.791733
0.791908
0.792037
0.792119
0.792158
0.792162
0.792139
0.792101
0.792061
0.792035
0.79204
0.792095
0.792218
0.792424
0.792723
0.79312
0.793615
0.794199
0.794862
0.795585
0.796349
0.797135
0.797922
0.79869
0.799421
0.800095
0.800693
0.801198
0.801593
0.801864
0.802003
0.831446
0.831542
0.831731
0.832013
0.832383
0.832838
0.833376
0.833996
0.834701
0.835499
0.8364
0.837421
0.838577
0.83989
0.841381
0.843073
0.844991
0.847161
0.849609
0.852362
0.855442
0.858867
0.862648
0.86679
0.871284
0.876118
0.881271
0.886718
0.892424
0.898349
0.904445
0.910657
0.916924
0.92318
0.92936
0.935397
0.941227
0.94679
0.952028
0.95689
0.961328
0.9653
0.968771
0.971709
0.974088
0.975886
0.977086
0.977676
0.977648
0.976998
0.975725
0.973834
0.971333
0.968235
0.964557
0.960321
0.955555
0.950291
0.944568
0.93843
0.931927
0.925117
0.918062
0.910832
0.903501
0.896148
0.888855
0.881705
0.87478
0.868158
0.861908
0.856089
0.850744
0.845905
0.84159
0.837808
0.834562
0.831846
0.829638
0.827901
0.826587
0.825638
0.824992
0.824587
0.824366
0.824276
0.824274
0.824322
0.824392
0.824464
0.824523
0.824561
0.824576
0.824568
0.824542
0.824504
0.824463
0.824429
0.824414
0.824431
0.824495
0.824617
0.824809
0.825077
0.825426
0.825853
0.826353
0.826916
0.827529
0.828176
0.828841
0.829507
0.830157
0.830774
0.831342
0.831845
0.832268
0.832599
0.832825
0.832941
0.86478
0.864874
0.865062
0.865341
0.865711
0.86617
0.866717
0.867354
0.868085
0.868917
0.869858
0.870923
0.872126
0.873483
0.875015
0.876739
0.878676
0.880849
0.883277
0.88598
0.888976
0.892276
0.895888
0.899812
0.904043
0.908568
0.913367
0.918416
0.923684
0.929133
0.934722
0.940401
0.946118
0.951815
0.957436
0.962922
0.968218
0.97327
0.978025
0.982439
0.986467
0.990071
0.993219
0.99588
0.99803
0.999648
1.00072
1.00123
1.00118
1.00055
0.999355
0.997593
0.995272
0.992407
0.989012
0.985111
0.980728
0.975895
0.970648
0.965028
0.959083
0.952863
0.946427
0.939836
0.933156
0.926457
0.919809
0.913285
0.906953
0.900879
0.895122
0.889733
0.88475
0.880204
0.876112
0.872485
0.869326
0.866626
0.864369
0.862524
0.861054
0.859914
0.859055
0.858428
0.857985
0.857682
0.857483
0.857353
0.857268
0.857208
0.857157
0.857108
0.857055
0.856996
0.856934
0.856873
0.856818
0.856778
0.856761
0.856777
0.856836
0.856947
0.857117
0.857352
0.857652
0.858018
0.858443
0.85892
0.859438
0.859984
0.860546
0.861108
0.861656
0.862176
0.862654
0.863077
0.863432
0.863708
0.863898
0.863994
0.89802
0.898113
0.8983
0.898579
0.89895
0.899413
0.899968
0.900619
0.901368
0.902224
0.903193
0.904287
0.905519
0.906903
0.908455
0.910191
0.912127
0.914281
0.91667
0.919307
0.922205
0.925372
0.928814
0.932528
0.936509
0.940742
0.945212
0.949895
0.954761
0.959779
0.964909
0.970108
0.97533
0.980526
0.985646
0.990638
0.995454
1.00004
1.00436
1.00837
1.01203
1.0153
1.01815
1.02056
1.0225
1.02396
1.02491
1.02535
1.02528
1.02467
1.02355
1.02191
1.01976
1.01711
1.01398
1.01038
1.00635
1.00191
0.997101
0.991953
0.986512
0.980826
0.974947
0.968929
0.962831
0.956715
0.950641
0.944672
0.938867
0.933282
0.927969
0.92297
0.91832
0.914047
0.910169
0.906696
0.903629
0.900965
0.898687
0.896772
0.895192
0.89391
0.892887
0.892085
0.891463
0.890986
0.890621
0.89034
0.89012
0.889942
0.889791
0.889659
0.889539
0.889428
0.889326
0.889235
0.889159
0.889104
0.889075
0.88908
0.889125
0.889217
0.889361
0.88956
0.889815
0.890123
0.890481
0.890883
0.891319
0.891778
0.89225
0.892723
0.893184
0.893621
0.894022
0.894376
0.894674
0.894905
0.895063
0.895143
0.931167
0.93126
0.931446
0.931725
0.932097
0.932563
0.933125
0.933784
0.934546
0.935416
0.936402
0.937514
0.938761
0.940156
0.941712
0.943442
0.94536
0.94748
0.949813
0.952372
0.955164
0.958195
0.961468
0.964978
0.96872
0.972681
0.976845
0.981189
0.985688
0.990312
0.995026
0.999792
1.00457
1.00931
1.01398
1.01853
1.02291
1.02709
1.03102
1.03466
1.03798
1.04095
1.04353
1.04571
1.04746
1.04877
1.04962
1.04999
1.0499
1.04932
1.04827
1.04674
1.04474
1.04229
1.0394
1.03609
1.03238
1.0283
1.02389
1.01917
1.01419
1.00898
1.0036
0.998102
0.992526
0.98693
0.981368
0.975895
0.970561
0.965415
0.960501
0.955857
0.951514
0.947496
0.943821
0.940499
0.937532
0.934916
0.932641
0.930687
0.929031
0.927646
0.9265
0.925561
0.924797
0.924178
0.923676
0.923267
0.92293
0.922647
0.922407
0.922198
0.922013
0.92185
0.921706
0.921582
0.92148
0.921403
0.921355
0.921342
0.921367
0.921436
0.92155
0.921712
0.921922
0.922179
0.922477
0.922812
0.923175
0.923559
0.923954
0.92435
0.924735
0.925101
0.925437
0.925733
0.925981
0.926174
0.926306
0.926373
0.96422
0.964313
0.964499
0.964778
0.96515
0.965618
0.966183
0.966848
0.967616
0.968493
0.969487
0.970604
0.971854
0.973247
0.974794
0.976505
0.978392
0.980464
0.982732
0.985204
0.987884
0.990777
0.993883
0.997197
1.00071
1.00442
1.0083
1.01233
1.01649
1.02076
1.02509
1.02947
1.03384
1.03818
1.04244
1.04659
1.05058
1.05438
1.05796
1.06127
1.06428
1.06697
1.06932
1.07129
1.07287
1.07404
1.07479
1.07511
1.075
1.07445
1.07345
1.07203
1.07018
1.06791
1.06524
1.06219
1.05878
1.05503
1.05098
1.04665
1.04208
1.03731
1.03239
1.02735
1.02224
1.01711
1.01201
1.00698
1.00207
0.997316
0.992763
0.988442
0.984381
0.980602
0.977121
0.973947
0.971083
0.968528
0.966272
0.964303
0.9626
0.961142
0.959905
0.958861
0.957985
0.957252
0.956638
0.956121
0.955685
0.955312
0.954991
0.954711
0.954467
0.954253
0.954067
0.953907
0.953775
0.953673
0.953602
0.953565
0.953567
0.953608
0.953691
0.953817
0.953984
0.954192
0.954436
0.954711
0.955012
0.95533
0.955657
0.955986
0.956307
0.956611
0.956891
0.957137
0.957344
0.957505
0.957615
0.95767
0.997181
0.997273
0.997458
0.997736
0.998109
0.998576
0.999142
0.999807
1.00058
1.00145
1.00245
1.00356
1.0048
1.00619
1.00771
1.00939
1.01124
1.01325
1.01545
1.01783
1.02039
1.02315
1.02609
1.02922
1.03252
1.03598
1.03959
1.04334
1.04719
1.05113
1.05512
1.05914
1.06315
1.06712
1.07102
1.0748
1.07844
1.0819
1.08516
1.08817
1.09091
1.09335
1.09547
1.09725
1.09868
1.09973
1.10039
1.10067
1.10054
1.10001
1.09908
1.09775
1.09603
1.09394
1.09147
1.08866
1.08552
1.08207
1.07835
1.07437
1.07018
1.0658
1.06128
1.05666
1.05197
1.04726
1.04257
1.03794
1.03341
1.02902
1.02479
1.02077
1.01697
1.01341
1.01011
1.00708
1.00433
1.00184
0.999619
0.997652
0.995924
0.994419
0.993116
0.991994
0.991031
0.990207
0.989502
0.988896
0.988375
0.987924
0.987532
0.98719
0.98689
0.986628
0.9864
0.986205
0.986041
0.985911
0.985813
0.985751
0.985726
0.985738
0.985789
0.985879
0.986006
0.986169
0.986364
0.986586
0.98683
0.98709
0.98736
0.98763
0.987895
0.988147
0.988378
0.988582
0.988753
0.988886
0.988977
0.989023
1.03005
1.03014
1.03032
1.0306
1.03097
1.03144
1.032
1.03266
1.03343
1.0343
1.03529
1.03639
1.03762
1.03898
1.04048
1.04212
1.04391
1.04586
1.04798
1.05026
1.05271
1.05533
1.05811
1.06106
1.06416
1.06739
1.07076
1.07424
1.07781
1.08144
1.08512
1.08881
1.0925
1.09613
1.0997
1.10316
1.10648
1.10964
1.1126
1.11534
1.11783
1.12004
1.12197
1.12358
1.12486
1.1258
1.12639
1.12662
1.12648
1.12597
1.1251
1.12386
1.12227
1.12032
1.11805
1.11545
1.11256
1.10939
1.10596
1.10231
1.09845
1.09444
1.09029
1.08604
1.08173
1.0774
1.07308
1.06881
1.06462
1.06055
1.05662
1.05287
1.04931
1.04596
1.04284
1.03995
1.0373
1.03489
1.03271
1.03076
1.02903
1.02749
1.02615
1.02497
1.02394
1.02304
1.02227
1.02159
1.021
1.02048
1.02002
1.01963
1.01928
1.01897
1.0187
1.01847
1.01827
1.01811
1.01799
1.0179
1.01785
1.01783
1.01785
1.0179
1.01799
1.01811
1.01826
1.01844
1.01863
1.01884
1.01906
1.01928
1.0195
1.0197
1.01989
1.02006
1.0202
1.02031
1.02038
1.02042
1.06282
1.06292
1.0631
1.06337
1.06374
1.0642
1.06476
1.06541
1.06617
1.06703
1.06801
1.06909
1.0703
1.07163
1.07309
1.07469
1.07643
1.07831
1.08034
1.08253
1.08486
1.08734
1.08998
1.09275
1.09565
1.09868
1.10182
1.10505
1.10835
1.11171
1.11511
1.11851
1.12189
1.12522
1.12849
1.13165
1.13469
1.13757
1.14026
1.14276
1.14502
1.14703
1.14878
1.15024
1.15139
1.15223
1.15275
1.15294
1.15279
1.1523
1.15148
1.15033
1.14885
1.14705
1.14494
1.14255
1.13988
1.13696
1.1338
1.13044
1.1269
1.1232
1.11938
1.11548
1.11151
1.10752
1.10354
1.09959
1.09571
1.09194
1.08828
1.08478
1.08144
1.07828
1.07533
1.07257
1.07003
1.0677
1.06558
1.06365
1.06193
1.06038
1.05901
1.05779
1.05671
1.05576
1.05493
1.05419
1.05354
1.05297
1.05246
1.05201
1.05162
1.05127
1.05097
1.0507
1.05047
1.05028
1.05013
1.05001
1.04993
1.04989
1.04987
1.04989
1.04995
1.05003
1.05014
1.05027
1.05042
1.05059
1.05076
1.05093
1.05111
1.05127
1.05143
1.05156
1.05168
1.05177
1.05183
1.05186
1.09551
1.0956
1.09578
1.09605
1.09641
1.09687
1.09742
1.09806
1.09881
1.09966
1.10061
1.10168
1.10286
1.10415
1.10558
1.10712
1.1088
1.11061
1.11256
1.11464
1.11686
1.11921
1.1217
1.12431
1.12703
1.12986
1.13278
1.13578
1.13885
1.14195
1.14508
1.14822
1.15132
1.15439
1.15738
1.16027
1.16305
1.16568
1.16814
1.17041
1.17247
1.17429
1.17587
1.17719
1.17823
1.17898
1.17944
1.17959
1.17943
1.17897
1.1782
1.17712
1.17574
1.17408
1.17213
1.16992
1.16745
1.16476
1.16185
1.15876
1.15549
1.15209
1.14857
1.14497
1.14132
1.13763
1.13395
1.1303
1.12671
1.1232
1.1198
1.11652
1.11339
1.11041
1.10761
1.10499
1.10255
1.1003
1.09824
1.09635
1.09464
1.0931
1.09171
1.09047
1.08936
1.08837
1.08749
1.08671
1.08601
1.08539
1.08484
1.08435
1.08391
1.08353
1.08319
1.08289
1.08264
1.08242
1.08224
1.08209
1.08198
1.08191
1.08186
1.08185
1.08187
1.08192
1.08199
1.08209
1.0822
1.08232
1.08245
1.08259
1.08273
1.08286
1.08298
1.08309
1.08318
1.08325
1.0833
1.08333
1.12811
1.12819
1.12837
1.12864
1.12899
1.12944
1.12998
1.13061
1.13135
1.13218
1.13311
1.13415
1.1353
1.13656
1.13793
1.13942
1.14104
1.14278
1.14464
1.14662
1.14873
1.15095
1.15329
1.15575
1.1583
1.16094
1.16367
1.16646
1.1693
1.17217
1.17506
1.17795
1.18081
1.18362
1.18636
1.18901
1.19155
1.19395
1.1962
1.19827
1.20014
1.2018
1.20323
1.20442
1.20536
1.20603
1.20643
1.20655
1.20639
1.20594
1.20522
1.20421
1.20293
1.20138
1.19958
1.19754
1.19526
1.19277
1.19009
1.18724
1.18423
1.18109
1.17785
1.17453
1.17115
1.16775
1.16434
1.16096
1.15762
1.15436
1.15118
1.14811
1.14517
1.14237
1.13972
1.13722
1.13489
1.13272
1.13072
1.12888
1.1272
1.12566
1.12427
1.12302
1.12189
1.12087
1.11996
1.11914
1.1184
1.11775
1.11716
1.11663
1.11616
1.11574
1.11537
1.11504
1.11476
1.11451
1.1143
1.11413
1.114
1.11389
1.11382
1.11378
1.11377
1.11379