/*--------------------------------*- C++ -*----------------------------------*\
| =========                 |                                                 |
| \\      /  F ield         | OpenFOAM: The Open Source CFD Toolbox           |
|  \\    /   O peration     | Version:  2406                                  |
|   \\  /    A nd           | Website:  www.openfoam.com                      |
|    \\/     M anipulation  |                                                 |
\*---------------------------------------------------------------------------*/
FoamFile
{
    version     2.0;
    format      ascii;
    arch        "LSB;label=32;scalar=64";
    class       volScalarField;
    location    "7.55";
    object      D;
}
// * * * * * * * * * * * * * * * * * * * * * * * * * * * * * * * * * * * * * //

dimensions      [0 2 -1 0 0 0 0];

internalField   nonuniform List<scalar> 
14400
(
6.8757e-05
6.8681e-05
6.85655e-05
6.84477e-05
6.83495e-05
6.82784e-05
6.82343e-05
6.82161e-05
6.82256e-05
6.82685e-05
6.83536e-05
6.84882e-05
6.86687e-05
6.8864e-05
6.89965e-05
6.89495e-05
6.86539e-05
6.82025e-05
6.76921e-05
6.71643e-05
6.66212e-05
6.60511e-05
6.54456e-05
6.48076e-05
6.4152e-05
6.35017e-05
6.28814e-05
6.23135e-05
6.18161e-05
6.14038e-05
6.10906e-05
6.08945e-05
6.08458e-05
6.1005e-05
6.15158e-05
6.28242e-05
6.72116e-05
9.8072e-05
0.000138232
0.00013824
0.00013824
0.00013824
0.00013824
0.00013824
0.00013824
0.00013824
0.00013824
0.00013824
0.00013824
0.00013824
0.00013824
0.00013824
0.00013824
0.00013824
0.00013824
0.00013824
0.00013824
0.00013824
0.00013824
0.000138004
8.24315e-05
6.61553e-05
6.29772e-05
6.19646e-05
6.16401e-05
6.16642e-05
6.19238e-05
6.23754e-05
6.30014e-05
6.37921e-05
6.47314e-05
6.57846e-05
6.68873e-05
6.79466e-05
6.88591e-05
6.95382e-05
6.9935e-05
7.00466e-05
6.99126e-05
6.96072e-05
6.92292e-05
6.88952e-05
6.87447e-05
6.89844e-05
7.00735e-05
7.37926e-05
9.26542e-05
0.000138071
0.000105334
7.42196e-05
6.90759e-05
6.73823e-05
6.66518e-05
6.63524e-05
6.62936e-05
6.63827e-05
6.65637e-05
6.67965e-05
6.70494e-05
6.72941e-05
6.75038e-05
6.76518e-05
6.77131e-05
6.76693e-05
6.75149e-05
6.72605e-05
6.69283e-05
6.6546e-05
6.6142e-05
6.57443e-05
6.53806e-05
6.50799e-05
6.48755e-05
6.48119e-05
6.496e-05
6.54597e-05
6.66627e-05
6.98475e-05
8.25325e-05
0.000137425
6.85306e-05
6.83954e-05
6.82018e-05
6.80134e-05
6.78609e-05
6.77524e-05
6.76871e-05
6.76627e-05
6.76805e-05
6.77465e-05
6.78713e-05
6.80665e-05
6.83359e-05
6.8655e-05
6.89318e-05
6.89717e-05
6.85833e-05
6.8003e-05
6.73956e-05
6.68116e-05
6.62458e-05
6.56782e-05
6.50943e-05
6.44913e-05
6.38785e-05
6.32737e-05
6.26979e-05
6.21709e-05
6.171e-05
6.13301e-05
6.10465e-05
6.08794e-05
6.08624e-05
6.10625e-05
6.16386e-05
6.30938e-05
6.81705e-05
0.000110829
0.00013824
0.00013824
0.00013824
0.00013824
0.00013824
0.00013824
0.00013824
0.00013824
0.00013824
0.00013824
0.00013824
0.00013824
0.00013824
0.00013824
0.00013824
0.00013824
0.00013824
0.00013824
0.00013824
0.00013824
0.00013824
0.000138217
9.34454e-05
6.71597e-05
6.31991e-05
6.20429e-05
6.16589e-05
6.16424e-05
6.18647e-05
6.22756e-05
6.28531e-05
6.35839e-05
6.44501e-05
6.54177e-05
6.64286e-05
6.74004e-05
6.82415e-05
6.88736e-05
6.92518e-05
6.93729e-05
6.92738e-05
6.90239e-05
6.87162e-05
6.84614e-05
6.83965e-05
6.87354e-05
6.99884e-05
7.44045e-05
0.000101324
0.000138218
0.000118355
7.52595e-05
6.92554e-05
6.73394e-05
6.6499e-05
6.61271e-05
6.60123e-05
6.60547e-05
6.61964e-05
6.63982e-05
6.66297e-05
6.68643e-05
6.7075e-05
6.72328e-05
6.73069e-05
6.7272e-05
6.71198e-05
6.68651e-05
6.65368e-05
6.61671e-05
6.57859e-05
6.54198e-05
6.50943e-05
6.48364e-05
6.46784e-05
6.46656e-05
6.48749e-05
6.5466e-05
6.6881e-05
7.11088e-05
9.52555e-05
0.000138194
6.83092e-05
6.80159e-05
6.76439e-05
6.73123e-05
6.7058e-05
6.68833e-05
6.67812e-05
6.67456e-05
6.67762e-05
6.68801e-05
6.70722e-05
6.7375e-05
6.78146e-05
6.8402e-05
6.90628e-05
6.94315e-05
6.86818e-05
6.7746e-05
6.69176e-05
6.62188e-05
6.56078e-05
6.50416e-05
6.44917e-05
6.39451e-05
6.34025e-05
6.28735e-05
6.2373e-05
6.19168e-05
6.15207e-05
6.11999e-05
6.09721e-05
6.08618e-05
6.09106e-05
6.12029e-05
6.19443e-05
6.38086e-05
7.03454e-05
0.000129928
0.00013824
0.00013824
0.00013824
0.00013824
0.00013824
0.00013824
0.00013824
0.00013824
0.00013824
0.00013824
0.00013824
0.00013824
0.00013824
0.00013824
0.00013824
0.00013824
0.00013824
0.00013824
0.00013824
0.00013824
0.00013824
0.00013824
0.000114097
6.88539e-05
6.3651e-05
6.22215e-05
6.17137e-05
6.16137e-05
6.17627e-05
6.20971e-05
6.25864e-05
6.3211e-05
6.395e-05
6.47711e-05
6.56251e-05
6.64464e-05
6.71624e-05
6.77107e-05
6.80545e-05
6.81915e-05
6.81537e-05
6.80018e-05
6.78184e-05
6.77057e-05
6.77994e-05
6.83299e-05
6.98923e-05
7.54105e-05
0.000116678
0.00013824
0.000134559
7.82841e-05
6.99322e-05
6.73792e-05
6.62813e-05
6.57633e-05
6.55451e-05
6.55059e-05
6.55817e-05
6.57331e-05
6.59319e-05
6.61536e-05
6.63721e-05
6.65538e-05
6.66567e-05
6.66397e-05
6.64866e-05
6.62232e-05
6.58935e-05
6.55387e-05
6.51909e-05
6.48746e-05
6.46121e-05
6.44271e-05
6.43511e-05
6.44332e-05
6.47633e-05
6.5542e-05
6.73718e-05
7.33136e-05
0.000118897
0.00013824
6.862e-05
6.78854e-05
6.71501e-05
6.65828e-05
6.61824e-05
6.592e-05
6.57709e-05
6.57205e-05
6.5765e-05
6.59134e-05
6.61889e-05
6.6635e-05
6.73292e-05
6.84072e-05
7.00861e-05
7.23374e-05
6.95687e-05
6.76815e-05
6.64334e-05
6.55514e-05
6.48705e-05
6.42972e-05
6.37801e-05
6.32932e-05
6.28274e-05
6.2384e-05
6.19712e-05
6.16004e-05
6.12854e-05
6.10423e-05
6.08916e-05
6.08651e-05
6.10201e-05
6.1481e-05
6.26067e-05
6.61419e-05
8.95804e-05
0.000138206
0.00013824
0.00013824
0.00013824
0.00013824
0.00013824
0.00013824
0.00013824
0.00013824
0.00013824
0.00013824
0.00013824
0.00013824
0.00013824
0.00013824
0.00013824
0.00013824
0.00013824
0.00013824
0.00013824
0.00013824
0.00013824
0.00013824
0.000134684
7.22072e-05
6.46279e-05
6.2593e-05
6.18468e-05
6.16077e-05
6.16473e-05
6.18758e-05
6.22497e-05
6.27418e-05
6.33273e-05
6.3976e-05
6.46482e-05
6.52948e-05
6.58642e-05
6.63123e-05
6.66136e-05
6.67682e-05
6.68029e-05
6.67684e-05
6.67365e-05
6.68035e-05
6.71143e-05
6.79521e-05
7.0127e-05
7.75472e-05
0.00013301
0.00013824
0.000138236
0.000106001
7.26583e-05
6.77762e-05
6.61516e-05
6.53996e-05
6.50363e-05
6.48927e-05
6.48899e-05
6.49855e-05
6.51527e-05
6.53699e-05
6.56124e-05
6.58429e-05
6.60011e-05
6.6015e-05
6.58461e-05
6.5549e-05
6.51959e-05
6.48425e-05
6.45221e-05
6.42567e-05
6.40647e-05
6.39677e-05
6.39986e-05
6.42168e-05
6.47431e-05
6.58831e-05
6.8746e-05
8.04005e-05
0.000137345
0.00013824
7.13119e-05
6.86144e-05
6.70197e-05
6.60505e-05
6.5442e-05
6.50668e-05
6.48607e-05
6.47918e-05
6.48506e-05
6.50489e-05
6.54244e-05
6.60579e-05
6.71392e-05
6.9201e-05
7.45316e-05
9.75519e-05
7.32553e-05
6.81855e-05
6.61271e-05
6.49669e-05
6.41823e-05
6.35835e-05
6.30855e-05
6.26472e-05
6.22493e-05
6.18856e-05
6.15582e-05
6.12748e-05
6.10476e-05
6.08935e-05
6.08382e-05
6.0925e-05
6.12397e-05
6.19854e-05
6.38146e-05
7.02792e-05
0.000128006
0.00013824
0.00013824
0.00013824
0.00013824
0.00013824
0.00013824
0.00013824
0.00013824
0.00013824
0.00013824
0.00013824
0.00013824
0.00013824
0.00013824
0.00013824
0.00013824
0.00013824
0.00013824
0.00013824
0.00013824
0.00013824
0.00013824
0.00013824
0.000138239
0.000104957
6.7815e-05
6.33844e-05
6.21319e-05
6.1669e-05
6.15576e-05
6.16551e-05
6.18975e-05
6.22477e-05
6.2677e-05
6.31571e-05
6.3656e-05
6.41387e-05
6.45707e-05
6.49244e-05
6.51851e-05
6.53563e-05
6.54612e-05
6.55426e-05
6.56653e-05
6.59282e-05
6.65094e-05
6.78547e-05
7.19603e-05
9.77812e-05
0.000138214
0.00013824
0.00013824
0.000135513
7.75889e-05
6.88784e-05
6.63306e-05
6.52037e-05
6.46361e-05
6.4364e-05
6.42748e-05
6.4317e-05
6.44637e-05
6.46962e-05
6.49943e-05
6.53226e-05
6.55943e-05
6.5673e-05
6.54425e-05
6.50521e-05
6.46269e-05
6.42419e-05
6.39275e-05
6.37007e-05
6.3576e-05
6.35746e-05
6.37365e-05
6.4147e-05
6.50052e-05
6.69303e-05
7.315e-05
0.000122336
0.00013824
0.00013824
9.18634e-05
7.21811e-05
6.77245e-05
6.59413e-05
6.49975e-05
6.44608e-05
6.41792e-05
6.4086e-05
6.41614e-05
6.44228e-05
6.49338e-05
6.58464e-05
6.76305e-05
7.25295e-05
0.000102793
0.00013811
8.9657e-05
7.00489e-05
6.62017e-05
6.46006e-05
6.3655e-05
6.29979e-05
6.24951e-05
6.20855e-05
6.17386e-05
6.14408e-05
6.11892e-05
6.09887e-05
6.08508e-05
6.07954e-05
6.08559e-05
6.10976e-05
6.16707e-05
6.30264e-05
6.74646e-05
0.000101809
0.000138238
0.00013824
0.00013824
0.00013824
0.00013824
0.00013824
0.00013824
0.00013824
0.00013824
0.00013824
0.00013824
0.00013824
0.00013824
0.00013824
0.00013824
0.00013824
0.00013824
0.00013824
0.00013824
0.00013824
0.00013824
0.00013824
0.00013824
0.00013824
0.00013824
0.000136054
7.32056e-05
6.48411e-05
6.26892e-05
6.1867e-05
6.15448e-05
6.14824e-05
6.1581e-05
6.1789e-05
6.20721e-05
6.24025e-05
6.27537e-05
6.31007e-05
6.34211e-05
6.3699e-05
6.39284e-05
6.41161e-05
6.42842e-05
6.44721e-05
6.4745e-05
6.52167e-05
6.61301e-05
6.8194e-05
7.48912e-05
0.00012782
0.00013824
0.00013824
0.00013824
0.00013824
0.00012222
7.37593e-05
6.74385e-05
6.54274e-05
6.45039e-05
6.40515e-05
6.38577e-05
6.38485e-05
6.39933e-05
6.42777e-05
6.46932e-05
6.52345e-05
6.57839e-05
6.60742e-05
6.5601e-05
6.49594e-05
6.43512e-05
6.3871e-05
6.35232e-05
6.33136e-05
6.32505e-05
6.33581e-05
6.36952e-05
6.44165e-05
6.59661e-05
7.04822e-05
9.89092e-05
0.000138228
0.00013824
0.00013824
0.000138113
9.21226e-05
7.08982e-05
6.66775e-05
6.50399e-05
6.42206e-05
6.38218e-05
6.36929e-05
6.37923e-05
6.41503e-05
6.48904e-05
6.63225e-05
6.97859e-05
8.53591e-05
0.000137961
0.00013824
0.00013075
7.42784e-05
6.70157e-05
6.46216e-05
6.33875e-05
6.26106e-05
6.20661e-05
6.16592e-05
6.13431e-05
6.10954e-05
6.09087e-05
6.07861e-05
6.07411e-05
6.07996e-05
6.10101e-05
6.14794e-05
6.25076e-05
6.53224e-05
7.93571e-05
0.000137934
0.00013824
0.00013824
0.00013824
0.00013824
0.00013824
0.00013824
0.00013824
0.00013824
0.00013824
0.00013824
0.00013824
0.00013824
0.00013824
0.00013824
0.00013824
0.00013824
0.00013824
0.00013824
0.00013824
0.00013824
0.00013824
0.00013824
0.00013824
0.00013824
0.00013824
0.00013824
0.000120746
6.97137e-05
6.3988e-05
6.2353e-05
6.16854e-05
6.14114e-05
6.13474e-05
6.14123e-05
6.15611e-05
6.17632e-05
6.19946e-05
6.2236e-05
6.24726e-05
6.2696e-05
6.29062e-05
6.31137e-05
6.33422e-05
6.36341e-05
6.40652e-05
6.47899e-05
6.62303e-05
7.03696e-05
9.68097e-05
0.000138219
0.00013824
0.00013824
0.00013824
0.00013824
0.000138238
0.000107372
7.2061e-05
6.66559e-05
6.4885e-05
6.41177e-05
6.37628e-05
6.3694e-05
6.3869e-05
6.42832e-05
6.49571e-05
6.60742e-05
6.75537e-05
6.92559e-05
6.7184e-05
6.57258e-05
6.46032e-05
6.3887e-05
6.34272e-05
6.32008e-05
6.31996e-05
6.34583e-05
6.40849e-05
6.54601e-05
6.90264e-05
8.54509e-05
0.000138044
0.00013824
0.00013824
0.00013824
0.00013824
0.000138024
8.68879e-05
6.99911e-05
6.60603e-05
6.45591e-05
6.39381e-05
6.37463e-05
6.38901e-05
6.44344e-05
6.57174e-05
6.86131e-05
7.84543e-05
0.000136788
0.00013824
0.00013824
0.000138239
0.000110772
7.10297e-05
6.54815e-05
6.35341e-05
6.24995e-05
6.185e-05
6.14109e-05
6.1103e-05
6.08903e-05
6.07601e-05
6.07155e-05
6.07769e-05
6.09868e-05
6.14268e-05
6.23024e-05
6.43792e-05
7.20271e-05
0.000135321
0.00013824
0.00013824
0.00013824
0.00013824
0.00013824
0.00013824
0.00013824
0.00013824
0.00013824
0.00013824
0.00013824
0.00013824
0.00013824
0.00013824
0.00013824
0.00013824
0.00013824
0.00013824
0.00013824
0.00013824
0.00013824
0.00013824
0.00013824
0.00013824
0.00013824
0.00013824
0.00013824
0.000138235
9.90286e-05
6.78509e-05
6.34856e-05
6.21132e-05
6.15157e-05
6.12472e-05
6.11574e-05
6.11772e-05
6.12667e-05
6.14004e-05
6.15606e-05
6.17364e-05
6.19241e-05
6.2128e-05
6.23631e-05
6.26592e-05
6.30705e-05
6.37019e-05
6.47954e-05
6.71152e-05
7.48123e-05
0.000133993
0.00013824
0.00013824
0.00013824
0.00013824
0.00013824
0.00013824
0.000138234
0.000103499
7.17392e-05
6.64698e-05
6.49462e-05
6.42187e-05
6.40492e-05
6.43301e-05
6.51208e-05
6.64882e-05
7.02567e-05
7.64847e-05
9.60643e-05
7.47431e-05
6.94918e-05
6.60393e-05
6.46527e-05
6.38542e-05
6.35432e-05
6.36239e-05
6.41802e-05
6.54961e-05
6.92537e-05
8.38542e-05
0.000137822
0.00013824
0.00013824
0.00013824
0.00013824
0.00013824
0.00013824
0.000138022
9.04867e-05
7.06426e-05
6.6167e-05
6.49831e-05
6.46361e-05
6.48945e-05
6.59228e-05
6.955e-05
8.0707e-05
0.000136532
0.00013824
0.00013824
0.00013824
0.00013824
0.000138203
9.20654e-05
6.87436e-05
6.44727e-05
6.28161e-05
6.19293e-05
6.14014e-05
6.10722e-05
6.08797e-05
6.0804e-05
6.08501e-05
6.10585e-05
6.15262e-05
6.24464e-05
6.43998e-05
7.11335e-05
0.000131835
0.00013824
0.00013824
0.00013824
0.00013824
0.00013824
0.00013824
0.00013824
0.00013824
0.00013824
0.00013824
0.00013824
0.00013824
0.00013824
0.00013824
0.00013824
0.00013824
0.00013824
0.00013824
0.00013824
0.00013824
0.00013824
0.00013824
0.00013824
0.00013824
0.00013824
0.00013824
0.00013824
0.00013824
0.00013824
0.000138136
8.47365e-05
6.65446e-05
6.31527e-05
6.19329e-05
6.13555e-05
6.10713e-05
6.09521e-05
6.09339e-05
6.09825e-05
6.10779e-05
6.12099e-05
6.13772e-05
6.15886e-05
6.18663e-05
6.22533e-05
6.28351e-05
6.38021e-05
6.57308e-05
7.16533e-05
0.000118316
0.00013824
0.00013824
0.00013824
0.00013824
0.00013824
0.00013824
0.00013824
0.00013824
0.000138236
0.000113059
7.30134e-05
6.83813e-05
6.59476e-05
6.55006e-05
6.61649e-05
6.88745e-05
7.31126e-05
0.000106561
0.000136537
0.000138221
0.000135233
9.99393e-05
7.22041e-05
6.78512e-05
6.54715e-05
6.48756e-05
6.51268e-05
6.66988e-05
7.10797e-05
9.49039e-05
0.000137986
0.00013824
0.00013824
0.00013824
0.00013824
0.00013824
0.00013824
0.00013824
0.00013824
0.000138178
0.000108829
7.28721e-05
6.94706e-05
6.82842e-05
6.91653e-05
7.21556e-05
9.92284e-05
0.000137703
0.00013824
0.00013824
0.00013824
0.00013824
0.00013824
0.00013824
0.000138053
8.4606e-05
6.79109e-05
6.40349e-05
6.25051e-05
6.17672e-05
6.13626e-05
6.1172e-05
6.11646e-05
6.13458e-05
6.18171e-05
6.29272e-05
6.55722e-05
7.26575e-05
0.00013257
0.00013824
0.00013824
0.00013824
0.00013824
0.00013824
0.00013824
0.00013824
0.00013824
0.00013824
0.00013824
0.00013824
0.00013824
0.00013824
0.00013824
0.00013824
0.00013824
0.00013824
0.00013824
0.00013824
0.00013824
0.00013824
0.00013824
0.00013824
0.00013824
0.00013824
0.00013824
0.00013824
0.00013824
0.00013824
0.00013824
0.00013824
0.000137801
7.90899e-05
6.60977e-05
6.30444e-05
6.18322e-05
6.12367e-05
6.09366e-05
6.07963e-05
6.07602e-05
6.07987e-05
6.08982e-05
6.10588e-05
6.12956e-05
6.16441e-05
6.2176e-05
6.30603e-05
6.47693e-05
6.95815e-05
0.000100377
0.000138234
0.00013824
0.00013824
0.00013824
0.00013824
0.00013824
0.00013824
0.00013824
0.00013824
0.00013824
0.00013824
0.000130101
9.28922e-05
7.28033e-05
7.12918e-05
7.37025e-05
9.80664e-05
0.000131289
0.000138238
0.00013824
0.00013824
0.00013824
0.000138233
0.000127423
8.94323e-05
7.18479e-05
7.01915e-05
7.09878e-05
7.95444e-05
0.00012015
0.00013822
0.00013824
0.00013824
0.00013824
0.00013824
0.00013824
0.00013824
0.00013824
0.00013824
0.00013824
0.00013824
0.000138239
0.000131625
0.000106244
9.17579e-05
0.000102392
0.000127736
0.000138232
0.00013824
0.00013824
0.00013824
0.00013824
0.00013824
0.00013824
0.00013824
0.00013824
0.000138039
8.89535e-05
6.87261e-05
6.42598e-05
6.29393e-05
6.22912e-05
6.20593e-05
6.22006e-05
6.26854e-05
6.38203e-05
6.79179e-05
8.43843e-05
0.000136307
0.00013824
0.00013824
0.00013824
0.00013824
0.00013824
0.00013824
0.00013824
0.00013824
0.00013824
0.00013824
0.00013824
0.00013824
0.00013824
0.00013824
0.00013824
0.00013824
0.00013824
0.00013824
0.00013824
0.00013824
0.00013824
0.00013824
0.00013824
0.00013824
0.00013824
0.00013824
0.00013824
0.00013824
0.00013824
0.00013824
0.00013824
0.00013824
0.00013824
0.000137658
8.03221e-05
6.664e-05
6.31695e-05
6.18515e-05
6.1245e-05
6.09248e-05
6.07836e-05
6.07622e-05
6.08359e-05
6.10054e-05
6.12969e-05
6.1777e-05
6.25891e-05
6.4193e-05
6.84876e-05
9.09146e-05
0.000138196
0.00013824
0.00013824
0.00013824
0.00013824
0.00013824
0.00013824
0.00013824
0.00013824
0.00013824
0.00013824
0.00013824
0.00013824
0.000138209
0.000133061
0.000126421
0.000134844
0.000138229
0.00013824
0.00013824
0.00013824
0.00013824
0.00013824
0.00013824
0.00013824
0.000138181
0.000130322
0.000118859
0.000125851
0.000137736
0.00013824
0.00013824
0.00013824
0.00013824
0.00013824
0.00013824
0.00013824
0.00013824
0.00013824
0.00013824
0.00013824
0.00013824
0.00013824
0.00013824
0.000138238
0.000138196
0.000138236
0.00013824
0.00013824
0.00013824
0.00013824
0.00013824
0.00013824
0.00013824
0.00013824
0.00013824
0.00013824
0.00013824
0.000138189
0.000108058
7.09615e-05
6.72663e-05
6.52196e-05
6.4689e-05
6.56144e-05
6.75697e-05
7.13856e-05
0.000112469
0.000138152
0.00013824
0.00013824
0.00013824
0.00013824
0.00013824
0.00013824
0.00013824
0.00013824
0.00013824
0.00013824
0.00013824
0.00013824
0.00013824
0.00013824
0.00013824
0.00013824
0.00013824
0.00013824
0.00013824
0.00013824
0.00013824
0.00013824
0.00013824
0.00013824
0.00013824
0.00013824
0.00013824
0.00013824
0.00013824
0.00013824
0.00013824
0.00013824
0.00013824
0.00013824
0.00013824
0.000137967
8.97119e-05
6.80053e-05
6.35718e-05
6.22242e-05
6.1507e-05
6.11894e-05
6.10841e-05
6.11328e-05
6.13375e-05
6.17478e-05
6.25322e-05
6.40785e-05
6.86375e-05
9.14629e-05
0.000138172
0.00013824
0.00013824
0.00013824
0.00013824
0.00013824
0.00013824
0.00013824
0.00013824
0.00013824
0.00013824
0.00013824
0.00013824
0.00013824
0.00013824
0.00013824
0.00013824
0.00013824
0.00013824
0.00013824
0.00013824
0.00013824
0.00013824
0.00013824
0.00013824
0.00013824
0.00013824
0.00013824
0.00013824
0.00013824
0.00013824
0.00013824
0.00013824
0.00013824
0.00013824
0.00013824
0.00013824
0.00013824
0.00013824
0.00013824
0.00013824
0.00013824
0.00013824
0.00013824
0.00013824
0.00013824
0.00013824
0.00013824
0.00013824
0.00013824
0.00013824
0.00013824
0.00013824
0.00013824
0.00013824
0.00013824
0.00013824
0.00013824
0.00013824
0.00013824
0.000138239
0.000131132
0.000102137
8.02508e-05
7.63937e-05
8.66387e-05
0.000110928
0.000135078
0.00013824
0.00013824
0.00013824
0.00013824
0.00013824
0.00013824
0.00013824
0.00013824
0.00013824
0.00013824
0.00013824
0.00013824
0.00013824
0.00013824
0.00013824
0.00013824
0.00013824
0.00013824
0.00013824
0.00013824
0.00013824
0.00013824
0.00013824
0.00013824
0.00013824
0.00013824
0.00013824
0.00013824
0.00013824
0.00013824
0.00013824
0.00013824
0.00013824
0.00013824
0.00013824
0.00013824
0.00013824
0.00013824
0.00013821
0.000109469
7.00924e-05
6.56493e-05
6.31837e-05
6.24355e-05
6.21457e-05
6.21516e-05
6.24696e-05
6.32006e-05
6.50893e-05
7.00034e-05
0.000103517
0.000138209
0.00013824
0.00013824
0.00013824
0.00013824
0.00013824
0.00013824
0.00013824
0.00013824
0.00013824
0.00013824
0.00013824
0.00013824
0.00013824
0.00013824
0.00013824
0.00013824
0.00013824
0.00013824
0.00013824
0.00013824
0.00013824
0.00013824
0.00013824
0.00013824
0.00013824
0.00013824
0.00013824
0.00013824
0.00013824
0.00013824
0.00013824
0.00013824
0.00013824
0.00013824
0.00013824
0.00013824
0.00013824
0.00013824
0.00013824
0.00013824
0.00013824
0.00013824
0.00013824
0.00013824
0.00013824
0.00013824
0.00013824
0.00013824
0.00013824
0.00013824
0.00013824
0.00013824
0.00013824
0.00013824
0.00013824
0.00013824
0.00013824
0.00013824
0.00013824
0.00013824
0.00013824
0.00013824
0.000138237
0.00013795
0.000137538
0.000138172
0.00013824
0.00013824
0.00013824
0.00013824
0.00013824
0.00013824
0.00013824
0.00013824
0.00013824
0.00013824
0.00013824
0.00013824
0.00013824
0.00013824
0.00013824
0.00013824
0.00013824
0.00013824
0.00013824
0.00013824
0.00013824
0.00013824
0.00013824
0.00013824
0.00013824
0.00013824
0.00013824
0.00013824
0.00013824
0.00013824
0.00013824
0.00013824
0.00013824
0.00013824
0.00013824
0.00013824
0.00013824
0.00013824
0.00013824
0.00013824
0.00013824
0.00013824
0.000130608
9.03426e-05
6.94317e-05
6.70807e-05
6.58726e-05
6.56522e-05
6.66266e-05
6.87535e-05
7.86379e-05
0.000124963
0.000138238
0.00013824
0.00013824
0.00013824
0.00013824
0.00013824
0.00013824
0.00013824
0.00013824
0.00013824
0.00013824
0.00013824
0.00013824
0.00013824
0.00013824
0.00013824
0.00013824
0.00013824
0.00013824
0.00013824
0.00013824
0.00013824
0.00013824
0.00013824
0.00013824
0.00013824
0.00013824
0.00013824
0.00013824
0.00013824
0.00013824
0.00013824
0.00013824
0.00013824
0.00013824
0.00013824
0.00013824
0.00013824
0.00013824
0.00013824
0.00013824
0.00013824
0.00013824
0.00013824
0.00013824
0.00013824
0.00013824
0.00013824
0.00013824
0.00013824
0.00013824
0.00013824
0.00013824
0.00013824
0.00013824
0.00013824
0.00013824
0.00013824
0.00013824
0.00013824
0.00013824
0.00013824
0.00013824
0.00013824
0.00013824
0.00013824
0.00013824
0.00013824
0.00013824
0.00013824
0.00013824
0.00013824
0.00013824
0.00013824
0.00013824
0.00013824
0.00013824
0.00013824
0.00013824
0.00013824
0.00013824
0.00013824
0.00013824
0.00013824
0.00013824
0.00013824
0.00013824
0.00013824
0.00013824
0.00013824
0.00013824
0.00013824
0.00013824
0.00013824
0.00013824
0.00013824
0.00013824
0.00013824
0.00013824
0.00013824
0.00013824
0.00013824
0.00013824
0.00013824
0.00013824
0.00013824
0.00013824
0.00013824
0.00013824
0.00013824
0.00013824
0.000138217
0.000128967
0.000106704
9.05531e-05
8.70277e-05
9.79071e-05
0.000120807
0.000137885
0.00013824
0.00013824
0.00013824
0.00013824
0.00013824
0.00013824
0.00013824
0.00013824
0.00013824
0.00013824
0.00013824
0.00013824
0.00013824
0.00013824
0.00013824
0.00013824
0.00013824
0.00013824
0.00013824
0.00013824
0.00013824
0.00013824
0.00013824
0.00013824
0.00013824
0.00013824
0.00013824
0.00013824
0.00013824
0.00013824
0.00013824
0.00013824
0.00013824
0.00013824
0.00013824
0.00013824
0.00013824
0.00013824
0.00013824
0.00013824
0.00013824
0.00013824
0.00013824
0.00013824
0.00013824
0.00013824
0.00013824
0.00013824
0.00013824
0.00013824
0.00013824
0.00013824
0.00013824
0.00013824
0.00013824
0.00013824
0.00013824
0.00013824
0.00013824
0.00013824
0.00013824
0.00013824
0.00013824
0.00013824
0.00013824
0.00013824
0.00013824
0.00013824
0.00013824
0.00013824
0.00013824
0.00013824
0.00013824
0.00013824
0.00013824
0.00013824
0.00013824
0.00013824
0.00013824
0.00013824
0.00013824
0.00013824
0.00013824
0.00013824
0.00013824
0.00013824
0.00013824
0.00013824
0.00013824
0.00013824
0.00013824
0.00013824
0.00013824
0.00013824
0.00013824
0.00013824
0.00013824
0.00013824
0.00013824
0.00013824
0.00013824
0.00013824
0.00013824
0.00013824
0.00013824
0.00013824
0.00013824
0.00013824
0.00013824
0.00013824
0.00013824
0.00013824
0.00013824
0.00013824
0.000138239
0.000138211
0.000138178
0.000138234
0.00013824
0.00013824
0.00013824
0.00013824
0.00013824
0.00013824
0.00013824
0.00013824
0.00013824
0.00013824
0.00013824
0.00013824
0.00013824
0.00013824
0.00013824
0.00013824
0.00013824
0.00013824
0.00013824
0.00013824
0.00013824
0.00013824
0.00013824
0.00013824
0.00013824
0.00013824
0.00013824
0.00013824
0.00013824
0.00013824
0.00013824
0.00013824
0.00013824
0.00013824
0.00013824
0.00013824
0.00013824
0.00013824
0.00013824
0.00013824
0.00013824
0.00013824
0.00013824
0.00013824
0.00013824
0.00013824
0.00013824
0.00013824
0.00013824
0.00013824
0.00013824
0.00013824
0.00013824
0.00013824
0.00013824
0.00013824
0.00013824
0.00013824
0.00013824
0.00013824
0.00013824
0.00013824
0.00013824
0.00013824
0.00013824
0.00013824
0.00013824
0.00013824
0.00013824
0.00013824
0.00013824
0.00013824
0.00013824
0.00013824
0.00013824
0.00013824
0.00013824
0.00013824
0.00013824
0.00013824
0.00013824
0.00013824
0.00013824
0.00013824
0.00013824
0.00013824
0.00013824
0.00013824
0.00013824
0.00013824
0.00013824
0.00013824
0.00013824
0.00013824
0.00013824
0.00013824
0.00013824
0.00013824
0.00013824
0.00013824
0.00013824
0.00013824
0.00013824
0.00013824
0.00013824
0.00013824
0.00013824
0.00013824
0.00013824
0.00013824
0.00013824
0.00013824
0.00013824
0.00013824
0.00013824
0.00013824
0.00013824
0.00013824
0.00013824
0.00013824
0.00013824
0.00013824
0.00013824
0.00013824
0.00013824
0.00013824
0.00013824
0.00013824
0.00013824
0.00013824
0.00013824
0.00013824
0.00013824
0.00013824
0.00013824
0.00013824
0.00013824
0.00013824
0.00013824
0.00013824
0.00013824
0.00013824
0.00013824
0.00013824
0.00013824
0.00013824
0.00013824
0.00013824
0.00013824
0.00013824
0.00013824
0.00013824
0.00013824
0.00013824
0.00013824
0.00013824
0.00013824
0.00013824
0.00013824
0.00013824
0.00013824
0.00013824
0.00013824
0.00013824
0.00013824
0.00013824
0.00013824
0.00013824
0.00013824
0.00013824
0.00013824
0.00013824
0.00013824
0.00013824
0.00013824
0.00013824
0.00013824
0.00013824
0.00013824
0.00013824
0.00013824
0.00013824
0.00013824
0.00013824
0.00013824
0.00013824
0.00013824
0.00013824
0.00013824
0.00013824
0.00013824
0.00013824
0.00013824
0.00013824
0.00013824
0.00013824
0.00013824
0.00013824
0.00013824
0.00013824
0.00013824
0.00013824
0.00013824
0.00013824
0.00013824
0.00013824
0.00013824
0.00013824
0.00013824
0.00013824
0.00013824
0.00013824
0.00013824
0.00013824
0.00013824
0.00013824
0.00013824
0.00013824
0.00013824
0.00013824
0.00013824
0.00013824
0.00013824
0.00013824
0.00013824
0.00013824
0.00013824
0.00013824
0.00013824
0.00013824
0.00013824
0.00013824
0.00013824
0.00013824
0.00013824
0.00013824
0.00013824
0.00013824
0.00013824
0.00013824
0.00013824
0.00013824
0.00013824
0.00013824
0.00013824
0.00013824
0.00013824
0.00013824
0.00013824
0.00013824
0.00013824
0.00013824
0.00013824
0.00013824
0.00013824
0.00013824
0.00013824
0.00013824
0.00013824
0.00013824
0.00013824
0.00013824
0.00013824
0.00013824
0.00013824
0.00013824
0.00013824
0.00013824
0.00013824
0.00013824
0.00013824
0.00013824
0.00013824
0.00013824
0.00013824
0.00013824
0.00013824
0.00013824
0.00013824
0.00013824
0.00013824
0.00013824
0.00013824
0.00013824
0.00013824
0.00013824
0.00013824
0.00013824
0.00013824
0.00013824
0.00013824
0.00013824
0.00013824
0.00013824
0.00013824
0.00013824
0.00013824
0.00013824
0.00013824
0.00013824
0.00013824
0.00013824
0.00013824
0.00013824
0.00013824
0.00013824
0.00013824
0.00013824
0.00013824
0.00013824
0.00013824
0.00013824
0.00013824
0.00013824
0.00013824
0.00013824
0.00013824
0.00013824
0.00013824
0.00013824
0.00013824
0.00013824
0.00013824
0.00013824
0.00013824
0.00013824
0.00013824
0.00013824
0.00013824
0.00013824
0.00013824
0.00013824
0.00013824
0.00013824
0.00013824
0.00013824
0.00013824
0.00013824
0.00013824
0.00013824
0.00013824
0.00013824
0.00013824
0.00013824
0.00013824
0.00013824
0.00013824
0.00013824
0.00013824
0.00013824
0.00013824
0.00013824
0.00013824
0.00013824
0.00013824
0.00013824
0.00013824
0.00013824
0.00013824
0.00013824
0.00013824
0.00013824
0.00013824
0.00013824
0.00013824
0.00013824
0.00013824
0.00013824
0.00013824
0.00013824
0.00013824
0.00013824
0.00013824
0.00013824
0.00013824
0.00013824
0.00013824
0.00013824
0.00013824
0.00013824
0.00013824
0.00013824
0.00013824
0.00013824
0.00013824
0.00013824
0.00013824
0.00013824
0.00013824
0.00013824
0.00013824
0.00013824
0.00013824
0.00013824
0.00013824
0.00013824
0.00013824
0.00013824
0.00013824
0.00013824
0.00013824
0.00013824
0.00013824
0.00013824
0.00013824
0.00013824
0.00013824
0.00013824
0.00013824
0.00013824
0.00013824
0.00013824
0.00013824
0.00013824
0.00013824
0.00013824
0.00013824
0.00013824
0.00013824
0.00013824
0.00013824
0.00013824
0.00013824
0.00013824
0.00013824
0.00013824
0.00013824
0.00013824
0.00013824
0.00013824
0.00013824
0.00013824
0.00013824
0.00013824
0.00013824
0.00013824
0.00013824
0.00013824
0.00013824
0.00013824
0.00013824
0.00013824
0.00013824
0.00013824
0.00013824
0.00013824
0.00013824
0.00013824
0.00013824
0.00013824
0.00013824
0.00013824
0.00013824
0.00013824
0.00013824
0.00013824
0.00013824
0.00013824
0.00013824
0.00013824
0.00013824
0.00013824
0.00013824
0.00013824
0.00013824
0.00013824
0.00013824
0.00013824
0.00013824
0.00013824
0.00013824
0.00013824
0.00013824
0.00013824
0.00013824
0.00013824
0.00013824
0.00013824
0.00013824
0.00013824
0.00013824
0.00013824
0.00013824
0.00013824
0.00013824
0.00013824
0.00013824
0.00013824
0.00013824
0.00013824
0.00013824
0.00013824
0.00013824
0.00013824
0.00013824
0.00013824
0.00013824
0.00013824
0.00013824
0.00013824
0.00013824
0.00013824
0.00013824
0.00013824
0.00013824
0.00013824
0.00013824
0.00013824
0.00013824
0.00013824
0.00013824
0.00013824
0.00013824
0.00013824
0.00013824
0.00013824
0.00013824
0.00013824
0.00013824
0.00013824
0.00013824
0.00013824
0.00013824
0.00013824
0.00013824
0.00013824
0.00013824
0.00013824
0.00013824
0.00013824
0.00013824
0.00013824
0.00013824
0.00013824
0.00013824
0.00013824
0.00013824
0.00013824
0.00013824
0.00013824
0.00013824
0.00013824
0.00013824
0.00013824
0.00013824
0.00013824
0.00013824
0.00013824
0.00013824
0.00013824
0.00013824
0.00013824
0.00013824
0.00013824
0.00013824
0.00013824
0.00013824
0.00013824
0.00013824
0.00013824
0.00013824
0.00013824
0.00013824
0.00013824
0.00013824
0.00013824
0.00013824
0.00013824
0.00013824
0.00013824
0.00013824
0.00013824
0.00013824
0.00013824
0.00013824
0.00013824
0.00013824
0.00013824
0.00013824
0.00013824
0.00013824
0.00013824
0.00013824
0.00013824
0.00013824
0.00013824
0.00013824
0.00013824
0.00013824
0.00013824
0.00013824
0.00013824
0.00013824
0.00013824
0.00013824
0.00013824
0.00013824
0.00013824
0.00013824
0.00013824
0.00013824
0.00013824
0.00013824
0.00013824
0.00013824
0.00013824
0.00013824
0.00013824
0.00013824
0.00013824
0.00013824
0.00013824
0.00013824
0.00013824
0.00013824
0.00013824
0.00013824
0.00013824
0.00013824
0.00013824
0.00013824
0.00013824
0.00013824
0.00013824
0.00013824
0.00013824
0.00013824
0.00013824
0.00013824
0.00013824
0.00013824
0.00013824
0.00013824
0.00013824
0.00013824
0.00013824
0.00013824
0.00013824
0.00013824
0.00013824
0.00013824
0.00013824
0.00013824
0.00013824
0.00013824
0.00013824
0.00013824
0.00013824
0.00013824
0.00013824
0.00013824
0.00013824
0.00013824
0.00013824
0.00013824
0.00013824
0.00013824
0.00013824
0.00013824
0.00013824
0.00013824
0.00013824
0.00013824
0.00013824
0.00013824
0.00013824
0.00013824
0.00013824
0.00013824
0.00013824
0.00013824
0.00013824
0.00013824
0.00013824
0.00013824
0.00013824
0.00013824
0.00013824
0.00013824
0.00013824
0.00013824
0.00013824
0.00013824
0.00013824
0.00013824
0.00013824
0.00013824
0.00013824