/*--------------------------------*- C++ -*----------------------------------*\
| =========                 |                                                 |
| \\      /  F ield         | OpenFOAM: The Open Source CFD Toolbox           |
|  \\    /   O peration     | Version:  2406                                  |
|   \\  /    A nd           | Website:  www.openfoam.com                      |
|    \\/     M anipulation  |                                                 |
\*---------------------------------------------------------------------------*/
FoamFile
{
    version     2.0;
    format      ascii;
    arch        "LSB;label=32;scalar=64";
    class       volScalarField;
    location    "0.45";
    object      C;
}
// * * * * * * * * * * * * * * * * * * * * * * * * * * * * * * * * * * * * * //

dimensions      [1 -3 0 0 0 0 0];

internalField   nonuniform List<scalar> 
14400
(
3.81892
3.81851
3.81765
3.81625
3.81411
3.81083
3.80542
3.79434
3.80598
3.81186
3.81563
3.81827
3.82021
3.82164
3.82266
3.82333
3.82369
3.82371
3.8234
3.82268
3.82147
3.81955
3.81653
3.81139
3.80068
3.81277
3.81906
3.82327
3.82642
3.82892
3.83097
3.8327
3.83417
3.83544
3.83653
3.83747
3.83828
3.83897
3.83956
3.84004
3.84043
3.84073
3.84094
3.84108
3.84113
3.84111
3.84101
3.84083
3.84058
3.84025
3.83985
3.83937
3.83881
3.83816
3.83743
3.83661
3.8357
3.83469
3.83357
3.83234
3.83098
3.82949
3.82784
3.82603
3.82402
3.82177
3.81926
3.8164
3.81312
3.80926
3.80458
3.79862
3.79028
3.77494
3.78116
3.78056
3.77283
3.78663
3.79368
3.7983
3.80161
3.80405
3.80589
3.80724
3.80821
3.80885
3.80918
3.80923
3.809
3.80849
3.80768
3.80652
3.80497
3.80289
3.8001
3.79619
3.79014
3.77827
3.78903
3.79415
3.79708
3.79881
3.79972
3.79998
3.79963
3.79863
3.79681
3.7938
3.7886
3.77775
3.78952
3.7955
3.79935
3.80208
3.8041
3.80561
3.80674
3.80754
3.80805
3.8083
3.81933
3.81896
3.81819
3.81698
3.81524
3.81289
3.80998
3.80744
3.81049
3.81389
3.81674
3.81898
3.82072
3.82204
3.82301
3.82366
3.82401
3.82406
3.8238
3.82318
3.82217
3.82065
3.81856
3.81594
3.81376
3.81721
3.82103
3.82433
3.82707
3.82937
3.8313
3.83296
3.83438
3.83561
3.83668
3.8376
3.8384
3.83908
3.83966
3.84013
3.84052
3.84081
3.84102
3.84116
3.84121
3.84118
3.84108
3.84091
3.84066
3.84033
3.83993
3.83945
3.83889
3.83825
3.83752
3.83671
3.8358
3.83479
3.83368
3.83246
3.83112
3.82964
3.82802
3.82622
3.82425
3.82205
3.81959
3.81683
3.81369
3.81008
3.80586
3.80087
3.79507
3.78908
3.78809
3.78742
3.78699
3.79155
3.796
3.79962
3.80246
3.80467
3.80636
3.80763
3.80855
3.80915
3.80946
3.80951
3.80929
3.80879
3.80802
3.80693
3.80548
3.80361
3.80123
3.79822
3.79464
3.79137
3.79364
3.79625
3.79827
3.79962
3.80037
3.80059
3.80028
3.79944
3.798
3.7959
3.79319
3.79084
3.79403
3.79753
3.80046
3.80279
3.8046
3.80601
3.80706
3.80782
3.80831
3.80855
3.82011
3.8198
3.81918
3.81824
3.81699
3.81551
3.81404
3.81332
3.81453
3.81648
3.81845
3.8202
3.82165
3.8228
3.82368
3.82428
3.82463
3.82472
3.82454
3.82409
3.82336
3.82234
3.82112
3.81996
3.81958
3.82117
3.82353
3.82594
3.82818
3.83016
3.83191
3.83344
3.83478
3.83595
3.83697
3.83786
3.83864
3.8393
3.83985
3.84032
3.84069
3.84098
3.84119
3.84131
3.84136
3.84134
3.84123
3.84106
3.84081
3.84048
3.84008
3.83961
3.83905
3.83842
3.8377
3.83689
3.836
3.835
3.83391
3.83271
3.83139
3.82994
3.82835
3.82661
3.82469
3.82258
3.82024
3.81764
3.81474
3.8115
3.80789
3.80394
3.79986
3.79632
3.79459
3.79391
3.79426
3.79643
3.79914
3.80173
3.80396
3.80579
3.80725
3.80838
3.8092
3.80974
3.81002
3.81005
3.80984
3.80938
3.80867
3.80769
3.80642
3.80485
3.80296
3.80084
3.79871
3.79729
3.79777
3.79896
3.80014
3.80103
3.80157
3.80171
3.80147
3.80085
3.79986
3.79859
3.79732
3.79675
3.79809
3.80013
3.80219
3.80401
3.80552
3.80674
3.80769
3.80837
3.80882
3.80904
3.82119
3.82095
3.82049
3.81982
3.81898
3.81809
3.81737
3.81718
3.81784
3.81903
3.82039
3.82171
3.82287
3.82385
3.82461
3.82516
3.8255
3.82564
3.82556
3.82529
3.82483
3.82424
3.82362
3.8232
3.82334
3.82437
3.82595
3.82775
3.82953
3.8312
3.83274
3.83411
3.83534
3.83644
3.8374
3.83824
3.83898
3.83961
3.84015
3.84059
3.84095
3.84123
3.84143
3.84155
3.84159
3.84156
3.84146
3.84128
3.84103
3.84071
3.84032
3.83984
3.8393
3.83867
3.83796
3.83717
3.83629
3.83532
3.83424
3.83307
3.83178
3.83038
3.82884
3.82717
3.82534
3.82333
3.82114
3.81875
3.81614
3.8133
3.81027
3.80715
3.80413
3.80161
3.80006
3.79938
3.79959
3.80075
3.80242
3.80419
3.80585
3.80729
3.80848
3.80943
3.81012
3.81058
3.81082
3.81084
3.81064
3.81022
3.80959
3.80874
3.80766
3.80639
3.80495
3.80344
3.80208
3.80123
3.8012
3.80168
3.80229
3.80281
3.80314
3.80322
3.80305
3.80262
3.80201
3.8013
3.80074
3.80067
3.80144
3.80272
3.80415
3.80552
3.80674
3.80775
3.80856
3.80916
3.80956
3.80976
3.82251
3.82234
3.82201
3.82156
3.82103
3.82052
3.82017
3.82017
3.82062
3.82142
3.82238
3.82337
3.82429
3.82509
3.82575
3.82625
3.82659
3.82676
3.82678
3.82666
3.82644
3.82616
3.82592
3.82588
3.8262
3.827
3.82818
3.82955
3.83099
3.83239
3.83371
3.83493
3.83605
3.83705
3.83794
3.83873
3.83942
3.84002
3.84053
3.84096
3.8413
3.84156
3.84175
3.84186
3.8419
3.84186
3.84176
3.84158
3.84133
3.84101
3.84062
3.84016
3.83962
3.839
3.83831
3.83753
3.83667
3.83572
3.83468
3.83354
3.8323
3.83095
3.82948
3.82788
3.82615
3.82428
3.82225
3.82007
3.81775
3.81529
3.81276
3.81024
3.80789
3.80596
3.80463
3.80397
3.80397
3.80458
3.80558
3.80677
3.80795
3.80903
3.80997
3.81072
3.81128
3.81166
3.81184
3.81184
3.81165
3.81128
3.81073
3.81
3.80911
3.80809
3.80699
3.8059
3.80495
3.80432
3.80413
3.80425
3.80452
3.80479
3.80496
3.80499
3.80486
3.8046
3.80423
3.80387
3.80365
3.80375
3.80429
3.80515
3.80617
3.8072
3.80815
3.80898
3.80965
3.81016
3.8105
3.81067
3.82399
3.82388
3.82366
3.82337
3.82305
3.82277
3.82263
3.82271
3.82306
3.82363
3.82434
3.8251
3.82583
3.82649
3.82705
3.8275
3.82783
3.82804
3.82814
3.82815
3.8281
3.82803
3.82803
3.82818
3.82858
3.82927
3.8302
3.8313
3.83247
3.83365
3.83479
3.83587
3.83686
3.83777
3.83859
3.83932
3.83996
3.84052
3.841
3.8414
3.84172
3.84197
3.84214
3.84224
3.84227
3.84223
3.84212
3.84195
3.8417
3.84139
3.841
3.84055
3.84002
3.83941
3.83874
3.83798
3.83714
3.83622
3.83522
3.83412
3.83293
3.83163
3.83023
3.82873
3.82711
3.82537
3.82351
3.82155
3.81949
3.81736
3.81522
3.81315
3.81126
3.80968
3.80855
3.8079
3.80773
3.808
3.80858
3.80934
3.81015
3.81093
3.81163
3.8122
3.81264
3.81292
3.81305
3.81302
3.81284
3.81251
3.81204
3.81143
3.8107
3.80988
3.80903
3.8082
3.80749
3.80699
3.80674
3.80669
3.80676
3.80686
3.80692
3.80692
3.80682
3.80666
3.80646
3.80629
3.80624
3.8064
3.80681
3.80744
3.80818
3.80895
3.80969
3.81035
3.8109
3.81132
3.8116
3.81175
3.82559
3.82552
3.82538
3.82521
3.82503
3.8249
3.82487
3.82498
3.82527
3.82571
3.82626
3.82685
3.82743
3.82798
3.82847
3.82888
3.8292
3.82943
3.82959
3.8297
3.82977
3.82985
3.82999
3.83025
3.83067
3.83129
3.83207
3.83298
3.83395
3.83495
3.83594
3.83688
3.83776
3.83858
3.83932
3.83999
3.84059
3.8411
3.84155
3.84192
3.84222
3.84244
3.8426
3.84269
3.84272
3.84267
3.84256
3.84238
3.84214
3.84183
3.84145
3.841
3.84049
3.8399
3.83924
3.83851
3.8377
3.83681
3.83584
3.83479
3.83365
3.83242
3.8311
3.82969
3.82818
3.82658
3.82489
3.82312
3.8213
3.81945
3.81762
3.81587
3.8143
3.81297
3.81198
3.81134
3.81106
3.81111
3.8114
3.81185
3.81238
3.81292
3.81341
3.81382
3.81414
3.81434
3.81441
3.81436
3.81419
3.8139
3.81348
3.81297
3.81237
3.81171
3.81104
3.81039
3.80983
3.80941
3.80914
3.809
3.80896
3.80896
3.80896
3.80893
3.80886
3.80876
3.80866
3.8086
3.80863
3.8088
3.80913
3.80959
3.81015
3.81074
3.81131
3.81183
3.81227
3.81262
3.81285
3.81297
3.82727
3.82722
3.82714
3.82705
3.82696
3.82692
3.82695
3.82709
3.82734
3.82769
3.82812
3.8286
3.82908
3.82954
3.82996
3.83033
3.83064
3.8309
3.8311
3.83127
3.83143
3.8316
3.83183
3.83214
3.83257
3.83313
3.83381
3.83458
3.83541
3.83627
3.83712
3.83795
3.83873
3.83946
3.84013
3.84074
3.84128
3.84176
3.84217
3.84251
3.84278
3.84299
3.84314
3.84321
3.84323
3.84318
3.84306
3.84289
3.84265
3.84234
3.84197
3.84153
3.84103
3.84046
3.83982
3.83911
3.83833
3.83748
3.83655
3.83555
3.83447
3.8333
3.83206
3.83074
3.82934
3.82787
3.82633
3.82475
3.82313
3.82151
3.81993
3.81843
3.81709
3.81594
3.81504
3.81442
3.81407
3.81397
3.81406
3.81429
3.81461
3.81495
3.81527
3.81555
3.81575
3.81587
3.8159
3.81583
3.81566
3.81539
3.81503
3.8146
3.8141
3.81356
3.81302
3.81249
3.81204
3.81167
3.8114
3.81123
3.81113
3.81107
3.81102
3.81097
3.81092
3.81086
3.81081
3.81081
3.81087
3.81104
3.8113
3.81166
3.81209
3.81254
3.81299
3.8134
3.81375
3.81402
3.81421
3.81431
3.82898
3.82896
3.82892
3.82888
3.82885
3.82886
3.82893
3.82907
3.82929
3.82959
3.82995
3.83034
3.83074
3.83114
3.83151
3.83185
3.83215
3.83241
3.83265
3.83286
3.83307
3.8333
3.83358
3.83392
3.83434
3.83486
3.83546
3.83613
3.83685
3.83759
3.83833
3.83905
3.83975
3.8404
3.84101
3.84156
3.84205
3.84248
3.84286
3.84317
3.84342
3.84361
3.84373
3.8438
3.8438
3.84375
3.84363
3.84345
3.84321
3.84291
3.84255
3.84213
3.84164
3.84109
3.84047
3.83979
3.83904
3.83823
3.83734
3.83639
3.83536
3.83427
3.8331
3.83187
3.83058
3.82923
3.82783
3.82641
3.82496
3.82353
3.82215
3.82085
3.81967
3.81866
3.81784
3.81723
3.81683
3.81663
3.81658
3.81665
3.8168
3.81699
3.81718
3.81734
3.81745
3.8175
3.81749
3.81739
3.81722
3.81698
3.81666
3.81629
3.81587
3.81542
3.81497
3.81454
3.81415
3.81382
3.81357
3.81338
3.81325
3.81316
3.81309
3.81303
3.81298
3.81294
3.81292
3.81295
3.81302
3.81317
3.81339
3.81367
3.814
3.81435
3.8147
3.81502
3.8153
3.81552
3.81567
3.81575
3.83072
3.83072
3.8307
3.83069
3.8307
3.83075
3.83083
3.83098
3.83118
3.83144
3.83174
3.83207
3.83241
3.83276
3.83309
3.8334
3.83369
3.83396
3.83421
3.83445
3.8347
3.83496
3.83526
3.83561
3.83602
3.8365
3.83704
3.83763
3.83826
3.8389
3.83956
3.84019
3.84081
3.84139
3.84193
3.84243
3.84287
3.84327
3.8436
3.84389
3.84411
3.84428
3.84439
3.84444
3.84444
3.84438
3.84426
3.84408
3.84384
3.84355
3.8432
3.84279
3.84231
3.84178
3.84119
3.84053
3.83982
3.83904
3.8382
3.83729
3.83632
3.8353
3.83421
3.83307
3.83187
3.83064
3.82937
3.82808
3.82678
3.82551
3.82429
3.82314
3.82209
3.82118
3.82042
3.81983
3.8194
3.81913
3.81898
3.81894
3.81897
3.81903
3.81911
3.81917
3.81921
3.81921
3.81915
3.81904
3.81886
3.81863
3.81835
3.81802
3.81766
3.81728
3.8169
3.81653
3.8162
3.81591
3.81567
3.81548
3.81534
3.81523
3.81515
3.81508
3.81503
3.815
3.815
3.81503
3.8151
3.81523
3.81541
3.81563
3.81589
3.81616
3.81643
3.81668
3.8169
3.81708
3.8172
3.81726
3.83247
3.83247
3.83248
3.83249
3.83253
3.83259
3.83268
3.83282
3.83301
3.83323
3.83349
3.83378
3.83408
3.83439
3.83469
3.83498
3.83526
3.83552
3.83578
3.83604
3.8363
3.83658
3.83689
3.83724
3.83763
3.83808
3.83857
3.83909
3.83965
3.84022
3.84079
3.84136
3.8419
3.84242
3.8429
3.84335
3.84375
3.8441
3.84441
3.84466
3.84486
3.84501
3.84511
3.84515
3.84513
3.84507
3.84494
3.84477
3.84453
3.84425
3.8439
3.8435
3.84305
3.84253
3.84196
3.84134
3.84065
3.83991
3.83911
3.83826
3.83735
3.83638
3.83537
3.83431
3.83321
3.83208
3.83092
3.82975
3.82859
3.82744
3.82635
3.82532
3.82438
3.82355
3.82284
3.82227
3.82182
3.8215
3.82128
3.82115
3.82109
3.82106
3.82105
3.82104
3.82101
3.82096
3.82087
3.82074
3.82056
3.82034
3.82008
3.81979
3.81947
3.81914
3.81881
3.8185
3.8182
3.81794
3.81772
3.81754
3.81739
3.81727
3.81718
3.81711
3.81706
3.81704
3.81704
3.81707
3.81713
3.81724
3.81738
3.81756
3.81776
3.81797
3.81818
3.81838
3.81855
3.81869
3.81879
3.81884
3.83422
3.83423
3.83424
3.83427
3.83432
3.83439
3.83449
3.83462
3.83479
3.835
3.83523
3.83548
3.83575
3.83602
3.8363
3.83657
3.83683
3.8371
3.83735
3.83762
3.83789
3.83817
3.83848
3.83882
3.8392
3.83961
3.84006
3.84053
3.84102
3.84153
3.84204
3.84254
3.84302
3.84348
3.84392
3.84431
3.84467
3.84499
3.84526
3.84549
3.84567
3.84579
3.84587
3.8459
3.84588
3.84581
3.84568
3.84551
3.84528
3.845
3.84466
3.84428
3.84384
3.84334
3.8428
3.8422
3.84155
3.84084
3.84009
3.83928
3.83842
3.83752
3.83658
3.8356
3.83458
3.83354
3.83248
3.83142
3.83036
3.82933
3.82834
3.82741
3.82656
3.82579
3.82513
3.82457
3.82411
3.82376
3.8235
3.8233
3.82317
3.82307
3.82299
3.82292
3.82284
3.82275
3.82263
3.82248
3.8223
3.82209
3.82185
3.82158
3.8213
3.82101
3.82072
3.82044
3.82017
3.81994
3.81973
3.81955
3.81941
3.81929
3.81919
3.81912
3.81907
3.81905
3.81904
3.81907
3.81912
3.81921
3.81932
3.81946
3.81962
3.81978
3.81995
3.8201
3.82024
3.82035
3.82042
3.82046
3.83596
3.83597
3.836
3.83603
3.83609
3.83616
3.83626
3.83639
3.83655
3.83673
3.83694
3.83717
3.83741
3.83765
3.83791
3.83816
3.83842
3.83867
3.83893
3.83919
3.83946
3.83974
3.84005
3.84037
3.84073
3.84111
3.84152
3.84194
3.84239
3.84284
3.84329
3.84374
3.84417
3.84458
3.84496
3.84532
3.84564
3.84592
3.84616
3.84636
3.84652
3.84663
3.84669
3.84671
3.84668
3.8466
3.84647
3.8463
3.84607
3.8458
3.84547
3.8451
3.84468
3.84421
3.84368
3.84311
3.84249
3.84182
3.84111
3.84035
3.83955
3.83871
3.83783
3.83691
3.83597
3.83502
3.83405
3.83308
3.83212
3.83118
3.83028
3.82943
3.82865
3.82793
3.82731
3.82676
3.82631
3.82594
3.82564
3.8254
3.82521
3.82506
3.82493
3.82481
3.82469
3.82456
3.82442
3.82426
3.82407
3.82386
3.82363
3.82339
3.82313
3.82287
3.82261
3.82236
3.82212
3.8219
3.82171
3.82154
3.8214
3.82128
3.82119
3.82111
3.82106
3.82103
3.82102
3.82104
3.82108
3.82115
3.82124
3.82134
3.82147
3.82159
3.82172
3.82184
3.82195
3.82204
3.82209
3.82213
3.8377
3.83771
3.83773
3.83777
3.83783
3.83791
3.83801
3.83813
3.83827
3.83844
3.83863
3.83884
3.83905
3.83928
3.83952
3.83976
3.84
3.84024
3.84049
3.84075
3.84101
3.84129
3.84158
3.8419
3.84223
3.84258
3.84296
3.84334
3.84374
3.84415
3.84455
3.84495
3.84533
3.8457
3.84604
3.84636
3.84664
3.84689
3.8471
3.84728
3.84741
3.84751
3.84756
3.84756
3.84753
3.84744
3.84731
3.84714
3.84692
3.84665
3.84634
3.84598
3.84557
3.84512
3.84462
3.84407
3.84349
3.84285
3.84218
3.84146
3.84071
3.83992
3.8391
3.83826
3.83739
3.8365
3.83561
3.83472
3.83384
3.83299
3.83216
3.83138
3.83066
3.83
3.8294
3.82887
3.82842
3.82804
3.82771
3.82744
3.82722
3.82703
3.82686
3.8267
3.82655
3.82639
3.82623
3.82605
3.82586
3.82566
3.82544
3.82521
3.82497
3.82473
3.82449
3.82426
3.82405
3.82385
3.82366
3.8235
3.82337
3.82325
3.82315
3.82308
3.82302
3.82299
3.82298
3.82299
3.82301
3.82306
3.82313
3.82321
3.82331
3.82341
3.82351
3.8236
3.82368
3.82375
3.82379
3.82382
3.83942
3.83943
3.83946
3.8395
3.83956
3.83963
3.83973
3.83984
3.83998
3.84013
3.84031
3.84049
3.84069
3.8409
3.84112
3.84135
3.84158
3.84181
3.84205
3.8423
3.84255
3.84282
3.8431
3.8434
3.84371
3.84404
3.84438
3.84473
3.84509
3.84545
3.84581
3.84617
3.84651
3.84684
3.84714
3.84742
3.84768
3.8479
3.84809
3.84824
3.84835
3.84843
3.84847
3.84846
3.84842
3.84833
3.8482
3.84803
3.84781
3.84755
3.84724
3.8469
3.84651
3.84607
3.8456
3.84508
3.84452
3.84392
3.84329
3.84262
3.84191
3.84117
3.84041
3.83962
3.83882
3.838
3.83718
3.83636
3.83555
3.83476
3.83401
3.83329
3.83261
3.83199
3.83142
3.83091
3.83047
3.83008
3.82974
3.82945
3.82919
3.82897
3.82877
3.82858
3.82841
3.82823
3.82805
3.82786
3.82767
3.82747
3.82725
3.82703
3.82681
3.82659
3.82637
3.82616
3.82596
3.82577
3.8256
3.82545
3.82531
3.8252
3.8251
3.82503
3.82497
3.82493
3.82491
3.82491
3.82493
3.82496
3.82501
3.82507
3.82514
3.82522
3.8253
3.82537
3.82543
3.82548
3.82552
3.82554
3.84112
3.84114
3.84116
3.8412
3.84126
3.84134
3.84143
3.84154
3.84166
3.84181
3.84197
3.84214
3.84232
3.84252
3.84272
3.84293
3.84315
3.84337
3.8436
3.84384
3.84408
3.84434
3.8446
3.84488
3.84517
3.84548
3.84579
3.84611
3.84644
3.84676
3.84709
3.8474
3.84771
3.848
3.84827
3.84852
3.84874
3.84894
3.8491
3.84923
3.84933
3.84939
3.84942
3.8494
3.84935
3.84926
3.84913
3.84895
3.84874
3.84849
3.8482
3.84786
3.84749
3.84707
3.84662
3.84613
3.8456
3.84503
3.84443
3.8438
3.84314
3.84245
3.84174
3.841
3.84026
3.8395
3.83874
3.83798
3.83724
3.83651
3.83581
3.83514
3.83451
3.83392
3.83338
3.83289
3.83245
3.83206
3.83171
3.83141
3.83113
3.83089
3.83067
3.83046
3.83026
3.83007
3.82988
3.82968
3.82948
3.82928
3.82907
3.82886
3.82865
3.82844
3.82824
3.82804
3.82785
3.82767
3.82751
3.82737
3.82724
3.82713
3.82703
3.82695
3.82689
3.82685
3.82683
3.82682
3.82682
3.82684
3.82688
3.82692
3.82697
3.82703
3.82709
3.82714
3.82719
3.82723
3.82726
3.82727
3.84281
3.84283
3.84285
3.8429
3.84295
3.84302
3.84311
3.84321
3.84333
3.84346
3.84361
3.84377
3.84394
3.84412
3.84431
3.84451
3.84471
3.84493
3.84514
3.84537
3.8456
3.84584
3.8461
3.84636
3.84663
3.84691
3.84719
3.84749
3.84778
3.84808
3.84837
3.84865
3.84892
3.84918
3.84942
3.84964
3.84984
3.85001
3.85015
3.85026
3.85034
3.85039
3.8504
3.85038
3.85032
3.85023
3.85009
3.84992
3.84972
3.84947
3.84919
3.84887
3.84851
3.84811
3.84768
3.84721
3.84671
3.84618
3.84561
3.84502
3.84439
3.84375
3.84308
3.8424
3.84171
3.841
3.8403
3.8396
3.83891
3.83823
3.83758
3.83695
3.83636
3.83581
3.83529
3.83482
3.83439
3.834
3.83365
3.83333
3.83305
3.83279
3.83255
3.83233
3.83211
3.83191
3.83171
3.83151
3.83131
3.8311
3.8309
3.8307
3.83049
3.83029
3.8301
3.82991
3.82973
3.82956
3.82941
3.82927
3.82914
3.82904
3.82894
3.82886
3.8288
3.82875
3.82872
3.82871
3.8287
3.82871
3.82873
3.82876
3.8288
3.82884
3.82888
3.82892
3.82896
3.82899
3.82901
3.82902
3.84449
3.84451
3.84453
3.84457
3.84463
3.84469
3.84478
3.84487
3.84498
3.84511
3.84524
3.84539
3.84555
3.84572
3.8459
3.84608
3.84627
3.84647
3.84668
3.84689
3.84711
3.84734
3.84758
3.84782
3.84807
3.84833
3.84859
3.84886
3.84912
3.84939
3.84965
3.84991
3.85015
3.85038
3.85059
3.85079
3.85096
3.85111
3.85123
3.85132
3.85139
3.85142
3.85143
3.8514
3.85133
3.85123
3.8511
3.85093
3.85073
3.85049
3.85022
3.84991
3.84956
3.84919
3.84877
3.84833
3.84786
3.84735
3.84682
3.84626
3.84567
3.84507
3.84445
3.84381
3.84316
3.84251
3.84185
3.8412
3.84056
3.83993
3.83932
3.83874
3.83818
3.83765
3.83716
3.83671
3.83629
3.8359
3.83555
3.83523
3.83494
3.83467
3.83442
3.83418
3.83396
3.83374
3.83353
3.83333
3.83313
3.83292
3.83272
3.83252
3.83233
3.83214
3.83195
3.83177
3.8316
3.83144
3.83129
3.83116
3.83104
3.83093
3.83084
3.83076
3.83069
3.83064
3.83061
3.83058
3.83057
3.83057
3.83058
3.8306
3.83062
3.83065
3.83068
3.83071
3.83074
3.83076
3.83077
3.83078
3.84616
3.84617
3.8462
3.84623
3.84629
3.84635
3.84643
3.84652
3.84662
3.84674
3.84686
3.847
3.84715
3.84731
3.84747
3.84765
3.84783
3.84801
3.84821
3.84841
3.84862
3.84883
3.84905
3.84928
3.84951
3.84975
3.84999
3.85023
3.85047
3.85071
3.85094
3.85117
3.85139
3.85159
3.85178
3.85195
3.8521
3.85223
3.85234
3.85241
3.85246
3.85249
3.85248
3.85244
3.85237
3.85227
3.85214
3.85197
3.85178
3.85154
3.85128
3.85098
3.85065
3.85029
3.8499
3.84948
3.84903
3.84855
3.84805
3.84752
3.84697
3.84641
3.84582
3.84523
3.84462
3.84401
3.8434
3.8428
3.8422
3.84161
3.84104
3.84049
3.83996
3.83947
3.839
3.83856
3.83815
3.83777
3.83742
3.8371
3.8368
3.83653
3.83627
3.83602
3.83579
3.83557
3.83536
3.83515
3.83495
3.83474
3.83455
3.83435
3.83416
3.83398
3.8338
3.83362
3.83346
3.83331
3.83316
3.83303
3.83291
3.83281
3.83272
3.83264
3.83257
3.83252
3.83247
3.83245
3.83243
3.83242
3.83242
3.83243
3.83244
3.83246
3.83248
3.8325
3.83251
3.83253
3.83254
3.83255
3.84781
3.84782
3.84785
3.84788
3.84793
3.84799
3.84806
3.84815
3.84825
3.84835
3.84847
3.8486
3.84874
3.84889
3.84904
3.8492
3.84937
3.84955
3.84973
3.84992
3.85011
3.85031
3.85052
3.85073
3.85094
3.85116
3.85138
3.8516
3.85182
3.85203
3.85225
3.85245
3.85264
3.85282
3.85299
3.85314
3.85327
3.85338
3.85347
3.85353
3.85357
3.85358
3.85357
3.85352
3.85345
3.85335
3.85321
3.85305
3.85286
3.85263
3.85238
3.85209
3.85178
3.85143
3.85106
3.85066
3.85023
3.84978
3.84931
3.84881
3.84829
3.84776
3.84721
3.84666
3.84609
3.84552
3.84495
3.84438
3.84382
3.84327
3.84274
3.84222
3.84172
3.84125
3.8408
3.84038
3.83998
3.83961
3.83927
3.83894
3.83865
3.83837
3.8381
3.83786
3.83762
3.83739
3.83718
3.83697
3.83676
3.83656
3.83636
3.83617
3.83599
3.83581
3.83563
3.83547
3.83531
3.83516
3.83502
3.8349
3.83478
3.83467
3.83458
3.8345
3.83443
3.83438
3.83433
3.8343
3.83427
3.83426
3.83425
3.83425
3.83425
3.83426
3.83427
3.83429
3.8343
3.83431
3.83431
3.83432
3.84945
3.84946
3.84949
3.84952
3.84957
3.84962
3.84969
3.84977
3.84986
3.84996
3.85007
3.85019
3.85032
3.85046
3.8506
3.85075
3.85091
3.85107
3.85124
3.85142
3.8516
3.85179
3.85198
3.85217
3.85237
3.85257
3.85277
3.85297
3.85317
3.85336
3.85355
3.85373
3.85391
3.85407
3.85421
3.85434
3.85446
3.85455
3.85462
3.85467
3.8547
3.8547
3.85468
3.85463
3.85455
3.85445
3.85432
3.85415
3.85397
3.85375
3.8535
3.85323
3.85293
3.8526
3.85224
3.85186
3.85146
3.85103
3.85058
3.85011
3.84963
3.84913
3.84862
3.84809
3.84756
3.84703
3.84649
3.84596
3.84544
3.84492
3.84442
3.84393
3.84346
3.843
3.84258
3.84217
3.84178
3.84142
3.84108
3.84077
3.84047
3.84019
3.83992
3.83967
3.83943
3.83921
3.83899
3.83878
3.83857
3.83837
3.83818
3.83799
3.83781
3.83763
3.83746
3.8373
3.83715
3.837
3.83687
3.83675
3.83663
3.83653
3.83644
3.83636
3.83629
3.83623
3.83618
3.83614
3.83611
3.83609
3.83607
3.83607
3.83606
3.83607
3.83607
3.83608
3.83608
3.83609
3.83609
3.83609
3.85108
3.85109
3.85111
3.85115
3.85119
3.85124
3.8513
3.85138
3.85146
3.85156
3.85166
3.85177
3.85189
3.85202
3.85215
3.85229
3.85244
3.85259
3.85275
3.85292
3.85309
3.85326
3.85344
3.85361
3.8538
3.85398
3.85416
3.85434
3.85452
3.8547
3.85487
3.85503
3.85518
3.85532
3.85545
3.85556
3.85566
3.85574
3.8558
3.85584
3.85585
3.85585
3.85582
3.85576
3.85568
3.85558
3.85545
3.85529
3.8551
3.85489
3.85466
3.85439
3.8541
3.85379
3.85345
3.85309
3.85271
3.8523
3.85188
3.85144
3.85098
3.85051
3.85003
3.84954
3.84904
3.84854
3.84803
3.84753
3.84704
3.84655
3.84608
3.84562
3.84517
3.84474
3.84433
3.84394
3.84357
3.84321
3.84288
3.84257
3.84227
3.84199
3.84173
3.84148
3.84124
3.84101
3.84079
3.84058
3.84038
3.84018
3.83999
3.8398
3.83962
3.83945
3.83929
3.83913
3.83898
3.83884
3.83871
3.83859
3.83847
3.83837
3.83828
3.8382
3.83813
3.83807
3.83801
3.83797
3.83794
3.83791
3.83789
3.83788
3.83787
3.83786
3.83786
3.83786
3.83787
3.83787
3.83787
3.83787
3.8527
3.85271
3.85273
3.85276
3.8528
3.85285
3.85291
3.85298
3.85306
3.85314
3.85324
3.85334
3.85345
3.85357
3.8537
3.85383
3.85397
3.85411
3.85426
3.85441
3.85457
3.85473
3.85489
3.85505
3.85522
3.85539
3.85555
3.85572
3.85588
3.85604
3.85619
3.85633
3.85647
3.85659
3.8567
3.8568
3.85688
3.85695
3.857
3.85703
3.85703
3.85702
3.85698
3.85692
3.85684
3.85673
3.8566
3.85645
3.85627
3.85606
3.85583
3.85558
3.8553
3.855
3.85468
3.85434
3.85398
3.85359
3.85319
3.85277
3.85234
3.8519
3.85145
3.85098
3.85052
3.85004
3.84957
3.8491
3.84864
3.84818
3.84773
3.84729
3.84687
3.84646
3.84606
3.84569
3.84533
3.84498
3.84466
3.84435
3.84406
3.84379
3.84352
3.84327
3.84303
3.84281
3.84259
3.84238
3.84217
3.84198
3.84179
3.84161
3.84143
3.84126
3.8411
3.84095
3.8408
3.84066
3.84053
3.84041
3.8403
3.8402
3.84011
3.84003
3.83996
3.83989
3.83984
3.83979
3.83976
3.83973
3.8397
3.83968
3.83967
3.83966
3.83965
3.83965
3.83965
3.83965
3.83965
3.83965
3.85431
3.85432
3.85434
3.85436
3.8544
3.85445
3.8545
3.85457
3.85464
3.85472
3.85481
3.85491
3.85501
3.85512
3.85524
3.85536
3.85549
3.85562
3.85576
3.8559
3.85604
3.85619
3.85634
3.85649
3.85664
3.8568
3.85695
3.8571
3.85724
3.85738
3.85752
3.85765
3.85777
3.85787
3.85797
3.85806
3.85812
3.85818
3.85821
3.85823
3.85823
3.85821
3.85817
3.85811
3.85802
3.85791
3.85778
3.85763
3.85746
3.85726
3.85704
3.85679
3.85653
3.85624
3.85594
3.85561
3.85526
3.8549
3.85452
3.85413
3.85372
3.8533
3.85287
3.85244
3.852
3.85155
3.85111
3.85067
3.85023
3.84979
3.84937
3.84895
3.84855
3.84816
3.84778
3.84742
3.84707
3.84674
3.84642
3.84612
3.84583
3.84556
3.8453
3.84505
3.84482
3.84459
3.84437
3.84416
3.84396
3.84377
3.84358
3.8434
3.84323
3.84306
3.84291
3.84276
3.84261
3.84248
3.84235
3.84223
3.84213
3.84203
3.84193
3.84185
3.84178
3.84171
3.84166
3.84161
3.84157
3.84153
3.84151
3.84148
3.84147
3.84145
3.84144
3.84144
3.84143
3.84143
3.84143
3.84143
3.85591
3.85591
3.85593
3.85596
3.85599
3.85604
3.85609
3.85615
3.85622
3.85629
3.85637
3.85646
3.85656
3.85666
3.85677
3.85688
3.857
3.85713
3.85725
3.85738
3.85752
3.85765
3.85779
3.85793
3.85807
3.85821
3.85834
3.85848
3.85861
3.85874
3.85886
3.85897
3.85907
3.85917
3.85925
3.85932
3.85938
3.85942
3.85945
3.85946
3.85945
3.85942
3.85938
3.85931
3.85922
3.85912
3.85899
3.85884
3.85867
3.85848
3.85826
3.85803
3.85777
3.8575
3.85721
3.8569
3.85657
3.85622
3.85586
3.85549
3.85511
3.85471
3.85431
3.8539
3.85348
3.85306
3.85264
3.85222
3.85181
3.8514
3.85099
3.8506
3.85021
3.84984
3.84948
3.84913
3.8488
3.84848
3.84817
3.84787
3.84759
3.84733
3.84707
3.84682
3.84659
3.84637
3.84615
3.84594
3.84574
3.84555
3.84537
3.84519
3.84502
3.84486
3.8447
3.84456
3.84442
3.84428
3.84416
3.84405
3.84394
3.84384
3.84375
3.84367
3.84359
3.84353
3.84347
3.84342
3.84337
3.84334
3.8433
3.84328
3.84326
3.84324
3.84323
3.84322
3.84321
3.84321
3.8432
3.8432
3.85749
3.8575
3.85752
3.85754
3.85758
3.85762
3.85766
3.85772
3.85778
3.85785
3.85793
3.85801
3.8581
3.8582
3.8583
3.8584
3.85851
3.85863
3.85874
3.85886
3.85899
3.85911
3.85924
3.85936
3.85949
3.85962
3.85974
3.85986
3.85998
3.86009
3.8602
3.8603
3.86039
3.86047
3.86054
3.8606
3.86065
3.86068
3.8607
3.8607
3.86069
3.86065
3.8606
3.86054
3.86045
3.86034
3.86021
3.86007
3.8599
3.85971
3.85951
3.85928
3.85904
3.85878
3.8585
3.8582
3.85789
3.85756
3.85722
3.85687
3.8565
3.85613
3.85575
3.85536
3.85497
3.85457
3.85417
3.85378
3.85339
3.853
3.85261
3.85224
3.85187
3.85151
3.85117
3.85083
3.85051
3.8502
3.8499
3.84961
3.84934
3.84908
3.84883
3.84858
3.84835
3.84813
3.84792
3.84771
3.84752
3.84733
3.84715
3.84697
3.84681
3.84665
3.8465
3.84635
3.84621
3.84608
3.84596
3.84585
3.84574
3.84564
3.84555
3.84547
3.8454
3.84533
3.84527
3.84522
3.84517
3.84513
3.8451
3.84507
3.84505
3.84503
3.84501
3.845
3.84499
3.84498
3.84498
3.84498
3.85908
3.85908
3.8591
3.85912
3.85915
3.85919
3.85923
3.85928
3.85934
3.85941
3.85948
3.85956
3.85964
3.85973
3.85982
3.85992
3.86002
3.86012
3.86023
3.86034
3.86046
3.86057
3.86069
3.8608
3.86092
3.86103
3.86114
3.86125
3.86136
3.86146
3.86155
3.86164
3.86172
3.86179
3.86185
3.8619
3.86193
3.86196
3.86197
3.86196
3.86194
3.8619
3.86185
3.86178
3.86169
3.86158
3.86146
3.86131
3.86115
3.86097
3.86077
3.86056
3.86032
3.86007
3.85981
3.85952
3.85923
3.85891
3.85859
3.85826
3.85791
3.85756
3.8572
3.85683
3.85646
3.85608
3.85571
3.85533
3.85496
3.85459
3.85423
3.85387
3.85352
3.85318
3.85284
3.85252
3.85221
3.85191
3.85162
3.85134
3.85107
3.85082
3.85057
3.85033
3.85011
3.84989
3.84968
3.84948
3.84928
3.8491
3.84892
3.84875
3.84859
3.84843
3.84828
3.84814
3.848
3.84787
3.84775
3.84764
3.84754
3.84744
3.84735
3.84727
3.84719
3.84712
3.84706
3.84701
3.84696
3.84692
3.84688
3.84685
3.84683
3.84681
3.84679
3.84678
3.84677
3.84676
3.84675
3.84675
3.86065
3.86066
3.86067
3.86069
3.86072
3.86075
3.86079
3.86084
3.8609
3.86096
3.86102
3.86109
3.86117
3.86125
3.86134
3.86143
3.86152
3.86162
3.86172
3.86182
3.86192
3.86203
3.86213
3.86224
3.86234
3.86244
3.86255
3.86264
3.86274
3.86283
3.86291
3.86298
3.86305
3.86311
3.86316
3.8632
3.86323
3.86325
3.86325
3.86324
3.86321
3.86317
3.86311
3.86304
3.86295
3.86284
3.86272
3.86258
3.86242
3.86225
3.86206
3.86185
3.86162
3.86138
3.86113
3.86086
3.86057
3.86028
3.85997
3.85965
3.85933
3.85899
3.85865
3.8583
3.85795
3.85759
3.85724
3.85688
3.85653
3.85618
3.85583
3.85549
3.85515
3.85483
3.85451
3.8542
3.8539
3.85361
3.85333
3.85306
3.8528
3.85255
3.85231
3.85207
3.85185
3.85164
3.85143
3.85123
3.85104
3.85086
3.85068
3.85052
3.85036
3.8502
3.85005
3.84991
3.84978
3.84966
3.84954
3.84943
3.84932
3.84923
3.84914
3.84906
3.84898
3.84891
3.84885
3.8488
3.84875
3.8487
3.84867
3.84863
3.84861
3.84858
3.84856
3.84855
3.84854
3.84853
3.84852
3.84852
3.86221
3.86222
3.86223
3.86225
3.86228
3.86231
3.86235
3.86239
3.86244
3.8625
3.86256
3.86263
3.8627
3.86277
3.86285
3.86293
3.86302
3.86311
3.8632
3.86329
3.86339
3.86348
3.86358
3.86367
3.86377
3.86386
3.86395
3.86404
3.86412
3.8642
3.86427
3.86434
3.8644
3.86445
3.86449
3.86452
3.86454
3.86455
3.86454
3.86453
3.8645
3.86445
3.86439
3.86432
3.86423
3.86412
3.864
3.86386
3.86371
3.86354
3.86335
3.86315
3.86294
3.86271
3.86246
3.86221
3.86194
3.86166
3.86136
3.86106
3.86075
3.86043
3.86011
3.85978
3.85944
3.85911
3.85877
3.85843
3.85809
3.85776
3.85743
3.8571
3.85678
3.85647
3.85617
3.85587
3.85558
3.8553
3.85503
3.85476
3.85451
3.85427
3.85403
3.85381
3.85359
3.85338
3.85317
3.85298
3.85279
3.85261
3.85244
3.85228
3.85212
3.85197
3.85182
3.85169
3.85155
3.85143
3.85131
3.85121
3.8511
3.85101
3.85092
3.85084
3.85076
3.85069
3.85063
3.85058
3.85053
3.85048
3.85044
3.85041
3.85038
3.85036
3.85034
3.85032
3.85031
3.8503
3.85029
3.85029
3.86377
3.86378
3.86379
3.86381
3.86383
3.86386
3.8639
3.86394
3.86399
3.86404
3.86409
3.86415
3.86422
3.86429
3.86436
3.86444
3.86452
3.8646
3.86468
3.86477
3.86485
3.86494
3.86502
3.86511
3.8652
3.86528
3.86536
3.86544
3.86551
3.86558
3.86564
3.8657
3.86575
3.86579
3.86582
3.86585
3.86586
3.86586
3.86585
3.86583
3.8658
3.86575
3.86569
3.86561
3.86552
3.86541
3.86529
3.86516
3.86501
3.86485
3.86467
3.86447
3.86427
3.86405
3.86381
3.86357
3.86331
3.86304
3.86276
3.86248
3.86218
3.86188
3.86157
3.86126
3.86094
3.86062
3.8603
3.85998
3.85966
3.85934
3.85902
3.85871
3.85841
3.85811
3.85781
3.85753
3.85725
3.85698
3.85672
3.85646
3.85622
3.85598
3.85575
3.85553
3.85531
3.85511
3.85491
3.85472
3.85454
3.85436
3.85419
3.85403
3.85387
3.85373
3.85358
3.85345
3.85332
3.8532
3.85308
3.85298
3.85288
3.85278
3.85269
3.85261
3.85254
3.85247
3.85241
3.85235
3.8523
3.85225
3.85221
3.85218
3.85215
3.85212
3.8521
3.85208
3.85207
3.85206
3.85205
3.85205
3.86533
3.86533
3.86534
3.86536
3.86538
3.86541
3.86544
3.86548
3.86552
3.86557
3.86562
3.86568
3.86574
3.8658
3.86587
3.86594
3.86601
3.86608
3.86616
3.86624
3.86631
3.86639
3.86647
3.86655
3.86663
3.8667
3.86677
3.86684
3.8669
3.86696
3.86702
3.86707
3.86711
3.86714
3.86717
3.86718
3.86719
3.86719
3.86717
3.86715
3.86711
3.86706
3.86699
3.86692
3.86683
3.86672
3.8666
3.86647
3.86633
3.86617
3.86599
3.86581
3.86561
3.8654
3.86517
3.86494
3.86469
3.86444
3.86417
3.8639
3.86362
3.86333
3.86304
3.86274
3.86244
3.86213
3.86183
3.86152
3.86122
3.86091
3.86061
3.86032
3.86002
3.85974
3.85946
3.85918
3.85891
3.85865
3.8584
3.85815
3.85791
3.85768
3.85746
3.85724
3.85703
3.85683
3.85664