/*--------------------------------*- C++ -*----------------------------------*\
| =========                 |                                                 |
| \\      /  F ield         | OpenFOAM: The Open Source CFD Toolbox           |
|  \\    /   O peration     | Version:  2406                                  |
|   \\  /    A nd           | Website:  www.openfoam.com                      |
|    \\/     M anipulation  |                                                 |
\*---------------------------------------------------------------------------*/
FoamFile
{
    version     2.0;
    format      ascii;
    arch        "LSB;label=32;scalar=64";
    class       volScalarField;
    location    "0.45";
    object      C_0_0;
}
// * * * * * * * * * * * * * * * * * * * * * * * * * * * * * * * * * * * * * //

dimensions      [1 -3 0 0 0 0 0];

internalField   nonuniform List<scalar> 
14400
(
3.82332
3.82292
3.82208
3.82071
3.81862
3.81543
3.81016
3.79911
3.81071
3.81643
3.8201
3.82269
3.82458
3.82597
3.82697
3.82762
3.82797
3.82799
3.82769
3.82699
3.8258
3.82393
3.82098
3.81598
3.8053
3.81733
3.82345
3.82756
3.83063
3.83307
3.83508
3.83676
3.8382
3.83943
3.8405
3.84142
3.84221
3.84288
3.84345
3.84392
3.8443
3.84459
3.8448
3.84493
3.84499
3.84496
3.84486
3.84469
3.84445
3.84413
3.84373
3.84326
3.84272
3.84209
3.84137
3.84057
3.83968
3.8387
3.8376
3.8364
3.83508
3.83362
3.83202
3.83024
3.82828
3.82609
3.82364
3.82085
3.81765
3.81388
3.80931
3.80349
3.79537
3.78017
3.78649
3.78591
3.77811
3.79181
3.79868
3.80319
3.80641
3.8088
3.81059
3.81191
3.81286
3.81348
3.8138
3.81385
3.81363
3.81313
3.81234
3.81121
3.80969
3.80767
3.80495
3.80113
3.79524
3.78342
3.79416
3.79914
3.80199
3.80368
3.80457
3.80483
3.80448
3.80351
3.80173
3.79879
3.79374
3.78291
3.79464
3.80045
3.80421
3.80687
3.80884
3.81032
3.81142
3.8122
3.8127
3.81295
3.82371
3.82335
3.82261
3.82143
3.81973
3.81743
3.81459
3.81212
3.81509
3.81841
3.82119
3.82338
3.82508
3.82637
3.82731
3.82794
3.82828
3.82833
3.82807
3.82748
3.82648
3.82501
3.82297
3.82041
3.81829
3.82165
3.82538
3.82859
3.83127
3.83351
3.8354
3.83701
3.8384
3.8396
3.84064
3.84155
3.84232
3.84299
3.84355
3.84401
3.84439
3.84467
3.84488
3.84501
3.84506
3.84504
3.84494
3.84477
3.84452
3.8442
3.84381
3.84334
3.8428
3.84217
3.84146
3.84067
3.83978
3.8388
3.83772
3.83652
3.83521
3.83377
3.83218
3.83044
3.8285
3.82636
3.82397
3.82127
3.81821
3.81468
3.81056
3.80569
3.80003
3.7942
3.79323
3.79258
3.79216
3.7966
3.80094
3.80448
3.80725
3.8094
3.81105
3.81229
3.81319
3.81377
3.81408
3.81412
3.81391
3.81343
3.81267
3.81161
3.81019
3.80837
3.80604
3.80311
3.79962
3.79644
3.79864
3.80119
3.80316
3.80448
3.80521
3.80542
3.80512
3.8043
3.8029
3.80084
3.7982
3.79591
3.79902
3.80244
3.8053
3.80757
3.80934
3.81071
3.81174
3.81248
3.81296
3.81319
3.82447
3.82418
3.82357
3.82266
3.82144
3.81999
3.81856
3.81785
3.81904
3.82093
3.82286
3.82456
3.82598
3.82711
3.82796
3.82855
3.82888
3.82897
3.8288
3.82836
3.82765
3.82666
3.82547
3.82433
3.82396
3.82551
3.82781
3.83017
3.83235
3.83429
3.83599
3.83748
3.83879
3.83993
3.84093
3.8418
3.84255
3.8432
3.84374
3.84419
3.84456
3.84484
3.84504
3.84516
3.84521
3.84518
3.84509
3.84491
3.84467
3.84435
3.84396
3.8435
3.84295
3.84233
3.84163
3.84085
3.83997
3.839
3.83794
3.83676
3.83547
3.83406
3.83251
3.83081
3.82894
3.82688
3.8246
3.82206
3.81923
3.81607
3.81255
3.80869
3.80471
3.80125
3.79957
3.79891
3.79924
3.80136
3.80401
3.80653
3.80871
3.8105
3.81192
3.81302
3.81382
3.81435
3.81462
3.81465
3.81445
3.814
3.8133
3.81235
3.81111
3.80957
3.80774
3.80566
3.80359
3.8022
3.80267
3.80383
3.80498
3.80586
3.80637
3.80652
3.80628
3.80568
3.80471
3.80348
3.80223
3.80168
3.80298
3.80497
3.80698
3.80875
3.81023
3.81142
3.81234
3.81302
3.81345
3.81367
3.82553
3.8253
3.82485
3.8242
3.82338
3.82251
3.82181
3.82162
3.82226
3.82343
3.82476
3.82604
3.82718
3.82812
3.82887
3.82941
3.82974
3.82987
3.8298
3.82953
3.82908
3.82851
3.8279
3.82749
3.82762
3.82863
3.83018
3.83193
3.83367
3.8353
3.8368
3.83814
3.83934
3.8404
3.84134
3.84217
3.84289
3.8435
3.84403
3.84446
3.84481
3.84508
3.84527
3.84539
3.84543
3.84541
3.8453
3.84513
3.84489
3.84457
3.84419
3.84373
3.84319
3.84258
3.84189
3.84112
3.84026
3.83931
3.83826
3.83712
3.83586
3.83449
3.83299
3.83136
3.82957
3.82761
3.82548
3.82314
3.82059
3.81783
3.81487
3.81182
3.80888
3.80642
3.8049
3.80424
3.80445
3.80558
3.80721
3.80893
3.81055
3.81196
3.81312
3.81404
3.81472
3.81517
3.8154
3.81542
3.81522
3.81482
3.8142
3.81337
3.81232
3.81108
3.80967
3.8082
3.80688
3.80604
3.80602
3.80648
3.80708
3.80759
3.80791
3.80799
3.80782
3.80741
3.8068
3.80612
3.80556
3.8055
3.80625
3.8075
3.8089
3.81024
3.81142
3.81241
3.8132
3.81379
3.81417
3.81437
3.82682
3.82665
3.82633
3.82589
3.82537
3.82488
3.82454
3.82454
3.82498
3.82575
3.82669
3.82766
3.82856
3.82934
3.82998
3.83047
3.8308
3.83097
3.83099
3.83087
3.83065
3.83038
3.83015
3.8301
3.83042
3.8312
3.83235
3.83369
3.83509
3.83646
3.83775
3.83894
3.84003
3.841
3.84187
3.84265
3.84332
3.8439
3.8444
3.84481
3.84515
3.8454
3.84559
3.84569
3.84573
3.8457
3.84559
3.84542
3.84518
3.84487
3.84449
3.84403
3.84351
3.84291
3.84223
3.84147
3.84063
3.83971
3.83869
3.83758
3.83637
3.83504
3.83361
3.83205
3.83036
3.82853
3.82656
3.82443
3.82216
3.81977
3.81729
3.81483
3.81255
3.81066
3.80937
3.80872
3.80872
3.80931
3.8103
3.81145
3.8126
3.81366
3.81457
3.81531
3.81586
3.81622
3.8164
3.8164
3.81621
3.81585
3.81531
3.8146
3.81374
3.81274
3.81167
3.8106
3.80967
3.80906
3.80887
3.809
3.80926
3.80952
3.80969
3.80972
3.80959
3.80933
3.80898
3.80862
3.80841
3.80851
3.80903
3.80988
3.81087
3.81187
3.8128
3.8136
3.81426
3.81476
3.81509
3.81525
3.82827
3.82815
3.82794
3.82766
3.82735
3.82708
3.82694
3.82702
3.82736
3.82792
3.82861
3.82934
3.83006
3.8307
3.83125
3.83169
3.83201
3.83222
3.83231
3.83232
3.83227
3.83221
3.83221
3.83235
3.83274
3.83341
3.83433
3.8354
3.83654
3.83769
3.8388
3.83985
3.84082
3.84171
3.84251
3.84322
3.84385
3.84439
3.84486
3.84525
3.84556
3.8458
3.84597
3.84607
3.8461
3.84606
3.84595
3.84578
3.84554
3.84523
3.84486
3.84441
3.8439
3.84331
3.84265
3.84191
3.84109
3.8402
3.83921
3.83814
3.83698
3.83571
3.83435
3.83288
3.8313
3.8296
3.82779
3.82587
3.82386
3.82179
3.8197
3.81767
3.81583
3.8143
3.81319
3.81255
3.81239
3.81265
3.81322
3.81396
3.81475
3.81551
3.81619
3.81675
3.81718
3.81745
3.81758
3.81755
3.81738
3.81706
3.81659
3.816
3.81529
3.81449
3.81366
3.81285
3.81216
3.81167
3.81142
3.81137
3.81144
3.81154
3.8116
3.8116
3.81151
3.81134
3.81115
3.81099
3.81094
3.81109
3.8115
3.8121
3.81282
3.81358
3.8143
3.81495
3.81548
3.81589
3.81617
3.81631
3.82983
3.82976
3.82962
3.82945
3.82928
3.82915
3.82912
3.82923
3.82952
3.82995
3.83047
3.83105
3.83162
3.83216
3.83263
3.83303
3.83334
3.83357
3.83373
3.83383
3.8339
3.83398
3.83412
3.83437
3.83478
3.83538
3.83615
3.83703
3.83798
3.83896
3.83992
3.84084
3.8417
3.8425
3.84322
3.84388
3.84445
3.84496
3.84539
3.84575
3.84604
3.84627
3.84642
3.84651
3.84653
3.84649
3.84638
3.84621
3.84597
3.84567
3.8453
3.84486
3.84436
3.84378
3.84314
3.84243
3.84164
3.84077
3.83982
3.8388
3.83768
3.83648
3.8352
3.83381
3.83234
3.83078
3.82913
3.82741
3.82563
3.82382
3.82204
3.82034
3.8188
3.81751
3.81653
3.81591
3.81564
3.81568
3.81597
3.81641
3.81693
3.81745
3.81793
3.81833
3.81864
3.81883
3.81891
3.81886
3.81869
3.8184
3.818
3.8175
3.81692
3.81628
3.81562
3.81499
3.81444
3.81402
3.81376
3.81363
3.81359
3.81359
3.81359
3.81356
3.81349
3.81339
3.81329
3.81323
3.81327
3.81343
3.81375
3.81421
3.81475
3.81532
3.81588
3.81639
3.81682
3.81716
3.81739
3.8175
3.83146
3.83142
3.83134
3.83125
3.83116
3.83112
3.83115
3.83128
3.83153
3.83188
3.8323
3.83276
3.83323
3.83368
3.83409
3.83445
3.83476
3.835
3.8352
3.83537
3.83552
3.83569
3.83591
3.83622
3.83664
3.83718
3.83785
3.8386
3.83941
3.84024
3.84107
3.84188
3.84264
3.84336
3.84401
3.84461
3.84514
3.8456
3.846
3.84633
3.8466
3.8468
3.84694
3.84702
3.84703
3.84698
3.84687
3.8467
3.84646
3.84616
3.8458
3.84538
3.84489
3.84433
3.84371
3.84302
3.84225
3.84142
3.84052
3.83954
3.83848
3.83735
3.83613
3.83484
3.83348
3.83204
3.83054
3.82899
3.82741
3.82583
3.82429
3.82283
3.82152
3.8204
3.81953
3.81892
3.81858
3.81848
3.81857
3.81879
3.8191
3.81943
3.81975
3.82002
3.82022
3.82034
3.82036
3.82029
3.82013
3.81986
3.81952
3.81909
3.8186
3.81808
3.81755
3.81704
3.81659
3.81623
3.81597
3.8158
3.81571
3.81565
3.8156
3.81556
3.8155
3.81544
3.8154
3.81539
3.81546
3.81562
3.81588
3.81623
3.81664
3.81708
3.81752
3.81792
3.81826
3.81853
3.81872
3.81881
3.83314
3.83311
3.83308
3.83303
3.83301
3.83302
3.83308
3.83322
3.83344
3.83373
3.83408
3.83446
3.83485
3.83524
3.8356
3.83593
3.83623
3.83648
3.83671
3.83692
3.83712
3.83735
3.83762
3.83795
3.83836
3.83887
3.83945
3.84011
3.84081
3.84153
3.84225
3.84296
3.84364
3.84427
3.84486
3.8454
3.84588
3.8463
3.84667
3.84697
3.84722
3.8474
3.84752
3.84759
3.84759
3.84754
3.84742
3.84725
3.84702
3.84672
3.84637
3.84596
3.84548
3.84494
3.84434
3.84368
3.84294
3.84215
3.84128
3.84035
3.83935
3.83828
3.83715
3.83595
3.83469
3.83337
3.83201
3.83061
3.8292
3.82781
3.82646
3.82519
3.82404
3.82305
3.82225
3.82166
3.82127
3.82107
3.82103
3.8211
3.82124
3.82142
3.82161
3.82176
3.82187
3.82193
3.82191
3.82182
3.82165
3.82141
3.8211
3.82074
3.82033
3.81989
3.81945
3.81903
3.81865
3.81833
3.81809
3.81791
3.81778
3.81769
3.81762
3.81756
3.81751
3.81747
3.81746
3.81748
3.81755
3.8177
3.81791
3.81819
3.81851
3.81885
3.81919
3.8195
3.81977
3.81999
3.82014
3.82021
3.83484
3.83483
3.83481
3.83481
3.83482
3.83486
3.83494
3.83508
3.83528
3.83553
3.83582
3.83614
3.83648
3.83682
3.83714
3.83745
3.83773
3.83799
3.83823
3.83847
3.83871
3.83897
3.83926
3.8396
3.84
3.84047
3.84099
3.84157
3.84218
3.84281
3.84345
3.84407
3.84467
3.84524
3.84577
3.84625
3.84669
3.84707
3.8474
3.84767
3.84789
3.84806
3.84817
3.84822
3.84821
3.84815
3.84804
3.84786
3.84763
3.84734
3.847
3.8466
3.84614
3.84562
3.84504
3.8444
3.8437
3.84294
3.84212
3.84124
3.84029
3.83929
3.83823
3.83711
3.83595
3.83474
3.8335
3.83224
3.83098
3.82974
3.82854
3.82742
3.8264
3.82551
3.82477
3.8242
3.82378
3.82351
3.82337
3.82333
3.82335
3.82342
3.82349
3.82356
3.82359
3.82359
3.82353
3.82342
3.82325
3.82303
3.82275
3.82243
3.82208
3.82171
3.82134
3.82098
3.82065
3.82037
3.82014
3.81995
3.81981
3.81971
3.81962
3.81956
3.81951
3.81948
3.81948
3.81951
3.81958
3.81971
3.81988
3.8201
3.82035
3.82061
3.82088
3.82112
3.82134
3.82151
3.82163
3.82169
3.83654
3.83654
3.83655
3.83656
3.83659
3.83665
3.83675
3.83688
3.83706
3.83728
3.83754
3.83782
3.83811
3.83841
3.8387
3.83899
3.83926
3.83952
3.83977
3.84002
3.84027
3.84055
3.84085
3.84119
3.84158
3.84201
3.84249
3.843
3.84354
3.8441
3.84466
3.84521
3.84574
3.84624
3.84672
3.84715
3.84754
3.84789
3.84818
3.84843
3.84863
3.84877
3.84886
3.8489
3.84889
3.84882
3.8487
3.84853
3.8483
3.84802
3.84769
3.8473
3.84685
3.84635
3.8458
3.84518
3.84452
3.84379
3.84301
3.84218
3.84129
3.84035
3.83936
3.83833
3.83725
3.83615
3.83502
3.83388
3.83274
3.83163
3.83056
3.82955
3.82864
3.82782
3.82713
3.82657
3.82614
3.82582
3.82561
3.82549
3.82542
3.8254
3.82539
3.82538
3.82535
3.8253
3.82521
3.82508
3.82491
3.82469
3.82444
3.82416
3.82385
3.82353
3.8232
3.8229
3.82261
3.82235
3.82214
3.82196
3.82181
3.8217
3.82161
3.82154
3.8215
3.82147
3.82147
3.8215
3.82156
3.82167
3.82181
3.82198
3.82217
3.82238
3.82259
3.82278
3.82295
3.82308
3.82318
3.82323
3.83825
3.83825
3.83827
3.8383
3.83834
3.83841
3.83851
3.83864
3.83881
3.839
3.83923
3.83947
3.83974
3.84
3.84027
3.84054
3.8408
3.84105
3.8413
3.84156
3.84182
3.8421
3.8424
3.84274
3.8431
3.8435
3.84394
3.8444
3.84488
3.84538
3.84587
3.84636
3.84683
3.84728
3.8477
3.84809
3.84844
3.84875
3.84902
3.84924
3.84941
3.84954
3.84961
3.84964
3.84962
3.84955
3.84943
3.84925
3.84903
3.84876
3.84843
3.84805
3.84762
3.84714
3.84661
3.84602
3.84539
3.8447
3.84396
3.84318
3.84234
3.84146
3.84054
3.83958
3.83859
3.83757
3.83654
3.8355
3.83447
3.83347
3.8325
3.8316
3.83076
3.83001
3.82937
3.82882
3.82838
3.82803
3.82777
3.82759
3.82745
3.82736
3.82728
3.82721
3.82714
3.82704
3.82693
3.82678
3.82661
3.8264
3.82616
3.8259
3.82563
3.82535
3.82506
3.82479
3.82453
3.8243
3.8241
3.82393
3.82378
3.82367
3.82358
3.82351
3.82346
3.82343
3.82343
3.82345
3.8235
3.82359
3.8237
3.82383
3.82399
3.82415
3.82431
3.82446
3.82459
3.8247
3.82477
3.82481
3.83995
3.83996
3.83998
3.84001
3.84006
3.84014
3.84024
3.84036
3.84052
3.8407
3.8409
3.84112
3.84135
3.8416
3.84184
3.84209
3.84234
3.84259
3.84284
3.84309
3.84335
3.84363
3.84393
3.84425
3.84459
3.84497
3.84536
3.84578
3.84621
3.84665
3.84709
3.84753
3.84795
3.84835
3.84873
3.84907
3.84938
3.84966
3.84989
3.85009
3.85024
3.85035
3.85041
3.85043
3.8504
3.85032
3.8502
3.85003
3.84981
3.84954
3.84922
3.84886
3.84844
3.84798
3.84747
3.84692
3.84631
3.84566
3.84496
3.84422
3.84344
3.84262
3.84176
3.84087
3.83995
3.83901
3.83807
3.83712
3.83618
3.83527
3.83439
3.83356
3.8328
3.83211
3.83149
3.83096
3.83052
3.83015
3.82986
3.82963
3.82945
3.8293
3.82917
3.82906
3.82894
3.82881
3.82867
3.82851
3.82833
3.82813
3.82791
3.82767
3.82742
3.82716
3.82691
3.82666
3.82643
3.82622
3.82603
3.82587
3.82573
3.82561
3.82552
3.82545
3.8254
3.82537
3.82536
3.82538
3.82542
3.82548
3.82557
3.82567
3.82579
3.82592
3.82604
3.82616
3.82626
3.82635
3.82641
3.82644
3.84164
3.84165
3.84167
3.84171
3.84177
3.84184
3.84194
3.84206
3.8422
3.84237
3.84255
3.84275
3.84296
3.84318
3.84341
3.84365
3.84388
3.84412
3.84436
3.84461
3.84487
3.84514
3.84543
3.84573
3.84606
3.8464
3.84677
3.84715
3.84753
3.84793
3.84832
3.84871
3.84908
3.84944
3.84978
3.85008
3.85036
3.85061
3.85081
3.85099
3.85112
3.85121
3.85126
3.85126
3.85122
3.85114
3.85102
3.85085
3.85063
3.85037
3.85006
3.84971
3.84931
3.84887
3.84839
3.84786
3.84728
3.84666
3.84601
3.84531
3.84457
3.8438
3.843
3.84218
3.84133
3.84047
3.8396
3.83873
3.83787
3.83704
3.83623
3.83547
3.83476
3.83412
3.83353
3.83302
3.83258
3.8322
3.83189
3.83163
3.83141
3.83122
3.83105
3.8309
3.83075
3.8306
3.83044
3.83027
3.83008
3.82988
3.82967
3.82944
3.82921
3.82898
3.82875
3.82852
3.82831
3.82811
3.82794
3.82778
3.82765
3.82753
3.82744
3.82737
3.82731
3.82728
3.82727
3.82727
3.8273
3.82735
3.82742
3.8275
3.82759
3.82769
3.82778
3.82787
3.82796
3.82802
3.82806
3.82809
3.84331
3.84333
3.84335
3.84339
3.84345
3.84352
3.84362
3.84373
3.84386
3.84401
3.84418
3.84437
3.84456
3.84477
3.84498
3.8452
3.84542
3.84565
3.84588
3.84612
3.84637
3.84664
3.84691
3.8472
3.8475
3.84782
3.84816
3.8485
3.84885
3.8492
3.84956
3.8499
3.85024
3.85055
3.85085
3.85113
3.85137
3.85159
3.85177
3.85192
3.85203
3.85211
3.85214
3.85214
3.85209
3.85201
3.85188
3.85171
3.8515
3.85125
3.85095
3.85061
3.85023
3.84981
3.84934
3.84884
3.84829
3.84771
3.84709
3.84643
3.84574
3.84502
3.84428
3.84351
3.84272
3.84193
3.84112
3.84033
3.83954
3.83877
3.83803
3.83733
3.83667
3.83606
3.83551
3.83501
3.83457
3.83419
3.83386
3.83358
3.83333
3.83311
3.83292
3.83274
3.83256
3.83239
3.83222
3.83204
3.83185
3.83165
3.83144
3.83123
3.83101
3.83079
3.83058
3.83037
3.83017
3.82999
3.82982
3.82968
3.82954
3.82943
3.82934
3.82927
3.82921
3.82917
3.82915
3.82915
3.82917
3.8292
3.82925
3.82931
3.82938
3.82945
3.82953
3.8296
3.82966
3.82971
3.82975
3.82976
3.84498
3.84499
3.84502
3.84506
3.84512
3.84519
3.84528
3.84538
3.84551
3.84565
3.8458
3.84597
3.84615
3.84634
3.84654
3.84674
3.84696
3.84717
3.8474
3.84763
3.84787
3.84812
3.84838
3.84865
3.84893
3.84923
3.84953
3.84985
3.85016
3.85048
3.8508
3.85111
3.85141
3.85169
3.85195
3.8522
3.85241
3.8526
3.85276
3.85289
3.85299
3.85305
3.85307
3.85306
3.853
3.85291
3.85279
3.85262
3.85241
3.85216
3.85188
3.85155
3.85119
3.85078
3.85034
3.84986
3.84934
3.84879
3.84821
3.84759
3.84694
3.84627
3.84557
3.84486
3.84413
3.84339
3.84265
3.84191
3.84118
3.84047
3.83979
3.83914
3.83852
3.83795
3.83742
3.83694
3.83651
3.83613
3.83579
3.83549
3.83523
3.83499
3.83477
3.83457
3.83438
3.83419
3.834
3.83381
3.83362
3.83342
3.83322
3.83301
3.83281
3.8326
3.8324
3.83221
3.83202
3.83185
3.83169
3.83155
3.83142
3.83131
3.83122
3.83115
3.83109
3.83105
3.83102
3.83101
3.83102
3.83104
3.83107
3.83112
3.83117
3.83122
3.83128
3.83133
3.83138
3.83142
3.83144
3.83146
3.84663
3.84664
3.84667
3.84671
3.84676
3.84683
3.84692
3.84702
3.84713
3.84726
3.84741
3.84756
3.84773
3.84791
3.84809
3.84828
3.84848
3.84869
3.8489
3.84912
3.84935
3.84959
3.84983
3.85009
3.85035
3.85062
3.8509
3.85119
3.85147
3.85176
3.85205
3.85232
3.85259
3.85284
3.85307
3.85329
3.85348
3.85365
3.85379
3.8539
3.85397
3.85402
3.85403
3.85401
3.85395
3.85386
3.85373
3.85356
3.85336
3.85312
3.85284
3.85253
3.85218
3.85179
3.85137
3.85092
3.85043
3.84991
3.84935
3.84877
3.84817
3.84754
3.84689
3.84622
3.84554
3.84486
3.84417
3.84349
3.84281
3.84215
3.84152
3.84091
3.84033
3.83979
3.83929
3.83882
3.8384
3.83802
3.83768
3.83737
3.8371
3.83684
3.83661
3.83639
3.83618
3.83598
3.83579
3.83559
3.83539
3.8352
3.835
3.8348
3.8346
3.83441
3.83422
3.83403
3.83386
3.83369
3.83354
3.83341
3.83329
3.83318
3.83309
3.83301
3.83295
3.8329
3.83287
3.83286
3.83285
3.83286
3.83288
3.83291
3.83295
3.83299
3.83303
3.83307
3.8331
3.83313
3.83315
3.83316
3.84827
3.84828
3.84831
3.84835
3.8484
3.84846
3.84854
3.84864
3.84875
3.84887
3.849
3.84914
3.8493
3.84946
3.84964
3.84982
3.85001
3.8502
3.8504
3.85061
3.85082
3.85105
3.85128
3.85151
3.85176
3.85201
3.85227
3.85253
3.85279
3.85305
3.8533
3.85355
3.85379
3.85401
3.85422
3.85441
3.85457
3.85472
3.85484
3.85493
3.85499
3.85503
3.85503
3.855
3.85494
3.85484
3.85471
3.85455
3.85435
3.85412
3.85385
3.85355
3.85321
3.85284
3.85244
3.85201
3.85154
3.85105
3.85053
3.84999
3.84942
3.84883
3.84822
3.8476
3.84696
3.84633
3.84569
3.84505
3.84442
3.84381
3.84322
3.84265
3.8421
3.84159
3.84111
3.84066
3.84026
3.83988
3.83954
3.83922
3.83894
3.83867
3.83843
3.8382
3.83798
3.83777
3.83757
3.83737
3.83717
3.83697
3.83678
3.83658
3.83639
3.83621
3.83602
3.83585
3.83568
3.83553
3.83538
3.83525
3.83513
3.83503
3.83494
3.83486
3.8348
3.83475
3.83471
3.83469
3.83468
3.83468
3.83469
3.8347
3.83473
3.83475
3.83478
3.83481
3.83484
3.83486
3.83487
3.83488
3.84989
3.84991
3.84993
3.84997
3.85002
3.85008
3.85015
3.85024
3.85034
3.85046
3.85058
3.85072
3.85086
3.85101
3.85117
3.85134
3.85152
3.8517
3.85189
3.85209
3.85229
3.8525
3.85271
3.85293
3.85316
3.85339
3.85363
3.85386
3.8541
3.85433
3.85456
3.85478
3.85499
3.85519
3.85538
3.85554
3.85569
3.85582
3.85592
3.85599
3.85604
3.85607
3.85606
3.85602
3.85596
3.85586
3.85573
3.85556
3.85537
3.85514
3.85489
3.8546
3.85428
3.85392
3.85354
3.85313
3.85269
3.85222
3.85173
3.85122
3.85068
3.85013
3.84956
3.84898
3.84839
3.8478
3.8472
3.84661
3.84602
3.84545
3.84489
3.84436
3.84384
3.84336
3.8429
3.84247
3.84207
3.8417
3.84136
3.84105
3.84076
3.84049
3.84024
3.84
3.83977
3.83956
3.83935
3.83915
3.83895
3.83875
3.83856
3.83837
3.83818
3.838
3.83782
3.83766
3.8375
3.83735
3.83721
3.83708
3.83696
3.83686
3.83677
3.83669
3.83663
3.83657
3.83653
3.83651
3.83649
3.83648
3.83648
3.83649
3.8365
3.83652
3.83654
3.83656
3.83657
3.83659
3.8366
3.8366
3.85151
3.85152
3.85154
3.85158
3.85162
3.85168
3.85175
3.85184
3.85193
3.85203
3.85215
3.85228
3.85241
3.85255
3.8527
3.85286
3.85303
3.8532
3.85338
3.85356
3.85375
3.85394
3.85414
3.85435
3.85456
3.85477
3.85499
3.8552
3.85541
3.85563
3.85583
3.85603
3.85622
3.85639
3.85656
3.8567
3.85683
3.85694
3.85702
3.85708
3.85712
3.85713
3.85712
3.85708
3.857
3.8569
3.85677
3.85661
3.85642
3.8562
3.85596
3.85568
3.85537
3.85503
3.85467
3.85428
3.85386
3.85342
3.85296
3.85247
3.85197
3.85145
3.85092
3.85037
3.84982
3.84927
3.84871
3.84816
3.84761
3.84707
3.84655
3.84604
3.84556
3.8451
3.84466
3.84425
3.84386
3.8435
3.84316
3.84285
3.84256
3.84228
3.84203
3.84179
3.84156
3.84134
3.84112
3.84092
3.84072
3.84052
3.84033
3.84014
3.83996
3.83979
3.83962
3.83945
3.8393
3.83916
3.83902
3.8389
3.83878
3.83868
3.83859
3.83851
3.83845
3.83839
3.83835
3.83831
3.83829
3.83827
3.83827
3.83827
3.83827
3.83828
3.83829
3.8383
3.83831
3.83832
3.83833
3.83833
3.85311
3.85312
3.85314
3.85317
3.85322
3.85327
3.85334
3.85342
3.8535
3.8536
3.85371
3.85383
3.85395
3.85409
3.85423
3.85437
3.85453
3.85469
3.85486
3.85503
3.8552
3.85538
3.85557
3.85576
3.85595
3.85615
3.85634
3.85654
3.85673
3.85692
3.85711
3.85728
3.85745
3.85761
3.85775
3.85788
3.85799
3.85808
3.85815
3.8582
3.85822
3.85823
3.8582
3.85816
3.85808
3.85798
3.85785
3.85769
3.85751
3.85729
3.85705
3.85679
3.85649
3.85617
3.85583
3.85545
3.85506
3.85464
3.85421
3.85375
3.85327
3.85279
3.85229
3.85178
3.85126
3.85074
3.85022
3.8497
3.84918
3.84868
3.84819
3.84771
3.84725
3.84681
3.84639
3.84599
3.84562
3.84527
3.84494
3.84463
3.84433
3.84406
3.8438
3.84356
3.84333
3.8431
3.84289
3.84268
3.84248
3.84229
3.8421
3.84192
3.84174
3.84157
3.8414
3.84125
3.8411
3.84095
3.84082
3.8407
3.84059
3.84049
3.8404
3.84032
3.84025
3.8402
3.84015
3.84011
3.84008
3.84006
3.84005
3.84004
3.84004
3.84004
3.84004
3.84005
3.84005
3.84006
3.84006
3.84007
3.8547
3.85471
3.85473
3.85476
3.8548
3.85485
3.85491
3.85499
3.85507
3.85516
3.85526
3.85537
3.85549
3.85561
3.85574
3.85588
3.85602
3.85617
3.85633
3.85649
3.85665
3.85682
3.85699
3.85717
3.85734
3.85752
3.8577
3.85788
3.85805
3.85822
3.85839
3.85855
3.8587
3.85883
3.85896
3.85907
3.85916
3.85924
3.8593
3.85934
3.85935
3.85935
3.85932
3.85926
3.85918
3.85908
3.85895
3.8588
3.85862
3.85841
3.85818
3.85792
3.85764
3.85733
3.857
3.85665
3.85628
3.85588
3.85547
3.85504
3.85459
3.85413
3.85366
3.85318
3.8527
3.85221
3.85172
3.85123
3.85075
3.85027
3.84981
3.84936
3.84892
3.8485
3.8481
3.84772
3.84736
3.84701
3.84669
3.84638
3.8461
3.84582
3.84557
3.84532
3.84509
3.84486
3.84465
3.84444
3.84424
3.84405
3.84386
3.84368
3.84351
3.84334
3.84318
3.84303
3.84288
3.84274
3.84262
3.8425
3.84239
3.84229
3.8422
3.84212
3.84205
3.84199
3.84194
3.8419
3.84186
3.84184
3.84182
3.84181
3.8418
3.84179
3.84179
3.84179
3.8418
3.8418
3.8418
3.8418
3.85628
3.85629
3.8563
3.85633
3.85637
3.85642
3.85648
3.85655
3.85662
3.85671
3.8568
3.8569
3.85701
3.85713
3.85725
3.85738
3.85751
3.85765
3.8578
3.85794
3.8581
3.85825
3.85841
3.85857
3.85873
3.8589
3.85906
3.85922
3.85938
3.85953
3.85968
3.85982
3.85995
3.86007
3.86018
3.86028
3.86036
3.86042
3.86047
3.86049
3.8605
3.86049
3.86045
3.86039
3.86031
3.86021
3.86008
3.85993
3.85975
3.85955
3.85933
3.85908
3.85881
3.85852
3.85821
3.85787
3.85752
3.85714
3.85675
3.85634
3.85592
3.85549
3.85505
3.8546
3.85414
3.85368
3.85322
3.85276
3.85231
3.85186
3.85142
3.85099
3.85058
3.85018
3.84979
3.84943
3.84908
3.84874
3.84843
3.84813
3.84784
3.84757
3.84732
3.84707
3.84684
3.84662
3.8464
3.8462
3.846
3.84581
3.84562
3.84544
3.84527
3.84511
3.84495
3.8448
3.84466
3.84452
3.8444
3.84428
3.84417
3.84408
3.84399
3.84391
3.84384
3.84377
3.84372
3.84368
3.84364
3.84361
3.84359
3.84357
3.84356
3.84355
3.84354
3.84354
3.84354
3.84353
3.84353
3.84353
3.85784
3.85785
3.85787
3.8579
3.85794
3.85798
3.85803
3.8581
3.85817
3.85825
3.85833
3.85843
3.85853
3.85864
3.85875
3.85887
3.859
3.85912
3.85926
3.8594
3.85954
3.85968
3.85983
3.85997
3.86012
3.86027
3.86042
3.86057
3.86071
3.86085
3.86098
3.8611
3.86122
3.86132
3.86142
3.8615
3.86157
3.86162
3.86165
3.86167
3.86167
3.86165
3.86161
3.86155
3.86147
3.86136
3.86123
3.86109
3.86091
3.86072
3.8605
3.86027
3.86001
3.85973
3.85943
3.85911
3.85877
3.85842
3.85805
3.85766
3.85727
3.85686
3.85644
3.85602
3.85558
3.85515
3.85472
3.85429
3.85386
3.85343
3.85302
3.85261
3.85222
3.85184
3.85147
3.85111
3.85078
3.85045
3.85014
3.84985
3.84957
3.84931
3.84905
3.84881
3.84858
3.84836
3.84814
3.84794
3.84774
3.84756
3.84737
3.8472
3.84703
3.84687
3.84671
3.84657
3.84643
3.8463
3.84617
3.84606
3.84595
3.84585
3.84577
3.84569
3.84561
3.84555
3.8455
3.84545
3.84541
3.84537
3.84535
3.84533
3.84531
3.8453
3.84529
3.84528
3.84527
3.84527
3.84527
3.84527
3.8594
3.85941
3.85943
3.85945
3.85949
3.85953
3.85958
3.85964
3.85971
3.85978
3.85986
3.85995
3.86004
3.86014
3.86025
3.86036
3.86047
3.86059
3.86072
3.86084
3.86097
3.86111
3.86124
3.86138
3.86151
3.86165
3.86178
3.86191
3.86204
3.86216
3.86228
3.86239
3.86249
3.86259
3.86267
3.86274
3.86279
3.86283
3.86286
3.86287
3.86286
3.86283
3.86279
3.86272
3.86264
3.86253
3.86241
3.86226
3.8621
3.86191
3.8617
3.86147
3.86122
3.86096
3.86067
3.86037
3.86005
3.85971
3.85936
3.859
3.85862
3.85823
3.85784
3.85744
3.85703
3.85662
3.85621
3.85581
3.8554
3.855
3.85461
3.85422
3.85385
3.85348
3.85313
3.85279
3.85246
3.85215
3.85185
3.85156
3.85129
3.85103
3.85078
3.85054
3.85031
3.85009
3.84988
3.84968
3.84948
3.8493
3.84912
3.84894
3.84878
3.84862
3.84847
3.84832
3.84819
3.84806
3.84794
3.84782
3.84772
3.84762
3.84753
3.84745
3.84738
3.84732
3.84726
3.84721
3.84717
3.84713
3.8471
3.84708
3.84706
3.84704
3.84703
3.84702
3.84701
3.84701
3.847
3.847
3.86095
3.86096
3.86098
3.861
3.86103
3.86107
3.86112
3.86117
3.86124
3.8613
3.86138
3.86146
3.86155
3.86164
3.86174
3.86184
3.86195
3.86206
3.86217
3.86229
3.86241
3.86253
3.86265
3.86278
3.8629
3.86302
3.86315
3.86326
3.86338
3.86349
3.86359
3.86369
3.86378
3.86386
3.86393
3.86399
3.86403
3.86406
3.86408
3.86408
3.86407
3.86404
3.86399
3.86392
3.86383
3.86373
3.8636
3.86346
3.8633
3.86312
3.86292
3.8627
3.86246
3.8622
3.86193
3.86164
3.86134
3.86102
3.86068
3.86034
3.85998
3.85962
3.85925
3.85887
3.85848
3.8581
3.85771
3.85732
3.85694
3.85656
3.85619
3.85582
3.85546
3.85511
3.85478
3.85445
3.85413
3.85383
3.85354
3.85326
3.85299
3.85274
3.85249
3.85225
3.85203
3.85181
3.85161
3.85141
3.85121
3.85103
3.85085
3.85068
3.85052
3.85036
3.85022
3.85007
3.84994
3.84981
3.84969
3.84958
3.84948
3.84938
3.8493
3.84922
3.84914
3.84908
3.84902
3.84897
3.84892
3.84888
3.84885
3.84882
3.8488
3.84878
3.84877
3.84876
3.84875
3.84874
3.84874
3.84873
3.8625
3.8625
3.86252
3.86254
3.86257
3.86261
3.86265
3.8627
3.86276
3.86282
3.86289
3.86297
3.86305
3.86313
3.86322
3.86332
3.86342
3.86352
3.86362
3.86373
3.86384
3.86395
3.86407
3.86418
3.86429
3.8644
3.86451
3.86462
3.86472
3.86482
3.86491
3.865
3.86507
3.86514
3.8652
3.86525
3.86528
3.86531
3.86532
3.86531
3.86529
3.86525
3.8652
3.86513
3.86505
3.86494
3.86482
3.86468
3.86452
3.86434
3.86415
3.86394
3.86371
3.86347
3.86321
3.86293
3.86264
3.86234
3.86202
3.86169
3.86136
3.86101
3.86066
3.8603
3.85994
3.85957
3.8592
3.85884
3.85848
3.85811
3.85776
3.85741
3.85707
3.85674
3.85641
3.8561
3.85579
3.8555
3.85522
3.85495
3.85468
3.85443
3.85419
3.85396
3.85374
3.85353
3.85332
3.85313
3.85294
3.85276
3.85258
3.85242
3.85226
3.8521
3.85196
3.85182
3.85169
3.85156
3.85144
3.85133
3.85123
3.85114
3.85105
3.85097
3.8509
3.85083
3.85077
3.85072
3.85067
3.85063
3.8506
3.85057
3.85054
3.85052
3.8505
3.85049
3.85048
3.85047
3.85047
3.85046
3.86403
3.86404
3.86405
3.86407
3.8641
3.86413
3.86417
3.86422
3.86427
3.86433
3.8644
3.86447
3.86454
3.86462
3.8647
3.86479
3.86488
3.86498
3.86507
3.86517
3.86527
3.86538
3.86548
3.86558
3.86568
3.86578
3.86588
3.86598
3.86607
3.86615
3.86624
3.86631
3.86638
3.86643
3.86648
3.86652
3.86655
3.86656
3.86657
3.86656
3.86653
3.86649
3.86643
3.86636
3.86627
3.86617
3.86605
3.86591
3.86576
3.86559
3.8654
3.8652
3.86498
3.86474
3.8645
3.86423
3.86396
3.86367
3.86337
3.86306
3.86274
3.86241
3.86208
3.86174
3.86139
3.86105
3.8607
3.86035
3.86001
3.85966
3.85933
3.85899
3.85867
3.85835
3.85804
3.85773
3.85744
3.85716
3.85688
3.85662
3.85637
3.85612
3.85589
3.85566
3.85544
3.85523
3.85503
3.85484
3.85465
3.85448
3.8543
3.85414
3.85398
3.85383
3.85369
3.85355
3.85342
3.8533
3.85318
3.85308
3.85298
3.85288
3.85279
3.85271
3.85264
3.85257
3.85251
3.85246
3.85241
3.85237
3.85233
3.8523
3.85228
3.85225
3.85223
3.85222
3.85221
3.8522
3.85219
3.85219
3.86556
3.86556
3.86558
3.8656
3.86562
3.86565
3.86569
3.86573
3.86578
3.86584
3.8659
3.86596
3.86603
3.8661
3.86618
3.86626
3.86634
3.86643
3.86652
3.86661
3.8667
3.8668
3.86689
3.86698
3.86707
3.86716
3.86725
3.86734
3.86742
3.8675
3.86757
3.86763
3.86769
3.86774
3.86778
3.86781
3.86783
3.86783
3.86783
3.86781
3.86778
3.86774
3.86768
3.86761
3.86752
3.86742
3.8673
3.86716
3.86701
3.86685
3.86667
3.86647
3.86626
3.86604
3.8658
3.86555
3.86528
3.86501
3.86472
3.86443
3.86413
3.86382
3.8635
3.86318
3.86285
3.86252
3.86219
3.86186
3.86153
3.86121
3.86089
3.86057
3.86026
3.85995
3.85965
3.85936
3.85908
3.85881
3.85854
3.85829
3.85804
3.8578
3.85757
3.85735
3.85714
3.85693
3.85673
3.85654
3.85636
3.85619
3.85602
3.85586
3.8557
3.85556
3.85541
3.85528
3.85515
3.85503
3.85492
3.85481
3.85471
3.85462
3.85453
3.85445
3.85438
3.85431
3.85425
3.8542
3.85415
3.85411
3.85407
3.85403
3.85401
3.85398
3.85396
3.85395
3.85393
3.85392
3.85392
3.85392
3.86708
3.86709
3.8671
3.86711
3.86714
3.86717
3.8672
3.86724
3.86729
3.86734
3.86739
3.86745
3.86751
3.86758
3.86765
3.86773
3.8678
3.86788
3.86796
3.86805
3.86813
3.86822
3.8683
3.86838
3.86847
3.86855
3.86863
3.8687
3.86877
3.86884
3.8689
3.86896
3.86901
3.86905
3.86908
3.8691
3.86911
3.86912
3.86911
3.86909
3.86905
3.869
3.86894
3.86887
3.86878
3.86868
3.86856
3.86843
3.86828
3.86812
3.86795
3.86776
3.86756
3.86734
3.86712
3.86688
3.86662
3.86636
3.86609
3.86581
3.86552
3.86523
3.86493
3.86462
3.86431
3.864
3.86368
3.86337
3.86306
3.86275
3.86244
3.86214
3.86184
3.86155
3.86126
3.86098
3.86071
3.86045
3.86019
3.85994
3.8597
3.85947
3.85925
3.85903
3.85882
3.85862
3.85843
3.85824
3.85806
3.85789
3.85773
3.85757
3.85742
3.85727
3.85713
3.857
3.85688
3.85676
3.85665
3.85654
3.85644
3.85635
3.85626
3.85618
3.85611
3.85604
3.85598
3.85593
3.85588
3.85583
3.8558
3.85576
3.85573
3.85571
3.85569
3.85567
3.85566
3.85565
3.85564
3.85564
3.86859
3.8686
3.86861
3.86863
3.86865
3.86868
3.86871
3.86874
3.86879
3.86883
3.86888
3.86894
3.86899
3.86906
3.86912
3.86919
3.86926
3.86933
3.86941
3.86948
3.86956
3.86964
3.86971
3.86979
3.86986
3.86993
3.87
3.87007
3.87013
3.87019
3.87025
3.87029
3.87033
3.87037
3.87039
3.87041
3.87041
3.87041
3.87039
3.87037
3.87033
3.87028
3.87022
3.87014
3.87006
3.86995
3.86984
3.86971
3.86957
3.86941
3.86924
3.86906
3.86887
3.86866
3.86844
3.86821
3.86798
3.86773
3.86747
3.8672
3.86692
3.86664
3.86636
3.86607
3.86577
3.86548
3.86518
3.86488
3.86458
3.86429
3.86399
3.8637
3.86342
3.86314
3.86286
3.86259
3.86233
3.86208
3.86183
3.86159
3.86136
3.86113
3.86091
3.8607
3.8605
3.8603
3.86011
3.85993
3.85976
3.85959
3.85943