/*--------------------------------*- C++ -*----------------------------------*\
| =========                 |                                                 |
| \\      /  F ield         | OpenFOAM: The Open Source CFD Toolbox           |
|  \\    /   O peration     | Version:  2406                                  |
|   \\  /    A nd           | Website:  www.openfoam.com                      |
|    \\/     M anipulation  |                                                 |
\*---------------------------------------------------------------------------*/
FoamFile
{
    version     2.0;
    format      ascii;
    arch        "LSB;label=32;scalar=64";
    class       volScalarField;
    location    "0.6";
    object      C;
}
// * * * * * * * * * * * * * * * * * * * * * * * * * * * * * * * * * * * * * //

dimensions      [1 -3 0 0 0 0 0];

internalField   nonuniform List<scalar> 
14400
(
3.73941
3.73882
3.73758
3.73556
3.73248
3.72776
3.71959
3.70814
3.72043
3.72928
3.73469
3.7385
3.74128
3.74334
3.74481
3.74578
3.74628
3.74632
3.74586
3.74483
3.74307
3.7403
3.73594
3.72816
3.71727
3.73022
3.73967
3.74573
3.75026
3.75386
3.75682
3.75931
3.76144
3.76326
3.76484
3.7662
3.76737
3.76836
3.76921
3.76991
3.77047
3.77091
3.77122
3.77142
3.7715
3.77147
3.77133
3.77108
3.77073
3.77026
3.76968
3.769
3.76819
3.76727
3.76623
3.76505
3.76374
3.7623
3.76069
3.75893
3.75698
3.75484
3.75249
3.74988
3.747
3.74378
3.74018
3.73609
3.73138
3.72585
3.71916
3.71065
3.69823
3.68042
3.6846
3.68371
3.67734
3.69289
3.70345
3.71007
3.71481
3.71832
3.72095
3.7229
3.72429
3.7252
3.72568
3.72575
3.72543
3.72469
3.72352
3.72187
3.71963
3.71666
3.71265
3.70704
3.69798
3.68536
3.69634
3.70404
3.70826
3.71075
3.71206
3.71244
3.71193
3.71049
3.70788
3.70354
3.69572
3.6846
3.69709
3.70605
3.71157
3.71549
3.71839
3.72056
3.72218
3.72333
3.72406
3.72442
3.74
3.73946
3.73836
3.73662
3.73411
3.73072
3.72649
3.72262
3.72726
3.73218
3.73628
3.73952
3.74202
3.74392
3.74531
3.74624
3.74674
3.74682
3.74644
3.74555
3.74408
3.7419
3.73887
3.73507
3.73172
3.73696
3.74249
3.74725
3.7512
3.7545
3.75729
3.75968
3.76173
3.76351
3.76505
3.76639
3.76754
3.76852
3.76935
3.77004
3.7706
3.77103
3.77134
3.77153
3.77161
3.77158
3.77144
3.77119
3.77084
3.77037
3.7698
3.76911
3.76831
3.76739
3.76635
3.76519
3.76389
3.76245
3.76086
3.75911
3.75718
3.75506
3.75273
3.75016
3.74733
3.74418
3.74066
3.7367
3.7322
3.72702
3.72097
3.71382
3.70546
3.69647
3.69509
3.69413
3.69344
3.70032
3.70674
3.71195
3.71603
3.7192
3.72163
3.72346
3.72477
3.72564
3.72609
3.72615
3.72583
3.72513
3.72401
3.72245
3.72037
3.71769
3.71426
3.70994
3.70478
3.69983
3.70328
3.70707
3.70998
3.71192
3.713
3.71331
3.71287
3.71166
3.70959
3.70656
3.70265
3.69907
3.70389
3.70895
3.71316
3.7165
3.71911
3.72113
3.72264
3.72373
3.72444
3.72478
3.74112
3.74068
3.73979
3.73844
3.73664
3.73449
3.73239
3.73139
3.73311
3.73591
3.73875
3.74127
3.74335
3.74502
3.74627
3.74714
3.74764
3.74776
3.74751
3.74686
3.7458
3.74434
3.74258
3.74091
3.74041
3.74269
3.74608
3.74957
3.75279
3.75565
3.75817
3.76038
3.76231
3.764
3.76547
3.76676
3.76787
3.76883
3.76964
3.77031
3.77085
3.77127
3.77157
3.77176
3.77183
3.7718
3.77166
3.77141
3.77105
3.77059
3.77002
3.76934
3.76854
3.76764
3.76661
3.76545
3.76417
3.76275
3.76118
3.75946
3.75757
3.75549
3.75321
3.75071
3.74797
3.74494
3.74158
3.73786
3.7337
3.72906
3.72388
3.7182
3.71233
3.70722
3.70462
3.70363
3.70423
3.70734
3.71125
3.71497
3.71818
3.72081
3.72291
3.72453
3.7257
3.72648
3.72688
3.72693
3.72663
3.72597
3.72495
3.72354
3.72172
3.71946
3.71675
3.7137
3.71065
3.70864
3.70928
3.71098
3.71267
3.71396
3.71472
3.71493
3.71459
3.71369
3.71227
3.71045
3.70863
3.70786
3.70975
3.71269
3.71564
3.71825
3.72043
3.72218
3.72354
3.72453
3.72517
3.72549
3.74268
3.74234
3.74168
3.74071
3.73951
3.73823
3.73719
3.73692
3.73787
3.73959
3.74155
3.74344
3.74512
3.74652
3.74761
3.74841
3.7489
3.74909
3.74898
3.74859
3.74793
3.74707
3.74619
3.74559
3.7458
3.74729
3.74958
3.75216
3.75473
3.75715
3.75936
3.76134
3.76312
3.76469
3.76609
3.7673
3.76837
3.76928
3.77006
3.7707
3.77123
3.77163
3.77192
3.77209
3.77216
3.77212
3.77198
3.77173
3.77138
3.77092
3.77035
3.76968
3.7689
3.768
3.76698
3.76585
3.76459
3.7632
3.76166
3.75998
3.75813
3.75612
3.75392
3.75152
3.74889
3.74602
3.74288
3.73944
3.73569
3.73163
3.72728
3.72278
3.71844
3.7148
3.71252
3.71155
3.71188
3.71355
3.71595
3.7185
3.72089
3.72296
3.72468
3.72603
3.72703
3.7277
3.72804
3.72806
3.72777
3.72718
3.72627
3.72504
3.72351
3.72167
3.7196
3.71744
3.71549
3.71426
3.71421
3.71489
3.71576
3.71652
3.71699
3.7171
3.71685
3.71625
3.71536
3.71435
3.71354
3.71347
3.71457
3.7164
3.71846
3.72043
3.72218
3.72364
3.7248
3.72566
3.72623
3.72652
3.74458
3.74434
3.74387
3.74321
3.74245
3.74172
3.74123
3.74123
3.74188
3.74302
3.74441
3.74583
3.74716
3.74832
3.74926
3.74998
3.75046
3.75071
3.75074
3.75057
3.75025
3.74984
3.74951
3.74945
3.74992
3.75108
3.75278
3.75476
3.75683
3.75885
3.76076
3.76253
3.76413
3.76558
3.76687
3.76801
3.76901
3.76987
3.77061
3.77122
3.77172
3.7721
3.77237
3.77254
3.7726
3.77255
3.77241
3.77216
3.77181
3.77135
3.77079
3.77013
3.76936
3.76848
3.76748
3.76637
3.76514
3.76378
3.76229
3.76066
3.75888
3.75694
3.75483
3.75254
3.75006
3.74737
3.74447
3.74134
3.738
3.73448
3.73083
3.72721
3.72384
3.72104
3.71912
3.71816
3.71817
3.71905
3.7205
3.7222
3.72391
3.72547
3.72681
3.72789
3.7287
3.72924
3.7295
3.7295
3.72923
3.72869
3.7279
3.72686
3.72559
3.72412
3.72254
3.72096
3.7196
3.7187
3.71842
3.71859
3.71898
3.71936
3.71961
3.71965
3.71947
3.71908
3.71856
3.71804
3.71773
3.71789
3.71866
3.7199
3.72136
3.72284
3.72421
3.72539
3.72636
3.72709
3.72758
3.72782
3.74672
3.74655
3.74624
3.74582
3.74536
3.74497
3.74477
3.74488
3.74539
3.74621
3.74723
3.74832
3.74937
3.75033
3.75114
3.75178
3.75226
3.75256
3.7527
3.75272
3.75264
3.75255
3.75255
3.75277
3.75335
3.75435
3.7557
3.75728
3.75897
3.76067
3.76232
3.76387
3.7653
3.76661
3.7678
3.76885
3.76978
3.77059
3.77128
3.77186
3.77233
3.77269
3.77294
3.77309
3.77314
3.77309
3.77294
3.77269
3.77234
3.77189
3.77134
3.77069
3.76993
3.76907
3.7681
3.76702
3.76582
3.7645
3.76306
3.76148
3.75977
3.75792
3.75591
3.75375
3.75143
3.74893
3.74627
3.74345
3.7405
3.73744
3.73437
3.73138
3.72866
3.72639
3.72475
3.72382
3.72358
3.72397
3.72481
3.7259
3.72707
3.72819
3.72919
3.73002
3.73064
3.73105
3.73124
3.7312
3.73094
3.73047
3.72979
3.72891
3.72786
3.72669
3.72546
3.72428
3.72326
3.72253
3.72216
3.72209
3.72219
3.72234
3.72243
3.72242
3.72229
3.72205
3.72177
3.72153
3.72146
3.72169
3.72228
3.72318
3.72424
3.72536
3.72642
3.72737
3.72815
3.72876
3.72917
3.72937
3.74903
3.74892
3.74872
3.74847
3.74822
3.74803
3.74798
3.74816
3.74857
3.74921
3.74999
3.75084
3.75168
3.75248
3.75318
3.75376
3.75422
3.75456
3.7548
3.75494
3.75505
3.75517
3.75537
3.75574
3.75636
3.75725
3.75838
3.75969
3.7611
3.76254
3.76396
3.76532
3.7666
3.76778
3.76886
3.76982
3.77068
3.77143
3.77207
3.77261
3.77304
3.77337
3.77361
3.77374
3.77378
3.77372
3.77356
3.77331
3.77297
3.77252
3.77198
3.77135
3.77061
3.76977
3.76883
3.76778
3.76662
3.76535
3.76396
3.76245
3.76082
3.75905
3.75716
3.75513
3.75297
3.75067
3.74824
3.74571
3.74309
3.74043
3.7378
3.7353
3.73303
3.73112
3.72969
3.72877
3.72837
3.72844
3.72886
3.72951
3.73027
3.73104
3.73175
3.73235
3.7328
3.73308
3.7332
3.73313
3.73288
3.73245
3.73186
3.73113
3.73026
3.72932
3.72835
3.72742
3.72662
3.726
3.72561
3.72542
3.72536
3.72536
3.72536
3.72531
3.72521
3.72507
3.72492
3.72484
3.72489
3.72513
3.72561
3.72628
3.72708
3.72792
3.72875
3.7295
3.73013
3.73062
3.73096
3.73113
3.75144
3.75137
3.75126
3.75112
3.751
3.75094
3.75098
3.75118
3.75154
3.75205
3.75268
3.75336
3.75405
3.75472
3.75533
3.75586
3.75631
3.75668
3.75697
3.75721
3.75744
3.75769
3.75802
3.75847
3.7591
3.75991
3.76089
3.76201
3.7632
3.76444
3.76567
3.76686
3.76799
3.76905
3.77002
3.7709
3.77168
3.77237
3.77296
3.77346
3.77386
3.77416
3.77437
3.77449
3.77451
3.77445
3.77429
3.77404
3.77369
3.77326
3.77273
3.77211
3.77139
3.77057
3.76966
3.76865
3.76753
3.76631
3.76498
3.76354
3.76199
3.76032
3.75854
3.75664
3.75464
3.75252
3.75032
3.74804
3.74572
3.74339
3.74112
3.73897
3.73703
3.73539
3.7341
3.7332
3.7327
3.73255
3.73268
3.73302
3.73347
3.73396
3.73442
3.73482
3.73512
3.73529
3.73533
3.73523
3.73499
3.7346
3.73409
3.73346
3.73275
3.73198
3.73119
3.73044
3.72978
3.72925
3.72887
3.72862
3.72848
3.72839
3.72832
3.72825
3.72817
3.72808
3.72802
3.72801
3.72811
3.72835
3.72873
3.72925
3.72986
3.73051
3.73115
3.73174
3.73225
3.73264
3.73292
3.73306
3.75391
3.75388
3.75382
3.75376
3.75372
3.75374
3.75384
3.75404
3.75436
3.75479
3.7553
3.75587
3.75645
3.75702
3.75755
3.75804
3.75848
3.75886
3.7592
3.7595
3.75981
3.76014
3.76054
3.76103
3.76165
3.7624
3.76327
3.76423
3.76527
3.76634
3.76741
3.76846
3.76946
3.7704
3.77128
3.77207
3.77279
3.77341
3.77395
3.77441
3.77477
3.77504
3.77523
3.77533
3.77534
3.77527
3.7751
3.77485
3.77451
3.77408
3.77357
3.77296
3.77226
3.77148
3.77059
3.76962
3.76854
3.76737
3.76611
3.76474
3.76327
3.7617
3.76003
3.75827
3.75641
3.75448
3.75247
3.75042
3.74835
3.7463
3.74431
3.74244
3.74075
3.73929
3.73811
3.73724
3.73667
3.73637
3.73631
3.73641
3.73663
3.73689
3.73716
3.73739
3.73756
3.73764
3.73761
3.73748
3.73724
3.73688
3.73643
3.73589
3.73529
3.73464
3.73399
3.73337
3.73282
3.73235
3.73198
3.73172
3.73153
3.73139
3.73129
3.73121
3.73114
3.73108
3.73106
3.73109
3.7312
3.73141
3.73173
3.73213
3.73261
3.73311
3.73361
3.73407
3.73447
3.73479
3.73501
3.73512
3.75642
3.75641
3.75639
3.75638
3.75639
3.75645
3.75658
3.75678
3.75708
3.75745
3.75788
3.75836
3.75885
3.75935
3.75983
3.76028
3.7607
3.76109
3.76145
3.7618
3.76215
3.76253
3.76297
3.76347
3.76407
3.76476
3.76554
3.76639
3.7673
3.76824
3.76917
3.7701
3.77099
3.77183
3.77261
3.77333
3.77397
3.77454
3.77503
3.77544
3.77577
3.77601
3.77618
3.77626
3.77626
3.77617
3.776
3.77575
3.77542
3.775
3.77449
3.77391
3.77323
3.77247
3.77162
3.77068
3.76966
3.76854
3.76733
3.76604
3.76465
3.76318
3.76162
3.75998
3.75827
3.75649
3.75467
3.75282
3.75096
3.74914
3.74738
3.74572
3.74422
3.74291
3.74182
3.74097
3.74036
3.73996
3.73976
3.73969
3.73973
3.73983
3.73994
3.74003
3.74009
3.74008
3.74
3.73984
3.73959
3.73926
3.73885
3.73838
3.73786
3.73732
3.73677
3.73624
3.73576
3.73535
3.735
3.73473
3.73453
3.73437
3.73425
3.73415
3.73408
3.73404
3.73404
3.73408
3.73419
3.73437
3.73463
3.73495
3.73532
3.73571
3.7361
3.73646
3.73678
3.73703
3.73721
3.7373
3.75894
3.75894
3.75894
3.75897
3.75901
3.7591
3.75924
3.75944
3.75971
3.76004
3.76041
3.76082
3.76126
3.7617
3.76213
3.76255
3.76295
3.76334
3.76371
3.76408
3.76446
3.76487
3.76532
3.76582
3.76639
3.76703
3.76774
3.7685
3.7693
3.77013
3.77096
3.77177
3.77256
3.77331
3.77401
3.77465
3.77523
3.77575
3.77619
3.77655
3.77685
3.77707
3.77721
3.77727
3.77725
3.77716
3.77699
3.77674
3.77641
3.776
3.77551
3.77494
3.77428
3.77355
3.77274
3.77184
3.77086
3.7698
3.76865
3.76743
3.76612
3.76474
3.76329
3.76177
3.76019
3.75856
3.7569
3.75522
3.75355
3.75191
3.75034
3.74886
3.74751
3.74631
3.7453
3.74447
3.74383
3.74337
3.74306
3.74288
3.74278
3.74274
3.74273
3.74272
3.74268
3.7426
3.74247
3.74228
3.74203
3.74171
3.74134
3.74092
3.74047
3.74
3.73952
3.73907
3.73864
3.73827
3.73795
3.73768
3.73747
3.7373
3.73717
3.73707
3.737
3.73697
3.73697
3.73701
3.73711
3.73726
3.73746
3.73772
3.73801
3.73831
3.73862
3.7389
3.73915
3.73935
3.73949
3.73956
3.76146
3.76147
3.76149
3.76153
3.76159
3.7617
3.76184
3.76204
3.76228
3.76257
3.76291
3.76327
3.76366
3.76405
3.76445
3.76484
3.76523
3.7656
3.76598
3.76636
3.76675
3.76716
3.76761
3.7681
3.76865
3.76924
3.76988
3.77057
3.77128
3.77201
3.77275
3.77347
3.77417
3.77484
3.77547
3.77604
3.77656
3.77702
3.77742
3.77774
3.778
3.77819
3.77831
3.77836
3.77833
3.77823
3.77805
3.7778
3.77748
3.77708
3.7766
3.77605
3.77542
3.77471
3.77393
3.77308
3.77214
3.77113
3.77005
3.7689
3.76767
3.76638
3.76502
3.76361
3.76215
3.76066
3.75914
3.75762
3.7561
3.75462
3.7532
3.75187
3.75064
3.74954
3.74858
3.74778
3.74713
3.74662
3.74624
3.74597
3.74577
3.74563
3.74552
3.74542
3.74531
3.74517
3.745
3.74479
3.74453
3.74422
3.74388
3.7435
3.74309
3.74267
3.74226
3.74185
3.74148
3.74114
3.74084
3.74058
3.74037
3.7402
3.74007
3.73996
3.73989
3.73985
3.73985
3.73989
3.73997
3.74009
3.74025
3.74045
3.74068
3.74092
3.74116
3.74138
3.74157
3.74173
3.74184
3.74189
3.76396
3.76398
3.76401
3.76406
3.76414
3.76425
3.76439
3.76458
3.76481
3.76507
3.76537
3.7657
3.76605
3.7664
3.76677
3.76714
3.7675
3.76787
3.76824
3.76862
3.76901
3.76942
3.76986
3.77033
3.77085
3.7714
3.77199
3.77261
3.77325
3.7739
3.77455
3.7752
3.77582
3.77641
3.77697
3.77749
3.77795
3.77836
3.77871
3.779
3.77923
3.77939
3.77949
3.77952
3.77948
3.77937
3.77919
3.77894
3.77862
3.77823
3.77777
3.77723
3.77663
3.77595
3.77521
3.77439
3.7735
3.77255
3.77152
3.77043
3.76928
3.76807
3.76681
3.7655
3.76416
3.76278
3.76139
3.76
3.75862
3.75728
3.75598
3.75477
3.75364
3.75262
3.75171
3.75094
3.75028
3.74975
3.74932
3.74898
3.74871
3.74849
3.7483
3.74813
3.74796
3.74778
3.74757
3.74734
3.74707
3.74677
3.74645
3.74609
3.74573
3.74535
3.74498
3.74461
3.74427
3.74396
3.74368
3.74344
3.74324
3.74307
3.74293
3.74282
3.74275
3.74271
3.7427
3.74272
3.74278
3.74288
3.743
3.74316
3.74334
3.74352
3.74371
3.74388
3.74403
3.74415
3.74424
3.74428
3.76646
3.76648
3.76651
3.76657
3.76665
3.76676
3.76691
3.76708
3.76729
3.76754
3.76781
3.7681
3.76842
3.76875
3.76909
3.76943
3.76978
3.77013
3.77049
3.77086
3.77125
3.77165
3.77207
3.77253
3.77301
3.77352
3.77406
3.77462
3.7752
3.77578
3.77636
3.77694
3.77749
3.77802
3.77852
3.77898
3.77939
3.77976
3.78007
3.78032
3.78052
3.78066
3.78073
3.78075
3.7807
3.78058
3.7804
3.78015
3.77984
3.77945
3.77901
3.77849
3.77791
3.77726
3.77655
3.77577
3.77493
3.77402
3.77306
3.77203
3.77095
3.76982
3.76865
3.76743
3.76619
3.76492
3.76364
3.76236
3.7611
3.75987
3.75869
3.75757
3.75653
3.75558
3.75472
3.75397
3.75332
3.75276
3.7523
3.75191
3.75159
3.75132
3.75107
3.75085
3.75063
3.75041
3.75017
3.74992
3.74965
3.74935
3.74904
3.74871
3.74837
3.74802
3.74768
3.74735
3.74704
3.74675
3.74649
3.74626
3.74606
3.7459
3.74576
3.74565
3.74557
3.74552
3.7455
3.74552
3.74556
3.74563
3.74573
3.74585
3.74598
3.74613
3.74627
3.7464
3.74652
3.74662
3.74668
3.74672
3.76893
3.76895
3.76899
3.76905
3.76914
3.76925
3.76938
3.76955
3.76975
3.76997
3.77022
3.77049
3.77078
3.77108
3.7714
3.77172
3.77205
3.77239
3.77274
3.7731
3.77347
3.77385
3.77426
3.77469
3.77514
3.77561
3.77611
3.77662
3.77714
3.77766
3.77819
3.7787
3.7792
3.77967
3.78011
3.78052
3.78088
3.78121
3.78148
3.7817
3.78187
3.78199
3.78204
3.78204
3.78198
3.78185
3.78167
3.78142
3.78112
3.78075
3.78031
3.77982
3.77926
3.77864
3.77796
3.77722
3.77642
3.77556
3.77465
3.77369
3.77268
3.77162
3.77052
3.76939
3.76824
3.76707
3.76589
3.76471
3.76356
3.76243
3.76134
3.7603
3.75933
3.75844
3.75762
3.7569
3.75625
3.75569
3.75521
3.75479
3.75443
3.75411
3.75382
3.75356
3.7533
3.75305
3.75279
3.75252
3.75224
3.75195
3.75165
3.75133
3.75101
3.75069
3.75038
3.75007
3.74978
3.74951
3.74927
3.74905
3.74886
3.74869
3.74856
3.74845
3.74837
3.74831
3.74828
3.74828
3.74831
3.74836
3.74843
3.74852
3.74862
3.74873
3.74884
3.74894
3.74903
3.74911
3.74916
3.74918
3.77139
3.77141
3.77145
3.77151
3.77159
3.7717
3.77183
3.77199
3.77217
3.77238
3.77261
3.77286
3.77313
3.77341
3.7737
3.77401
3.77432
3.77464
3.77497
3.77531
3.77567
3.77604
3.77643
3.77683
3.77725
3.77769
3.77814
3.7786
3.77908
3.77955
3.78002
3.78048
3.78092
3.78134
3.78173
3.78209
3.78242
3.7827
3.78294
3.78313
3.78328
3.78337
3.78341
3.78339
3.78332
3.78319
3.783
3.78276
3.78246
3.7821
3.78168
3.7812
3.78067
3.78008
3.77943
3.77872
3.77797
3.77716
3.7763
3.77539
3.77444
3.77345
3.77243
3.77138
3.77031
3.76922
3.76813
3.76705
3.76598
3.76493
3.76393
3.76297
3.76206
3.76122
3.76044
3.75974
3.75911
3.75855
3.75805
3.75761
3.75722
3.75687
3.75655
3.75625
3.75597
3.75569
3.75542
3.75514
3.75485
3.75456
3.75426
3.75396
3.75366
3.75336
3.75306
3.75278
3.7525
3.75225
3.75202
3.75181
3.75162
3.75146
3.75133
3.75122
3.75113
3.75107
3.75103
3.75102
3.75103
3.75106
3.75111
3.75118
3.75125
3.75133
3.75142
3.75149
3.75156
3.75162
3.75166
3.75168
3.77383
3.77385
3.77389
3.77395
3.77403
3.77413
3.77425
3.7744
3.77457
3.77477
3.77498
3.77521
3.77546
3.77572
3.77599
3.77628
3.77657
3.77688
3.77719
3.77752
3.77786
3.77821
3.77857
3.77895
3.77934
3.77975
3.78016
3.78058
3.78101
3.78144
3.78186
3.78227
3.78266
3.78304
3.78339
3.78371
3.78399
3.78424
3.78445
3.78462
3.78473
3.78481
3.78483
3.7848
3.78472
3.78458
3.7844
3.78416
3.78386
3.78351
3.78311
3.78265
3.78213
3.78157
3.78095
3.78028
3.77956
3.7788
3.77799
3.77714
3.77625
3.77532
3.77437
3.77339
3.77239
3.77138
3.77037
3.76937
3.76838
3.76741
3.76647
3.76557
3.76472
3.76393
3.76319
3.76251
3.76189
3.76133
3.76083
3.76038
3.75997
3.7596
3.75925
3.75893
3.75863
3.75833
3.75804
3.75776
3.75747
3.75718
3.75689
3.75659
3.7563
3.75601
3.75573
3.75546
3.75521
3.75497
3.75475
3.75455
3.75437
3.75421
3.75407
3.75396
3.75387
3.75381
3.75376
3.75374
3.75373
3.75375
3.75378
3.75382
3.75388
3.75393
3.75399
3.75405
3.7541
3.75415
3.75418
3.75419
3.77625
3.77627
3.7763
3.77636
3.77644
3.77654
3.77665
3.77679
3.77695
3.77713
3.77733
3.77754
3.77777
3.77802
3.77827
3.77854
3.77882
3.77911
3.77941
3.77971
3.78003
3.78036
3.7807
3.78106
3.78142
3.78179
3.78217
3.78256
3.78295
3.78333
3.78371
3.78408
3.78443
3.78476
3.78507
3.78536
3.78561
3.78582
3.786
3.78614
3.78624
3.78629
3.7863
3.78626
3.78617
3.78603
3.78584
3.7856
3.78532
3.78498
3.78458
3.78414
3.78365
3.78311
3.78252
3.78189
3.78121
3.78049
3.77972
3.77892
3.77808
3.77722
3.77633
3.77541
3.77448
3.77355
3.77261
3.77167
3.77075
3.76985
3.76897
3.76813
3.76733
3.76658
3.76588
3.76522
3.76462
3.76407
3.76356
3.7631
3.76268
3.76229
3.76194
3.7616
3.76128
3.76097
3.76067
3.76038
3.76008
3.75979
3.75951
3.75922
3.75894
3.75866
3.7584
3.75814
3.7579
3.75767
3.75745
3.75726
3.75709
3.75693
3.7568
3.75668
3.75659
3.75652
3.75647
3.75643
3.75642
3.75642
3.75643
3.75646
3.75649
3.75653
3.75658
3.75662
3.75666
3.75669
3.75671
3.75672
3.77864
3.77866
3.7787
3.77875
3.77883
3.77892
3.77903
3.77916
3.77931
3.77948
3.77966
3.77986
3.78008
3.7803
3.78054
3.78079
3.78105
3.78133
3.78161
3.7819
3.7822
3.78251
3.78283
3.78315
3.78349
3.78383
3.78418
3.78453
3.78488
3.78523
3.78557
3.7859
3.78621
3.78651
3.78679
3.78703
3.78725
3.78744
3.78759
3.78771
3.78779
3.78782
3.78782
3.78776
3.78767
3.78753
3.78734
3.7871
3.78682
3.78649
3.78611
3.78569
3.78522
3.7847
3.78414
3.78354
3.7829
3.78221
3.78149
3.78074
3.77995
3.77914
3.7783
3.77745
3.77658
3.77571
3.77483
3.77396
3.7731
3.77226
3.77144
3.77065
3.7699
3.76918
3.76851
3.76788
3.76729
3.76675
3.76625
3.76579
3.76536
3.76497
3.7646
3.76425
3.76392
3.7636
3.76329
3.76299
3.7627
3.76241
3.76213
3.76185
3.76157
3.76131
3.76105
3.7608
3.76057
3.76035
3.76014
3.75995
3.75978
3.75963
3.7595
3.75939
3.75929
3.75921
3.75915
3.75911
3.75909
3.75907
3.75907
3.75909
3.75911
3.75913
3.75916
3.75919
3.75921
3.75923
3.75925
3.75926
3.78102
3.78104
3.78108
3.78113
3.7812
3.78129
3.78139
3.78151
3.78165
3.78181
3.78198
3.78216
3.78236
3.78258
3.7828
3.78303
3.78328
3.78353
3.7838
3.78407
3.78435
3.78464
3.78494
3.78524
3.78555
3.78587
3.78619
3.78651
3.78682
3.78714
3.78744
3.78774
3.78802
3.78828
3.78852
3.78874
3.78893
3.78909
3.78922
3.78932
3.78938
3.7894
3.78938
3.78932
3.78921
3.78907
3.78888
3.78865
3.78837
3.78805
3.78769
3.78728
3.78683
3.78634
3.78581
3.78523
3.78462
3.78398
3.7833
3.78259
3.78185
3.78109
3.7803
3.7795
3.77869
3.77787
3.77706
3.77624
3.77544
3.77465
3.77388
3.77314
3.77242
3.77174
3.7711
3.77049
3.76992
3.76939
3.7689
3.76844
3.76801
3.76761
3.76723
3.76688
3.76654
3.76622
3.7659
3.7656
3.76531
3.76502
3.76474
3.76446
3.7642
3.76394
3.76369
3.76345
3.76322
3.76301
3.76281
3.76263
3.76246
3.76231
3.76218
3.76207
3.76197
3.76189
3.76182
3.76177
3.76174
3.76172
3.76171
3.76171
3.76171
3.76172
3.76174
3.76176
3.76177
3.76179
3.7618
3.7618
3.78339
3.7834
3.78344
3.78348
3.78355
3.78363
3.78373
3.78385
3.78398
3.78412
3.78428
3.78445
3.78464
3.78484
3.78505
3.78527
3.78549
3.78573
3.78598
3.78623
3.7865
3.78676
3.78704
3.78732
3.78761
3.7879
3.78819
3.78848
3.78877
3.78905
3.78932
3.78959
3.78984
3.79007
3.79028
3.79047
3.79064
3.79078
3.79088
3.79096
3.791
3.79101
3.79098
3.79091
3.7908
3.79065
3.79047
3.79024
3.78997
3.78966
3.78931
3.78892
3.78849
3.78802
3.78751
3.78696
3.78639
3.78577
3.78513
3.78446
3.78377
3.78305
3.78232
3.78157
3.78081
3.78004
3.77927
3.77851
3.77776
3.77702
3.77629
3.77559
3.77492
3.77427
3.77365
3.77307
3.77252
3.772
3.77151
3.77106
3.77063
3.77023
3.76985
3.76949
3.76915
3.76882
3.76851
3.7682
3.76791
3.76762
3.76735
3.76708
3.76681
3.76656
3.76632
3.76609
3.76587
3.76566
3.76547
3.76529
3.76513
3.76498
3.76485
3.76473
3.76463
3.76455
3.76448
3.76442
3.76438
3.76435
3.76433
3.76432
3.76431
3.76431
3.76432
3.76433
3.76434
3.76435
3.76435
3.76436
3.78573
3.78575
3.78578
3.78582
3.78589
3.78596
3.78606
3.78616
3.78628
3.78642
3.78657
3.78673
3.7869
3.78709
3.78728
3.78749
3.7877
3.78792
3.78815
3.78839
3.78863
3.78888
3.78914
3.7894
3.78966
3.78993
3.79019
3.79046
3.79072
3.79097
3.79122
3.79145
3.79167
3.79188
3.79207
3.79223
3.79237
3.79249
3.79258
3.79264
3.79266
3.79266
3.79262
3.79254
3.79243
3.79228
3.79209
3.79187
3.79161
3.79131
3.79097
3.79059
3.79018
3.78973
3.78925
3.78873
3.78818
3.7876
3.787
3.78636
3.78571
3.78503
3.78434
3.78364
3.78292
3.78221
3.78149
3.78077
3.78006
3.77936
3.77868
3.77802
3.77738
3.77676
3.77617
3.77561
3.77508
3.77457
3.7741
3.77365
3.77322
3.77282
3.77244
3.77208
3.77174
3.77141
3.7711
3.77079
3.7705
3.77022
3.76994
3.76968
3.76942
3.76917
3.76894
3.76871
3.7685
3.7683
3.76811
3.76793
3.76777
3.76763
3.76749
3.76738
3.76728
3.76719
3.76711
3.76705
3.767
3.76697
3.76694
3.76692
3.76691
3.7669
3.7669
3.7669
3.7669
3.76691
3.76691
3.76691
3.78806
3.78808
3.78811
3.78815
3.78821
3.78828
3.78836
3.78846
3.78858
3.7887
3.78884
3.78899
3.78915
3.78932
3.78951
3.7897
3.7899
3.7901
3.79032
3.79054
3.79076
3.791
3.79123
3.79147
3.79171
3.79195
3.7922
3.79244
3.79267
3.7929
3.79312
3.79333
3.79353
3.79371
3.79387
3.79401
3.79413
3.79423
3.7943
3.79434
3.79436
3.79434
3.79429
3.79421
3.79409
3.79394
3.79376
3.79354
3.79328
3.79299
3.79266
3.7923
3.79191
3.79148
3.79102
3.79053
3.79
3.78946
3.78888
3.78829
3.78767
3.78703
3.78638
3.78572
3.78505
3.78437
3.7837
3.78302
3.78236
3.7817
3.78105
3.78042
3.77982
3.77923
3.77866
3.77812
3.77761
3.77712
3.77665
3.77621
3.77579
3.7754
3.77502
3.77466
3.77432
3.77399
3.77368
3.77338
3.77308
3.7728
3.77253
3.77227
3.77202
3.77178
3.77155
3.77132
3.77112
3.77092
3.77073
3.77056
3.7704
3.77026
3.77013
3.77001
3.76991
3.76982
3.76974
3.76967
3.76962
3.76957
3.76954
3.76951
3.76949
3.76948
3.76947
3.76947
3.76947
3.76947
3.76946
3.76946
3.79038
3.79039
3.79042
3.79046
3.79051
3.79058
3.79066
3.79075
3.79086
3.79097
3.7911
3.79124
3.79139
3.79155
3.79172
3.7919
3.79208
3.79228
3.79248
3.79268
3.79289
3.7931
3.79332
3.79354
3.79376
3.79398
3.7942
3.79442
3.79463
3.79484
3.79503
3.79522
3.79539
3.79555
3.79569
3.79582
3.79592
3.796
3.79605
3.79608
3.79608
3.79606
3.796
3.79591
3.79579
3.79564
3.79546
3.79524
3.79499
3.79471
3.79439
3.79404
3.79367
3.79326
3.79282
3.79235
3.79186
3.79134
3.79079
3.79023
3.78965
3.78905
3.78843
3.78781
3.78718
3.78654
3.7859
3.78527
3.78464
3.78402
3.78341
3.78281
3.78223
3.78167
3.78113
3.78061
3.78011
3.77964
3.77918
3.77875
3.77834
3.77795
3.77758
3.77722
3.77688
3.77656
3.77624
3.77594
3.77566
3.77538
3.77511
3.77485
3.77461
3.77437
3.77414
3.77392
3.77372
3.77353
3.77335
3.77318
3.77302
3.77288
3.77275
3.77263
3.77252
3.77243
3.77235
3.77228
3.77222
3.77217
3.77213
3.7721
3.77208
3.77206
3.77204
3.77203
3.77203
3.77202
3.77202
3.77202
3.79268
3.79269
3.79272
3.79275
3.7928
3.79287
3.79294
3.79303
3.79313
3.79323
3.79335
3.79348
3.79362
3.79377
3.79393
3.79409
3.79427
3.79444
3.79463
3.79482
3.79501
3.79521
3.79541
3.79561
3.79581
3.79601
3.79621
3.79641
3.7966
3.79678
3.79696
3.79712
3.79727
3.79741
3.79754
3.79764
3.79772
3.79779
3.79783
3.79784
3.79784
3.7978
3.79774
3.79764
3.79752
3.79737
3.79719
3.79697
3.79673
3.79646
3.79615
3.79582
3.79546
3.79507
3.79465
3.7942
3.79373
3.79324
3.79273
3.79219
3.79164
3.79107
3.79049
3.78991
3.78931
3.78871
3.78811
3.78751
3.78691
3.78632
3.78575
3.78518
3.78463
3.78409
3.78357
3.78307
3.78259
3.78213
3.78169
3.78127
3.78087
3.78048
3.78012
3.77977
3.77943
3.77911
3.7788
3.7785
3.77822
3.77794
3.77768
3.77742
3.77718
3.77695
3.77673
3.77651
3.77631
3.77612
3.77595
3.77578
3.77563
3.77548
3.77535
3.77524
3.77513
3.77503
3.77495
3.77488
3.77482
3.77476
3.77472
3.77468
3.77465
3.77463
3.77461
3.7746
3.77459
3.77458
3.77457
3.77457
3.79497
3.79498
3.795
3.79504
3.79508
3.79514
3.79521
3.79529
3.79538
3.79548
3.7956
3.79572
3.79585
3.79598
3.79613
3.79628
3.79644
3.7966
3.79677
3.79695
3.79713
3.79731
3.79749
3.79768
3.79786
3.79804
3.79822
3.7984
3.79857
3.79874
3.79889
3.79904
3.79917
3.79929
3.7994
3.79948
3.79955
3.7996
3.79963
3.79963
3.79961
3.79957
3.7995
3.7994
3.79928
3.79913
3.79895
3.79874
3.7985
3.79824
3.79794
3.79762
3.79728
3.7969
3.7965
3.79608
3.79563
3.79516
3.79468
3.79417
3.79365
3.79311
3.79257
3.79201
3.79145
3.79088
3.79031
3.78974
3.78918
3.78862
3.78807
3.78753
3.78701
3.7865
3.786
3.78552
3.78506
3.78461
3.78418
3.78377
3.78338
3.783
3.78264
3.7823
3.78196
3.78165
3.78134
3.78105
3.78077
3.7805
3.78024
3.77999
3.77975
3.77952
3.7793
3.77909
3.77889
3.77871
3.77853
3.77837
3.77822
3.77808
3.77795
3.77783
3.77772
3.77763
3.77754
3.77747
3.7774
3.77734
3.77729
3.77725
3.77722
3.77719
3.77717
3.77715
3.77714
3.77713
3.77713
3.77712
3.79724
3.79725
3.79727
3.79731
3.79735
3.7974
3.79747
3.79754
3.79763
3.79772
3.79783
3.79794
3.79806
3.79819
3.79832
3.79846
3.79861
3.79876
3.79892
3.79908
3.79924
3.79941
3.79957
3.79974
3.79991
3.80008
3.80024
3.8004
3.80055
3.8007
3.80084
3.80096
3.80108
3.80118
3.80127
3.80134
3.8014
3.80144
3.80145
3.80145
3.80142
3.80137
3.80129
3.80119
3.80107
3.80092
3.80074
3.80053
3.8003
3.80005
3.79976
3.79945
3.79912
3.79876
3.79838
3.79798
3.79755
3.79711
3.79664
3.79616
3.79567
3.79516
3.79465
3.79412
3.79359
3.79305
3.79251
3.79197
3.79144
3.79091
3.79039
3.78988
3.78937
3.78888
3.78841
3.78795
3.7875
3.78707
3.78665
3.78625
3.78587
3.7855
3.78515
3.78481
3.78448
3.78417
3.78387
3.78358
3.7833
3.78304
3.78278
3.78254
3.7823
3.78208
3.78186
3.78166
3.78146
3.78128
3.78111
3.78095
3.7808
3.78066
3.78053
3.78041
3.7803
3.78021
3.78012
3.78004
3.77997
3.77991
3.77986
3.77982
3.77978
3.77975
3.77973
3.77971
3.77969
3.77968
3.77967
3.77967
3.79951
3.79952
3.79954
3.79957
3.79961
3.79966
3.79972
3.79979
3.79987
3.79995
3.80005
3.80015
3.80026
3.80038
3.8005
3.80063
3.80077
3.80091
3.80105
3.8012
3.80135
3.8015
3.80166
3.80181
3.80196
3.80211
3.80226
3.8024
3.80254
3.80267
3.80279
3.8029
3.803
3.80309
3.80316
3.80322
3.80326
3.80329
3.8033
3.80328
3.80325
3.80319
3.80311
3.80301
3.80288
3.80273
3.80255
3.80235
3.80213
3.80188
3.80161
3.80131
3.80099
3.80065
3.80028
3.7999
3.79949
3.79907
3.79863
3.79817
3.7977
3.79722
3.79673
3.79624
3.79573
3.79522
3.79471
3.7942
3.7937
3.79319
3.7927
3.79221
3.79173
3.79126
3.7908
3.79036
3.78993
3.78951
3.78911
3.78872
3.78835
3.78799
3.78764
3.78731
3.78699
3.78668
3.78639
3.7861
3.78583
3.78557
3.78532
3.78508
3.78485
3.78462
3.78441
3.78421
3.78402
3.78384
3.78367
3.78351
3.78337
3.78323
3.7831
3.78298
3.78287
3.78278
3.78269
3.78261
3.78254
3.78248
3.78242
3.78238
3.78234
3.78231
3.78228
3.78226
3.78224
3.78223
3.78222
3.78221
3.80176
3.80177
3.80179
3.80182
3.80185
3.8019
3.80196
3.80202
3.80209
3.80217
3.80226
3.80236
3.80246
3.80257
3.80268
3.8028
3.80293
3.80306
3.80319
3.80332
3.80346
3.8036
3.80374
3.80388
3.80401
3.80415
3.80428
3.80441
3.80453
3.80464
3.80475
3.80485
3.80493
3.80501
3.80507
3.80512
3.80515
3.80516
3.80516
3.80514
3.80509
3.80503
3.80495
3.80484
3.80472
3.80457
3.80439
3.8042
3.80398
3.80374
3.80347
3.80319
3.80288
3.80255
3.8022
3.80184
3.80145
3.80105
3.80063
3.8002
3.79975
3.79929
3.79883
3.79836
3.79788
3.7974
3.79691
3.79643
3.79595
3.79547
3.79499
3.79453
3.79407
3.79362
3.79318
3.79276
3.79234
3.79194
3.79155
3.79117
3.79081
3.79046
3.79012
3.7898
3.78949
3.78918
3.78889
3.78862
3.78835
3.78809
3.78784
3.78761
3.78738
3.78716
3.78696
3.78676
3.78657
3.78639
3.78623
3.78607
3.78592
3.78579
3.78566
3.78554
3.78543
3.78534
3.78525
3.78517
3.7851
3.78503
3.78498
3.78493
3.78489
3.78485
3.78482
3.7848
3.78478
3.78477
3.78476
3.78475
3.804
3.80401
3.80403
3.80406
3.80409
3.80413
3.80418
3.80424
3.80431
3.80439
3.80447
3.80456
3.80465
3.80475
3.80486
3.80497
3.80508
3.8052
3.80532
3.80544
3.80557
3.80569
3.80582
3.80595
3.80607
3.80619
3.80631
3.80642
3.80653
3.80663
3.80672
3.80681
3.80688
3.80694
3.80699
3.80703
3.80705
3.80705
3.80704
3.80701
3.80696
3.8069
3.80681
3.8067
3.80657
3.80643
3.80626
3.80606
3.80585
3.80562
3.80536
3.80509
3.80479
3.80448
3.80414
3.80379
3.80342
3.80304
3.80264
3.80223
3.80181
3.80137
3.80093
3.80048
3.80003
3.79957
3.79911
3.79865
3.79819
3.79774
3.79729
3.79684
3.7964
3.79597
3.79555
3.79514
3.79474
3.79435
3.79398
3.79361
3.79326
3.79292
3.79259
3.79227
3.79197
3.79167
3.79139
3.79112
3.79085
3.7906
3.79036
3.79013
3.7899
3.78969
3.78949
3.78929
3.78911
3.78893
3.78877
3.78862
3.78847
3.78833
3.78821
3.78809
3.78799
3.78789
3.7878
3.78772
3.78764
3.78758
3.78752
3.78747
3.78743
3.78739
3.78736
3.78734
3.78732
3.7873
3.78729
3.78729
3.80624
3.80625
3.80626
3.80629
3.80632
3.80636
3.80641
3.80646
3.80652
3.80659
3.80667
3.80675
3.80683
3.80693
3.80702
3.80712
3.80723
3.80734
3.80745
3.80756
3.80767
3.80779
3.8079
3.80802
3.80813
3.80824
3.80834
3.80844
3.80854
3.80862
3.8087
3.80877
3.80884
3.80889
3.80893
3.80895
3.80896
3.80896
3.80894
3.8089
3.80885
3.80878
3.80869
3.80858
3.80845
3.80831
3.80814
3.80795
3.80774
3.80752
3.80727
3.80701
3.80672
3.80642
3.8061
3.80576
3.80541
3.80505
3.80467
3.80428
3.80387
3.80346
3.80304
3.80261
3.80218
3.80175
3.80131
3.80087
3.80044
3.8
3.79957
3.79914
3.79873
3.79831
3.79791
3.79752
3.79713
3.79676
3.79639
3.79604
3.7957
3.79537
3.79505
3.79474