/*--------------------------------*- C++ -*----------------------------------*\
| =========                 |                                                 |
| \\      /  F ield         | OpenFOAM: The Open Source CFD Toolbox           |
|  \\    /   O peration     | Version:  2406                                  |
|   \\  /    A nd           | Website:  www.openfoam.com                      |
|    \\/     M anipulation  |                                                 |
\*---------------------------------------------------------------------------*/
FoamFile
{
    version     2.0;
    format      ascii;
    arch        "LSB;label=32;scalar=64";
    class       volScalarField;
    location    "8.45";
    object      C_0_0;
}
// * * * * * * * * * * * * * * * * * * * * * * * * * * * * * * * * * * * * * //

dimensions      [1 -3 0 0 0 0 0];

internalField   nonuniform List<scalar> 
14400
(
0.220618
0.219729
0.218163
0.216247
0.214323
0.212685
0.211556
0.211072
0.211287
0.212167
0.213588
0.215329
0.217076
0.218423
0.218922
0.218182
0.216058
0.212806
0.208901
0.204856
0.201138
0.198138
0.196187
0.195568
0.196543
0.199369
0.204307
0.211627
0.221607
0.234541
0.250732
0.270503
0.294183
0.322105
0.354564
0.391745
0.433483
0.478153
0.512693
0.535548
0.554252
0.570248
0.583764
0.594976
0.604016
0.610987
0.615967
0.619009
0.620149
0.619404
0.616775
0.612247
0.605787
0.597344
0.586845
0.574194
0.559264
0.541893
0.521868
0.496639
0.459673
0.414496
0.372748
0.335794
0.303655
0.276076
0.252721
0.233237
0.217279
0.204512
0.194611
0.187266
0.182185
0.179115
0.177852
0.17825
0.180213
0.183692
0.188672
0.195161
0.203174
0.212709
0.22371
0.236022
0.249292
0.262755
0.274415
0.280655
0.279654
0.273204
0.264353
0.255131
0.246332
0.238362
0.231443
0.225672
0.22106
0.217548
0.215027
0.213346
0.212331
0.211804
0.211607
0.211639
0.211875
0.212382
0.213304
0.214838
0.217203
0.220621
0.22529
0.23138
0.239013
0.248252
0.259081
0.271369
0.284804
0.298729
0.311665
0.31948
0.226559
0.225446
0.223529
0.221238
0.218979
0.217084
0.21579
0.215242
0.215495
0.216517
0.218182
0.220267
0.222436
0.224238
0.225115
0.2245
0.222092
0.218333
0.213874
0.209324
0.205188
0.201869
0.199692
0.198935
0.199851
0.20269
0.207704
0.215156
0.225321
0.238489
0.254964
0.275068
0.299135
0.327497
0.360447
0.398128
0.440176
0.484188
0.516779
0.538548
0.556959
0.572728
0.58607
0.597146
0.606084
0.612979
0.617905
0.620911
0.622033
0.621287
0.618674
0.614179
0.60777
0.599399
0.588997
0.576472
0.561706
0.544547
0.524796
0.50089
0.465525
0.42046
0.378395
0.340985
0.308379
0.28036
0.256604
0.236759
0.220476
0.20742
0.197269
0.189717
0.184477
0.1813
0.179985
0.180385
0.182408
0.186003
0.19116
0.19789
0.206213
0.21613
0.227596
0.240463
0.254401
0.268646
0.280749
0.2867
0.286404
0.279919
0.270591
0.260885
0.251659
0.243338
0.236144
0.230176
0.225444
0.221886
0.219385
0.217776
0.216867
0.21645
0.216338
0.216402
0.216609
0.217036
0.217857
0.219299
0.221608
0.225022
0.229755
0.23598
0.243825
0.253357
0.264566
0.277331
0.291351
0.305937
0.319069
0.325867
0.238954
0.237305
0.234602
0.231503
0.228547
0.226123
0.224494
0.223814
0.224141
0.225444
0.2276
0.230381
0.23343
0.236219
0.237993
0.237747
0.234611
0.229693
0.224046
0.218451
0.213469
0.209505
0.206874
0.205835
0.206627
0.209481
0.214636
0.222343
0.232869
0.246497
0.263531
0.284294
0.309123
0.338352
0.372268
0.410992
0.453902
0.49529
0.52395
0.544483
0.562308
0.577636
0.59064
0.601456
0.610195
0.616941
0.62176
0.624699
0.625786
0.625038
0.622456
0.618025
0.611716
0.603486
0.593271
0.580991
0.566542
0.549791
0.530571
0.508467
0.476536
0.432543
0.389825
0.351465
0.317915
0.289022
0.264472
0.24391
0.226986
0.213364
0.202723
0.194765
0.189212
0.185825
0.184407
0.184814
0.186956
0.190786
0.196299
0.203511
0.212448
0.223122
0.235493
0.249424
0.264582
0.280119
0.292617
0.298073
0.298646
0.293091
0.283104
0.272512
0.262466
0.25346
0.245734
0.239389
0.234433
0.2308
0.228359
0.226922
0.226254
0.22609
0.226172
0.22631
0.226444
0.226684
0.227268
0.228493
0.23066
0.234045
0.238882
0.245359
0.25361
0.263707
0.275644
0.289301
0.304365
0.320008
0.332681
0.33766
0.258801
0.256071
0.251957
0.247515
0.243448
0.240205
0.238062
0.237178
0.23761
0.239331
0.242221
0.246059
0.250484
0.25492
0.258402
0.259151
0.254374
0.247361
0.239772
0.232554
0.226286
0.221352
0.218035
0.216565
0.217154
0.220012
0.225358
0.233427
0.244475
0.258778
0.276635
0.29837
0.324317
0.354797
0.390049
0.43004
0.473541
0.509573
0.533619
0.553119
0.570153
0.584869
0.597397
0.607844
0.616298
0.622831
0.627497
0.630336
0.631374
0.630624
0.628086
0.623748
0.617584
0.609556
0.599611
0.58768
0.573678
0.557503
0.539035
0.518156
0.491054
0.451154
0.407199
0.367366
0.332421
0.302239
0.276516
0.254898
0.237032
0.222582
0.21123
0.202684
0.19668
0.192988
0.191422
0.191845
0.194169
0.198355
0.2044
0.21233
0.222177
0.233959
0.247645
0.263089
0.279886
0.296824
0.308814
0.313804
0.315086
0.311969
0.301961
0.290207
0.279007
0.269026
0.260541
0.253664
0.248408
0.244702
0.242402
0.241286
0.241058
0.241359
0.241806
0.242078
0.242066
0.241944
0.242082
0.2429
0.244785
0.24807
0.25302
0.259836
0.268657
0.279556
0.292518
0.307392
0.323741
0.340157
0.350342
0.35383
0.287482
0.282611
0.276193
0.269767
0.264143
0.259781
0.256944
0.255782
0.256349
0.258616
0.262469
0.267702
0.273976
0.280739
0.286948
0.289404
0.281853
0.271656
0.261352
0.251958
0.243994
0.237781
0.233551
0.231497
0.231798
0.234636
0.240211
0.248738
0.260457
0.275637
0.294569
0.317572
0.344971
0.377054
0.413929
0.455025
0.496476
0.525266
0.545918
0.564221
0.580315
0.594291
0.606235
0.616223
0.624322
0.630587
0.635061
0.637775
0.63875
0.637997
0.635516
0.631296
0.625316
0.617543
0.607936
0.59644
0.582989
0.567508
0.54991
0.530103
0.507175
0.473896
0.430037
0.388745
0.3521
0.320267
0.293017
0.270018
0.250925
0.235402
0.223137
0.213843
0.207269
0.203196
0.201451
0.201905
0.20448
0.20914
0.21589
0.22476
0.23579
0.249002
0.264368
0.281723
0.300513
0.318341
0.328303
0.333053
0.334924
0.333981
0.326707
0.314066
0.301552
0.290384
0.280959
0.273426
0.267822
0.264083
0.262054
0.26148
0.261992
0.263093
0.264194
0.26471
0.264415
0.263626
0.262984
0.263102
0.264495
0.267559
0.272591
0.279801
0.289327
0.301229
0.315459
0.331774
0.349402
0.364347
0.370747
0.373392
0.325504
0.31723
0.307595
0.298587
0.291006
0.285256
0.281558
0.28005
0.28078
0.283712
0.288725
0.295618
0.304029
0.313277
0.321365
0.322019
0.315757
0.302313
0.288873
0.27692
0.266936
0.259179
0.253831
0.251046
0.250971
0.253763
0.259597
0.26867
0.281206
0.297457
0.317703
0.342249
0.371403
0.405401
0.444161
0.48611
0.519301
0.541509
0.560509
0.57753
0.592595
0.605745
0.617028
0.626492
0.634181
0.640135
0.644384
0.646952
0.647854
0.647099
0.644685
0.640604
0.63484
0.627366
0.618151
0.607154
0.59433
0.579628
0.562996
0.544392
0.523795
0.497669
0.458563
0.415868
0.377258
0.343445
0.314332
0.289643
0.269048
0.252221
0.238854
0.228669
0.221423
0.21691
0.214969
0.215482
0.218379
0.223632
0.23125
0.241268
0.253727
0.268652
0.285991
0.305493
0.326194
0.342688
0.35045
0.355176
0.357536
0.357657
0.354596
0.34388
0.330296
0.31787
0.30739
0.299108
0.293133
0.289431
0.287852
0.28812
0.2898
0.292222
0.294502
0.295465
0.294631
0.292628
0.290688
0.289694
0.290306
0.292979
0.298032
0.305668
0.316006
0.329069
0.34472
0.362389
0.380036
0.389559
0.393546
0.395599
0.362775
0.357763
0.345693
0.334004
0.324262
0.316952
0.31226
0.310347
0.311273
0.314979
0.321297
0.330012
0.340556
0.351411
0.355511
0.353866
0.350436
0.33824
0.322198
0.307634
0.295447
0.285942
0.279298
0.275649
0.275119
0.277843
0.283971
0.293681
0.307178
0.324692
0.346476
0.3728
0.403917
0.439903
0.47993
0.516373
0.540575
0.559652
0.577077
0.592796
0.606791
0.619067
0.62964
0.638535
0.645776
0.651387
0.655388
0.657794
0.658616
0.657859
0.655522
0.651597
0.646072
0.63893
0.630147
0.619696
0.607549
0.593677
0.578056
0.560671
0.541532
0.520442
0.490577
0.448554
0.408182
0.372163
0.340886
0.314209
0.291847
0.273489
0.258838
0.247624
0.239615
0.234613
0.232469
0.233076
0.23637
0.242333
0.250975
0.262334
0.276449
0.293327
0.312859
0.334526
0.35597
0.368374
0.375019
0.379667
0.382387
0.383309
0.382654
0.377663
0.365024
0.351697
0.340191
0.331096
0.324749
0.321171
0.320245
0.321708
0.325114
0.329577
0.333996
0.335778
0.333938
0.329744
0.3258
0.323171
0.322662
0.324748
0.329745
0.33782
0.34904
0.36336
0.38046
0.398786
0.41035
0.415133
0.418254
0.41986
0.396181
0.395458
0.388897
0.375698
0.36396
0.355103
0.349319
0.346956
0.348117
0.3527
0.360358
0.370869
0.382712
0.388894
0.388597
0.38691
0.384336
0.377467
0.361117
0.344324
0.329892
0.318492
0.310402
0.305774
0.304723
0.307365
0.31383
0.324277
0.338887
0.357857
0.381383
0.409649
0.442757
0.480221
0.518028
0.543578
0.562151
0.579445
0.59535
0.609786
0.622707
0.63409
0.643931
0.652231
0.659
0.664249
0.667986
0.670221
0.670958
0.6702
0.667945
0.664189
0.658922
0.652134
0.64381
0.633934
0.622494
0.609477
0.594878
0.578706
0.560986
0.541762
0.519703
0.486785
0.445219
0.406832
0.373134
0.344202
0.319818
0.299706
0.283588
0.271209
0.262342
0.256804
0.254453
0.255189
0.25896
0.265749
0.275571
0.288457
0.304427
0.323446
0.345289
0.368856
0.386815
0.395378
0.401557
0.406085
0.409036
0.410537
0.410776
0.409967
0.404181
0.391661
0.379564
0.369633
0.362952
0.359586
0.359497
0.36245
0.368151
0.375174
0.382975
0.385771
0.382636
0.375033
0.368539
0.363776
0.361849
0.363153
0.36803
0.376535
0.388602
0.404003
0.421611
0.433298
0.438605
0.442058
0.444479
0.445726
0.429779
0.429598
0.428564
0.422118
0.40967
0.399778
0.392825
0.389985
0.391421
0.396992
0.405631
0.417011
0.423177
0.423684
0.422506
0.420836
0.418557
0.415467
0.405276
0.387236
0.370658
0.357266
0.347611
0.341913
0.340294
0.342856
0.349713
0.361003
0.376884
0.397501
0.422933
0.453157
0.487931
0.524929
0.550547
0.568286
0.584982
0.600627
0.615093
0.628292
0.64016
0.650657
0.659761
0.667459
0.673746
0.678622
0.682087
0.684145
0.684795
0.684037
0.681871
0.678291
0.673294
0.666874
0.659024
0.649738
0.639015
0.626856
0.613274
0.59829
0.581943
0.56429
0.54541
0.522138
0.487345
0.447565
0.411482
0.38013
0.353505
0.331422
0.313652
0.299961
0.290139
0.284012
0.281445
0.282347
0.286672
0.294407
0.305562
0.320152
0.338142
0.359354
0.383091
0.405441
0.417075
0.424081
0.429746
0.434079
0.437136
0.439028
0.439915
0.440011
0.43948
0.434493
0.424877
0.414473
0.407713
0.404635
0.405477
0.409815
0.417818
0.425022
0.428737
0.429909
0.428968
0.425371
0.41796
0.411144
0.407799
0.408169
0.412916
0.421767
0.434204
0.449338
0.459319
0.464155
0.467377
0.470014
0.471876
0.472839
0.463557
0.463536
0.463566
0.463063
0.458362
0.450194
0.442223
0.439067
0.440698
0.447205
0.454909
0.459189
0.459331
0.458171
0.456906
0.455373
0.453472
0.451159
0.447317
0.435595
0.417908
0.402618
0.391364
0.384555
0.382354
0.384857
0.392171
0.404403
0.421695
0.444118
0.471481
0.503095
0.537373
0.56156
0.578138
0.593866
0.608865
0.622986
0.636105
0.648128
0.658983
0.668617
0.676997
0.684097
0.689903
0.694405
0.697597
0.699476
0.700039
0.699283
0.697208
0.693811
0.68909
0.683044
0.675673
0.66698
0.656971
0.645661
0.633071
0.619236
0.604205
0.588045
0.570845
0.55272
0.528926
0.493691
0.456167
0.422485
0.393478
0.369223
0.349619
0.334467
0.323584
0.316808
0.314011
0.315111
0.320065
0.328862
0.341498
0.357961
0.378093
0.40137
0.425759
0.44048
0.44789
0.45412
0.45927
0.463348
0.466402
0.468523
0.469847
0.470551
0.470863
0.471033
0.468302
0.46334
0.45776
0.455027
0.456731
0.460842
0.464373
0.466309
0.465975
0.465959
0.466814
0.467703
0.466096
0.46292
0.459282
0.458674
0.463349
0.472072
0.481294
0.488283
0.49165
0.494296
0.496733
0.498745
0.500174
0.500915
0.497356
0.497424
0.497613
0.498038
0.498691
0.496781
0.493956
0.492113
0.492883
0.494948
0.496433
0.495293
0.493946
0.492762
0.491576
0.490275
0.488799
0.487138
0.485341
0.481383
0.470559
0.454512
0.441919
0.434095
0.431365
0.433855
0.441691
0.454908
0.473639
0.497849
0.526401
0.555436
0.576796
0.591695
0.606141
0.620175
0.633625
0.646345
0.658214
0.669133
0.679025
0.687833
0.695512
0.70203
0.707364
0.711498
0.71442
0.716123
0.7166
0.71585
0.713868
0.710655
0.706211
0.700539
0.693644
0.685536
0.676229
0.665744
0.654113
0.641378
0.627596
0.61284
0.597202
0.580796
0.563747
0.540493
0.50666
0.471592
0.440268
0.413693
0.392104
0.375346
0.363296
0.355808
0.35276
0.354078
0.359725
0.369686
0.383913
0.402362
0.424584
0.448908
0.465475
0.473441
0.479759
0.48524
0.489865
0.49364
0.4966
0.498817
0.500397
0.501482
0.502248
0.502906
0.503706
0.503728
0.502351
0.501392
0.501681
0.502322
0.501647
0.500703
0.500368
0.500565
0.501372
0.50275
0.504837
0.506174
0.506575
0.507883
0.51108
0.51533
0.51888
0.520641
0.522622
0.524646
0.526513
0.528059
0.52916
0.529732
0.531087
0.531189
0.531427
0.531862
0.532578
0.533683
0.534572
0.534424
0.534058
0.532785
0.531003
0.529583
0.528399
0.527355
0.52636
0.525354
0.524312
0.523252
0.522245
0.521425
0.518788
0.51117
0.498757
0.49055
0.48751
0.490048
0.498483
0.512515
0.532124
0.556968
0.57877
0.595957
0.608819
0.621739
0.634554
0.647068
0.659116
0.670557
0.681272
0.691163
0.700153
0.708177
0.715188
0.721146
0.726025
0.729802
0.732462
0.733994
0.734391
0.733647
0.73176
0.72873
0.72456
0.719257
0.712829
0.705292
0.696664
0.686974
0.67626
0.664568
0.651961
0.638516
0.624326
0.609505
0.594181
0.578489
0.557025
0.526711
0.49412
0.465268
0.441691
0.423206
0.409902
0.401647
0.398321
0.399858
0.406231
0.41742
0.433193
0.453486
0.476522
0.492927
0.501177
0.507097
0.512465
0.517216
0.521312
0.524747
0.527542
0.529747
0.531443
0.532732
0.533739
0.534599
0.535433
0.536272
0.537092
0.537316
0.53667
0.535644
0.534838
0.534332
0.53423
0.534561
0.535361
0.53664
0.538425
0.540686
0.543403
0.545919
0.547778
0.549091
0.55043
0.55194
0.553553
0.555153
0.556614
0.557819
0.558676
0.55912
0.564717
0.56482
0.565042
0.565405
0.565925
0.566567
0.567128
0.56733
0.566784
0.565807
0.564679
0.563635
0.562714
0.561897
0.561155
0.560469
0.559842
0.559313
0.558964
0.558928
0.559406
0.559392
0.556302
0.552136
0.549535
0.55221
0.561289
0.575264
0.591333
0.606244
0.618415
0.629229
0.640472
0.651888
0.663267
0.674428
0.685215
0.695494
0.705153
0.714097
0.722246
0.729535
0.735915
0.741343
0.745787
0.749223
0.751633
0.753002
0.753322
0.752586
0.750793
0.747944
0.744043
0.739099
0.733124
0.726137
0.718161
0.709229
0.699383
0.688673
0.677165
0.664937
0.652082
0.638714
0.62496
0.61097
0.596909
0.57856
0.55366
0.52373
0.49877
0.478497
0.463949
0.454911
0.45127
0.452987
0.460028
0.472439
0.489165
0.509967
0.524057
0.531416
0.53647
0.541304
0.54579
0.549845
0.55342
0.556494
0.559072
0.561188
0.562894
0.564263
0.565377
0.56632
0.567152
0.567885
0.56846
0.568688
0.568498
0.56809
0.567731
0.567556
0.567658
0.568087
0.568872
0.570024
0.571535
0.573358
0.575386
0.577344
0.579017
0.580433
0.581776
0.583134
0.584496
0.585801
0.58697
0.587926
0.588603
0.588954
0.598243
0.598332
0.598515
0.598792
0.599149
0.599532
0.599823
0.599873
0.59956
0.598978
0.59827
0.597565
0.596924
0.596365
0.595896
0.595523
0.595273
0.595194
0.595369
0.595917
0.597007
0.59886
0.601693
0.603337
0.605328
0.609714
0.617013
0.626146
0.635399
0.643541
0.652464
0.662011
0.671951
0.682075
0.692199
0.702161
0.71182
0.721052
0.72975
0.737824
0.745197
0.751804
0.757594
0.762523
0.766558
0.769671
0.771844
0.773059
0.773308
0.772583
0.770884
0.768211
0.76457
0.759972
0.754432
0.74797
0.740615
0.732399
0.723369
0.713577
0.703089
0.691983
0.680354
0.668308
0.655974
0.643498
0.631053
0.618847
0.604688
0.58586
0.56266
0.540945
0.525604
0.515878
0.511877
0.513654
0.52094
0.534184
0.549049
0.559134
0.564253
0.568055
0.571984
0.575858
0.579545
0.582956
0.586029
0.588735
0.591066
0.593038
0.594684
0.596049
0.597188
0.59815
0.598971
0.599656
0.600177
0.600474
0.600545
0.600487
0.600438
0.600504
0.600761
0.601256
0.602016
0.603047
0.604333
0.605826
0.607439
0.609035
0.610508
0.611848
0.613108
0.614325
0.615495
0.616583
0.61754
0.618313
0.618857
0.619138
0.631679
0.631752
0.631895
0.6321
0.632346
0.632588
0.632758
0.632779
0.632606
0.632274
0.631858
0.631432
0.63105
0.630745
0.630538
0.630456
0.630533
0.630823
0.631399
0.632364
0.633844
0.635987
0.638936
0.642784
0.647495
0.652604
0.658015
0.663881
0.670506
0.677876
0.685888
0.6944
0.703246
0.712261
0.721292
0.730198
0.738853
0.747143
0.754972
0.762253
0.768914
0.774891
0.780133
0.784598
0.788249
0.791061
0.793011
0.794083
0.794267
0.793555
0.791947
0.789444
0.786054
0.781787
0.776661
0.770698
0.763927
0.756385
0.748117
0.739176
0.72963
0.719554
0.70904
0.698192
0.68713
0.675996
0.664951
0.654186
0.643927
0.633882
0.621071
0.606883
0.593166
0.583144
0.578734
0.580299
0.585916
0.592239
0.597413
0.599513
0.601816
0.604568
0.607552
0.610597
0.613579
0.616403
0.619006
0.62135
0.623419
0.625215
0.626753
0.628063
0.629175
0.630122
0.630925
0.631593
0.632117
0.632487
0.63272
0.632874
0.63303
0.633261
0.633624
0.63416
0.63489
0.635816
0.636924
0.638175
0.639508
0.640848
0.642133
0.643342
0.644483
0.645564
0.646576
0.647497
0.648293
0.64893
0.649374
0.649602
0.665043
0.6651
0.665212
0.665367
0.665546
0.665718
0.665842
0.665879
0.665811
0.665656
0.665454
0.665255
0.665101
0.665024
0.665057
0.665229
0.665581
0.666164
0.667042
0.668297
0.67002
0.672308
0.675244
0.678863
0.68312
0.687857
0.693012
0.698636
0.704821
0.711568
0.718813
0.726455
0.734371
0.742432
0.750511
0.758487
0.766249
0.773697
0.780741
0.787303
0.793313
0.798712
0.80345
0.807485
0.810781
0.813312
0.815056
0.815996
0.816121
0.815424
0.813905
0.811566
0.808414
0.804461
0.799726
0.794233
0.78801
0.781096
0.773536
0.765383
0.7567
0.747564
0.73806
0.728288
0.718359
0.708405
0.69857
0.689021
0.679943
0.67154
0.664087
0.656865
0.648941
0.642185
0.637995
0.636672
0.637043
0.636947
0.636711
0.637476
0.638929
0.64085
0.643057
0.645402
0.647769
0.65007
0.652242
0.654241
0.656046
0.657648
0.659052
0.660272
0.661328
0.662237
0.663015
0.663672
0.664211
0.664638
0.664975
0.66526
0.665547
0.665884
0.666316
0.666871
0.667566
0.668404
0.669372
0.670441
0.671571
0.672715
0.673833
0.674904
0.675918
0.67687
0.677749
0.678536
0.679207
0.679738
0.680106
0.680295
0.698348
0.698396
0.698486
0.69861
0.698753
0.698895
0.699012
0.699084
0.699104
0.699083
0.699049
0.699034
0.699072
0.699195
0.699434
0.699823
0.700399
0.701209
0.702309
0.70376
0.70563
0.707983
0.710868
0.714303
0.718263
0.722687
0.727541
0.73283
0.738574
0.744761
0.751341
0.758236
0.765352
0.772586
0.779832
0.786988
0.793959
0.800654
0.806994
0.812905
0.818324
0.823195
0.82747
0.831109
0.834079
0.836351
0.837904
0.838723
0.838796
0.838116
0.836683
0.8345
0.831574
0.827918
0.823551
0.818497
0.812786
0.806454
0.799547
0.792117
0.784225
0.775942
0.76735
0.758539
0.749615
0.740693
0.731902
0.723382
0.715286
0.707766
0.700973
0.69496
0.689907
0.685641
0.681981
0.678874
0.676483
0.675095
0.674538
0.674752
0.675574
0.676846
0.678424
0.680184
0.682026
0.683867
0.685649
0.687327
0.688875
0.690279
0.691535
0.692647
0.693626
0.694483
0.695227
0.695869
0.696416
0.696879
0.69728
0.697645
0.698012
0.698414
0.698884
0.699442
0.700101
0.700862
0.701717
0.702646
0.703619
0.704608
0.705582
0.706523
0.707416
0.70825
0.709013
0.70969
0.710261
0.710709
0.711018
0.711176
0.731607
0.731648
0.731725
0.731834
0.731962
0.732097
0.732227
0.73234
0.732436
0.732525
0.732625
0.73276
0.73296
0.733251
0.733663
0.734228
0.734983
0.735966
0.737223
0.738804
0.740756
0.743125
0.745941
0.749218
0.752942
0.757088
0.761634
0.766569
0.771885
0.777561
0.783552
0.789796
0.796215
0.802727
0.809243
0.815676
0.821944
0.827967
0.833674
0.838998
0.843882
0.848273
0.852127
0.855404
0.858073
0.860108
0.861488
0.862196
0.862223
0.861562
0.860212
0.858176
0.855463
0.852086
0.848063
0.843418
0.838181
0.832388
0.826082
0.819314
0.812141
0.80463
0.796857
0.788905
0.780869
0.772851
0.764962
0.757322
0.75005
0.743267
0.737076
0.731547
0.726741
0.722611
0.719094
0.716176
0.713921
0.712409
0.711597
0.711417
0.711769
0.712537
0.713609
0.714886
0.716281
0.717724
0.719159
0.720544
0.721849
0.723058
0.724161
0.725156
0.726047
0.72684
0.727542
0.72816
0.728704
0.729184
0.729619
0.73003
0.730441
0.730878
0.731363
0.731911
0.732532
0.733228
0.73399
0.734805
0.735654
0.736514
0.737365
0.738189
0.738972
0.739702
0.740365
0.740948
0.741438
0.74182
0.742082
0.742215
0.764825
0.764862
0.764935
0.765037
0.765164
0.765306
0.765458
0.765614
0.765777
0.765956
0.766164
0.766423
0.766755
0.767184
0.767738
0.768445
0.769337
0.770448
0.771815
0.773476
0.775467
0.77782
0.780556
0.783684
0.787201
0.79109
0.795337
0.799925
0.804838
0.810047
0.815512
0.821179
0.826987
0.832864
0.838736
0.84453
0.850173
0.855597
0.860736
0.865533
0.869933
0.873889
0.877359
0.880307
0.882703
0.884521
0.885742
0.886351
0.886338
0.885696
0.884426
0.88253
0.880017
0.8769
0.873197
0.868931
0.864132
0.858835
0.85308
0.846914
0.840394
0.83358
0.826542
0.819355
0.812104
0.804879
0.797775
0.790891
0.784327
0.778176
0.772518
0.767412
0.762896
0.758967
0.755608
0.752817
0.750616
0.749025
0.748021
0.747553
0.747548
0.747922
0.748589
0.749469
0.75049
0.75159
0.752719
0.753839
0.75492
0.755942
0.756894
0.757769
0.758567
0.759289
0.75994
0.760526
0.761054
0.761536
0.761983
0.762413
0.762844
0.763294
0.763778
0.764308
0.76489
0.765526
0.766209
0.766931
0.767676
0.76843
0.769174
0.769896
0.770582
0.771219
0.771796
0.772301
0.772723
0.77305
0.773274
0.773388
0.798005
0.798042
0.798114
0.798217
0.79835
0.798506
0.798683
0.798881
0.799102
0.799356
0.799654
0.800013
0.800452
0.800993
0.80166
0.802477
0.803473
0.804675
0.806113
0.807818
0.809816
0.812131
0.814777
0.817763
0.821086
0.824735
0.828698
0.832958
0.837493
0.842276
0.847268
0.852424
0.857689
0.863005
0.868308
0.873535
0.878622
0.88351
0.888142
0.892464
0.896428
0.89999
0.903113
0.905762
0.907909
0.909531
0.910609
0.911129
0.911081
0.91046
0.909265
0.9075
0.905174
0.902299
0.898893
0.894978
0.890582
0.885739
0.880487
0.874871
0.868941
0.862755
0.856375
0.849869
0.843313
0.836785
0.830367
0.824142
0.818192
0.812591
0.807407
0.802687
0.798466
0.794754
0.791553
0.788866
0.7867
0.785055
0.78391
0.783225
0.782948
0.783014
0.783356
0.783911
0.784618
0.785426
0.786289
0.787173
0.788049
0.788897
0.789703
0.790459
0.791162
0.791809
0.792404
0.792949
0.793452
0.79392
0.794364
0.794796
0.795229
0.795675
0.796147
0.796652
0.797195
0.797776
0.798391
0.799033
0.799691
0.800353
0.801007
0.80164
0.80224
0.802797
0.803299
0.803738
0.804102
0.804384
0.804576
0.804674
0.831149
0.831187
0.83126
0.831369
0.831511
0.831685
0.831888
0.832124
0.832396
0.832712
0.833083
0.833522
0.834048
0.834677
0.835431
0.836332
0.837402
0.838665
0.840145
0.841866
0.843849
0.846109
0.84866
0.851505
0.854643
0.858067
0.861763
0.865715
0.869901
0.874295
0.878861
0.883559
0.888342
0.893159
0.897956
0.902678
0.907271
0.911681
0.915857
0.919753
0.923324
0.926532
0.92934
0.931718
0.933641
0.935085
0.936034
0.936474
0.936397
0.935797
0.934674
0.933033
0.930881
0.92823
0.925097
0.921505
0.91748
0.913052
0.908258
0.90314
0.897745
0.892123
0.886333
0.880435
0.874495
0.868582
0.862766
0.857118
0.851705
0.846591
0.84183
0.837465
0.833525
0.830029
0.826984
0.824396
0.822264
0.820584
0.819337
0.818491
0.818004
0.817829
0.817912
0.818201
0.818647
0.819206
0.819839
0.820514
0.821206
0.821893
0.822563
0.823204
0.823811
0.824382
0.824916
0.825416
0.825885
0.826329
0.826757
0.827178
0.827599
0.828032
0.828483
0.828958
0.829461
0.829991
0.830546
0.831119
0.831702
0.832286
0.832861
0.833416
0.833942
0.834428
0.834867
0.835248
0.835564
0.835808
0.835974
0.836058
0.864255
0.864294
0.864372
0.864488
0.864642
0.864833
0.865061
0.86533
0.865645
0.866012
0.866442
0.866946
0.867539
0.868236
0.869056
0.870016
0.871137
0.872437
0.873937
0.875653
0.877603
0.879798
0.882247
0.884954
0.887916
0.891126
0.894572
0.898238
0.902103
0.906141
0.910322
0.914608
0.91896
0.923332
0.927679
0.931951
0.936102
0.940084
0.943853
0.947366
0.950584
0.953472
0.955997
0.958131
0.959851
0.961135
0.961968
0.962337
0.962235
0.961657
0.960602
0.959076
0.957085
0.954642
0.951762
0.948466
0.944779
0.940731
0.936354
0.931688
0.926774
0.921661
0.916398
0.911042
0.90565
0.900281
0.894997
0.889858
0.884921
0.880239
0.875858
0.871817
0.868142
0.864852
0.861959
0.859468
0.857377
0.855681
0.854362
0.853396
0.85275
0.852386
0.852261
0.852333
0.852563
0.852912
0.853347
0.85384
0.854366
0.854908
0.85545
0.855983
0.856498
0.856992
0.857463
0.857912
0.858341
0.858755
0.859158
0.859558
0.859959
0.86037
0.860795
0.861238
0.8617
0.862183
0.862682
0.863194
0.863712
0.864228
0.864734
0.865222
0.865683
0.866108
0.866491
0.866823
0.867097
0.867309
0.867453
0.867526
0.897322
0.897363
0.897446
0.89757
0.897735
0.897943
0.898194
0.898492
0.898842
0.899251
0.899727
0.900281
0.900925
0.901673
0.90254
0.903541
0.904693
0.906011
0.907511
0.909207
0.911111
0.913233
0.915578
0.918148
0.920941
0.923949
0.927161
0.930561
0.934131
0.937845
0.941676
0.945592
0.949557
0.953532
0.957475
0.961346
0.965102
0.968701
0.972104
0.975274
0.978175
0.980775
0.983045
0.984959
0.986495
0.987636
0.988365
0.988672
0.988549
0.987993
0.987003
0.985584
0.983742
0.98149
0.978842
0.975818
0.972441
0.968738
0.96474
0.960482
0.956003
0.951347
0.946558
0.941686
0.936781
0.931896
0.927084
0.922395
0.917881
0.913585
0.909547
0.905802
0.902373
0.899279
0.896533
0.894138
0.892096
0.890399
0.889035
0.887982
0.887215
0.886703
0.886412
0.886309
0.886359
0.886531
0.886797
0.887131
0.887512
0.887923
0.888348
0.888778
0.889205
0.889624
0.890032
0.890428
0.890814
0.891191
0.891564
0.891935
0.892311
0.892694
0.893088
0.893496
0.89392
0.894357
0.894806
0.895263
0.895723
0.89618
0.896626
0.897055
0.897459
0.897832
0.898166
0.898455
0.898694
0.898878
0.899003
0.899066
0.930348
0.930391
0.930479
0.93061
0.930786
0.931008
0.931279
0.931602
0.93198
0.932422
0.932934
0.933526
0.934208
0.934992
0.93589
0.936916
0.938082
0.939402
0.940888
0.942552
0.944401
0.946444
0.948684
0.95112
0.953751
0.956568
0.959561
0.962716
0.966013
0.969432
0.972947
0.976528
0.980145
0.983763
0.987345
0.990856
0.994257
0.997514
1.00059
1.00345
1.00607
1.00841
1.01045
1.01216
1.01354
1.01455
1.01518
1.01544
1.0153
1.01476
1.01383
1.01251
1.01081
1.00873
1.0063
1.00352
1.00043
0.997039
0.993385
0.989497
0.985411
0.981165
0.976801
0.972362
0.967892
0.963438
0.959046
0.95476
0.950622
0.946672
0.942945
0.93947
0.936269
0.93336
0.930754
0.928457
0.926469
0.924786
0.923396
0.922282
0.921425
0.920799
0.920376
0.920131
0.920033
0.920057
0.920179
0.920376
0.920629
0.920922
0.921241
0.921577
0.92192
0.922267
0.922612
0.922955
0.923295
0.923632
0.92397
0.924309
0.924654
0.925006
0.925368
0.925741
0.926125
0.926519
0.926922
0.92733
0.927738
0.928142
0.928535
0.928912
0.929267
0.929593
0.929885
0.930138
0.930346
0.930506
0.930615
0.93067
0.96333
0.963375
0.963467
0.963605
0.963791
0.964026
0.964313
0.964655
0.965056
0.965523
0.966062
0.96668
0.967389
0.968196
0.969112
0.970149
0.971318
0.972628
0.974089
0.975711
0.977499
0.979458
0.981592
0.983898
0.986374
0.989011
0.9918
0.994727
0.997774
1.00092
1.00415
1.00743
1.01073
1.01403
1.01729
1.02047
1.02356
1.02651
1.02929
1.03187
1.03423
1.03634
1.03818
1.03971
1.04094
1.04183
1.04239
1.04259
1.04244
1.04193
1.04105
1.03983
1.03825
1.03634
1.0341
1.03155
1.02871
1.02561
1.02226
1.01871
1.01498
1.0111
1.00712
1.00307
0.998988
0.994919
0.990902
0.986975
0.983175
0.979537
0.976091
0.972863
0.969872
0.967137
0.964666
0.962466
0.960539
0.958879
0.95748
0.956327
0.955403
0.95469
0.954164
0.953804
0.953585
0.953486
0.953486
0.953564
0.953706
0.953894
0.954118
0.954367
0.954633
0.954911
0.955195
0.955485
0.955778
0.956074
0.956374
0.956678
0.95699
0.957308
0.957636
0.957973
0.958319
0.958673
0.959033
0.959396
0.959758
0.960114
0.960461
0.960792
0.961103
0.961389
0.961644
0.961865
0.962047
0.962186
0.96228
0.962328
0.996266
0.996313
0.996409
0.996553
0.996747
0.996992
0.997291
0.997648
0.998067
0.998551
0.999109
0.999746
1.00047
1.00129
1.00221
1.00325
1.00441
1.0057
1.00713
1.0087
1.01042
1.0123
1.01433
1.01651
1.01883
1.0213
1.0239
1.02662
1.02943
1.03234
1.0353
1.03831
1.04133
1.04433
1.0473
1.0502
1.05299
1.05567
1.05818
1.06052
1.06265
1.06455
1.0662
1.06758
1.06867
1.06946
1.06994
1.0701
1.06994
1.06945
1.06863
1.06749
1.06603
1.06426
1.0622
1.05986
1.05726
1.05441
1.05135
1.0481
1.04469
1.04115
1.03751
1.0338
1.03007
1.02635
1.02267
1.01906
1.01557
1.01221
1.00902
1.00602
1.00322
1.00065
0.998307
0.996204
0.99434
0.992713
0.991317
0.990141
0.989171
0.988393
0.987787
0.987335
0.987018
0.986816
0.986713
0.986691
0.986735
0.986831
0.986969
0.98714
0.987334
0.987547
0.987774
0.988011
0.988258
0.988511
0.988773
0.989041
0.989317
0.989602
0.989895
0.990197
0.990506
0.990822
0.991141
0.991463
0.991783
0.992097
0.992402
0.992693
0.992965
0.993215
0.993438
0.993631
0.993789
0.993911
0.993993
0.994034
1.02915
1.0292
1.0293
1.02945
1.02965
1.0299
1.03021
1.03058
1.03101
1.03151
1.03208
1.03272
1.03346
1.03428
1.0352
1.03623
1.03738
1.03864
1.04003
1.04154
1.0432
1.04499
1.04691
1.04897
1.05116
1.05346
1.05588
1.0584
1.06101
1.06369
1.06641
1.06917
1.07193
1.07468
1.07738
1.08002
1.08256
1.08498
1.08726
1.08937
1.0913
1.09301
1.09449
1.09573
1.0967
1.0974
1.09782
1.09794
1.09777
1.0973
1.09653
1.09547
1.09412
1.09249
1.09059
1.08843
1.08604
1.08344
1.08063
1.07765
1.07453
1.07129
1.06796
1.06457
1.06115
1.05773
1.05436
1.05104
1.04782
1.04472
1.04176
1.03896
1.03635
1.03393
1.03171
1.0297
1.0279
1.02632
1.02493
1.02375
1.02275
1.02192
1.02126
1.02073
1.02033
1.02005
1.01986
1.01975
1.01971
1.01973
1.01979
1.01989
1.02002
1.02017
1.02034
1.02053
1.02073
1.02094
1.02116
1.0214
1.02164
1.02189
1.02215
1.02241
1.02269
1.02297
1.02325
1.02353
1.02381
1.02409
1.02436
1.02461
1.02485
1.02507
1.02526
1.02543
1.02557
1.02567
1.02575
1.02578
1.06199
1.06204
1.06214
1.0623
1.0625
1.06276
1.06308
1.06345
1.06389
1.06439
1.06497
1.06562
1.06635
1.06717
1.06809
1.0691
1.07022
1.07145
1.07279
1.07425
1.07583
1.07754
1.07936
1.0813
1.08335
1.08551
1.08777
1.09011
1.09252
1.09499
1.0975
1.10002
1.10255
1.10506
1.10753
1.10993
1.11224
1.11444
1.11651
1.11842
1.12016
1.1217
1.12303
1.12414
1.12501
1.12562
1.12598
1.12607
1.1259
1.12545
1.12473
1.12374
1.12248
1.12098
1.11923
1.11725
1.11505
1.11266
1.11008
1.10735
1.10449
1.10152
1.09846
1.09536
1.09222
1.08909
1.08598