/*--------------------------------*- C++ -*----------------------------------*\
| =========                 |                                                 |
| \\      /  F ield         | OpenFOAM: The Open Source CFD Toolbox           |
|  \\    /   O peration     | Version:  2406                                  |
|   \\  /    A nd           | Website:  www.openfoam.com                      |
|    \\/     M anipulation  |                                                 |
\*---------------------------------------------------------------------------*/
FoamFile
{
    version     2.0;
    format      ascii;
    arch        "LSB;label=32;scalar=64";
    class       volScalarField;
    location    "8.45";
    object      D;
}
// * * * * * * * * * * * * * * * * * * * * * * * * * * * * * * * * * * * * * //

dimensions      [0 2 -1 0 0 0 0];

internalField   nonuniform List<scalar> 
14400
(
7.3137e-05
7.30976e-05
7.30467e-05
7.30095e-05
7.29946e-05
7.2997e-05
7.30062e-05
7.30139e-05
7.30187e-05
7.30282e-05
7.30572e-05
7.31233e-05
7.32368e-05
7.33847e-05
7.35128e-05
7.35279e-05
7.33649e-05
7.30868e-05
7.27569e-05
7.23865e-05
7.19459e-05
7.13907e-05
7.0683e-05
6.98074e-05
6.87816e-05
6.76578e-05
6.65097e-05
6.54118e-05
6.44209e-05
6.35711e-05
6.28789e-05
6.23532e-05
6.20054e-05
6.18622e-05
6.19887e-05
6.25552e-05
6.41266e-05
6.99188e-05
0.000123886
0.00013824
0.00013824
0.00013824
0.00013824
0.00013824
0.00013824
0.00013824
0.00013824
0.00013824
0.00013824
0.00013824
0.00013824
0.00013824
0.00013824
0.00013824
0.00013824
0.00013824
0.00013824
0.00013824
0.00013824
0.000112885
6.94473e-05
6.43156e-05
6.29999e-05
6.26412e-05
6.27385e-05
6.31526e-05
6.38447e-05
6.48148e-05
6.6074e-05
6.76199e-05
6.94048e-05
7.13118e-05
7.31646e-05
7.47786e-05
7.60142e-05
7.67984e-05
7.71161e-05
7.6995e-05
7.64972e-05
7.57178e-05
7.47856e-05
7.38584e-05
7.31211e-05
7.28123e-05
7.33696e-05
7.62264e-05
9.0007e-05
0.000137658
0.000100208
7.60966e-05
7.15677e-05
7.01126e-05
6.96042e-05
6.95428e-05
6.97355e-05
7.00798e-05
7.05073e-05
7.09659e-05
7.14132e-05
7.18139e-05
7.2138e-05
7.23584e-05
7.24507e-05
7.23963e-05
7.21881e-05
7.18343e-05
7.1355e-05
7.07774e-05
7.01338e-05
6.94605e-05
6.87978e-05
6.81891e-05
6.76812e-05
6.7328e-05
6.72017e-05
6.74246e-05
6.82661e-05
7.05442e-05
7.82658e-05
0.000133396
7.25551e-05
7.24492e-05
7.23053e-05
7.21787e-05
7.20907e-05
7.20406e-05
7.20187e-05
7.2017e-05
7.2034e-05
7.2077e-05
7.2162e-05
7.23095e-05
7.25343e-05
7.28245e-05
7.31045e-05
7.32037e-05
7.2952e-05
7.25347e-05
7.20881e-05
7.16397e-05
7.11582e-05
7.05954e-05
6.99114e-05
6.9089e-05
6.81422e-05
6.71149e-05
6.60694e-05
6.50689e-05
6.41631e-05
6.33838e-05
6.27492e-05
6.22718e-05
6.19678e-05
6.18714e-05
6.20622e-05
6.2749e-05
6.46335e-05
7.14609e-05
0.000132589
0.00013824
0.00013824
0.00013824
0.00013824
0.00013824
0.00013824
0.00013824
0.00013824
0.00013824
0.00013824
0.00013824
0.00013824
0.00013824
0.00013824
0.00013824
0.00013824
0.00013824
0.00013824
0.00013824
0.00013824
0.000122731
7.03111e-05
6.46009e-05
6.31147e-05
6.26709e-05
6.27089e-05
6.30687e-05
6.37001e-05
6.45945e-05
6.57562e-05
6.71796e-05
6.88223e-05
7.05836e-05
7.23085e-05
7.38274e-05
7.5004e-05
7.57598e-05
7.60734e-05
7.59694e-05
7.55103e-05
7.47932e-05
7.39465e-05
7.31242e-05
7.25056e-05
7.23315e-05
7.30881e-05
7.66554e-05
9.71216e-05
0.000138139
0.000112274
7.69293e-05
7.15365e-05
6.98617e-05
6.92266e-05
6.9064e-05
6.91654e-05
6.94257e-05
6.97789e-05
7.01773e-05
7.05828e-05
7.09621e-05
7.1284e-05
7.15157e-05
7.16236e-05
7.15797e-05
7.13732e-05
7.10192e-05
7.05483e-05
6.99962e-05
6.9398e-05
6.87882e-05
6.8202e-05
6.76766e-05
6.72543e-05
6.69872e-05
6.69519e-05
6.72899e-05
6.8349e-05
7.14162e-05
8.45517e-05
0.000137547
7.17034e-05
7.14385e-05
7.10989e-05
7.08028e-05
7.05868e-05
7.04485e-05
7.03753e-05
7.03569e-05
7.03908e-05
7.04851e-05
7.06593e-05
7.09434e-05
7.13705e-05
7.19527e-05
7.2604e-05
7.29666e-05
7.24163e-05
7.16494e-05
7.09567e-05
7.03607e-05
6.98066e-05
6.92324e-05
6.85917e-05
6.78624e-05
6.70499e-05
6.6184e-05
6.53087e-05
6.44704e-05
6.37082e-05
6.30507e-05
6.25181e-05
6.21286e-05
6.19074e-05
6.19029e-05
6.22289e-05
6.32185e-05
6.63913e-05
8.46735e-05
0.000138107
0.00013824
0.00013824
0.00013824
0.00013824
0.00013824
0.00013824
0.00013824
0.00013824
0.00013824
0.00013824
0.00013824
0.00013824
0.00013824
0.00013824
0.00013824
0.00013824
0.00013824
0.00013824
0.00013824
0.00013824
0.000135605
7.35793e-05
6.54628e-05
6.34086e-05
6.27526e-05
6.26655e-05
6.292e-05
6.34391e-05
6.41978e-05
6.51881e-05
6.63978e-05
6.77903e-05
6.92877e-05
7.0769e-05
7.20943e-05
7.31407e-05
7.38288e-05
7.41302e-05
7.40645e-05
7.36922e-05
7.31086e-05
7.24364e-05
7.18194e-05
7.14273e-05
7.15061e-05
7.26162e-05
7.73416e-05
0.000110963
0.000138237
0.000129565
7.87616e-05
7.1731e-05
6.95282e-05
6.86276e-05
6.82779e-05
6.82217e-05
6.83417e-05
6.85727e-05
6.88721e-05
6.92077e-05
6.95506e-05
6.98686e-05
7.01212e-05
7.0259e-05
7.02354e-05
7.00317e-05
6.96761e-05
6.92194e-05
6.87099e-05
6.81863e-05
6.7679e-05
6.7215e-05
6.68236e-05
6.6541e-05
6.64193e-05
6.65452e-05
6.70953e-05
6.85646e-05
7.33801e-05
0.000106227
0.000138235
7.11292e-05
7.05094e-05
6.98306e-05
6.92938e-05
6.89191e-05
6.86803e-05
6.85502e-05
6.85117e-05
6.85605e-05
6.87057e-05
6.8974e-05
6.94155e-05
7.01111e-05
7.11725e-05
7.26685e-05
7.40647e-05
7.23242e-05
7.0775e-05
6.96788e-05
6.88783e-05
6.82326e-05
6.76454e-05
6.70563e-05
6.6434e-05
6.57727e-05
6.50859e-05
6.43996e-05
6.37441e-05
6.31483e-05
6.26369e-05
6.22322e-05
6.19588e-05
6.18532e-05
6.19854e-05
6.25208e-05
6.39885e-05
6.92973e-05
0.000115804
0.00013824
0.00013824
0.00013824
0.00013824
0.00013824
0.00013824
0.00013824
0.00013824
0.00013824
0.00013824
0.00013824
0.00013824
0.00013824
0.00013824
0.00013824
0.00013824
0.00013824
0.00013824
0.00013824
0.00013824
0.00013824
0.000138231
9.81553e-05
6.80007e-05
6.40047e-05
6.29245e-05
6.26369e-05
6.27405e-05
6.31098e-05
6.36962e-05
6.44764e-05
6.54296e-05
6.65222e-05
6.76955e-05
6.8863e-05
6.99218e-05
7.07755e-05
7.13558e-05
7.16347e-05
7.1627e-05
7.13861e-05
7.09967e-05
7.05671e-05
7.02268e-05
7.01414e-05
7.05869e-05
7.22663e-05
7.84952e-05
0.000127534
0.00013824
0.000138157
9.44796e-05
7.33312e-05
6.94327e-05
6.80477e-05
6.74319e-05
6.71788e-05
6.71365e-05
6.72323e-05
6.74249e-05
6.76865e-05
6.79928e-05
6.83127e-05
6.85989e-05
6.87826e-05
6.87887e-05
6.85827e-05
6.82147e-05
6.77648e-05
6.7296e-05
6.68487e-05
6.64478e-05
6.61125e-05
6.58655e-05
6.57404e-05
6.57943e-05
6.61368e-05
6.70153e-05
6.91761e-05
7.63415e-05
0.000130678
0.00013824
7.18823e-05
7.01927e-05
6.88738e-05
6.80003e-05
6.74424e-05
6.70995e-05
6.69129e-05
6.68537e-05
6.69139e-05
6.71046e-05
6.74627e-05
6.80712e-05
6.91061e-05
7.09892e-05
7.49708e-05
8.44826e-05
7.37957e-05
7.02883e-05
6.85565e-05
6.74941e-05
6.67411e-05
6.61346e-05
6.55897e-05
6.50624e-05
6.4535e-05
6.40078e-05
6.34927e-05
6.30076e-05
6.25731e-05
6.22108e-05
6.1945e-05
6.18078e-05
6.18521e-05
6.21846e-05
6.30791e-05
6.55672e-05
7.65241e-05
0.000137383
0.00013824
0.00013824
0.00013824
0.00013824
0.00013824
0.00013824
0.00013824
0.00013824
0.00013824
0.00013824
0.00013824
0.00013824
0.00013824
0.00013824
0.00013824
0.00013824
0.00013824
0.00013824
0.00013824
0.00013824
0.00013824
0.00013824
0.000128583
7.14401e-05
6.49785e-05
6.32484e-05
6.267e-05
6.25773e-05
6.27699e-05
6.31678e-05
6.37305e-05
6.44283e-05
6.5228e-05
6.60842e-05
6.69371e-05
6.77177e-05
6.83605e-05
6.88172e-05
6.90679e-05
6.91245e-05
6.90298e-05
6.88524e-05
6.86837e-05
6.86423e-05
6.89089e-05
6.98686e-05
7.29058e-05
8.76458e-05
0.000137852
0.00013824
0.00013824
0.000128354
7.68456e-05
6.99382e-05
6.77495e-05
6.67593e-05
6.62723e-05
6.60605e-05
6.60285e-05
6.61279e-05
6.63313e-05
6.66186e-05
6.6963e-05
6.73121e-05
6.75737e-05
6.76239e-05
6.73947e-05
6.69774e-05
6.65022e-05
6.60477e-05
6.5654e-05
6.53386e-05
6.51139e-05
6.49991e-05
6.50302e-05
6.52796e-05
6.59124e-05
6.7396e-05
7.19772e-05
0.000102987
0.000138233
0.00013824
7.93743e-05
7.1448e-05
6.85709e-05
6.71532e-05
6.63569e-05
6.58927e-05
6.56431e-05
6.55604e-05
6.56323e-05
6.58719e-05
6.63305e-05
6.71434e-05
6.86686e-05
7.23238e-05
8.88552e-05
0.000135135
7.96455e-05
7.06705e-05
6.78336e-05
6.64068e-05
6.55152e-05
6.48714e-05
6.43503e-05
6.38909e-05
6.34647e-05
6.30619e-05
6.26849e-05
6.23433e-05
6.20524e-05
6.1832e-05
6.17098e-05
6.17292e-05
6.19724e-05
6.26286e-05
6.42888e-05
7.01491e-05
0.000122054
0.00013824
0.00013824
0.00013824
0.00013824
0.00013824
0.00013824
0.00013824
0.00013824
0.00013824
0.00013824
0.00013824
0.00013824
0.00013824
0.00013824
0.00013824
0.00013824
0.00013824
0.00013824
0.00013824
0.00013824
0.00013824
0.00013824
0.00013824
0.00013823
9.69026e-05
6.78468e-05
6.39592e-05
6.28533e-05
6.24921e-05
6.24795e-05
6.2682e-05
6.3037e-05
6.35049e-05
6.40516e-05
6.46403e-05
6.5229e-05
6.57735e-05
6.62338e-05
6.65812e-05
6.68052e-05
6.69173e-05
6.69513e-05
6.69628e-05
6.70323e-05
6.72794e-05
6.79228e-05
6.95429e-05
7.50094e-05
0.000117384
0.00013824
0.00013824
0.00013824
0.000138235
0.000105093
7.31319e-05
6.81913e-05
6.64873e-05
6.56746e-05
6.52696e-05
6.51148e-05
6.51389e-05
6.53091e-05
6.56113e-05
6.60303e-05
6.6514e-05
6.69435e-05
6.70803e-05
6.67663e-05
6.61978e-05
6.56234e-05
6.51297e-05
6.47504e-05
6.44896e-05
6.43523e-05
6.4357e-05
6.45497e-05
6.50351e-05
6.6095e-05
6.86763e-05
7.83872e-05
0.000136617
0.00013824
0.00013824
0.000133929
7.80769e-05
6.95595e-05
6.69813e-05
6.57895e-05
6.51457e-05
6.48057e-05
6.46902e-05
6.47801e-05
6.5092e-05
6.57014e-05
6.68528e-05
6.92955e-05
7.70123e-05
0.000133262
0.00013824
0.000116332
7.36628e-05
6.78103e-05
6.57416e-05
6.46385e-05
6.39215e-05
6.33942e-05
6.29711e-05
6.26117e-05
6.22984e-05
6.20268e-05
6.18019e-05
6.16365e-05
6.15514e-05
6.15816e-05
6.17914e-05
6.23253e-05
6.36083e-05
6.77036e-05
9.63265e-05
0.00013823
0.00013824
0.00013824
0.00013824
0.00013824
0.00013824
0.00013824
0.00013824
0.00013824
0.00013824
0.00013824
0.00013824
0.00013824
0.00013824
0.00013824
0.00013824
0.00013824
0.00013824
0.00013824
0.00013824
0.00013824
0.00013824
0.00013824
0.00013824
0.00013824
0.000134985
7.30044e-05
6.53461e-05
6.33271e-05
6.25686e-05
6.23019e-05
6.22965e-05
6.24546e-05
6.27227e-05
6.3063e-05
6.34427e-05
6.38309e-05
6.4199e-05
6.45234e-05
6.47892e-05
6.49937e-05
6.5149e-05
6.52845e-05
6.54508e-05
6.57295e-05
6.62642e-05
6.73723e-05
7.01009e-05
8.08726e-05
0.000137081
0.00013824
0.00013824
0.00013824
0.00013824
0.00013797
8.60937e-05
7.04065e-05
6.69576e-05
6.55665e-05
6.48816e-05
6.45857e-05
6.45452e-05
6.47117e-05
6.50852e-05
6.56917e-05
6.65052e-05
6.74407e-05
6.78526e-05
6.7215e-05
6.61395e-05
6.52879e-05
6.46494e-05
6.42261e-05
6.39854e-05
6.3919e-05
6.4049e-05
6.44506e-05
6.53126e-05
6.73318e-05
7.40873e-05
0.000128368
0.00013824
0.00013824
0.00013824
0.00013824
0.00012988
7.51872e-05
6.81233e-05
6.59748e-05
6.49753e-05
6.44642e-05
6.42893e-05
6.44158e-05
6.48695e-05
6.5781e-05
6.78221e-05
7.42922e-05
0.000122558
0.00013824
0.00013824
0.000137946
8.47477e-05
6.9084e-05
6.56425e-05
6.41674e-05
6.33097e-05
6.27343e-05
6.23133e-05
6.19896e-05
6.17365e-05
6.15448e-05
6.14172e-05
6.13675e-05
6.14225e-05
6.16336e-05
6.21074e-05
6.31358e-05
6.5899e-05
7.89355e-05
0.000137825
0.00013824
0.00013824
0.00013824
0.00013824
0.00013824
0.00013824
0.00013824
0.00013824
0.00013824
0.00013824
0.00013824
0.00013824
0.00013824
0.00013824
0.00013824
0.00013824
0.00013824
0.00013824
0.00013824
0.00013824
0.00013824
0.00013824
0.00013824
0.00013824
0.00013824
0.00013824
0.000120293
7.0315e-05
6.46009e-05
6.29742e-05
6.23204e-05
6.20656e-05
6.20243e-05
6.2113e-05
6.22837e-05
6.25025e-05
6.27435e-05
6.29863e-05
6.32168e-05
6.34281e-05
6.36228e-05
6.38149e-05
6.40339e-05
6.4334e-05
6.48141e-05
6.56859e-05
6.75574e-05
7.34274e-05
0.000119494
0.00013824
0.00013824
0.00013824
0.00013824
0.00013824
0.00013824
0.00013701
7.97866e-05
6.94168e-05
6.63919e-05
6.50993e-05
6.45819e-05
6.44706e-05
6.46751e-05
6.52364e-05
6.63744e-05
6.82548e-05
7.21005e-05
7.42127e-05
7.15328e-05
6.75733e-05
6.58648e-05
6.47889e-05
6.42113e-05
6.39433e-05
6.39469e-05
6.42558e-05
6.50491e-05
6.68153e-05
7.29603e-05
0.000119736
0.00013824
0.00013824
0.00013824
0.00013824
0.00013824
0.00013824
0.000126368
7.43246e-05
6.78341e-05
6.57955e-05
6.48261e-05
6.45082e-05
6.47278e-05
6.55657e-05
6.72766e-05
7.33075e-05
0.0001163
0.00013824
0.00013824
0.00013824
0.00013824
0.000130692
7.37156e-05
6.65479e-05
6.42408e-05
6.30854e-05
6.23902e-05
6.1928e-05
6.16093e-05
6.1393e-05
6.12641e-05
6.12258e-05
6.12991e-05
6.15277e-05
6.20072e-05
6.29554e-05
6.51549e-05
7.32706e-05
0.000135858
0.00013824
0.00013824
0.00013824
0.00013824
0.00013824
0.00013824
0.00013824
0.00013824
0.00013824
0.00013824
0.00013824
0.00013824
0.00013824
0.00013824
0.00013824
0.00013824
0.00013824
0.00013824
0.00013824
0.00013824
0.00013824
0.00013824
0.00013824
0.00013824
0.00013824
0.00013824
0.00013824
0.000138237
0.000101455
6.86846e-05
6.41086e-05
6.26795e-05
6.20609e-05
6.17859e-05
6.16961e-05
6.17173e-05
6.18063e-05
6.19362e-05
6.20894e-05
6.22563e-05
6.24346e-05
6.26307e-05
6.28619e-05
6.3163e-05
6.36017e-05
6.43186e-05
6.56865e-05
6.93204e-05
8.9285e-05
0.000138144
0.00013824
0.00013824
0.00013824
0.00013824
0.00013824
0.00013824
0.00013824
0.000136928
8.31773e-05
7.04469e-05
6.65874e-05
6.55522e-05
6.53144e-05
6.56572e-05
6.67542e-05
7.04141e-05
7.78243e-05
0.000119214
0.000133697
0.000114071
7.48228e-05
6.92447e-05
6.61691e-05
6.51178e-05
6.47023e-05
6.48216e-05
6.55307e-05
6.76121e-05
7.3304e-05
0.000120876
0.00013824
0.00013824
0.00013824
0.00013824
0.00013824
0.00013824
0.00013824
0.00013824
0.000130718
7.73703e-05
7.00121e-05
6.67459e-05
6.59247e-05
6.64717e-05
6.92521e-05
7.43426e-05
0.000122337
0.00013824
0.00013824
0.00013824
0.00013824
0.00013824
0.00013824
0.000116983
7.14646e-05
6.54096e-05
6.34181e-05
6.244e-05
6.18615e-05
6.15092e-05
6.13088e-05
6.12351e-05
6.12958e-05
6.15354e-05
6.20489e-05
6.31035e-05
6.54174e-05
7.28278e-05
0.000134101
0.00013824
0.00013824
0.00013824
0.00013824
0.00013824
0.00013824
0.00013824
0.00013824
0.00013824
0.00013824
0.00013824
0.00013824
0.00013824
0.00013824
0.00013824
0.00013824
0.00013824
0.00013824
0.00013824
0.00013824
0.00013824
0.00013824
0.00013824
0.00013824
0.00013824
0.00013824
0.00013824
0.00013824
0.00013824
0.000138192
8.91025e-05
6.75572e-05
6.37541e-05
6.24263e-05
6.18067e-05
6.1503e-05
6.13722e-05
6.13437e-05
6.13818e-05
6.14671e-05
6.15907e-05
6.17527e-05
6.19637e-05
6.22476e-05
6.26514e-05
6.32771e-05
6.43617e-05
6.66504e-05
7.42334e-05
0.000133826
0.00013824
0.00013824
0.00013824
0.00013824
0.00013824
0.00013824
0.00013824
0.00013824
0.00013824
0.000137891
0.000103071
7.30247e-05
7.00119e-05
6.91888e-05
7.03141e-05
7.35552e-05
0.000105486
0.000136915
0.00013824
0.00013824
0.00013824
0.000134585
9.53148e-05
7.22654e-05
6.91766e-05
6.78076e-05
6.84573e-05
7.09035e-05
8.20593e-05
0.000130861
0.00013824
0.00013824
0.00013824
0.00013824
0.00013824
0.00013824
0.00013824
0.00013824
0.00013824
0.00013824
0.000136925
0.000106082
7.54119e-05
7.18514e-05
7.39643e-05
9.88097e-05
0.000133819
0.00013824
0.00013824
0.00013824
0.00013824
0.00013824
0.00013824
0.00013824
0.000138239
0.000109267
7.05684e-05
6.49219e-05
6.31533e-05
6.22679e-05
6.18107e-05
6.16005e-05
6.15886e-05
6.17958e-05
6.23553e-05
6.35624e-05
6.68773e-05
7.69966e-05
0.000135472
0.00013824
0.00013824
0.00013824
0.00013824
0.00013824
0.00013824
0.00013824
0.00013824
0.00013824
0.00013824
0.00013824
0.00013824
0.00013824
0.00013824
0.00013824
0.00013824
0.00013824
0.00013824
0.00013824
0.00013824
0.00013824
0.00013824
0.00013824
0.00013824
0.00013824
0.00013824
0.00013824
0.00013824
0.00013824
0.00013824
0.00013824
0.000138075
8.42612e-05
6.71896e-05
6.35889e-05
6.22481e-05
6.16077e-05
6.12844e-05
6.11262e-05
6.10751e-05
6.11023e-05
6.11954e-05
6.13561e-05
6.16019e-05
6.19703e-05
6.25366e-05
6.35062e-05
6.54956e-05
7.17697e-05
0.000122429
0.00013824
0.00013824
0.00013824
0.00013824
0.00013824
0.00013824
0.00013824
0.00013824
0.00013824
0.00013824
0.00013824
0.000138236
0.000129953
0.000106339
9.61544e-05
0.00010995
0.000132618
0.000138238
0.00013824
0.00013824
0.00013824
0.00013824
0.00013824
0.00013822
0.000126914
9.99828e-05
8.4973e-05
9.26222e-05
0.000118327
0.00013792
0.00013824
0.00013824
0.00013824
0.00013824
0.00013824
0.00013824
0.00013824
0.00013824
0.00013824
0.00013824
0.00013824
0.00013824
0.000138238
0.000136243
0.000128637
0.000134847
0.00013823
0.00013824
0.00013824
0.00013824
0.00013824
0.00013824
0.00013824
0.00013824
0.00013824
0.00013824
0.000138239
0.000113829
7.11537e-05
6.57555e-05
6.36995e-05
6.29286e-05
6.26513e-05
6.27552e-05
6.3286e-05
6.49004e-05
6.92425e-05
9.39074e-05
0.000137656
0.00013824
0.00013824
0.00013824
0.00013824
0.00013824
0.00013824
0.00013824
0.00013824
0.00013824
0.00013824
0.00013824
0.00013824
0.00013824
0.00013824
0.00013824
0.00013824
0.00013824
0.00013824
0.00013824
0.00013824
0.00013824
0.00013824
0.00013824
0.00013824
0.00013824
0.00013824
0.00013824
0.00013824
0.00013824
0.00013824
0.00013824
0.00013824
0.00013824
0.000138051
8.65314e-05
6.76958e-05
6.36407e-05
6.22135e-05
6.15667e-05
6.1216e-05
6.10533e-05
6.10198e-05
6.10901e-05
6.12672e-05
6.15838e-05
6.21144e-05
6.29986e-05
6.48447e-05
7.06119e-05
0.000112734
0.00013824
0.00013824
0.00013824
0.00013824
0.00013824
0.00013824
0.00013824
0.00013824
0.00013824
0.00013824
0.00013824
0.00013824
0.00013824
0.00013824
0.000138238
0.00013822
0.000138239
0.00013824
0.00013824
0.00013824
0.00013824
0.00013824
0.00013824
0.00013824
0.00013824
0.00013824
0.000138232
0.000138045
0.000138202
0.00013824
0.00013824
0.00013824
0.00013824
0.00013824
0.00013824
0.00013824
0.00013824
0.00013824
0.00013824
0.00013824
0.00013824
0.00013824
0.00013824
0.00013824
0.00013824
0.00013824
0.00013824
0.00013824
0.00013824
0.00013824
0.00013824
0.00013824
0.00013824
0.00013824
0.00013824
0.00013824
0.00013824
0.00013824
0.00013824
0.000128351
8.00592e-05
6.92485e-05
6.70604e-05
6.63708e-05
6.70532e-05
6.88739e-05
7.77116e-05
0.000121623
0.000138227
0.00013824
0.00013824
0.00013824
0.00013824
0.00013824
0.00013824
0.00013824
0.00013824
0.00013824
0.00013824
0.00013824
0.00013824
0.00013824
0.00013824
0.00013824
0.00013824
0.00013824
0.00013824
0.00013824
0.00013824
0.00013824
0.00013824
0.00013824
0.00013824
0.00013824
0.00013824
0.00013824
0.00013824
0.00013824
0.00013824
0.00013824
0.00013824
0.00013824
0.00013824
0.00013824
0.000138164
9.72611e-05
6.89405e-05
6.40409e-05
6.26056e-05
6.18104e-05
6.14537e-05
6.13356e-05
6.13863e-05
6.16098e-05
6.20826e-05
6.30316e-05
6.47547e-05
7.05173e-05
0.000112424
0.00013824
0.00013824
0.00013824
0.00013824
0.00013824
0.00013824
0.00013824
0.00013824
0.00013824
0.00013824
0.00013824
0.00013824
0.00013824
0.00013824
0.00013824
0.00013824
0.00013824
0.00013824
0.00013824
0.00013824
0.00013824
0.00013824
0.00013824
0.00013824
0.00013824
0.00013824
0.00013824
0.00013824
0.00013824
0.00013824
0.00013824
0.00013824
0.00013824
0.00013824
0.00013824
0.00013824
0.00013824
0.00013824
0.00013824
0.00013824
0.00013824
0.00013824
0.00013824
0.00013824
0.00013824
0.00013824
0.00013824
0.00013824
0.00013824
0.00013824
0.00013824
0.00013824
0.00013824
0.00013824
0.00013824
0.00013824
0.00013824
0.00013824
0.00013824
0.00013824
0.00013824
0.000137939
0.00012019
9.73232e-05
9.03193e-05
0.000100164
0.000121432
0.000137799
0.00013824
0.00013824
0.00013824
0.00013824
0.00013824
0.00013824
0.00013824
0.00013824
0.00013824
0.00013824
0.00013824
0.00013824
0.00013824
0.00013824
0.00013824
0.00013824
0.00013824
0.00013824
0.00013824
0.00013824
0.00013824
0.00013824
0.00013824
0.00013824
0.00013824
0.00013824
0.00013824
0.00013824
0.00013824
0.00013824
0.00013824
0.00013824
0.00013824
0.00013824
0.00013824
0.00013824
0.00013824
0.00013824
0.000138233
0.000117212
7.12461e-05
6.65808e-05
6.36261e-05
6.27701e-05
6.24748e-05
6.2498e-05
6.28507e-05
6.37552e-05
6.67141e-05
7.20637e-05
0.000122687
0.00013824
0.00013824
0.00013824
0.00013824
0.00013824
0.00013824
0.00013824
0.00013824
0.00013824
0.00013824
0.00013824
0.00013824
0.00013824
0.00013824
0.00013824
0.00013824
0.00013824
0.00013824
0.00013824
0.00013824
0.00013824
0.00013824
0.00013824
0.00013824
0.00013824
0.00013824
0.00013824
0.00013824
0.00013824
0.00013824
0.00013824
0.00013824
0.00013824
0.00013824
0.00013824
0.00013824
0.00013824
0.00013824
0.00013824
0.00013824
0.00013824
0.00013824
0.00013824
0.00013824
0.00013824
0.00013824
0.00013824
0.00013824
0.00013824
0.00013824
0.00013824
0.00013824
0.00013824
0.00013824
0.00013824
0.00013824
0.00013824
0.00013824
0.00013824
0.00013824
0.00013824
0.00013824
0.00013824
0.00013824
0.000138232
0.000138205
0.000138236
0.00013824
0.00013824
0.00013824
0.00013824
0.00013824
0.00013824
0.00013824
0.00013824
0.00013824
0.00013824
0.00013824
0.00013824
0.00013824
0.00013824
0.00013824
0.00013824
0.00013824
0.00013824
0.00013824
0.00013824
0.00013824
0.00013824
0.00013824
0.00013824
0.00013824
0.00013824
0.00013824
0.00013824
0.00013824
0.00013824
0.00013824
0.00013824
0.00013824
0.00013824
0.00013824
0.00013824
0.00013824
0.00013824
0.00013824
0.00013824
0.00013824
0.00013824
0.000134389
0.000100083
7.06236e-05
6.78603e-05
6.67828e-05
6.66791e-05
6.76809e-05
7.02364e-05
9.59856e-05
0.000134687
0.00013824
0.00013824
0.00013824
0.00013824
0.00013824
0.00013824
0.00013824
0.00013824
0.00013824
0.00013824
0.00013824
0.00013824
0.00013824
0.00013824
0.00013824
0.00013824
0.00013824
0.00013824
0.00013824
0.00013824
0.00013824
0.00013824
0.00013824
0.00013824
0.00013824
0.00013824
0.00013824
0.00013824
0.00013824
0.00013824
0.00013824
0.00013824
0.00013824
0.00013824
0.00013824
0.00013824
0.00013824
0.00013824
0.00013824
0.00013824
0.00013824
0.00013824
0.00013824
0.00013824
0.00013824
0.00013824
0.00013824
0.00013824
0.00013824
0.00013824
0.00013824
0.00013824
0.00013824
0.00013824
0.00013824
0.00013824
0.00013824
0.00013824
0.00013824
0.00013824
0.00013824
0.00013824
0.00013824
0.00013824
0.00013824
0.00013824
0.00013824
0.00013824
0.00013824
0.00013824
0.00013824
0.00013824
0.00013824
0.00013824
0.00013824
0.00013824
0.00013824
0.00013824
0.00013824
0.00013824
0.00013824
0.00013824
0.00013824
0.00013824
0.00013824
0.00013824
0.00013824
0.00013824
0.00013824
0.00013824
0.00013824
0.00013824
0.00013824
0.00013824
0.00013824
0.00013824
0.00013824
0.00013824
0.00013824
0.00013824
0.00013824
0.00013824
0.00013824
0.00013824
0.00013824
0.00013824
0.00013824
0.00013824
0.00013824
0.00013824
0.00013824
0.000138237
0.000133887
0.00011499
0.000100113
9.78124e-05
0.000110186
0.000130825
0.000138232
0.00013824
0.00013824
0.00013824
0.00013824
0.00013824
0.00013824
0.00013824
0.00013824
0.00013824
0.00013824
0.00013824
0.00013824
0.00013824
0.00013824
0.00013824
0.00013824
0.00013824
0.00013824
0.00013824
0.00013824
0.00013824
0.00013824
0.00013824
0.00013824
0.00013824
0.00013824
0.00013824
0.00013824
0.00013824
0.00013824
0.00013824
0.00013824
0.00013824
0.00013824
0.00013824
0.00013824
0.00013824
0.00013824
0.00013824
0.00013824
0.00013824
0.00013824
0.00013824
0.00013824
0.00013824
0.00013824
0.00013824
0.00013824
0.00013824
0.00013824
0.00013824
0.00013824
0.00013824
0.00013824
0.00013824
0.00013824
0.00013824
0.00013824
0.00013824
0.00013824
0.00013824
0.00013824
0.00013824
0.00013824
0.00013824
0.00013824
0.00013824
0.00013824
0.00013824
0.00013824
0.00013824
0.00013824
0.00013824
0.00013824
0.00013824
0.00013824
0.00013824
0.00013824
0.00013824
0.00013824
0.00013824
0.00013824
0.00013824
0.00013824
0.00013824
0.00013824
0.00013824
0.00013824
0.00013824
0.00013824
0.00013824
0.00013824
0.00013824
0.00013824
0.00013824
0.00013824
0.00013824
0.00013824
0.00013824
0.00013824
0.00013824
0.00013824
0.00013824
0.00013824
0.00013824
0.00013824
0.00013824
0.00013824
0.00013824
0.00013824
0.00013824
0.00013824
0.00013824
0.00013824
0.00013824
0.000138236
0.000138233
0.00013824
0.00013824
0.00013824
0.00013824
0.00013824
0.00013824
0.00013824
0.00013824
0.00013824
0.00013824
0.00013824
0.00013824
0.00013824
0.00013824
0.00013824
0.00013824
0.00013824
0.00013824
0.00013824
0.00013824
0.00013824
0.00013824
0.00013824
0.00013824
0.00013824
0.00013824
0.00013824
0.00013824
0.00013824
0.00013824
0.00013824
0.00013824
0.00013824
0.00013824
0.00013824
0.00013824
0.00013824
0.00013824
0.00013824
0.00013824
0.00013824
0.00013824
0.00013824
0.00013824
0.00013824
0.00013824
0.00013824
0.00013824
0.00013824
0.00013824
0.00013824
0.00013824
0.00013824
0.00013824
0.00013824
0.00013824
0.00013824
0.00013824
0.00013824
0.00013824
0.00013824
0.00013824
0.00013824
0.00013824
0.00013824
0.00013824
0.00013824
0.00013824
0.00013824
0.00013824
0.00013824
0.00013824
0.00013824
0.00013824
0.00013824
0.00013824
0.00013824
0.00013824
0.00013824
0.00013824
0.00013824
0.00013824
0.00013824
0.00013824
0.00013824
0.00013824
0.00013824
0.00013824
0.00013824
0.00013824
0.00013824
0.00013824
0.00013824
0.00013824
0.00013824
0.00013824
0.00013824
0.00013824
0.00013824
0.00013824
0.00013824
0.00013824
0.00013824
0.00013824
0.00013824
0.00013824
0.00013824
0.00013824
0.00013824
0.00013824
0.00013824
0.00013824
0.00013824
0.00013824
0.00013824
0.00013824
0.00013824
0.00013824
0.00013824
0.00013824
0.00013824
0.00013824
0.00013824
0.00013824
0.00013824
0.00013824
0.00013824
0.00013824
0.00013824
0.00013824
0.00013824
0.00013824
0.00013824
0.00013824
0.00013824
0.00013824
0.00013824
0.00013824
0.00013824
0.00013824
0.00013824
0.00013824
0.00013824
0.00013824
0.00013824
0.00013824
0.00013824
0.00013824
0.00013824
0.00013824
0.00013824
0.00013824
0.00013824
0.00013824
0.00013824
0.00013824
0.00013824
0.00013824
0.00013824
0.00013824
0.00013824
0.00013824
0.00013824
0.00013824
0.00013824
0.00013824
0.00013824
0.00013824
0.00013824
0.00013824
0.00013824
0.00013824
0.00013824
0.00013824
0.00013824
0.00013824
0.00013824
0.00013824
0.00013824
0.00013824
0.00013824
0.00013824
0.00013824
0.00013824
0.00013824
0.00013824
0.00013824
0.00013824
0.00013824
0.00013824
0.00013824
0.00013824
0.00013824
0.00013824
0.00013824
0.00013824
0.00013824
0.00013824
0.00013824
0.00013824
0.00013824
0.00013824
0.00013824
0.00013824
0.00013824
0.00013824
0.00013824
0.00013824
0.00013824
0.00013824
0.00013824
0.00013824
0.00013824
0.00013824
0.00013824
0.00013824
0.00013824
0.00013824
0.00013824
0.00013824
0.00013824
0.00013824
0.00013824
0.00013824
0.00013824
0.00013824
0.00013824
0.00013824
0.00013824
0.00013824
0.00013824
0.00013824
0.00013824
0.00013824
0.00013824
0.00013824
0.00013824
0.00013824
0.00013824
0.00013824
0.00013824
0.00013824
0.00013824
0.00013824
0.00013824
0.00013824
0.00013824
0.00013824
0.00013824
0.00013824
0.00013824
0.00013824
0.00013824
0.00013824
0.00013824
0.00013824
0.00013824
0.00013824
0.00013824
0.00013824
0.00013824
0.00013824
0.00013824
0.00013824
0.00013824
0.00013824
0.00013824
0.00013824
0.00013824
0.00013824
0.00013824
0.00013824
0.00013824
0.00013824
0.00013824
0.00013824
0.00013824
0.00013824
0.00013824
0.00013824
0.00013824
0.00013824
0.00013824
0.00013824
0.00013824
0.00013824
0.00013824
0.00013824
0.00013824
0.00013824
0.00013824
0.00013824
0.00013824
0.00013824
0.00013824
0.00013824
0.00013824
0.00013824
0.00013824
0.00013824
0.00013824
0.00013824
0.00013824
0.00013824
0.00013824
0.00013824
0.00013824
0.00013824
0.00013824
0.00013824
0.00013824
0.00013824
0.00013824
0.00013824
0.00013824
0.00013824
0.00013824
0.00013824
0.00013824
0.00013824
0.00013824
0.00013824
0.00013824
0.00013824
0.00013824
0.00013824
0.00013824
0.00013824
0.00013824
0.00013824
0.00013824
0.00013824
0.00013824
0.00013824
0.00013824
0.00013824
0.00013824
0.00013824
0.00013824
0.00013824
0.00013824
0.00013824
0.00013824
0.00013824
0.00013824
0.00013824
0.00013824
0.00013824
0.00013824
0.00013824
0.00013824
0.00013824
0.00013824
0.00013824
0.00013824
0.00013824
0.00013824
0.00013824
0.00013824
0.00013824
0.00013824
0.00013824
0.00013824
0.00013824
0.00013824
0.00013824
0.00013824
0.00013824
0.00013824
0.00013824
0.00013824
0.00013824
0.00013824
0.00013824
0.00013824
0.00013824
0.00013824
0.00013824
0.00013824
0.00013824
0.00013824
0.00013824
0.00013824
0.00013824
0.00013824
0.00013824
0.00013824
0.00013824
0.00013824
0.00013824
0.00013824
0.00013824
0.00013824
0.00013824
0.00013824
0.00013824
0.00013824
0.00013824
0.00013824
0.00013824
0.00013824
0.00013824
0.00013824
0.00013824
0.00013824
0.00013824
0.00013824
0.00013824
0.00013824
0.00013824
0.00013824
0.00013824
0.00013824
0.00013824
0.00013824
0.00013824
0.00013824
0.00013824
0.00013824
0.00013824
0.00013824
0.00013824
0.00013824
0.00013824
0.00013824
0.00013824
0.00013824
0.00013824
0.00013824
0.00013824
0.00013824
0.00013824
0.00013824
0.00013824
0.00013824
0.00013824
0.00013824
0.00013824
0.00013824
0.00013824
0.00013824
0.00013824
0.00013824
0.00013824
0.00013824
0.00013824
0.00013824
0.00013824
0.00013824
0.00013824
0.00013824
0.00013824
0.00013824
0.00013824
0.00013824
0.00013824
0.00013824
0.00013824
0.00013824
0.00013824
0.00013824
0.00013824
0.00013824
0.00013824
0.00013824
0.00013824
0.00013824
0.00013824
0.00013824
0.00013824
0.00013824
0.00013824
0.00013824
0.00013824
0.00013824
0.00013824
0.00013824
0.00013824
0.00013824
0.00013824
0.00013824
0.00013824
0.00013824
0.00013824
0.00013824
0.00013824
0.00013824
0.00013824
0.00013824
0.00013824
0.00013824
0.00013824
0.00013824
0.00013824
0.00013824
0.00013824
0.00013824
0.00013824
0.00013824
0.00013824
0.00013824
0.00013824
0.00013824
0.00013824
0.00013824
0.00013824
0.00013824
0.00013824
0.00013824
0.00013824
0.00013824
0.00013824
0.00013824
0.00013824
0.00013824
0.00013824
0.00013824
0.00013824
0.00013824
0.00013824
0.00013824
0.00013824
0.00013824
0.00013824
0.00013824
0.00013824
0.00013824
0.00013824
0.00013824
0.00013824
0.00013824
0.00013824
0.00013824
0.00013824
0.00013824
0.00013824
0.00013824
0.00013824
0.00013824
0.00013824
0.00013824
0.00013824
0.00013824
0.00013824
0.00013824
0.00013824
0.00013824
0.00013824
0.00013824
0.00013824
0.00013824
0.00013824
0.00013824
0.00013824
0.00013824
0.00013824
0.00013824
0.00013824
0.00013824
0.00013824
0.00013824
0.00013824
0.00013824