/*--------------------------------*- C++ -*----------------------------------*\
| =========                 |                                                 |
| \\      /  F ield         | OpenFOAM: The Open Source CFD Toolbox           |
|  \\    /   O peration     | Version:  2406                                  |
|   \\  /    A nd           | Website:  www.openfoam.com                      |
|    \\/     M anipulation  |                                                 |
\*---------------------------------------------------------------------------*/
FoamFile
{
    version     2.0;
    format      ascii;
    arch        "LSB;label=32;scalar=64";
    class       volScalarField;
    location    "8.45";
    object      Da;
}
// * * * * * * * * * * * * * * * * * * * * * * * * * * * * * * * * * * * * * //

dimensions      [0 2 -1 0 0 0 0];

internalField   nonuniform List<scalar> 
14400
(
4.92375e-05
4.92202e-05
4.91979e-05
4.91817e-05
4.91753e-05
4.91766e-05
4.91808e-05
4.91843e-05
4.91864e-05
4.91905e-05
4.92032e-05
4.92322e-05
4.92822e-05
4.93475e-05
4.94041e-05
4.9411e-05
4.93393e-05
4.92168e-05
4.90716e-05
4.89084e-05
4.87141e-05
4.84691e-05
4.81562e-05
4.77688e-05
4.73146e-05
4.68167e-05
4.63078e-05
4.58209e-05
4.53814e-05
4.50044e-05
4.46973e-05
4.4464e-05
4.43094e-05
4.42452e-05
4.43003e-05
4.45495e-05
4.52421e-05
4.77963e-05
7.15645e-05
7.8e-05
7.8e-05
7.8e-05
7.8e-05
7.8e-05
7.8e-05
7.8e-05
7.8e-05
7.8e-05
7.8e-05
7.8e-05
7.8e-05
7.8e-05
7.8e-05
7.8e-05
7.8e-05
7.8e-05
7.8e-05
7.8e-05
7.79999e-05
6.67042e-05
4.75906e-05
4.53273e-05
4.47471e-05
4.45894e-05
4.46333e-05
4.48173e-05
4.51244e-05
4.55547e-05
4.61131e-05
4.67986e-05
4.75899e-05
4.84349e-05
4.92554e-05
4.99697e-05
5.05162e-05
5.08628e-05
5.10028e-05
5.09487e-05
5.07279e-05
5.03823e-05
4.9969e-05
4.95577e-05
4.92304e-05
4.90925e-05
4.93374e-05
5.05981e-05
5.668e-05
7.77417e-05
6.11829e-05
5.05394e-05
4.85391e-05
4.78966e-05
4.76725e-05
4.76461e-05
4.7732e-05
4.78848e-05
4.80744e-05
4.82777e-05
4.84758e-05
4.86533e-05
4.87968e-05
4.88944e-05
4.89353e-05
4.89112e-05
4.88191e-05
4.86625e-05
4.84503e-05
4.81946e-05
4.79096e-05
4.76113e-05
4.73176e-05
4.70477e-05
4.68223e-05
4.66654e-05
4.66088e-05
4.67066e-05
4.70777e-05
4.8083e-05
5.14907e-05
7.58462e-05
4.89794e-05
4.89327e-05
4.88692e-05
4.88134e-05
4.87748e-05
4.87528e-05
4.87433e-05
4.87426e-05
4.87501e-05
4.8769e-05
4.88065e-05
4.88715e-05
4.89708e-05
4.9099e-05
4.92228e-05
4.92668e-05
4.91559e-05
4.89719e-05
4.87751e-05
4.85774e-05
4.83649e-05
4.81164e-05
4.7814e-05
4.74502e-05
4.70309e-05
4.65757e-05
4.61123e-05
4.56687e-05
4.5267e-05
4.49213e-05
4.46398e-05
4.44278e-05
4.42926e-05
4.42492e-05
4.43326e-05
4.46347e-05
4.54641e-05
4.84669e-05
7.54359e-05
7.8e-05
7.8e-05
7.8e-05
7.8e-05
7.8e-05
7.8e-05
7.8e-05
7.8e-05
7.8e-05
7.8e-05
7.8e-05
7.8e-05
7.8e-05
7.8e-05
7.8e-05
7.8e-05
7.8e-05
7.8e-05
7.8e-05
7.8e-05
7.10639e-05
4.79706e-05
4.54524e-05
4.47974e-05
4.46024e-05
4.462e-05
4.478e-05
4.50602e-05
4.54569e-05
4.59721e-05
4.66033e-05
4.73316e-05
4.81122e-05
4.88762e-05
4.95486e-05
5.00691e-05
5.04031e-05
5.05414e-05
5.04948e-05
5.02911e-05
4.9973e-05
4.95975e-05
4.92326e-05
4.89577e-05
4.88794e-05
4.92125e-05
5.07872e-05
5.98208e-05
7.79551e-05
6.65131e-05
5.09069e-05
4.85248e-05
4.77852e-05
4.7505e-05
4.74337e-05
4.74792e-05
4.75948e-05
4.77515e-05
4.79281e-05
4.81077e-05
4.82758e-05
4.84183e-05
4.85208e-05
4.85686e-05
4.85492e-05
4.84578e-05
4.83011e-05
4.80927e-05
4.78482e-05
4.75833e-05
4.73131e-05
4.70533e-05
4.68204e-05
4.66329e-05
4.65141e-05
4.64979e-05
4.66466e-05
4.71139e-05
4.84671e-05
5.42544e-05
7.76904e-05
4.86012e-05
4.84842e-05
4.83343e-05
4.82035e-05
4.81082e-05
4.80472e-05
4.80149e-05
4.80069e-05
4.80219e-05
4.80635e-05
4.81405e-05
4.82659e-05
4.84547e-05
4.8712e-05
4.89999e-05
4.91602e-05
4.89175e-05
4.8579e-05
4.82733e-05
4.80102e-05
4.77656e-05
4.7512e-05
4.72287e-05
4.6906e-05
4.65462e-05
4.61626e-05
4.57747e-05
4.54031e-05
4.50651e-05
4.47735e-05
4.45372e-05
4.43642e-05
4.42656e-05
4.42629e-05
4.4406e-05
4.48413e-05
4.62345e-05
5.42099e-05
7.79378e-05
7.8e-05
7.8e-05
7.8e-05
7.8e-05
7.8e-05
7.8e-05
7.8e-05
7.8e-05
7.8e-05
7.8e-05
7.8e-05
7.8e-05
7.8e-05
7.8e-05
7.8e-05
7.8e-05
7.8e-05
7.8e-05
7.8e-05
7.8e-05
7.67953e-05
4.93859e-05
4.58296e-05
4.49265e-05
4.46381e-05
4.46005e-05
4.47139e-05
4.49444e-05
4.5281e-05
4.57201e-05
4.62565e-05
4.68739e-05
4.75376e-05
4.81939e-05
4.87808e-05
4.9244e-05
4.95482e-05
4.96812e-05
4.96515e-05
4.94861e-05
4.9227e-05
4.89286e-05
4.86545e-05
4.84799e-05
4.85135e-05
4.9003e-05
5.10897e-05
6.59343e-05
7.79986e-05
7.41554e-05
5.17152e-05
4.86097e-05
4.76368e-05
4.72393e-05
4.70851e-05
4.70607e-05
4.71142e-05
4.72167e-05
4.73494e-05
4.74981e-05
4.76499e-05
4.77907e-05
4.79025e-05
4.79635e-05
4.79531e-05
4.7863e-05
4.77056e-05
4.75034e-05
4.72778e-05
4.7046e-05
4.68212e-05
4.66156e-05
4.6442e-05
4.63165e-05
4.62622e-05
4.63173e-05
4.65599e-05
4.72085e-05
4.93345e-05
6.3824e-05
7.79977e-05
4.83451e-05
4.80714e-05
4.77716e-05
4.75344e-05
4.73689e-05
4.72634e-05
4.7206e-05
4.71891e-05
4.72106e-05
4.72748e-05
4.73934e-05
4.75885e-05
4.78959e-05
4.83651e-05
4.90259e-05
4.96418e-05
4.88743e-05
4.81904e-05
4.77063e-05
4.73527e-05
4.70675e-05
4.68081e-05
4.65476e-05
4.62723e-05
4.59795e-05
4.56753e-05
4.53713e-05
4.50808e-05
4.48166e-05
4.45898e-05
4.44102e-05
4.42887e-05
4.42413e-05
4.42989e-05
4.45344e-05
4.51806e-05
4.75186e-05
6.79847e-05
7.79999e-05
7.8e-05
7.8e-05
7.8e-05
7.8e-05
7.8e-05
7.8e-05
7.8e-05
7.8e-05
7.8e-05
7.8e-05
7.8e-05
7.8e-05
7.8e-05
7.8e-05
7.8e-05
7.8e-05
7.8e-05
7.8e-05
7.8e-05
7.8e-05
7.7996e-05
6.0169e-05
4.69477e-05
4.51894e-05
4.47137e-05
4.45875e-05
4.46342e-05
4.47983e-05
4.50585e-05
4.54045e-05
4.58271e-05
4.63115e-05
4.68316e-05
4.73489e-05
4.7818e-05
4.8196e-05
4.84527e-05
4.85758e-05
4.85719e-05
4.84646e-05
4.82914e-05
4.81004e-05
4.79489e-05
4.791e-05
4.81059e-05
4.88469e-05
5.15979e-05
7.32569e-05
7.8e-05
7.7963e-05
5.86389e-05
4.93145e-05
4.75933e-05
4.69817e-05
4.67098e-05
4.65983e-05
4.65799e-05
4.66225e-05
4.67079e-05
4.68237e-05
4.69593e-05
4.71009e-05
4.72275e-05
4.73088e-05
4.73114e-05
4.72203e-05
4.70575e-05
4.68584e-05
4.66509e-05
4.64529e-05
4.62753e-05
4.61267e-05
4.60171e-05
4.59614e-05
4.59848e-05
4.61357e-05
4.65234e-05
4.74776e-05
5.06414e-05
7.46379e-05
7.8e-05
4.8674e-05
4.79287e-05
4.73464e-05
4.69606e-05
4.67142e-05
4.65627e-05
4.64803e-05
4.64542e-05
4.64808e-05
4.65651e-05
4.67234e-05
4.69923e-05
4.74496e-05
4.82815e-05
5.00387e-05
5.42248e-05
4.95203e-05
4.79728e-05
4.7208e-05
4.67387e-05
4.6406e-05
4.6138e-05
4.58971e-05
4.56639e-05
4.54305e-05
4.51971e-05
4.49689e-05
4.4754e-05
4.45613e-05
4.44006e-05
4.42826e-05
4.42213e-05
4.42402e-05
4.43864e-05
4.478e-05
4.58723e-05
5.06456e-05
7.76014e-05
7.8e-05
7.8e-05
7.8e-05
7.8e-05
7.8e-05
7.8e-05
7.8e-05
7.8e-05
7.8e-05
7.8e-05
7.8e-05
7.8e-05
7.8e-05
7.8e-05
7.8e-05
7.8e-05
7.8e-05
7.8e-05
7.8e-05
7.8e-05
7.8e-05
7.8e-05
7.36666e-05
4.84672e-05
4.56187e-05
4.48562e-05
4.46017e-05
4.45615e-05
4.46474e-05
4.48241e-05
4.50737e-05
4.53831e-05
4.57376e-05
4.61171e-05
4.6495e-05
4.68409e-05
4.71255e-05
4.73276e-05
4.74383e-05
4.74629e-05
4.74204e-05
4.73412e-05
4.72658e-05
4.72466e-05
4.73636e-05
4.77868e-05
4.91269e-05
5.56231e-05
7.78269e-05
7.8e-05
7.8e-05
7.36133e-05
5.08661e-05
4.78154e-05
4.68486e-05
4.64112e-05
4.61962e-05
4.61028e-05
4.60888e-05
4.61329e-05
4.62229e-05
4.635e-05
4.65023e-05
4.66567e-05
4.67723e-05
4.67944e-05
4.66931e-05
4.65086e-05
4.62984e-05
4.60974e-05
4.59232e-05
4.57835e-05
4.5684e-05
4.56329e-05
4.56463e-05
4.57562e-05
4.60354e-05
4.66901e-05
4.87111e-05
6.2374e-05
7.79968e-05
7.8e-05
5.19678e-05
4.84792e-05
4.72102e-05
4.65844e-05
4.62327e-05
4.60277e-05
4.59174e-05
4.58809e-05
4.59127e-05
4.60187e-05
4.62214e-05
4.65806e-05
4.72543e-05
4.88675e-05
5.61496e-05
7.66135e-05
5.20958e-05
4.81389e-05
4.68864e-05
4.62561e-05
4.58623e-05
4.55778e-05
4.53475e-05
4.51443e-05
4.49558e-05
4.47776e-05
4.46106e-05
4.44593e-05
4.43303e-05
4.42324e-05
4.41778e-05
4.41858e-05
4.42926e-05
4.45815e-05
4.53131e-05
4.78946e-05
7.07467e-05
7.8e-05
7.8e-05
7.8e-05
7.8e-05
7.8e-05
7.8e-05
7.8e-05
7.8e-05
7.8e-05
7.8e-05
7.8e-05
7.8e-05
7.8e-05
7.8e-05
7.8e-05
7.8e-05
7.8e-05
7.8e-05
7.8e-05
7.8e-05
7.8e-05
7.8e-05
7.8e-05
7.79955e-05
5.96024e-05
4.68784e-05
4.51688e-05
4.4682e-05
4.45233e-05
4.45185e-05
4.46086e-05
4.47662e-05
4.49737e-05
4.5216e-05
4.54769e-05
4.57377e-05
4.59789e-05
4.61827e-05
4.63363e-05
4.64353e-05
4.64846e-05
4.64992e-05
4.65037e-05
4.65338e-05
4.66424e-05
4.69261e-05
4.76412e-05
5.00546e-05
6.87586e-05
7.79999e-05
7.8e-05
7.8e-05
7.79977e-05
6.33128e-05
4.92222e-05
4.70418e-05
4.62895e-05
4.59307e-05
4.5752e-05
4.56837e-05
4.56944e-05
4.57697e-05
4.59033e-05
4.60884e-05
4.63021e-05
4.64918e-05
4.6552e-05
4.64135e-05
4.61623e-05
4.59084e-05
4.56902e-05
4.55225e-05
4.54071e-05
4.53462e-05
4.53481e-05
4.54329e-05
4.56471e-05
4.61149e-05
4.7253e-05
5.15241e-05
7.72695e-05
7.8e-05
7.8e-05
7.60711e-05
5.13974e-05
4.76443e-05
4.65067e-05
4.59804e-05
4.56962e-05
4.5546e-05
4.5495e-05
4.55348e-05
4.56727e-05
4.5942e-05
4.64508e-05
4.75296e-05
5.09356e-05
7.57811e-05
7.79999e-05
6.82808e-05
4.94573e-05
4.68739e-05
4.59605e-05
4.54733e-05
4.51565e-05
4.49235e-05
4.47365e-05
4.45776e-05
4.4439e-05
4.43187e-05
4.42191e-05
4.41456e-05
4.41076e-05
4.41203e-05
4.42122e-05
4.4447e-05
4.50114e-05
4.68105e-05
5.93326e-05
7.79954e-05
7.8e-05
7.8e-05
7.8e-05
7.8e-05
7.8e-05
7.8e-05
7.8e-05
7.8e-05
7.8e-05
7.8e-05
7.8e-05
7.8e-05
7.8e-05
7.8e-05
7.8e-05
7.8e-05
7.8e-05
7.8e-05
7.8e-05
7.8e-05
7.8e-05
7.8e-05
7.8e-05
7.8e-05
7.65151e-05
4.91424e-05
4.57791e-05
4.48905e-05
4.45565e-05
4.44393e-05
4.44375e-05
4.45079e-05
4.46269e-05
4.47777e-05
4.49459e-05
4.51179e-05
4.52809e-05
4.54245e-05
4.5542e-05
4.56324e-05
4.57008e-05
4.57604e-05
4.58336e-05
4.59563e-05
4.61921e-05
4.66811e-05
4.78847e-05
5.26255e-05
7.74801e-05
7.8e-05
7.8e-05
7.8e-05
7.8e-05
7.78781e-05
5.49126e-05
4.80151e-05
4.64952e-05
4.58816e-05
4.55794e-05
4.54488e-05
4.54309e-05
4.55045e-05
4.56695e-05
4.59373e-05
4.62963e-05
4.67094e-05
4.68901e-05
4.66096e-05
4.61347e-05
4.57588e-05
4.54768e-05
4.52897e-05
4.51833e-05
4.51538e-05
4.5211e-05
4.53881e-05
4.57688e-05
4.66604e-05
4.96419e-05
7.35924e-05
7.8e-05
7.8e-05
7.8e-05
7.8e-05
7.42666e-05
5.01273e-05
4.70094e-05
4.60606e-05
4.56195e-05
4.53938e-05
4.53166e-05
4.53726e-05
4.55731e-05
4.59758e-05
4.68777e-05
4.97345e-05
7.10255e-05
7.8e-05
7.8e-05
7.78667e-05
5.43118e-05
4.74322e-05
4.59151e-05
4.52639e-05
4.4885e-05
4.46308e-05
4.44448e-05
4.43017e-05
4.41898e-05
4.41049e-05
4.40482e-05
4.40259e-05
4.40498e-05
4.41423e-05
4.43502e-05
4.48019e-05
4.60121e-05
5.16768e-05
7.78048e-05
7.8e-05
7.8e-05
7.8e-05
7.8e-05
7.8e-05
7.8e-05
7.8e-05
7.8e-05
7.8e-05
7.8e-05
7.8e-05
7.8e-05
7.8e-05
7.8e-05
7.8e-05
7.8e-05
7.8e-05
7.8e-05
7.8e-05
7.8e-05
7.8e-05
7.8e-05
7.8e-05
7.8e-05
7.8e-05
7.8e-05
6.9954e-05
4.79693e-05
4.54519e-05
4.47349e-05
4.44468e-05
4.43347e-05
4.43169e-05
4.43565e-05
4.44322e-05
4.45292e-05
4.46359e-05
4.47434e-05
4.48454e-05
4.49388e-05
4.50248e-05
4.51095e-05
4.52061e-05
4.53385e-05
4.55503e-05
4.59351e-05
4.67611e-05
4.93517e-05
6.96746e-05
7.8e-05
7.8e-05
7.8e-05
7.8e-05
7.8e-05
7.8e-05
7.74444e-05
5.21303e-05
4.75756e-05
4.62445e-05
4.56745e-05
4.54461e-05
4.5397e-05
4.54873e-05
4.5735e-05
4.6237e-05
4.70649e-05
4.87638e-05
4.96879e-05
4.85124e-05
4.67654e-05
4.60119e-05
4.55373e-05
4.52822e-05
4.51637e-05
4.51652e-05
4.53013e-05
4.56511e-05
4.64312e-05
4.91433e-05
6.9755e-05
7.8e-05
7.8e-05
7.8e-05
7.8e-05
7.8e-05
7.8e-05
7.26988e-05
4.97441e-05
4.68777e-05
4.59799e-05
4.5552e-05
4.54119e-05
4.55089e-05
4.5879e-05
4.66344e-05
4.92973e-05
6.82438e-05
7.79999e-05
7.8e-05
7.8e-05
7.8e-05
7.46241e-05
4.94768e-05
4.6314e-05
4.52954e-05
4.4785e-05
4.44779e-05
4.42737e-05
4.41328e-05
4.40372e-05
4.39801e-05
4.39629e-05
4.39949e-05
4.40953e-05
4.43059e-05
4.47218e-05
4.56856e-05
4.92315e-05
7.68932e-05
7.8e-05
7.8e-05
7.8e-05
7.8e-05
7.8e-05
7.8e-05
7.8e-05
7.8e-05
7.8e-05
7.8e-05
7.8e-05
7.8e-05
7.8e-05
7.8e-05
7.8e-05
7.8e-05
7.8e-05
7.8e-05
7.8e-05
7.8e-05
7.8e-05
7.8e-05
7.8e-05
7.8e-05
7.8e-05
7.8e-05
7.8e-05
7.79984e-05
6.16064e-05
4.72463e-05
4.52337e-05
4.46043e-05
4.43318e-05
4.42108e-05
4.41714e-05
4.4181e-05
4.42205e-05
4.42781e-05
4.43459e-05
4.44198e-05
4.44986e-05
4.45851e-05
4.46872e-05
4.48201e-05
4.50137e-05
4.53302e-05
4.59336e-05
4.75347e-05
5.63024e-05
7.79562e-05
7.8e-05
7.8e-05
7.8e-05
7.8e-05
7.8e-05
7.8e-05
7.8e-05
7.74058e-05
5.36068e-05
4.80302e-05
4.63305e-05
4.58737e-05
4.57687e-05
4.592e-05
4.64035e-05
4.8016e-05
5.12619e-05
6.95317e-05
7.5958e-05
6.72466e-05
4.99557e-05
4.74992e-05
4.61455e-05
4.56814e-05
4.54976e-05
4.55502e-05
4.58629e-05
4.67773e-05
4.92925e-05
7.02512e-05
7.8e-05
7.8e-05
7.8e-05
7.8e-05
7.8e-05
7.8e-05
7.8e-05
7.8e-05
7.46278e-05
5.10572e-05
4.78366e-05
4.63956e-05
4.60353e-05
4.62756e-05
4.75015e-05
4.97472e-05
7.09059e-05
7.79999e-05
7.8e-05
7.8e-05
7.8e-05
7.8e-05
7.8e-05
6.85222e-05
4.84811e-05
4.58103e-05
4.4931e-05
4.44989e-05
4.42435e-05
4.40879e-05
4.39993e-05
4.39666e-05
4.39931e-05
4.40984e-05
4.43243e-05
4.47872e-05
4.57982e-05
4.90388e-05
7.60824e-05
7.8e-05
7.8e-05
7.8e-05
7.8e-05
7.8e-05
7.8e-05
7.8e-05
7.8e-05
7.8e-05
7.8e-05
7.8e-05
7.8e-05
7.8e-05
7.8e-05
7.8e-05
7.8e-05
7.8e-05
7.8e-05
7.8e-05
7.8e-05
7.8e-05
7.8e-05
7.8e-05
7.8e-05
7.8e-05
7.8e-05
7.8e-05
7.8e-05
7.8e-05
7.79771e-05
5.61465e-05
4.67451e-05
4.50762e-05
4.4492e-05
4.42191e-05
4.40853e-05
4.40277e-05
4.40152e-05
4.40322e-05
4.40701e-05
4.41247e-05
4.41963e-05
4.42894e-05
4.44148e-05
4.45931e-05
4.48694e-05
4.53482e-05
4.63579e-05
4.96993e-05
7.60141e-05
7.8e-05
7.8e-05
7.8e-05
7.8e-05
7.8e-05
7.8e-05
7.8e-05
7.8e-05
7.8e-05
7.78408e-05
6.23737e-05
4.91701e-05
4.78401e-05
4.74758e-05
4.79734e-05
4.94009e-05
6.34401e-05
7.73991e-05
7.8e-05
7.8e-05
7.79999e-05
7.63545e-05
5.89401e-05
4.88345e-05
4.74696e-05
4.68635e-05
4.71509e-05
4.82314e-05
5.30931e-05
7.46914e-05
7.8e-05
7.8e-05
7.8e-05
7.8e-05
7.8e-05
7.8e-05
7.8e-05
7.8e-05
7.8e-05
7.8e-05
7.7402e-05
6.3702e-05
5.0193e-05
4.86479e-05
4.95667e-05
6.04824e-05
7.6012e-05
7.8e-05
7.8e-05
7.8e-05
7.8e-05
7.8e-05
7.8e-05
7.8e-05
7.79997e-05
6.509e-05
4.80832e-05
4.55936e-05
4.48122e-05
4.4422e-05
4.42202e-05
4.41274e-05
4.41219e-05
4.42129e-05
4.44586e-05
4.49905e-05
4.6442e-05
5.0817e-05
7.67117e-05
7.8e-05
7.8e-05
7.8e-05
7.8e-05
7.8e-05
7.8e-05
7.8e-05
7.8e-05
7.8e-05
7.8e-05
7.8e-05
7.8e-05
7.8e-05
7.8e-05
7.8e-05
7.8e-05
7.8e-05
7.8e-05
7.8e-05
7.8e-05
7.8e-05
7.8e-05
7.8e-05
7.8e-05
7.8e-05
7.8e-05
7.8e-05
7.8e-05
7.8e-05
7.8e-05
7.8e-05
7.7922e-05
5.40078e-05
4.65812e-05
4.5003e-05
4.44129e-05
4.41306e-05
4.3988e-05
4.39183e-05
4.38959e-05
4.39081e-05
4.39493e-05
4.40203e-05
4.41287e-05
4.42914e-05
4.45414e-05
4.49697e-05
4.5848e-05
4.86154e-05
7.09297e-05
7.8e-05
7.8e-05
7.8e-05
7.8e-05
7.8e-05
7.8e-05
7.8e-05
7.8e-05
7.8e-05
7.8e-05
7.8e-05
7.79982e-05
7.42921e-05
6.38276e-05
5.93248e-05
6.54249e-05
7.5475e-05
7.7999e-05
7.8e-05
7.8e-05
7.8e-05
7.8e-05
7.8e-05
7.79909e-05
7.2941e-05
6.10102e-05
5.43822e-05
5.77556e-05
6.91299e-05
7.78524e-05
7.8e-05
7.8e-05
7.8e-05
7.8e-05
7.8e-05
7.8e-05
7.8e-05
7.8e-05
7.8e-05
7.8e-05
7.8e-05
7.8e-05
7.79991e-05
7.70912e-05
7.36957e-05
7.64637e-05
7.79955e-05
7.8e-05
7.8e-05
7.8e-05
7.8e-05
7.8e-05
7.8e-05
7.8e-05
7.8e-05
7.8e-05
7.79996e-05
6.7092e-05
4.83395e-05
4.59528e-05
4.50522e-05
4.47125e-05
4.45899e-05
4.46356e-05
4.48687e-05
4.55728e-05
4.74902e-05
5.82324e-05
7.77236e-05
7.8e-05
7.8e-05
7.8e-05
7.8e-05
7.8e-05
7.8e-05
7.8e-05
7.8e-05
7.8e-05
7.8e-05
7.8e-05
7.8e-05
7.8e-05
7.8e-05
7.8e-05
7.8e-05
7.8e-05
7.8e-05
7.8e-05
7.8e-05
7.8e-05
7.8e-05
7.8e-05
7.8e-05
7.8e-05
7.8e-05
7.8e-05
7.8e-05
7.8e-05
7.8e-05
7.8e-05
7.8e-05
7.8e-05
7.79104e-05
5.49972e-05
4.68056e-05
4.50257e-05
4.43968e-05
4.41116e-05
4.39571e-05
4.38856e-05
4.3871e-05
4.39021e-05
4.39803e-05
4.412e-05
4.4354e-05
4.47442e-05
4.55593e-05
4.8102e-05
6.66194e-05
7.79999e-05
7.8e-05
7.8e-05
7.8e-05
7.8e-05
7.8e-05
7.8e-05
7.8e-05
7.8e-05
7.8e-05
7.8e-05
7.8e-05
7.8e-05
7.8e-05
7.79991e-05
7.79908e-05
7.79996e-05
7.8e-05
7.8e-05
7.8e-05
7.8e-05
7.8e-05
7.8e-05
7.8e-05
7.8e-05
7.8e-05
7.79963e-05
7.79106e-05
7.79824e-05
7.8e-05
7.8e-05
7.8e-05
7.8e-05
7.8e-05
7.8e-05
7.8e-05
7.8e-05
7.8e-05
7.8e-05
7.8e-05
7.8e-05
7.8e-05
7.8e-05
7.8e-05
7.8e-05
7.8e-05
7.8e-05
7.8e-05
7.8e-05
7.8e-05
7.8e-05
7.8e-05
7.8e-05
7.8e-05
7.8e-05
7.8e-05
7.8e-05
7.8e-05
7.79999e-05
7.35509e-05
5.21656e-05
4.7496e-05
4.653e-05
4.62242e-05
4.65265e-05
4.73292e-05
5.11189e-05
7.05355e-05
7.79936e-05
7.8e-05
7.8e-05
7.8e-05
7.8e-05
7.8e-05
7.8e-05
7.8e-05
7.8e-05
7.8e-05
7.8e-05
7.8e-05
7.8e-05
7.8e-05
7.8e-05
7.8e-05
7.8e-05
7.8e-05
7.8e-05
7.8e-05
7.8e-05
7.8e-05
7.8e-05
7.8e-05
7.8e-05
7.8e-05
7.8e-05
7.8e-05
7.8e-05
7.8e-05
7.8e-05
7.8e-05
7.8e-05
7.8e-05
7.8e-05
7.8e-05
7.79639e-05
5.97188e-05
4.73571e-05
4.52e-05
4.45682e-05
4.42182e-05
4.40615e-05
4.40097e-05
4.40322e-05
4.41308e-05
4.43392e-05
4.4757e-05
4.55162e-05
4.80579e-05
6.64653e-05
7.79998e-05
7.8e-05
7.8e-05
7.8e-05
7.8e-05
7.8e-05
7.8e-05
7.8e-05
7.8e-05
7.8e-05
7.8e-05
7.8e-05
7.8e-05
7.8e-05
7.8e-05
7.8e-05
7.8e-05
7.8e-05
7.8e-05
7.8e-05
7.8e-05
7.8e-05
7.8e-05
7.8e-05
7.8e-05
7.8e-05
7.8e-05
7.8e-05
7.8e-05
7.8e-05
7.8e-05
7.8e-05
7.8e-05
7.8e-05
7.8e-05
7.8e-05
7.8e-05
7.8e-05
7.8e-05
7.8e-05
7.8e-05
7.8e-05
7.8e-05
7.8e-05
7.8e-05
7.8e-05
7.8e-05
7.8e-05
7.8e-05
7.8e-05
7.8e-05
7.8e-05
7.8e-05
7.8e-05
7.8e-05
7.8e-05
7.8e-05
7.8e-05
7.8e-05
7.8e-05
7.8e-05
7.78578e-05
6.99141e-05
5.978e-05
5.6682e-05
6.10271e-05
7.04506e-05
7.77902e-05
7.8e-05
7.8e-05
7.8e-05
7.8e-05
7.8e-05
7.8e-05
7.8e-05
7.8e-05
7.8e-05
7.8e-05
7.8e-05
7.8e-05
7.8e-05
7.8e-05
7.8e-05
7.8e-05
7.8e-05
7.8e-05
7.8e-05
7.8e-05
7.8e-05
7.8e-05
7.8e-05
7.8e-05
7.8e-05
7.8e-05
7.8e-05
7.8e-05
7.8e-05
7.8e-05
7.8e-05
7.8e-05
7.8e-05
7.8e-05
7.8e-05
7.8e-05
7.8e-05
7.8e-05
7.79968e-05
6.85436e-05
4.83616e-05
4.63129e-05
4.50161e-05
4.46411e-05
4.45114e-05
4.45218e-05
4.46775e-05
4.50756e-05
4.63734e-05
4.87243e-05
7.10014e-05
7.79999e-05
7.8e-05
7.8e-05
7.8e-05
7.8e-05
7.8e-05
7.8e-05
7.8e-05
7.8e-05
7.8e-05
7.8e-05
7.8e-05
7.8e-05
7.8e-05
7.8e-05
7.8e-05
7.8e-05
7.8e-05
7.8e-05
7.8e-05
7.8e-05
7.8e-05
7.8e-05
7.8e-05
7.8e-05
7.8e-05
7.8e-05
7.8e-05
7.8e-05
7.8e-05
7.8e-05
7.8e-05
7.8e-05
7.8e-05
7.8e-05
7.8e-05
7.8e-05
7.8e-05
7.8e-05
7.8e-05
7.8e-05
7.8e-05
7.8e-05
7.8e-05
7.8e-05
7.8e-05
7.8e-05
7.8e-05
7.8e-05
7.8e-05
7.8e-05
7.8e-05
7.8e-05
7.8e-05
7.8e-05
7.8e-05
7.8e-05
7.8e-05
7.8e-05
7.8e-05
7.8e-05
7.8e-05
7.8e-05
7.8e-05
7.7996e-05
7.79832e-05
7.7998e-05
7.8e-05
7.8e-05
7.8e-05
7.8e-05
7.8e-05
7.8e-05
7.8e-05
7.8e-05
7.8e-05
7.8e-05
7.8e-05
7.8e-05
7.8e-05
7.8e-05
7.8e-05
7.8e-05
7.8e-05
7.8e-05
7.8e-05
7.8e-05
7.8e-05
7.8e-05
7.8e-05
7.8e-05
7.8e-05
7.8e-05
7.8e-05
7.8e-05
7.8e-05
7.8e-05
7.8e-05
7.8e-05
7.8e-05
7.8e-05
7.8e-05
7.8e-05
7.8e-05
7.8e-05
7.8e-05
7.8e-05
7.8e-05
7.8e-05
7.6226e-05
6.09363e-05
4.80853e-05
4.68824e-05
4.64063e-05
4.63605e-05
4.68044e-05
4.79288e-05
5.91466e-05
7.63707e-05
7.8e-05
7.8e-05
7.8e-05
7.8e-05
7.8e-05
7.8e-05
7.8e-05
7.8e-05
7.8e-05
7.8e-05
7.8e-05
7.8e-05
7.8e-05
7.8e-05
7.8e-05
7.8e-05
7.8e-05
7.8e-05
7.8e-05
7.8e-05
7.8e-05
7.8e-05
7.8e-05
7.8e-05
7.8e-05
7.8e-05
7.8e-05
7.8e-05
7.8e-05
7.8e-05
7.8e-05
7.8e-05
7.8e-05
7.8e-05
7.8e-05
7.8e-05
7.8e-05
7.8e-05
7.8e-05
7.8e-05
7.8e-05
7.8e-05
7.8e-05
7.8e-05
7.8e-05
7.8e-05
7.8e-05
7.8e-05
7.8e-05
7.8e-05
7.8e-05
7.8e-05
7.8e-05
7.8e-05
7.8e-05
7.8e-05
7.8e-05
7.8e-05
7.8e-05
7.8e-05
7.8e-05
7.8e-05
7.8e-05
7.8e-05
7.8e-05
7.8e-05
7.8e-05
7.8e-05
7.8e-05
7.8e-05
7.8e-05
7.8e-05
7.8e-05
7.8e-05
7.8e-05
7.8e-05
7.8e-05
7.8e-05
7.8e-05
7.8e-05
7.8e-05
7.8e-05
7.8e-05
7.8e-05
7.8e-05
7.8e-05
7.8e-05
7.8e-05
7.8e-05
7.8e-05
7.8e-05
7.8e-05
7.8e-05
7.8e-05
7.8e-05
7.8e-05
7.8e-05
7.8e-05
7.8e-05
7.8e-05
7.8e-05
7.8e-05
7.8e-05
7.8e-05
7.8e-05
7.8e-05
7.8e-05
7.8e-05
7.8e-05
7.8e-05
7.8e-05
7.79985e-05
7.59918e-05
6.75767e-05
6.09923e-05
5.99785e-05
6.5456e-05
7.4631e-05
7.79959e-05
7.8e-05
7.8e-05
7.8e-05
7.8e-05
7.8e-05
7.8e-05
7.8e-05
7.8e-05
7.8e-05
7.8e-05
7.8e-05
7.8e-05
7.8e-05
7.8e-05
7.8e-05
7.8e-05
7.8e-05
7.8e-05
7.8e-05
7.8e-05
7.8e-05
7.8e-05
7.8e-05
7.8e-05
7.8e-05
7.8e-05
7.8e-05
7.8e-05
7.8e-05
7.8e-05
7.8e-05
7.8e-05
7.8e-05
7.8e-05
7.8e-05
7.8e-05
7.8e-05
7.8e-05
7.8e-05
7.8e-05
7.8e-05
7.8e-05
7.8e-05
7.8e-05
7.8e-05
7.8e-05
7.8e-05
7.8e-05
7.8e-05
7.8e-05
7.8e-05
7.8e-05
7.8e-05
7.8e-05
7.8e-05
7.8e-05
7.8e-05
7.8e-05
7.8e-05
7.8e-05
7.8e-05
7.8e-05
7.8e-05
7.8e-05
7.8e-05
7.8e-05
7.8e-05
7.8e-05
7.8e-05
7.8e-05
7.8e-05
7.8e-05
7.8e-05
7.8e-05
7.8e-05
7.8e-05
7.8e-05
7.8e-05
7.8e-05
7.8e-05
7.8e-05
7.8e-05
7.8e-05
7.8e-05
7.8e-05
7.8e-05
7.8e-05
7.8e-05
7.8e-05
7.8e-05
7.8e-05
7.8e-05
7.8e-05
7.8e-05
7.8e-05
7.8e-05
7.8e-05
7.8e-05
7.8e-05
7.8e-05
7.8e-05
7.8e-05
7.8e-05
7.8e-05
7.8e-05
7.8e-05
7.8e-05
7.8e-05
7.8e-05
7.8e-05
7.8e-05
7.8e-05
7.8e-05
7.8e-05
7.8e-05
7.79981e-05
7.79968e-05
7.79998e-05
7.8e-05
7.8e-05
7.8e-05
7.8e-05
7.8e-05
7.8e-05
7.8e-05
7.8e-05
7.8e-05
7.8e-05
7.8e-05
7.8e-05
7.8e-05
7.8e-05
7.8e-05
7.8e-05
7.8e-05
7.8e-05
7.8e-05
7.8e-05
7.8e-05
7.8e-05
7.8e-05
7.8e-05
7.8e-05
7.8e-05
7.8e-05
7.8e-05
7.8e-05
7.8e-05
7.8e-05
7.8e-05
7.8e-05
7.8e-05
7.8e-05
7.8e-05
7.8e-05
7.8e-05
7.8e-05
7.8e-05
7.8e-05
7.8e-05
7.8e-05
7.8e-05
7.8e-05
7.8e-05
7.8e-05
7.8e-05
7.8e-05
7.8e-05
7.8e-05
7.8e-05
7.8e-05
7.8e-05
7.8e-05
7.8e-05
7.8e-05
7.8e-05
7.8e-05
7.8e-05
7.8e-05
7.8e-05
7.8e-05
7.8e-05
7.8e-05
7.8e-05
7.8e-05
7.8e-05
7.8e-05
7.8e-05
7.8e-05
7.8e-05
7.8e-05
7.8e-05
7.8e-05
7.8e-05
7.8e-05
7.8e-05
7.8e-05
7.8e-05
7.8e-05
7.8e-05
7.8e-05
7.8e-05
7.8e-05
7.8e-05
7.8e-05
7.8e-05
7.8e-05
7.8e-05
7.8e-05
7.8e-05
7.8e-05
7.8e-05
7.8e-05
7.8e-05
7.8e-05
7.8e-05
7.8e-05
7.8e-05
7.8e-05
7.8e-05
7.8e-05
7.8e-05
7.8e-05
7.8e-05
7.8e-05
7.8e-05
7.8e-05
7.8e-05
7.8e-05
7.8e-05
7.8e-05
7.8e-05
7.8e-05
7.8e-05
7.8e-05
7.8e-05
7.8e-05
7.8e-05
7.8e-05
7.8e-05
7.8e-05
7.8e-05
7.8e-05
7.8e-05
7.8e-05
7.8e-05
7.8e-05
7.8e-05
7.8e-05
7.8e-05
7.8e-05
7.8e-05
7.8e-05
7.8e-05
7.8e-05
7.8e-05
7.8e-05
7.8e-05
7.8e-05
7.8e-05
7.8e-05
7.8e-05
7.8e-05
7.8e-05
7.8e-05
7.8e-05
7.8e-05
7.8e-05
7.8e-05
7.8e-05
7.8e-05
7.8e-05
7.8e-05
7.8e-05
7.8e-05
7.8e-05
7.8e-05
7.8e-05
7.8e-05
7.8e-05
7.8e-05
7.8e-05
7.8e-05
7.8e-05
7.8e-05
7.8e-05
7.8e-05
7.8e-05
7.8e-05
7.8e-05
7.8e-05
7.8e-05
7.8e-05
7.8e-05
7.8e-05
7.8e-05
7.8e-05
7.8e-05
7.8e-05
7.8e-05
7.8e-05
7.8e-05
7.8e-05
7.8e-05
7.8e-05
7.8e-05
7.8e-05
7.8e-05
7.8e-05
7.8e-05
7.8e-05
7.8e-05
7.8e-05
7.8e-05
7.8e-05
7.8e-05
7.8e-05
7.8e-05
7.8e-05
7.8e-05
7.8e-05
7.8e-05
7.8e-05
7.8e-05
7.8e-05
7.8e-05
7.8e-05
7.8e-05
7.8e-05
7.8e-05
7.8e-05
7.8e-05
7.8e-05
7.8e-05
7.8e-05
7.8e-05
7.8e-05
7.8e-05
7.8e-05
7.8e-05
7.8e-05
7.8e-05
7.8e-05
7.8e-05
7.8e-05
7.8e-05
7.8e-05
7.8e-05
7.8e-05
7.8e-05
7.8e-05
7.8e-05
7.8e-05
7.8e-05
7.8e-05
7.8e-05
7.8e-05
7.8e-05
7.8e-05
7.8e-05
7.8e-05
7.8e-05
7.8e-05
7.8e-05
7.8e-05
7.8e-05
7.8e-05
7.8e-05
7.8e-05
7.8e-05
7.8e-05
7.8e-05
7.8e-05
7.8e-05
7.8e-05
7.8e-05
7.8e-05
7.8e-05
7.8e-05
7.8e-05
7.8e-05
7.8e-05
7.8e-05
7.8e-05
7.8e-05
7.8e-05
7.8e-05
7.8e-05
7.8e-05
7.8e-05
7.8e-05
7.8e-05
7.8e-05
7.8e-05
7.8e-05
7.8e-05
7.8e-05
7.8e-05
7.8e-05
7.8e-05
7.8e-05
7.8e-05
7.8e-05
7.8e-05
7.8e-05
7.8e-05
7.8e-05
7.8e-05
7.8e-05
7.8e-05
7.8e-05
7.8e-05
7.8e-05
7.8e-05
7.8e-05
7.8e-05
7.8e-05
7.8e-05
7.8e-05
7.8e-05
7.8e-05
7.8e-05
7.8e-05
7.8e-05
7.8e-05
7.8e-05
7.8e-05
7.8e-05
7.8e-05
7.8e-05
7.8e-05
7.8e-05
7.8e-05
7.8e-05
7.8e-05
7.8e-05
7.8e-05
7.8e-05
7.8e-05
7.8e-05
7.8e-05
7.8e-05
7.8e-05
7.8e-05
7.8e-05
7.8e-05
7.8e-05
7.8e-05
7.8e-05
7.8e-05
7.8e-05
7.8e-05
7.8e-05
7.8e-05
7.8e-05
7.8e-05
7.8e-05
7.8e-05
7.8e-05
7.8e-05
7.8e-05
7.8e-05
7.8e-05
7.8e-05
7.8e-05
7.8e-05
7.8e-05
7.8e-05
7.8e-05
7.8e-05
7.8e-05
7.8e-05
7.8e-05
7.8e-05
7.8e-05
7.8e-05
7.8e-05
7.8e-05
7.8e-05
7.8e-05
7.8e-05
7.8e-05
7.8e-05
7.8e-05
7.8e-05
7.8e-05
7.8e-05
7.8e-05
7.8e-05
7.8e-05
7.8e-05
7.8e-05
7.8e-05
7.8e-05
7.8e-05
7.8e-05
7.8e-05
7.8e-05
7.8e-05
7.8e-05
7.8e-05
7.8e-05
7.8e-05
7.8e-05
7.8e-05
7.8e-05
7.8e-05
7.8e-05
7.8e-05
7.8e-05
7.8e-05
7.8e-05
7.8e-05
7.8e-05
7.8e-05
7.8e-05
7.8e-05
7.8e-05
7.8e-05
7.8e-05
7.8e-05
7.8e-05
7.8e-05
7.8e-05
7.8e-05
7.8e-05
7.8e-05
7.8e-05
7.8e-05
7.8e-05
7.8e-05
7.8e-05
7.8e-05
7.8e-05
7.8e-05
7.8e-05
7.8e-05
7.8e-05
7.8e-05
7.8e-05
7.8e-05
7.8e-05
7.8e-05
7.8e-05
7.8e-05
7.8e-05
7.8e-05
7.8e-05
7.8e-05
7.8e-05
7.8e-05
7.8e-05
7.8e-05
7.8e-05
7.8e-05
7.8e-05
7.8e-05
7.8e-05
7.8e-05
7.8e-05
7.8e-05
7.8e-05
7.8e-05
7.8e-05
7.8e-05
7.8e-05
7.8e-05
7.8e-05
7.8e-05
7.8e-05
7.8e-05
7.8e-05
7.8e-05
7.8e-05
7.8e-05
7.8e-05
7.8e-05
7.8e-05
7.8e-05
7.8e-05
7.8e-05
7.8e-05
7.8e-05
7.8e-05
7.8e-05
7.8e-05
7.8e-05
7.8e-05
7.8e-05
7.8e-05
7.8e-05
7.8e-05
7.8e-05
7.8e-05
7.8e-05
7.8e-05
7.8e-05
7.8e-05
7.8e-05
7.8e-05
7.8e-05
7.8e-05
7.8e-05
7.8e-05
7.8e-05
7.8e-05
7.8e-05
7.8e-05
7.8e-05
7.8e-05
7.8e-05
7.8e-05
7.8e-05
7.8e-05
7.8e-05
7.8e-05
7.8e-05
7.8e-05
7.8e-05
7.8e-05
7.8e-05
7.8e-05
7.8e-05
7.8e-05
7.8e-05
7.8e-05
7.8e-05
7.8e-05
7.8e-05
7.8e-05
7.8e-05
7.8e-05
7.8e-05
7.8e-05
7.8e-05
7.8e-05
7.8e-05
7.8e-05
7.8e-05
7.8e-05
7.8e-05
7.8e-05
7.8e-05
7.8e-05
7.8e-05
7.8e-05
7.8e-05
7.8e-05
7.8e-05
7.8e-05
7.8e-05
7.8e-05
7.8e-05
7.8e-05
7.8e-05
7.8e-05
7.8e-05
7.8e-05
7.8e-05
7.8e-05
7.8e-05
7.8e-05
7.8e-05
7.8e-05
7.8e-05
7.8e-05
7.8e-05
7.8e-05
7.8e-05
7.8e-05
7.8e-05
7.8e-05
7.8e-05
7.8e-05
7.8e-05
7.8e-05
7.8e-05
7.8e-05
7.8e-05
7.8e-05
7.8e-05
7.8e-05
7.8e-05
7.8e-05
7.8e-05
7.8e-05
7.8e-05
7.8e-05
7.8e-05
7.8e-05
7.8e-05
7.8e-05
7.8e-05
7.8e-05
7.8e-05
7.8e-05
7.8e-05
7.8e-05
7.8e-05
7.8e-05
7.8e-05
7.8e-05
7.8e-05
7.8e-05
7.8e-05
7.8e-05
7.8e-05
7.8e-05
7.8e-05
7.8e-05
7.8e-05
7.8e-05
7.8e-05
7.8e-05
7.8e-05
7.8e-05
7.8e-05
7.8e-05
7.8e-05
7.8e-05
7.8e-05
7.8e-05
7.8e-05
7.8e-05
7.8e-05
7.8e-05
7.8e-05
7.8e-05
7.8e-05
7.8e-05
7.8e-05
7.8e-05
7.8e-05
7.8e-05
7.8e-05
7.8e-05
7.8e-05
7.8e-05
7.8e-05
7.8e-05
7.8e-05
7.8e-05
7.8e-05
7.8e-05
7.8e-05
7.8e-05
7.8e-05
7.8e-05
7.8e-05
7.8e-05
7.8e-05
7.8e-05
7.8e-05
7.8e-05
7.8e-05
7.8e-05
7.8e-05
7.8e-05
7.8e-05
7.8e-05
7.8e-05
7.8e-05
7.8e-05
7.8e-05
7.8e-05
7.8e-05
7.8e-05
7.8e-05
7.8e-05
7.8e-05
7.8e-05
7.8e-05
7.8e-05
7.8e-05
7.8e-05
7.8e-05
7.8e-05
7.8e-05
7.8e-05
7.8e-05
7.8e-05
7.8e-05
7.8e-05
7.8e-05
7.8e-05
7.8e-05
7.8e-05
7.8e-05
7.8e-05
7.8e-05
7.8e-05
7.8e-05
7.8e-05
7.8e-05
7.8e-05
7.8e-05
7.8e-05
7.8e-05
7.8e-05
7.8e-05
7.8e-05
7.8e-05
7.8e-05
7.8e-05
7.8e-05
7.8e-05
7.8e-05
7.8e-05
7.8e-05
7.8e-05
7.8e-05
7.8e-05
7.8e-05
7.8e-05
7.8e-05
7.8e-05
7.8e-05
7.8e-05
7.8e-05
7.8e-05
7.8e-05
7.8e-05
7.8e-05
7.8e-05
7.8e-05
7.8e-05
7.8e-05
7.8e-05
7.8e-05
7.8e-05
7.8e-05
7.8e-05
7.8e-05
7.8e-05
7.8e-05
7.8e-05
7.8e-05
7.8e-05
7.8e-05
7.8e-05
7.8e-05
7.8e-05
7.8e-05
7.8e-05
7.8e-05
7.8e-05
7.8e-05
7.8e-05
7.8e-05
7.8e-05
7.8e-05
7.8e-05
7.8e-05
7.8e-05
7.8e-05
7.8e-05
7.8e-05
7.8e-05
7.8e-05
7.8e-05
7.8e-05
7.8e-05
7.8e-05
7.8e-05
7.8e-05
7.8e-05
7.8e-05
7.8e-05
7.8e-05
7.8e-05
7.8e-05
7.8e-05
7.8e-05
7.8e-05
7.8e-05
7.8e-05
7.8e-05
7.8e-05
7.8e-05
7.8e-05
7.8e-05
7.8e-05
7.8e-05
7.8e-05
7.8e-05
7.8e-05
7.8e-05
7.8e-05
7.8e-05
7.8e-05
7.8e-05
7.8e-05
7.8e-05
7.8e-05
7.8e-05
7.8e-05
7.8e-05
7.8e-05
7.8e-05
7.8e-05
7.8e-05
7.8e-05
7.8e-05
7.8e-05
7.8e-05
7.8e-05
7.8e-05
7.8e-05
7.8e-05
7.8e-05
7.8e-05
7.8e-05
7.8e-05
7.8e-05
7.8e-05
7.8e-05
7.8e-05
7.8e-05
7.8e-05
7.8e-05
7.8e-05
7.8e-05
7.8e-05
7.8e-05
7.8e-05
7.8e-05
7.8e-05
7.8e-05
7.8e-05
7.8e-05
7.8e-05
7.8e-05
7.8e-05
7.8e-05
7.8e-05
7.8e-05
7.8e-05
7.8e-05
7.8e-05
7.8e-05
7.8e-05
7.8e-05
7.8e-05
7.8e-05
7.8e-05
7.8e-05
7.8e-05
7.8e-05
7.8e-05
7.8e-05
7.8e-05
7.8e-05
7.8e-05
7.8e-05
7.8e-05
7.8e-05
7.8e-05
7.8e-05
7.8e-05
7.8e-05
7.8e-05
7.8e-05
7.8e-05
7.8e-05
7.8e-05
7.8e-05
7.8e-05
7.8e-05
7.8e-05
7.8e-05
7.8e-05
7.8e-05
7.8e-05
7.8e-05
7.8e-05
7.8e-05
7.8e-05
7.8e-05
7.8e-05
7.8e-05
7.8e-05
7.8e-05
7.8e-05
7.8e-05
7.8e-05
7.8e-05
7.8e-05
7.8e-05
7.8e-05
7.8e-05
7.8e-05
7.8e-05
7.8e-05
7.8e-05
7.8e-05
7.8e-05
7.8e-05
7.8e-05
7.8e-05
7.8e-05
7.8e-05
7.8e-05
7.8e-05
7.8e-05
7.8e-05
7.8e-05
7.8e-05
7.8e-05
7.8e-05
7.8e-05
7.8e-05
7.8e-05
7.8e-05
7.8e-05
7.8e-05
7.8e-05
7.8e-05
7.8e-05
7.8e-05
7.8e-05
7.8e-05
7.8e-05
7.8e-05
7.8e-05
7.8e-05
7.8e-05
7.8e-05
7.8e-05
7.8e-05
7.8e-05
7.8e-05
7.8e-05
7.8e-05
7.8e-05
7.8e-05
7.8e-05
7.8e-05
7.8e-05
7.8e-05
7.8e-05
7.8e-05
7.8e-05
7.8e-05
7.8e-05
7.8e-05
7.8e-05
7.8e-05
7.8e-05
7.8e-05
7.8e-05
7.8e-05
7.8e-05
7.8e-05
7.8e-05
7.8e-05
7.8e-05
7.8e-05
7.8e-05
7.8e-05
7.8e-05
7.8e-05
7.8e-05
7.8e-05
7.8e-05
7.8e-05
7.8e-05
7.8e-05
7.8e-05
7.8e-05
7.8e-05
7.8e-05
7.8e-05
7.8e-05
7.8e-05
7.8e-05
7.8e-05
7.8e-05
7.8e-05
7.8e-05
7.8e-05
7.8e-05
7.8e-05
7.8e-05
7.8e-05
7.8e-05
7.8e-05
7.8e-05
7.8e-05
7.8e-05
7.8e-05
7.8e-05
7.8e-05
7.8e-05
7.8e-05
7.8e-05
7.8e-05
7.8e-05
7.8e-05
7.8e-05
7.8e-05
7.8e-05
7.8e-05
7.8e-05
7.8e-05
7.8e-05
7.8e-05
7.8e-05
7.8e-05
7.8e-05
7.8e-05
7.8e-05
7.8e-05
7.8e-05
7.8e-05
7.8e-05
7.8e-05
7.8e-05
7.8e-05
7.8e-05
7.8e-05
7.8e-05
7.8e-05
7.8e-05
7.8e-05
7.8e-05
7.8e-05
7.8e-05
7.8e-05
7.8e-05
7.8e-05
7.8e-05
7.8e-05
7.8e-05
7.8e-05
7.8e-05
7.8e-05
7.8e-05
7.8e-05
7.8e-05
7.8e-05
7.8e-05
7.8e-05
7.8e-05
7.8e-05
7.8e-05
7.8e-05
7.8e-05
7.8e-05
7.8e-05
7.8e-05
7.8e-05
7.8e-05
7.8e-05
7.8e-05
7.8e-05
7.8e-05
7.8e-05
7.8e-05
7.8e-05
7.8e-05
7.8e-05
7.8e-05
7.8e-05
7.8e-05
7.8e-05
7.8e-05
7.8e-05
7.8e-05
7.8e-05
7.8e-05
7.8e-05
7.8e-05
7.8e-05
7.8e-05
7.8e-05
7.8e-05
7.8e-05
7.8e-05
7.8e-05
7.8e-05
7.8e-05
7.8e-05
7.8e-05
7.8e-05
7.8e-05
7.8e-05
7.8e-05
7.8e-05
7.8e-05
7.8e-05
7.8e-05
7.8e-05
7.8e-05
7.8e-05
7.8e-05
7.8e-05
7.8e-05
7.8e-05
7.8e-05
7.8e-05
7.8e-05
7.8e-05
7.8e-05
7.8e-05
7.8e-05
7.8e-05
7.8e-05
7.8e-05
7.8e-05
7.8e-05
7.8e-05
7.8e-05
7.8e-05
7.8e-05
7.8e-05
7.8e-05
7.8e-05
7.8e-05
7.8e-05
7.8e-05
7.8e-05
7.8e-05
7.8e-05
7.8e-05
7.8e-05
7.8e-05
7.8e-05
7.8e-05
7.8e-05
7.8e-05
7.8e-05
7.8e-05
7.8e-05
7.8e-05
7.8e-05
7.8e-05
7.8e-05
7.8e-05
7.8e-05
7.8e-05