/*--------------------------------*- C++ -*----------------------------------*\
| =========                 |                                                 |
| \\      /  F ield         | OpenFOAM: The Open Source CFD Toolbox           |
|  \\    /   O peration     | Version:  2406                                  |
|   \\  /    A nd           | Website:  www.openfoam.com                      |
|    \\/     M anipulation  |                                                 |
\*---------------------------------------------------------------------------*/
FoamFile
{
    version     2.0;
    format      ascii;
    arch        "LSB;label=32;scalar=64";
    class       volScalarField;
    location    "8.95";
    object      C_0;
}
// * * * * * * * * * * * * * * * * * * * * * * * * * * * * * * * * * * * * * //

dimensions      [1 -3 0 0 0 0 0];

internalField   nonuniform List<scalar> 
14400
(
0.216725
0.215908
0.214465
0.21269
0.210895
0.209349
0.208255
0.207741
0.207854
0.208561
0.209745
0.211204
0.212648
0.213707
0.213981
0.213124
0.211011
0.207867
0.204114
0.200211
0.196578
0.19357
0.191483
0.190573
0.191081
0.193247
0.197325
0.203587
0.212319
0.223818
0.238389
0.25635
0.278029
0.303759
0.333857
0.368571
0.407892
0.450641
0.487465
0.512868
0.531936
0.548233
0.562001
0.573423
0.582638
0.589755
0.594852
0.597987
0.599195
0.598495
0.59589
0.591363
0.584882
0.576395
0.565828
0.553083
0.538031
0.520503
0.500278
0.472589
0.433581
0.390794
0.351668
0.31722
0.28742
0.262
0.240627
0.222957
0.208645
0.197349
0.188728
0.182449
0.178212
0.175768
0.17493
0.175568
0.177602
0.180992
0.185731
0.191834
0.199319
0.208195
0.218421
0.229858
0.242181
0.254683
0.265618
0.27161
0.270645
0.264715
0.25663
0.24818
0.240103
0.232788
0.226441
0.221156
0.216939
0.213734
0.211437
0.209907
0.208981
0.208495
0.208305
0.208318
0.208513
0.208952
0.209768
0.211144
0.213287
0.216404
0.220687
0.226296
0.233353
0.24192
0.251981
0.263414
0.275922
0.28891
0.301086
0.308667
0.222143
0.221123
0.219359
0.217238
0.215131
0.213343
0.212095
0.211519
0.211667
0.212504
0.213916
0.215691
0.217518
0.218984
0.219587
0.218829
0.216456
0.21285
0.208584
0.204209
0.200184
0.196873
0.194571
0.193531
0.193985
0.19617
0.200331
0.206733
0.215655
0.22739
0.242241
0.260525
0.28257
0.308706
0.339242
0.374397
0.414091
0.456982
0.492167
0.515958
0.534706
0.550763
0.564347
0.575628
0.584737
0.591775
0.596815
0.599913
0.601102
0.600401
0.597811
0.593317
0.586888
0.578474
0.568006
0.555391
0.540507
0.523199
0.503266
0.477236
0.439705
0.396514
0.356914
0.321997
0.291747
0.265905
0.244144
0.226117
0.211482
0.199899
0.19103
0.18455
0.180165
0.177626
0.176746
0.177392
0.179487
0.182992
0.187903
0.194238
0.202025
0.211277
0.22196
0.233948
0.246934
0.260215
0.271644
0.277424
0.277124
0.271064
0.262486
0.253555
0.245056
0.237391
0.23077
0.225286
0.220945
0.217686
0.215399
0.213928
0.213095
0.212707
0.212593
0.212635
0.212803
0.21317
0.213897
0.215196
0.217296
0.220424
0.224783
0.23054
0.237819
0.246687
0.257132
0.26904
0.282122
0.295744
0.308233
0.315041
0.233494
0.231993
0.22951
0.226642
0.223882
0.221596
0.22003
0.219328
0.219542
0.220643
0.222511
0.224929
0.227559
0.229908
0.23129
0.230825
0.227803
0.223139
0.217773
0.212419
0.207593
0.20367
0.200935
0.199629
0.199971
0.202183
0.206499
0.213168
0.222459
0.234656
0.250059
0.268982
0.291751
0.318697
0.350112
0.38615
0.426478
0.468819
0.50052
0.522023
0.540168
0.555765
0.568996
0.580006
0.588908
0.595791
0.600721
0.603747
0.6049
0.604196
0.601636
0.597206
0.590879
0.582608
0.572331
0.559966
0.545407
0.528518
0.509131
0.485643
0.451114
0.407799
0.367448
0.331634
0.300493
0.273814
0.251282
0.232552
0.217282
0.205133
0.195778
0.188902
0.184219
0.181489
0.180521
0.181185
0.183403
0.18714
0.192398
0.199204
0.207593
0.217589
0.22917
0.242218
0.256429
0.271036
0.28302
0.288401
0.288954
0.283526
0.274255
0.264443
0.255135
0.246791
0.239641
0.233777
0.229204
0.225855
0.223607
0.222281
0.221659
0.221496
0.221555
0.221662
0.221765
0.221966
0.222485
0.223598
0.225587
0.228714
0.233203
0.239236
0.24694
0.256386
0.267566
0.280369
0.294509
0.309252
0.321645
0.326751
0.251784
0.24932
0.24555
0.241434
0.23763
0.234566
0.232509
0.231609
0.23192
0.233413
0.235969
0.23937
0.243264
0.247097
0.249967
0.25032
0.245848
0.239264
0.232087
0.225202
0.219156
0.214307
0.210917
0.209202
0.209361
0.211593
0.216115
0.223159
0.232979
0.245848
0.262059
0.281923
0.305765
0.333907
0.36663
0.404035
0.445442
0.484515
0.511128
0.530888
0.54818
0.563131
0.575865
0.586491
0.595099
0.60176
0.606532
0.609454
0.610555
0.609846
0.60733
0.602994
0.596813
0.588748
0.578745
0.566736
0.552635
0.536336
0.517716
0.496543
0.46673
0.424792
0.383455
0.346308
0.313838
0.285915
0.262241
0.242477
0.226277
0.213307
0.203244
0.195788
0.190667
0.187649
0.18655
0.187242
0.189648
0.193739
0.199523
0.207037
0.216325
0.227421
0.240309
0.254866
0.27073
0.28683
0.298671
0.303655
0.304928
0.301676
0.292078
0.281084
0.270631
0.261324
0.253422
0.247026
0.242143
0.238702
0.236562
0.235513
0.235281
0.235534
0.235921
0.236149
0.23612
0.235997
0.236119
0.236875
0.238631
0.241701
0.24634
0.252743
0.261044
0.271309
0.283522
0.297546
0.312996
0.328689
0.339237
0.342799
0.27845
0.274068
0.268175
0.262195
0.25691
0.252772
0.250046
0.248875
0.24931
0.25132
0.254788
0.259504
0.265124
0.271097
0.276422
0.278568
0.271283
0.261672
0.251917
0.242958
0.235287
0.22921
0.224945
0.222671
0.22256
0.224789
0.22955
0.237057
0.247549
0.261284
0.278549
0.299645
0.324884
0.354563
0.388901
0.427784
0.469468
0.501824
0.52368
0.542217
0.558533
0.572715
0.584844
0.594995
0.603235
0.609619
0.614191
0.616984
0.618018
0.617305
0.614844
0.610627
0.604631
0.596824
0.587165
0.575599
0.56206
0.546476
0.528768
0.508869
0.484396
0.447716
0.405104
0.366224
0.332025
0.302473
0.277307
0.256194
0.238791
0.224764
0.213797
0.205602
0.19992
0.196533
0.195267
0.196002
0.198664
0.203232
0.20972
0.21817
0.228636
0.241156
0.255719
0.272187
0.290069
0.307404
0.317615
0.322386
0.324259
0.323247
0.31569
0.303643
0.291864
0.281382
0.272552
0.265509
0.260271
0.256772
0.254861
0.254294
0.254726
0.255702
0.25668
0.257127
0.25684
0.256116
0.255533
0.255664
0.25699
0.259891
0.264657
0.271494
0.280531
0.291823
0.305317
0.320795
0.337597
0.352696
0.359611
0.362256
0.314618
0.306804
0.29782
0.289358
0.282172
0.276681
0.273118
0.271608
0.272193
0.274835
0.279416
0.285722
0.293397
0.301823
0.309375
0.310044
0.303272
0.290265
0.277446
0.26601
0.256386
0.248814
0.243464
0.240483
0.240011
0.242201
0.247224
0.255274
0.26657
0.281359
0.299914
0.32252
0.34946
0.380968
0.417115
0.457229
0.494567
0.519375
0.538552
0.555766
0.571022
0.584352
0.595799
0.60541
0.613227
0.61929
0.62363
0.626271
0.627228
0.62651
0.624116
0.620038
0.614259
0.606754
0.597492
0.586433
0.573532
0.55874
0.542011
0.523303
0.502461
0.473318
0.431933
0.39153
0.355337
0.323818
0.296831
0.274075
0.255212
0.239913
0.227867
0.218796
0.212455
0.208638
0.207187
0.207989
0.210982
0.216147
0.223505
0.233102
0.244995
0.259222
0.27576
0.294417
0.314408
0.33112
0.339194
0.343999
0.346409
0.346556
0.343116
0.332027
0.319106
0.307353
0.297478
0.289702
0.284089
0.2806
0.279091
0.27929
0.280783
0.282967
0.285017
0.285876
0.285077
0.283259
0.281481
0.280597
0.281215
0.283783
0.28862
0.295929
0.305818
0.31831
0.333262
0.350225
0.367668
0.37813
0.382272
0.384355
0.351434
0.345871
0.334194
0.323042
0.313698
0.306651
0.302116
0.300213
0.300972
0.304349
0.310206
0.318274
0.328049
0.338286
0.342878
0.341202
0.33712
0.324115
0.308619
0.294603
0.282816
0.273535
0.266918
0.263088
0.262167
0.264284
0.269592
0.278263
0.290498
0.306526
0.326604
0.350991
0.379909
0.41344
0.451188
0.490597
0.518381
0.537797
0.555384
0.571274
0.585436
0.597871
0.608591
0.617617
0.624974
0.630685
0.634769
0.637242
0.638114
0.637391
0.635072
0.63115
0.625612
0.618442
0.609616
0.59911
0.586894
0.572942
0.557231
0.53975
0.520501
0.498036
0.464324
0.422566
0.384117
0.350334
0.321229
0.29655
0.275982
0.259206
0.245918
0.235849
0.228765
0.224476
0.222834
0.223741
0.227141
0.233021
0.241406
0.252343
0.265885
0.282056
0.300783
0.32167
0.342985
0.35631
0.363216
0.368006
0.370824
0.371801
0.371147
0.365462
0.352469
0.339553
0.328595
0.320034
0.314039
0.310642
0.309743
0.311056
0.314125
0.318218
0.322219
0.323885
0.322055
0.318286
0.314607
0.312213
0.311782
0.313813
0.318646
0.326453
0.337276
0.351093
0.367526
0.385389
0.398237
0.403706
0.406901
0.408539
0.3848
0.383479
0.375865
0.363016
0.351587
0.342927
0.337342
0.335013
0.335971
0.340159
0.347388
0.357195
0.368333
0.375368
0.375496
0.373617
0.37068
0.362281
0.345422
0.328992
0.314944
0.303797
0.295755
0.290951
0.289498
0.291517
0.297142
0.306522
0.319833
0.337284
0.35911
0.38553
0.416654
0.452288
0.490832
0.520517
0.540369
0.557843
0.573914
0.588508
0.60158
0.613105
0.623076
0.631494
0.638367
0.643706
0.647518
0.649813
0.650596
0.649869
0.647631
0.643877
0.638598
0.631785
0.623422
0.613495
0.601992
0.588902
0.574222
0.557963
0.540152
0.520845
0.496046
0.458597
0.418515
0.382406
0.350962
0.324107
0.301597
0.28314
0.268446
0.257257
0.249351
0.24455
0.242719
0.243771
0.247657
0.25437
0.263935
0.276393
0.291786
0.310101
0.331159
0.354118
0.373447
0.382842
0.389265
0.393985
0.397078
0.398671
0.398947
0.397946
0.391246
0.378004
0.366154
0.356826
0.350446
0.347208
0.347137
0.349903
0.355054
0.361754
0.368853
0.371907
0.368272
0.361543
0.355199
0.350842
0.349014
0.35029
0.355054
0.363386
0.37513
0.390222
0.407305
0.420643
0.427076
0.430609
0.433086
0.43436
0.418116
0.417863
0.415889
0.408108
0.395598
0.385577
0.378958
0.376218
0.377376
0.382372
0.390901
0.401674
0.409059
0.410341
0.409002
0.407065
0.404377
0.400278
0.387629
0.369401
0.353131
0.340031
0.330443
0.324556
0.322501
0.324405
0.330392
0.340584
0.355115
0.37416
0.397918
0.426534
0.459797
0.496319
0.526339
0.54655
0.563468
0.579293
0.59392
0.607265
0.619269
0.629893
0.639113
0.646916
0.653296
0.658252
0.661785
0.663896
0.664587
0.663858
0.661706
0.658128
0.65312
0.646676
0.63879
0.629458
0.618677
0.606451
0.592793
0.577728
0.561298
0.54357
0.524559
0.497749
0.458531
0.420443
0.38654
0.357283
0.3326
0.312257
0.295987
0.283547
0.27473
0.269372
0.267351
0.268589
0.273042
0.280706
0.291601
0.305754
0.323173
0.343748
0.366936
0.390244
0.40365
0.411053
0.417019
0.42159
0.424832
0.42686
0.427835
0.427976
0.427035
0.421055
0.409761
0.400081
0.39336
0.390287
0.391248
0.395606
0.40278
0.41131
0.415723
0.417091
0.415782
0.41121
0.402567
0.396412
0.392945
0.393269
0.397935
0.406853
0.419157
0.434708
0.446376
0.452571
0.455873
0.45857
0.460472
0.461455
0.451684
0.451618
0.451565
0.44998
0.443997
0.434008
0.42673
0.423737
0.425013
0.430441
0.439395
0.444811
0.445911
0.444593
0.443105
0.441265
0.438959
0.436141
0.43028
0.415209
0.397554
0.382644
0.371454
0.364403
0.361681
0.363467
0.369884
0.381009
0.396895
0.417658
0.443408
0.474119
0.508234
0.536859
0.556528
0.572472
0.587659
0.601943
0.615207
0.627362
0.638339
0.648086
0.656568
0.663761
0.669649
0.674221
0.677473
0.6794
0.679999
0.679268
0.677206
0.67381
0.669078
0.66301
0.655606
0.646869
0.636806
0.625433
0.612772
0.598857
0.583741
0.567491
0.550191
0.531421
0.503552
0.464777
0.428464
0.396627
0.369566
0.347141
0.32912
0.315288
0.305458
0.299485
0.297264
0.298726
0.303829
0.312563
0.324933
0.340935
0.360508
0.383365
0.408078
0.425542
0.433988
0.440666
0.446167
0.450524
0.453802
0.456099
0.457557
0.458364
0.45876
0.458632
0.454793
0.448457
0.441854
0.438897
0.441002
0.44629
0.451123
0.454059
0.454441
0.454414
0.455238
0.455161
0.452497
0.447647
0.442765
0.442137
0.44667
0.456122
0.467173
0.475497
0.4801
0.482793
0.485274
0.487324
0.488779
0.489534
0.485318
0.48536
0.485504
0.485882
0.485696
0.482656
0.478672
0.476107
0.477151
0.48009
0.482342
0.481989
0.480425
0.479013
0.47756
0.475931
0.474052
0.471908
0.469549
0.462844
0.447787
0.431898
0.419188
0.41096
0.407509
0.409186
0.416124
0.428336
0.445669
0.468121
0.495507
0.526995
0.552385
0.570323
0.584948
0.59915
0.612753
0.625611
0.637605
0.648639
0.658638
0.667543
0.675311
0.68191
0.687316
0.691512
0.694486
0.696231
0.696741
0.696011
0.69404
0.690827
0.686373
0.68068
0.673754
0.665605
0.656247
0.645703
0.634003
0.621189
0.607318
0.592461
0.5767
0.560132
0.541663
0.514099
0.476872
0.442574
0.413049
0.388402
0.368462
0.35309
0.34213
0.335468
0.333028
0.33475
0.340584
0.350498
0.364473
0.3824
0.404021
0.428315
0.448528
0.458664
0.465524
0.471458
0.476457
0.480539
0.483753
0.486178
0.487931
0.489162
0.49006
0.49085
0.491769
0.490832
0.488929
0.487856
0.488436
0.489756
0.490166
0.489228
0.488875
0.489069
0.489885
0.491302
0.49325
0.493397
0.493092
0.494056
0.497446
0.50234
0.506907
0.509248
0.511198
0.513225
0.515107
0.516672
0.517787
0.518367
0.518911
0.518998
0.51921
0.519623
0.520338
0.521438
0.521265
0.520544
0.52034
0.519887
0.517935
0.516226
0.514784
0.513477
0.51219
0.510847
0.509409
0.507887
0.506343
0.504872
0.499035
0.48711
0.473646
0.464508
0.460266
0.461875
0.469433
0.482918
0.501587
0.525059
0.551954
0.572773
0.587824
0.600855
0.613791
0.626427
0.638592
0.650143
0.660962
0.67095
0.68003
0.688138
0.695225
0.701253
0.706193
0.710024
0.712729
0.714297
0.714721
0.713995
0.712116
0.709085
0.704905
0.699582
0.693126
0.68555
0.676874
0.667128
0.656347
0.644578
0.631883
0.618333
0.604016
0.589035
0.573511
0.556014
0.530189
0.495083
0.463443
0.436623
0.414631
0.397587
0.385371
0.377926
0.375235
0.377253
0.383894
0.395071
0.410733
0.430464
0.453257
0.474357
0.485587
0.492096
0.497985
0.503185
0.507663
0.511422
0.514491
0.51693
0.518827
0.520294
0.521468
0.522498
0.523529
0.524655
0.525726
0.526041
0.525462
0.524333
0.523416
0.522874
0.522762
0.523102
0.523928
0.525257
0.527122
0.529608
0.53243
0.534737
0.53678
0.538155
0.53925
0.540656
0.542218
0.5438
0.545259
0.546468
0.547331
0.547779
0.552418
0.552511
0.552715
0.553061
0.55357
0.554212
0.554801
0.554973
0.554206
0.552901
0.551505
0.550194
0.549009
0.547919
0.546879
0.545857
0.54485
0.543889
0.543047
0.542451
0.54228
0.539173
0.532794
0.524355
0.51952
0.521297
0.529398
0.544076
0.562922
0.5815
0.59713
0.608755
0.620015
0.631483
0.642933
0.654174
0.665045
0.675409
0.685149
0.694171
0.702394
0.709753
0.716197
0.721683
0.72618
0.729661
0.732109
0.733509
0.733851
0.73313
0.731344
0.728493
0.724582
0.719619
0.713616
0.706593
0.698573
0.689588
0.679678
0.668895
0.657301
0.644972
0.631997
0.618482
0.604552
0.590355
0.574742
0.551965
0.520419
0.492186
0.468115
0.449376
0.435778
0.427426
0.424441
0.426796
0.43431
0.446714
0.464019
0.484662
0.504046
0.515007
0.520735
0.526145
0.531137
0.535633
0.53959
0.542994
0.54586
0.548225
0.550151
0.551719
0.553019
0.554146
0.555173
0.556118
0.556882
0.557233
0.55709
0.556667
0.556277
0.556091
0.556198
0.556647
0.557469
0.558677
0.560271
0.562218
0.564354
0.5664
0.568045
0.569394
0.570626
0.571905
0.57322
0.5745
0.575659
0.576612
0.577289
0.57764
0.585832
0.585912
0.586079
0.586335
0.586668
0.587024
0.587278
0.587242
0.586756
0.585939
0.584991
0.584037
0.583139
0.58231
0.581548
0.580853
0.580246
0.579771
0.579507
0.579579
0.580164
0.581518
0.582263
0.581506
0.581809
0.585067
0.592365
0.602561
0.613679
0.623844
0.632622
0.642089
0.651999
0.662129
0.672284
0.682292
0.692006
0.701297
0.710056
0.71819
0.725621
0.732284
0.738126
0.743104
0.747182
0.750333
0.752537
0.753777
0.754045
0.753332
0.751637
0.748961
0.74531
0.740694
0.735128
0.728634
0.721236
0.712972
0.703883
0.694023
0.683455
0.672257
0.660518
0.648344
0.63586
0.623212
0.610573
0.597523
0.578819
0.554245
0.528753
0.508807
0.493751
0.484339
0.481004
0.483739
0.492173
0.505254
0.523323
0.538138
0.547093
0.551637
0.55619
0.560612
0.564783
0.56862
0.572069
0.575106
0.577728
0.579958
0.581835
0.58341
0.584745
0.585895
0.5869
0.587764
0.588441
0.588854
0.588994
0.588967
0.588933
0.589014
0.589293
0.58982
0.590623
0.591709
0.593065
0.594641
0.596326
0.597971
0.599443
0.600749
0.601953
0.603121
0.604255
0.60532
0.606265
0.607032
0.607573
0.607853
0.619165
0.619228
0.619353
0.619532
0.619743
0.61994
0.620043
0.619961
0.619636
0.619111
0.61848
0.617825
0.6172
0.616635
0.616149
0.615763
0.615509
0.61544
0.615633
0.616194
0.617268
0.619033
0.621691
0.62549
0.629586
0.634065
0.639614
0.645503
0.65167
0.658755
0.666582
0.67498
0.683762
0.692751
0.701781
0.710705
0.719389
0.727717
0.735587
0.742912
0.749616
0.755637
0.76092
0.765423
0.76911
0.771952
0.773927
0.77502
0.775218
0.774516
0.77291
0.770404
0.767003
0.762719
0.75757
0.751576
0.744768
0.73718
0.728859
0.719857
0.71024
0.700082
0.689473
0.678516
0.667332
0.656061
0.644865
0.633936
0.623442
0.609881
0.593294
0.574861
0.558688
0.548303
0.544592
0.547514
0.55663
0.567759
0.576522
0.581873
0.584856
0.588232
0.591778
0.595329
0.598764
0.601995
0.604962
0.607631
0.60999
0.612045
0.613819
0.615343
0.616654
0.617788
0.618767
0.619597
0.620264
0.620749
0.621065
0.621276
0.621473
0.62174
0.622141
0.622717
0.623494
0.624473
0.62564
0.626952
0.628339
0.629714
0.631008
0.632204
0.633318
0.63437
0.635359
0.636262
0.637048
0.637677
0.638118
0.638345
0.652434
0.652482
0.652573
0.652697
0.652833
0.652948
0.652993
0.652923
0.652715
0.652389
0.651994
0.651584
0.651201
0.65088
0.65065
0.650539
0.650588
0.650848
0.651389
0.652297
0.65368
0.655657
0.658335
0.661776
0.665835
0.670376
0.675219
0.680544
0.686414
0.692911
0.699973
0.707487
0.715319
0.723331
0.731385
0.739356
0.747128
0.754594
0.761664
0.768255
0.774296
0.779726
0.784495
0.788559
0.791882
0.794437
0.7962
0.797156
0.797292
0.796602
0.795084
0.792741
0.789579
0.785611
0.780854
0.775333
0.769077
0.762123
0.754516
0.746309
0.737565
0.728359
0.718776
0.708916
0.698891
0.688834
0.678892
0.669236
0.660063
0.651606
0.6432
0.633183
0.623473
0.615967
0.61214
0.612154
0.614686
0.617731
0.618914
0.620208
0.622206
0.624656
0.627359
0.630163
0.63295
0.635633
0.638152
0.640466
0.642555
0.644414
0.646053
0.647488
0.648742
0.649835
0.650783
0.651594
0.65227
0.652811
0.65324
0.653598
0.653943
0.654332
0.654812
0.655415
0.65616
0.65705
0.65807
0.65919
0.660363
0.661538
0.662671
0.663741
0.664745
0.665682
0.666547
0.667323
0.667986
0.668512
0.668877
0.669065
0.685656
0.685692
0.68576
0.68585
0.685946
0.686024
0.686058
0.686024
0.685912
0.685736
0.685525
0.685314
0.68514
0.685035
0.68503
0.685157
0.685457
0.685977
0.686776
0.687925
0.689499
0.691577
0.694218
0.697441
0.701191
0.705398
0.71
0.715035
0.72053
0.726502
0.73291
0.739676
0.746698
0.753867
0.761073
0.768208
0.775171
0.78187
0.78822
0.794147
0.799585
0.804477
0.808774
0.812435
0.815424
0.817714
0.819282
0.820112
0.820193
0.819517
0.818084
0.815896
0.81296
0.80929
0.804904
0.799826
0.794085
0.787719
0.780772
0.773296
0.765352
0.757012
0.748357
0.739479
0.730484
0.72149
0.712631
0.704055
0.695923
0.688411
0.681685
0.676032
0.671224
0.666829
0.663335
0.660863
0.658733
0.657397
0.657199
0.657833
0.659104
0.660827
0.66284
0.665013
0.667239
0.669437
0.671546
0.673525
0.675349
0.677004
0.67849
0.679815
0.680989
0.682026
0.682936
0.683728
0.684408
0.684988
0.685485
0.685933
0.68637
0.686834
0.687359
0.687971
0.688683
0.689496
0.6904
0.691374
0.692386
0.693404
0.694397
0.695345
0.696238
0.697068
0.697825
0.698495
0.699062
0.699507
0.699814
0.699971
0.718842
0.718871
0.718925
0.718997
0.719075
0.719145
0.719191
0.719201
0.719174
0.719118
0.719054
0.719009
0.719011
0.71909
0.719277
0.719602
0.720105
0.720826
0.721815
0.723126
0.724816
0.726934
0.729518
0.732578
0.736092
0.740026
0.74435
0.749064
0.75417
0.759658
0.765491
0.771607
0.777929
0.784367
0.790832
0.797231
0.803479
0.809493
0.815199
0.820528
0.825421
0.829824
0.833691
0.836982
0.839665
0.841711
0.843101
0.843818
0.843849
0.84319
0.841839
0.839798
0.837076
0.833686
0.829646
0.82498
0.819718
0.813896
0.807557
0.800751
0.793536
0.785981
0.77816
0.770159
0.762075
0.754013
0.746088
0.738428
0.731163
0.724429
0.718351
0.713041
0.708471
0.70459
0.701303
0.698565
0.696499
0.695175
0.694652
0.694821
0.695551
0.696706
0.698162
0.699809
0.701556
0.703329
0.705071
0.706741
0.70831
0.709762
0.71109
0.712292
0.713375
0.714344
0.715207
0.715972
0.716648
0.717245
0.717781
0.71828
0.718768
0.719274
0.719821
0.720428
0.721103
0.72185
0.72266
0.723519
0.724405
0.725295
0.726167
0.727004
0.727794
0.728526
0.729189
0.729771
0.73026
0.73064
0.730902
0.731035
0.751999
0.752024
0.752072
0.752138
0.752214
0.752291
0.75236
0.752417
0.752463
0.752507
0.752564
0.752656
0.752805
0.753039
0.753384
0.753871
0.754533
0.755407
0.756532
0.75795
0.759703
0.761825
0.764342
0.767261
0.770574
0.774263
0.778309
0.782701
0.787428
0.792469
0.797788
0.803334
0.809043
0.814842
0.820656
0.826407
0.83202
0.837425
0.842553
0.847346
0.851746
0.855706
0.859182
0.862138
0.864541
0.866367
0.867594
0.868208
0.868197
0.867555
0.866282
0.864381
0.86186
0.858731
0.855014
0.850731
0.845911
0.84059
0.834808
0.828614
0.822062
0.815215
0.808143
0.800924
0.793644
0.786397
0.779282
0.772405
0.765874
0.759791
0.754248
0.749311
0.744991
0.741271
0.738118
0.735522
0.733524
0.732152
0.731413
0.731249
0.731572
0.732286
0.733293
0.734506
0.735847
0.737252
0.738668
0.740057
0.741389
0.742645
0.743814
0.74489
0.745874
0.746768
0.747577
0.748307
0.748965
0.749563
0.750115
0.750637
0.75115
0.751673
0.752223
0.752814
0.753453
0.754141
0.754873
0.755637
0.756419
0.757203
0.757971
0.75871
0.759408
0.760052
0.760634
0.761142
0.761565
0.761893
0.762118
0.762231
0.78513
0.785154
0.785202
0.785269
0.785351
0.785443
0.785541
0.785645
0.785756
0.785883
0.78604
0.786244
0.786515
0.786875
0.78735
0.787965
0.788751
0.789736
0.790955
0.792439
0.79422
0.796322
0.798763
0.801551
0.804681
0.808142
0.811921
0.816003
0.820371
0.825001
0.829858
0.834898
0.840066
0.845302
0.850542
0.85572
0.86077
0.865632
0.870245
0.874555
0.878512
0.882072
0.885194
0.887845
0.889995
0.89162
0.892701
0.893222
0.893174
0.892552
0.891354
0.889585
0.887251
0.884366
0.880948
0.877018
0.872606
0.867744
0.862472
0.856834
0.850882
0.844674
0.838273
0.831749
0.825181
0.818648
0.812238
0.806038
0.800135
0.794612
0.789539
0.784965
0.780912
0.777384
0.774375
0.771883
0.769921
0.768497
0.767599
0.767188
0.767203
0.767571
0.768218
0.769074
0.770074
0.771162
0.772294
0.77343
0.774544
0.775615
0.77663
0.77758
0.778463
0.779277
0.780025
0.780712
0.781344
0.781928
0.782477
0.783003
0.783521
0.784044
0.784585
0.785153
0.785754
0.786388
0.787052
0.787737
0.788433
0.789126
0.789806
0.790459
0.791074
0.791642
0.792152
0.792596
0.792965
0.79325
0.793444
0.793542
0.818236
0.818262
0.818312
0.818385
0.818478
0.818589
0.818717
0.818863
0.819032
0.81923
0.81947
0.819766
0.820135
0.820597
0.821175
0.82189
0.822767
0.823833
0.825113
0.826632
0.828415
0.830479
0.832839
0.835498
0.838456
0.841704
0.84523
0.84902
0.853053
0.857306
0.861746
0.866333
0.871021
0.875759
0.88049
0.885159
0.88971
0.894088
0.898239
0.902117
0.905676
0.908875
0.911678
0.914054
0.915974
0.917418
0.918366
0.918806
0.918727
0.918125
0.916998
0.915352
0.913193
0.910534
0.907392
0.903789
0.899751
0.895309
0.890501
0.885369
0.879959
0.874325
0.868524
0.862621
0.856681
0.850777
0.844983
0.839372
0.834017
0.828984
0.82433
0.820096
0.816309
0.81298
0.810114
0.807713
0.805781
0.804314
0.803299
0.802703
0.80248
0.802577
0.802935
0.803498
0.804212
0.805031
0.805913
0.806826
0.807742
0.808642
0.80951
0.810338
0.811119
0.811852
0.812536
0.813173
0.813769
0.814329
0.814862
0.815378
0.815886
0.816397
0.816919
0.81746
0.818022
0.818606
0.81921
0.819826
0.820448
0.821065
0.821667
0.822245
0.822788
0.823289
0.823738
0.824127
0.824449
0.824697
0.824866
0.824951
0.851317
0.851345
0.8514
0.851481
0.851587
0.851719
0.851876
0.85206
0.852278
0.852535
0.852843
0.853213
0.853662
0.854205
0.854862
0.855652
0.856596
0.857715
0.859031
0.860562
0.862328
0.864342
0.866614
0.869147
0.871941
0.874987
0.878276
0.881792
0.885516
0.889424
0.893486
0.897668
0.901927
0.906221
0.910501
0.914718
0.918823
0.922768
0.926508
0.929999
0.9332
0.936074
0.93859
0.940717
0.942431
0.943711
0.944541
0.944908
0.944802
0.944221
0.943163
0.941631
0.939635
0.937185
0.934298
0.930994
0.927298
0.923241
0.918855
0.914181
0.90926
0.904142
0.898879
0.893527
0.888146
0.882797
0.877545
0.872451
0.867578
0.862978
0.858701
0.854782
0.851248
0.848113
0.845388
0.843075
0.841174
0.839681
0.838579
0.837843
0.837438
0.837321
0.837447
0.83777
0.838246
0.838835
0.839503
0.840218
0.840957
0.841699
0.842432
0.843142
0.843825
0.844475
0.845092
0.845676
0.846229
0.846757
0.847265
0.84776
0.848249
0.848739
0.849236
0.849745
0.850268
0.850805
0.851354
0.85191
0.852467
0.853017
0.853553
0.854065
0.854546
0.854987
0.855383
0.855724
0.856007
0.856224
0.856371
0.856445
0.88437
0.8844
0.884461
0.884551
0.884672
0.884823
0.885006
0.885225
0.885484
0.88579
0.886153
0.886583
0.887094
0.887699
0.888416
0.88926
0.89025
0.891401
0.892732
0.894258
0.895993
0.897947
0.900127
0.902537
0.905172
0.908029
0.911094
0.914356
0.917794
0.921387
0.925108
0.928924
0.9328
0.936697
0.940574
0.944387
0.948095
0.951655
0.955026
0.958169
0.961049
0.963632
0.965889
0.967793
0.969321
0.970455
0.971179
0.971481
0.971354
0.970794
0.9698
0.968376
0.96653
0.964273
0.96162
0.958591
0.955208
0.9515
0.947498
0.943238
0.938759
0.934105
0.929323
0.924463
0.919578
0.914721
0.909947
0.905311
0.900863
0.89665
0.892712
0.889083
0.885786
0.882838
0.880249
0.878023
0.876161
0.874656
0.873494
0.872654
0.872108
0.871823
0.871762
0.871889
0.872166
0.872562
0.873044
0.873586
0.874167
0.874768
0.875374
0.875975
0.876563
0.877132
0.877681
0.878209
0.878716
0.879205
0.879681
0.880148
0.88061
0.881073
0.881541
0.882016
0.8825
0.882992
0.883492
0.883994
0.884493
0.884985
0.885461
0.885916
0.886342
0.886732
0.887081
0.887382
0.88763
0.88782
0.887949
0.888014
0.917392
0.917425
0.917491
0.917591
0.917725
0.917894
0.918101
0.918349
0.918642
0.918989
0.919395
0.919872
0.92043
0.921083
0.921843
0.922724
0.923741
0.924908
0.926238
0.927745
0.929438
0.931326
0.933412
0.935699
0.938184
0.94086
0.943717
0.946742
0.949918
0.953224
0.956634
0.96012
0.963652
0.967194
0.97071
0.974163
0.977516
0.980731
0.983771
0.986604
0.989196
0.991517
0.993541
0.995244
0.996606
0.997609
0.998238
0.998484
0.998339
0.9978
0.996867
0.995544
0.993837
0.991757
0.989319
0.98654
0.983443
0.980053
0.976399
0.972514
0.968433
0.964196
0.959845
0.955425
0.950981
0.946561
0.942213
0.937982
0.933913
0.930046
0.926416
0.923051
0.919975
0.917203
0.914746
0.912609
0.910791
0.909287
0.908086
0.90717
0.906517
0.9061
0.90589
0.905856
0.90597
0.906201
0.906524
0.906917
0.907358
0.907831
0.908322
0.908821
0.909319
0.90981
0.910292
0.910762
0.91122
0.911667
0.912106
0.91254
0.912971
0.913403
0.913838
0.914277
0.914723
0.915173
0.915626
0.916079
0.916528
0.916968
0.917392
0.917796
0.918174
0.918519
0.918827
0.919092
0.91931
0.919477
0.919591
0.919648
0.950381
0.950417
0.950489
0.950597
0.950743
0.950928
0.951155
0.951427
0.951749
0.952127
0.952567
0.95308
0.953673
0.954359
0.955148
0.956052
0.957082
0.958251
0.959569
0.961045
0.962689
0.964505
0.966497
0.968664
0.971004
0.97351
0.976172
0.978979
0.981913
0.984955
0.988083
0.991272
0.994493
0.997716
1.00091
1.00404
1.00707
1.00998
1.01272
1.01528
1.01761
1.0197
1.02151
1.02304
1.02425
1.02514
1.02568
1.02588
1.02572
1.0252
1.02432
1.02309
1.02152
1.0196
1.01736
1.01481
1.01197
1.00887
1.00553
1.00199
0.998263
0.994401
0.990436
0.986409
0.98236
0.97833
0.97436
0.970492
0.966762
0.963206
0.959854
0.956732
0.95386
0.951254
0.948924
0.946875
0.945107
0.943616
0.942393
0.941424
0.94069
0.94017
0.939841
0.939677
0.939654
0.939748
0.939936
0.940198
0.940517
0.940876
0.941263
0.941667
0.942081
0.942498
0.942914
0.943326
0.943734
0.944138
0.944537
0.944935
0.945331
0.945729
0.94613
0.946533
0.946941
0.94735
0.947761
0.948169
0.948572
0.948965
0.949344
0.949703
0.950038
0.950343
0.950615
0.950849
0.951042
0.951189
0.951288
0.951339
0.983335
0.983373
0.98345
0.983566
0.983722
0.98392
0.984164
0.984455
0.984799
0.985201
0.985668
0.986206
0.986824
0.987532
0.988338
0.989252
0.990285
0.991445
0.99274
0.994179
0.995767
0.997509
0.999405
1.00146
1.00366
1.006
1.00848
1.01109
1.0138
1.0166
1.01947
1.02239
1.02533
1.02827
1.03117
1.03401
1.03676
1.03939
1.04187
1.04417
1.04628
1.04815
1.04978
1.05114
1.05222
1.053
1.05347
1.05363
1.05346
1.05296
1.05214
1.05099
1.04953
1.04777
1.0457
1.04336
1.04076
1.03793
1.03487
1.03163
1.02823
1.02471
1.02109
1.01742
1.01372
1.01004
1.00641
1.00286
0.999437
0.996161
0.993062
0.990162
0.987479
0.985029
0.982821
0.980859
0.979146
0.977677
0.976446
0.975441
0.974648
0.97405
0.973626
0.973357
0.973222
0.973201
0.973274
0.973424
0.973635
0.973893
0.974186
0.974504
0.974839
0.975186
0.975539
0.975896
0.976253
0.976612
0.97697
0.97733
0.97769
0.978053
0.978418
0.978786
0.979156
0.979527
0.979898
0.980265
0.980626
0.980977
0.981314
0.981634
0.981931
0.982202
0.982442
0.982649
0.982818
0.982948
0.983035
0.98308
1.01625
1.01629
1.01637
1.01649
1.01666
1.01687
1.01712
1.01743
1.01779
1.01821
1.0187
1.01925
1.01989
1.02061
1.02142
1.02234
1.02336
1.0245
1.02577
1.02716
1.02869
1.03036
1.03216
1.0341
1.03617
1.03836
1.04067
1.04309
1.04559
1.04818
1.05081
1.05349
1.05618
1.05885
1.06149
1.06408
1.06657
1.06895
1.07119
1.07327
1.07516
1.07685
1.07831
1.07953
1.08049
1.08118
1.08158
1.0817
1.08152
1.08104
1.08027
1.07921
1.07786
1.07623
1.07433
1.07218
1.0698
1.06719
1.0644
1.06144
1.05833
1.05511
1.0518
1.04844
1.04506
1.04169
1.03837
1.03511
1.03196
1.02894
1.02607
1.02337
1.02087
1.01856
1.01647
1.0146
1.01294
1.0115
1.01027
1.00925
1.00841
1.00775
1.00726
1.0069
1.00668
1.00656
1.00653
1.00659
1.00671
1.00687
1.00708
1.00732
1.00759
1.00787
1.00816
1.00846
1.00877
1.00909
1.0094
1.00972
1.01005
1.01037
1.0107
1.01104
1.01137
1.0117
1.01204
1.01237
1.01269
1.013
1.0133
1.01359
1.01385
1.01409
1.0143
1.01449
1.01463
1.01475
1.01483
1.01486
1.04913
1.04917
1.04925
1.04938
1.04955
1.04977
1.05003
1.05035
1.05073
1.05116
1.05165
1.05222
1.05286
1.05359
1.0544
1.05531
1.05632
1.05744
1.05867
1.06001
1.06148
1.06307
1.06478
1.06661
1.06855
1.0706
1.07276
1.075
1.07732
1.0797
1.08212
1.08457
1.08703
1.08947
1.09188
1.09423
1.09649
1.09865
1.10067
1.10255
1.10426
1.10578
1.10709
1.10818
1.10903
1.10963
1.10998
1.11006
1.10988
1.10943
1.1087
1.10771
1.10646
1.10495
1.10321
1.10123
1.09904
1.09666
1.0941
1.09138
1.08854
1.08559
1.08257
1.07949
1.0764
1.07331