/*--------------------------------*- C++ -*----------------------------------*\
| =========                 |                                                 |
| \\      /  F ield         | OpenFOAM: The Open Source CFD Toolbox           |
|  \\    /   O peration     | Version:  2406                                  |
|   \\  /    A nd           | Website:  www.openfoam.com                      |
|    \\/     M anipulation  |                                                 |
\*---------------------------------------------------------------------------*/
FoamFile
{
    version     2.0;
    format      ascii;
    arch        "LSB;label=32;scalar=64";
    class       volScalarField;
    location    "8.95";
    object      D;
}
// * * * * * * * * * * * * * * * * * * * * * * * * * * * * * * * * * * * * * //

dimensions      [0 2 -1 0 0 0 0];

internalField   nonuniform List<scalar> 
14400
(
7.57989e-05
7.5783e-05
7.57742e-05
7.57898e-05
7.58297e-05
7.58808e-05
7.59259e-05
7.59519e-05
7.59557e-05
7.59459e-05
7.59419e-05
7.59681e-05
7.60439e-05
7.61674e-05
7.62971e-05
7.63523e-05
7.62722e-05
7.61093e-05
7.59121e-05
7.56755e-05
7.53531e-05
7.48814e-05
7.42005e-05
7.32718e-05
7.20935e-05
7.0712e-05
6.92197e-05
6.77311e-05
6.63497e-05
6.5144e-05
6.41467e-05
6.33669e-05
6.28076e-05
6.24821e-05
6.2437e-05
6.281e-05
6.40634e-05
6.86659e-05
0.000102695
0.000138236
0.00013824
0.00013824
0.00013824
0.00013824
0.00013824
0.00013824
0.00013824
0.00013824
0.00013824
0.00013824
0.00013824
0.00013824
0.00013824
0.00013824
0.00013824
0.00013824
0.00013824
0.00013824
0.000138208
9.33496e-05
6.83422e-05
6.44432e-05
6.34191e-05
6.3249e-05
6.35382e-05
6.41828e-05
6.51689e-05
6.65176e-05
6.82495e-05
7.03392e-05
7.26688e-05
7.50259e-05
7.71756e-05
7.89382e-05
8.02133e-05
8.09645e-05
8.11984e-05
8.09501e-05
8.02801e-05
7.9279e-05
7.80745e-05
7.68342e-05
7.57644e-05
7.51282e-05
7.53685e-05
7.78036e-05
8.9883e-05
0.00013737
9.88955e-05
7.73687e-05
7.31442e-05
7.18408e-05
7.14828e-05
7.15822e-05
7.19407e-05
7.24468e-05
7.30231e-05
7.36096e-05
7.41597e-05
7.46371e-05
7.50134e-05
7.5265e-05
7.53709e-05
7.53144e-05
7.5088e-05
7.46968e-05
7.41559e-05
7.3487e-05
7.27186e-05
7.18869e-05
7.10376e-05
7.02244e-05
6.95071e-05
6.89513e-05
6.86363e-05
6.86823e-05
6.93369e-05
7.13231e-05
7.82403e-05
0.000130515
7.50056e-05
7.49204e-05
7.4813e-05
7.47324e-05
7.46931e-05
7.46871e-05
7.46984e-05
7.47145e-05
7.47321e-05
7.476e-05
7.48183e-05
7.4934e-05
7.51302e-05
7.54039e-05
7.56893e-05
7.58281e-05
7.56622e-05
7.53589e-05
7.50391e-05
7.47158e-05
7.43415e-05
7.38496e-05
7.31799e-05
7.22955e-05
7.11966e-05
6.99268e-05
6.85672e-05
6.72156e-05
6.59595e-05
6.48591e-05
6.39459e-05
6.32329e-05
6.27285e-05
6.24528e-05
6.24614e-05
6.29081e-05
6.43078e-05
6.95314e-05
0.00011403
0.00013824
0.00013824
0.00013824
0.00013824
0.00013824
0.00013824
0.00013824
0.00013824
0.00013824
0.00013824
0.00013824
0.00013824
0.00013824
0.00013824
0.00013824
0.00013824
0.00013824
0.00013824
0.00013824
0.000138237
0.000103845
6.91872e-05
6.46357e-05
6.34773e-05
6.32384e-05
6.34702e-05
6.40525e-05
6.49607e-05
6.62062e-05
6.78032e-05
6.97308e-05
7.18925e-05
7.41066e-05
7.61548e-05
7.78551e-05
7.90967e-05
7.98337e-05
8.00666e-05
7.98292e-05
7.9185e-05
7.82301e-05
7.70974e-05
7.59553e-05
7.50073e-05
7.45168e-05
7.4972e-05
7.81103e-05
9.62104e-05
0.000138071
0.000110317
7.80962e-05
7.29951e-05
7.14596e-05
7.09567e-05
7.0933e-05
7.11776e-05
7.15786e-05
7.20632e-05
7.25777e-05
7.308e-05
7.35351e-05
7.39118e-05
7.41782e-05
7.4302e-05
7.42556e-05
7.40278e-05
7.3631e-05
7.30935e-05
7.24482e-05
7.17292e-05
7.09725e-05
7.02183e-05
6.95126e-05
6.89077e-05
6.84649e-05
6.82653e-05
6.84461e-05
6.93196e-05
7.19254e-05
8.18974e-05
0.000136462
7.37616e-05
7.35146e-05
7.32015e-05
7.29383e-05
7.27582e-05
7.2654e-05
7.26077e-05
7.26051e-05
7.26429e-05
7.27302e-05
7.28903e-05
7.31588e-05
7.3575e-05
7.41549e-05
7.48115e-05
7.51949e-05
7.47514e-05
7.40998e-05
7.35194e-05
7.30266e-05
7.25561e-05
7.20312e-05
7.13894e-05
7.0595e-05
6.96461e-05
6.85758e-05
6.74442e-05
6.63226e-05
6.52766e-05
6.43548e-05
6.35875e-05
6.29934e-05
6.25908e-05
6.24128e-05
6.25366e-05
6.31662e-05
6.49862e-05
7.16272e-05
0.000130932
0.00013824
0.00013824
0.00013824
0.00013824
0.00013824
0.00013824
0.00013824
0.00013824
0.00013824
0.00013824
0.00013824
0.00013824
0.00013824
0.00013824
0.00013824
0.00013824
0.00013824
0.00013824
0.00013824
0.00013824
0.000121808
7.07743e-05
6.50952e-05
6.36331e-05
6.32407e-05
6.33556e-05
6.38194e-05
6.45855e-05
6.56479e-05
6.70085e-05
6.86481e-05
7.04977e-05
7.24237e-05
7.42476e-05
7.57976e-05
7.69514e-05
7.7648e-05
7.78777e-05
7.76721e-05
7.70986e-05
7.62601e-05
7.52929e-05
7.43616e-05
7.36593e-05
7.34486e-05
7.4285e-05
7.8607e-05
0.000109165
0.000138233
0.000127431
7.95972e-05
7.29491e-05
7.08962e-05
7.01038e-05
6.98587e-05
6.99086e-05
7.01335e-05
7.04641e-05
7.08544e-05
7.12698e-05
7.16796e-05
7.20504e-05
7.23395e-05
7.24952e-05
7.24686e-05
7.22415e-05
7.18403e-05
7.13169e-05
7.07213e-05
7.00933e-05
6.94651e-05
6.8868e-05
6.83366e-05
6.79138e-05
6.76567e-05
6.76535e-05
6.80756e-05
6.93834e-05
7.36919e-05
0.000100631
0.000138218
7.26514e-05
7.20738e-05
7.14274e-05
7.09172e-05
7.05683e-05
7.03538e-05
7.02434e-05
7.02186e-05
7.02745e-05
7.04216e-05
7.0689e-05
7.11297e-05
7.18259e-05
7.28825e-05
7.4324e-05
7.5527e-05
7.41129e-05
7.27305e-05
7.17358e-05
7.10116e-05
7.04227e-05
6.98655e-05
6.92691e-05
6.85936e-05
6.78288e-05
6.69915e-05
6.61181e-05
6.52546e-05
6.44466e-05
6.3732e-05
6.31402e-05
6.26963e-05
6.24303e-05
6.23954e-05
6.27133e-05
6.37436e-05
6.72178e-05
8.98003e-05
0.000138193
0.00013824
0.00013824
0.00013824
0.00013824
0.00013824
0.00013824
0.00013824
0.00013824
0.00013824
0.00013824
0.00013824
0.00013824
0.00013824
0.00013824
0.00013824
0.00013824
0.00013824
0.00013824
0.00013824
0.00013824
0.000137078
7.65344e-05
6.63082e-05
6.39958e-05
6.33026e-05
6.3232e-05
6.35293e-05
6.41103e-05
6.49452e-05
6.60192e-05
6.73094e-05
6.87651e-05
7.02961e-05
7.17761e-05
7.30678e-05
7.40564e-05
7.46722e-05
7.48963e-05
7.47555e-05
7.43171e-05
7.36829e-05
7.29819e-05
7.23647e-05
7.20134e-05
7.22075e-05
7.36198e-05
7.94081e-05
0.000125295
0.00013824
0.000138
9.08233e-05
7.40106e-05
7.05028e-05
6.92199e-05
6.86783e-05
6.84972e-05
6.85248e-05
6.86868e-05
6.89403e-05
6.92569e-05
6.96117e-05
6.99726e-05
7.0289e-05
7.04881e-05
7.04899e-05
7.02643e-05
6.98576e-05
6.93537e-05
6.88188e-05
6.82945e-05
6.78068e-05
6.73775e-05
6.70322e-05
6.68079e-05
6.67631e-05
6.70029e-05
6.77598e-05
6.97279e-05
7.62946e-05
0.000126282
0.00013824
7.2596e-05
7.11678e-05
6.99601e-05
6.91356e-05
6.86054e-05
6.82831e-05
6.81125e-05
6.80656e-05
6.81358e-05
6.8335e-05
6.87006e-05
6.93127e-05
7.03346e-05
7.21329e-05
7.5616e-05
8.22461e-05
7.47196e-05
7.16926e-05
7.009e-05
6.90928e-05
6.8382e-05
6.77969e-05
6.72476e-05
6.66853e-05
6.60897e-05
6.54623e-05
6.48204e-05
6.4191e-05
6.36044e-05
6.30906e-05
6.26781e-05
6.23981e-05
6.22942e-05
6.24485e-05
6.30569e-05
6.47551e-05
7.09493e-05
0.000125453
0.00013824
0.00013824
0.00013824
0.00013824
0.00013824
0.00013824
0.00013824
0.00013824
0.00013824
0.00013824
0.00013824
0.00013824
0.00013824
0.00013824
0.00013824
0.00013824
0.00013824
0.00013824
0.00013824
0.00013824
0.00013824
0.000138239
0.000110728
6.94989e-05
6.47247e-05
6.34868e-05
6.31483e-05
6.32373e-05
6.36087e-05
6.42032e-05
6.49882e-05
6.59331e-05
6.69955e-05
6.81129e-05
6.92023e-05
7.01706e-05
7.09326e-05
7.14301e-05
7.16433e-05
7.15933e-05
7.13378e-05
7.09643e-05
7.05832e-05
7.03283e-05
7.03858e-05
7.11184e-05
7.36979e-05
8.50845e-05
0.000137287
0.00013824
0.00013824
0.000124623
7.71314e-05
7.06686e-05
6.85921e-05
6.76709e-05
6.72433e-05
6.70832e-05
6.70952e-05
6.72321e-05
6.74674e-05
6.77815e-05
6.81474e-05
6.85116e-05
6.87805e-05
6.88216e-05
6.8584e-05
6.81447e-05
6.76372e-05
6.71427e-05
6.67002e-05
6.63282e-05
6.60413e-05
6.58603e-05
6.58226e-05
6.59983e-05
6.65326e-05
6.78214e-05
7.16369e-05
9.37669e-05
0.000138178
0.00013824
7.73945e-05
7.16414e-05
6.91888e-05
6.78861e-05
6.71299e-05
6.66886e-05
6.64548e-05
6.63851e-05
6.64687e-05
6.67206e-05
6.71909e-05
6.80043e-05
6.94721e-05
7.27065e-05
8.4835e-05
0.000131371
7.90744e-05
7.14995e-05
6.88913e-05
6.75508e-05
6.67048e-05
6.60825e-05
6.55622e-05
6.50827e-05
6.46143e-05
6.41472e-05
6.36861e-05
6.32453e-05
6.28448e-05
6.25091e-05
6.22673e-05
6.21582e-05
6.2245e-05
6.26606e-05
6.37896e-05
6.7536e-05
9.37948e-05
0.000138222
0.00013824
0.00013824
0.00013824
0.00013824
0.00013824
0.00013824
0.00013824
0.00013824
0.00013824
0.00013824
0.00013824
0.00013824
0.00013824
0.00013824
0.00013824
0.00013824
0.00013824
0.00013824
0.00013824
0.00013824
0.00013824
0.00013824
0.000136554
7.52091e-05
6.6112e-05
6.39138e-05
6.31753e-05
6.30036e-05
6.31476e-05
6.3507e-05
6.40284e-05
6.46725e-05
6.53994e-05
6.61627e-05
6.69079e-05
6.7577e-05
6.81171e-05
6.84918e-05
6.86894e-05
6.87272e-05
6.86496e-05
6.85253e-05
6.8446e-05
6.85383e-05
6.90165e-05
7.04154e-05
7.5343e-05
0.000112385
0.000138239
0.00013824
0.00013824
0.000138206
9.74259e-05
7.28348e-05
6.85763e-05
6.7052e-05
6.63351e-05
6.59904e-05
6.58735e-05
6.59217e-05
6.61066e-05
6.64142e-05
6.68287e-05
6.73012e-05
6.7723e-05
6.78356e-05
6.75364e-05
6.69742e-05
6.63939e-05
6.58878e-05
6.5483e-05
6.51869e-05
6.50085e-05
6.49672e-05
6.5109e-05
6.55364e-05
6.64825e-05
6.86761e-05
7.6027e-05
0.000132384
0.00013824
0.00013824
0.000127516
7.67962e-05
6.97175e-05
6.73879e-05
6.62539e-05
6.56415e-05
6.53223e-05
6.5223e-05
6.53247e-05
6.56486e-05
6.62717e-05
6.74171e-05
6.97509e-05
7.67724e-05
0.000128811
0.000138238
0.000108527
7.35541e-05
6.83908e-05
6.65164e-05
6.54844e-05
6.47946e-05
6.42725e-05
6.38385e-05
6.34528e-05
6.30974e-05
6.27685e-05
6.24722e-05
6.22229e-05
6.2043e-05
6.19653e-05
6.20429e-05
6.23737e-05
6.31896e-05
6.52695e-05
7.30733e-05
0.000135254
0.00013824
0.00013824
0.00013824
0.00013824
0.00013824
0.00013824
0.00013824
0.00013824
0.00013824
0.00013824
0.00013824
0.00013824
0.00013824
0.00013824
0.00013824
0.00013824
0.00013824
0.00013824
0.00013824
0.00013824
0.00013824
0.00013824
0.00013824
0.00013824
0.000119573
7.05613e-05
6.4972e-05
6.34357e-05
6.28966e-05
6.27853e-05
6.2917e-05
6.32074e-05
6.3605e-05
6.40697e-05
6.45641e-05
6.50511e-05
6.54951e-05
6.58661e-05
6.61453e-05
6.63299e-05
6.64358e-05
6.64986e-05
6.65744e-05
6.67474e-05
6.71571e-05
6.80917e-05
7.03911e-05
7.835e-05
0.000134652
0.00013824
0.00013824
0.00013824
0.00013824
0.000136579
7.94619e-05
6.97325e-05
6.70629e-05
6.59226e-05
6.53497e-05
6.51016e-05
6.50793e-05
6.52484e-05
6.56031e-05
6.61592e-05
6.68981e-05
6.77804e-05
6.81016e-05
6.75512e-05
6.65641e-05
6.57472e-05
6.51357e-05
6.47076e-05
6.44442e-05
6.43484e-05
6.44407e-05
6.4791e-05
6.56032e-05
6.74557e-05
7.33479e-05
0.000117331
0.00013824
0.00013824
0.00013824
0.00013824
0.000120637
7.45168e-05
6.81764e-05
6.61313e-05
6.51992e-05
6.47307e-05
6.45829e-05
6.47161e-05
6.5168e-05
6.60869e-05
6.80535e-05
7.38582e-05
0.000113001
0.000138239
0.00013824
0.000136038
7.80295e-05
6.8843e-05
6.6088e-05
6.47462e-05
6.39274e-05
6.33612e-05
6.29353e-05
6.25945e-05
6.23123e-05
6.20786e-05
6.18947e-05
6.17726e-05
6.17371e-05
6.18331e-05
6.21476e-05
6.28726e-05
6.4606e-05
7.06282e-05
0.000123535
0.00013824
0.00013824
0.00013824
0.00013824
0.00013824
0.00013824
0.00013824
0.00013824
0.00013824
0.00013824
0.00013824
0.00013824
0.00013824
0.00013824
0.00013824
0.00013824
0.00013824
0.00013824
0.00013824
0.00013824
0.00013824
0.00013824
0.00013824
0.00013824
0.00013824
0.000138215
9.27589e-05
6.78757e-05
6.41517e-05
6.30057e-05
6.25788e-05
6.24781e-05
6.25616e-05
6.27578e-05
6.30219e-05
6.33205e-05
6.36261e-05
6.3916e-05
6.41733e-05
6.439e-05
6.45692e-05
6.47279e-05
6.48985e-05
6.51348e-05
6.55289e-05
6.62677e-05
6.78699e-05
7.28854e-05
0.000110141
0.000138239
0.00013824
0.00013824
0.00013824
0.00013824
0.00013824
0.000131768
7.56805e-05
6.84554e-05
6.63244e-05
6.532e-05
6.48798e-05
6.47838e-05
6.49824e-05
6.54856e-05
6.64312e-05
6.7951e-05
7.13216e-05
7.29843e-05
7.06868e-05
6.74953e-05
6.59311e-05
6.50068e-05
6.44509e-05
6.41645e-05
6.41424e-05
6.44065e-05
6.50811e-05
6.67537e-05
7.19628e-05
0.000104893
0.000138237
0.00013824
0.00013824
0.00013824
0.00013824
0.00013824
0.00011371
7.32708e-05
6.73675e-05
6.56217e-05
6.48009e-05
6.45548e-05
6.47533e-05
6.54972e-05
6.71794e-05
7.24414e-05
0.000103352
0.000138234
0.00013824
0.00013824
0.00013824
0.000120346
7.28671e-05
6.6674e-05
6.45772e-05
6.34868e-05
6.28094e-05
6.23494e-05
6.202e-05
6.1782e-05
6.16195e-05
6.15306e-05
6.15279e-05
6.16469e-05
6.1962e-05
6.26582e-05
6.42694e-05
6.95564e-05
0.000109992
0.00013824
0.00013824
0.00013824
0.00013824
0.00013824
0.00013824
0.00013824
0.00013824
0.00013824
0.00013824
0.00013824
0.00013824
0.00013824
0.00013824
0.00013824
0.00013824
0.00013824
0.00013824
0.00013824
0.00013824
0.00013824
0.00013824
0.00013824
0.00013824
0.00013824
0.00013824
0.00013824
0.000136947
7.53909e-05
6.58229e-05
6.34982e-05
6.26113e-05
6.22385e-05
6.21175e-05
6.21375e-05
6.2241e-05
6.23933e-05
6.25705e-05
6.27558e-05
6.29395e-05
6.31194e-05
6.33029e-05
6.35097e-05
6.37758e-05
6.41638e-05
6.47942e-05
6.59554e-05
6.86415e-05
7.89607e-05
0.00013695
0.00013824
0.00013824
0.00013824
0.00013824
0.00013824
0.00013824
0.00013824
0.00012988
7.55145e-05
6.89459e-05
6.64375e-05
6.55456e-05
6.53089e-05
6.56527e-05
6.65982e-05
6.91087e-05
7.41132e-05
0.000104638
0.00012469
9.80839e-05
7.30499e-05
6.79401e-05
6.59584e-05
6.49819e-05
6.45421e-05
6.46275e-05
6.52602e-05
6.66763e-05
7.19307e-05
0.000103876
0.000138233
0.00013824
0.00013824
0.00013824
0.00013824
0.00013824
0.00013824
0.00013824
0.000117157
7.36427e-05
6.83318e-05
6.60962e-05
6.55875e-05
6.59602e-05
6.77304e-05
7.28639e-05
0.000107071
0.000138233
0.00013824
0.00013824
0.00013824
0.00013824
0.000138229
9.87099e-05
7.00194e-05
6.53123e-05
6.35686e-05
6.26446e-05
6.20883e-05
6.17318e-05
6.15141e-05
6.14111e-05
6.14186e-05
6.1554e-05
6.18826e-05
6.2555e-05
6.41282e-05
6.9178e-05
0.000103569
0.000138238
0.00013824
0.00013824
0.00013824
0.00013824
0.00013824
0.00013824
0.00013824
0.00013824
0.00013824
0.00013824
0.00013824
0.00013824
0.00013824
0.00013824
0.00013824
0.00013824
0.00013824
0.00013824
0.00013824
0.00013824
0.00013824
0.00013824
0.00013824
0.00013824
0.00013824
0.00013824
0.00013824
0.00013824
0.000130973
7.16432e-05
6.49629e-05
6.30758e-05
6.22833e-05
6.19155e-05
6.17555e-05
6.17135e-05
6.17453e-05
6.18245e-05
6.19353e-05
6.20708e-05
6.22325e-05
6.24315e-05
6.26935e-05
6.30669e-05
6.36422e-05
6.46226e-05
6.66279e-05
7.29383e-05
0.000124001
0.00013824
0.00013824
0.00013824
0.00013824
0.00013824
0.00013824
0.00013824
0.00013824
0.00013824
0.000134407
8.56084e-05
7.17339e-05
6.88182e-05
6.78924e-05
6.91498e-05
7.2116e-05
8.7636e-05
0.000130789
0.000138237
0.00013824
0.000138226
0.000125409
7.88384e-05
7.07336e-05
6.75706e-05
6.63028e-05
6.67544e-05
6.91987e-05
7.35343e-05
0.000116048
0.000138236
0.00013824
0.00013824
0.00013824
0.00013824
0.00013824
0.00013824
0.00013824
0.00013824
0.00013824
0.000129951
8.61487e-05
7.19302e-05
7.04427e-05
7.14915e-05
8.01489e-05
0.000124269
0.000138238
0.00013824
0.00013824
0.00013824
0.00013824
0.00013824
0.00013824
0.000138123
8.7007e-05
6.85433e-05
6.45812e-05
6.302e-05
6.22383e-05
6.17875e-05
6.15622e-05
6.15235e-05
6.16662e-05
6.20188e-05
6.27598e-05
6.4277e-05
6.95556e-05
0.000105734
0.000138237
0.00013824
0.00013824
0.00013824
0.00013824
0.00013824
0.00013824
0.00013824
0.00013824
0.00013824
0.00013824
0.00013824
0.00013824
0.00013824
0.00013824
0.00013824
0.00013824
0.00013824
0.00013824
0.00013824
0.00013824
0.00013824
0.00013824
0.00013824
0.00013824
0.00013824
0.00013824
0.00013824
0.00013824
0.00013824
0.00013824
0.000123345
7.07166e-05
6.45916e-05
6.28168e-05
6.20492e-05
6.16533e-05
6.14474e-05
6.13609e-05
6.13536e-05
6.14047e-05
6.15078e-05
6.16665e-05
6.18967e-05
6.22358e-05
6.27628e-05
6.36427e-05
6.53556e-05
7.02751e-05
0.000103323
0.000138236
0.00013824
0.00013824
0.00013824
0.00013824
0.00013824
0.00013824
0.00013824
0.00013824
0.00013824
0.00013824
0.000138056
0.000118386
8.99729e-05
8.07397e-05
9.3634e-05
0.000121881
0.000138122
0.00013824
0.00013824
0.00013824
0.00013824
0.00013824
0.000137371
0.000113129
8.1935e-05
7.33333e-05
7.63213e-05
0.00010061
0.000132521
0.00013824
0.00013824
0.00013824
0.00013824
0.00013824
0.00013824
0.00013824
0.00013824
0.00013824
0.00013824
0.00013824
0.00013824
0.000138099
0.000125942
0.000113178
0.00012296
0.000137676
0.00013824
0.00013824
0.00013824
0.00013824
0.00013824
0.00013824
0.00013824
0.00013824
0.00013824
0.000138053
8.74766e-05
6.88279e-05
6.45436e-05
6.31382e-05
6.23885e-05
6.20986e-05
6.21691e-05
6.26209e-05
6.34922e-05
6.57507e-05
7.08893e-05
0.000116871
0.000138239
0.00013824
0.00013824
0.00013824
0.00013824
0.00013824
0.00013824
0.00013824
0.00013824
0.00013824
0.00013824
0.00013824
0.00013824
0.00013824
0.00013824
0.00013824
0.00013824
0.00013824
0.00013824
0.00013824
0.00013824
0.00013824
0.00013824
0.00013824
0.00013824
0.00013824
0.00013824
0.00013824
0.00013824
0.00013824
0.00013824
0.00013824
0.00013824
0.000120598
7.05204e-05
6.45146e-05
6.27895e-05
6.19588e-05
6.15015e-05
6.12657e-05
6.11626e-05
6.11545e-05
6.1234e-05
6.14074e-05
6.1696e-05
6.21622e-05
6.29674e-05
6.45111e-05
6.85133e-05
8.92519e-05
0.000138174
0.00013824
0.00013824
0.00013824
0.00013824
0.00013824
0.00013824
0.00013824
0.00013824
0.00013824
0.00013824
0.00013824
0.00013824
0.00013824
0.000138162
0.000137657
0.000138204
0.00013824
0.00013824
0.00013824
0.00013824
0.00013824
0.00013824
0.00013824
0.00013824
0.00013824
0.000137867
0.000133837
0.000136747
0.000138233
0.00013824
0.00013824
0.00013824
0.00013824
0.00013824
0.00013824
0.00013824
0.00013824
0.00013824
0.00013824
0.00013824
0.00013824
0.00013824
0.00013824
0.00013824
0.00013824
0.00013824
0.00013824
0.00013824
0.00013824
0.00013824
0.00013824
0.00013824
0.00013824
0.00013824
0.00013824
0.00013824
0.00013824
0.000138156
0.000102232
7.07136e-05
6.65935e-05
6.42913e-05
6.37287e-05
6.41265e-05
6.60331e-05
6.91242e-05
8.43138e-05
0.000131518
0.00013824
0.00013824
0.00013824
0.00013824
0.00013824
0.00013824
0.00013824
0.00013824
0.00013824
0.00013824
0.00013824
0.00013824
0.00013824
0.00013824
0.00013824
0.00013824
0.00013824
0.00013824
0.00013824
0.00013824
0.00013824
0.00013824
0.00013824
0.00013824
0.00013824
0.00013824
0.00013824
0.00013824
0.00013824
0.00013824
0.00013824
0.00013824
0.00013824
0.00013824
0.00013824
0.000124711
7.12432e-05
6.52988e-05
6.31146e-05
6.20666e-05
6.15757e-05
6.13274e-05
6.1236e-05
6.12958e-05
6.15165e-05
6.19261e-05
6.26434e-05
6.41474e-05
6.80878e-05
8.52356e-05
0.000138052
0.00013824
0.00013824
0.00013824
0.00013824
0.00013824
0.00013824
0.00013824
0.00013824
0.00013824
0.00013824
0.00013824
0.00013824
0.00013824
0.00013824
0.00013824
0.00013824
0.00013824
0.00013824
0.00013824
0.00013824
0.00013824
0.00013824
0.00013824
0.00013824
0.00013824
0.00013824
0.00013824
0.00013824
0.00013824
0.00013824
0.00013824
0.00013824
0.00013824
0.00013824
0.00013824
0.00013824
0.00013824
0.00013824
0.00013824
0.00013824
0.00013824
0.00013824
0.00013824
0.00013824
0.00013824
0.00013824
0.00013824
0.00013824
0.00013824
0.00013824
0.00013824
0.00013824
0.00013824
0.00013824
0.00013824
0.00013824
0.00013824
0.00013824
0.00013824
0.000138237
0.000126547
9.10767e-05
7.17443e-05
6.98706e-05
7.18098e-05
8.9146e-05
0.000121037
0.00013814
0.00013824
0.00013824
0.00013824
0.00013824
0.00013824
0.00013824
0.00013824
0.00013824
0.00013824
0.00013824
0.00013824
0.00013824
0.00013824
0.00013824
0.00013824
0.00013824
0.00013824
0.00013824
0.00013824
0.00013824
0.00013824
0.00013824
0.00013824
0.00013824
0.00013824
0.00013824
0.00013824
0.00013824
0.00013824
0.00013824
0.00013824
0.00013824
0.00013824
0.00013824
0.00013824
0.00013824
0.00013824
0.000133016
7.86799e-05
6.75783e-05
6.38298e-05
6.27183e-05
6.21282e-05
6.18423e-05
6.18772e-05
6.22469e-05
6.29911e-05
6.43611e-05
6.90225e-05
9.19747e-05
0.000138089
0.00013824
0.00013824
0.00013824
0.00013824
0.00013824
0.00013824
0.00013824
0.00013824
0.00013824
0.00013824
0.00013824
0.00013824
0.00013824
0.00013824
0.00013824
0.00013824
0.00013824
0.00013824
0.00013824
0.00013824
0.00013824
0.00013824
0.00013824
0.00013824
0.00013824
0.00013824
0.00013824
0.00013824
0.00013824
0.00013824
0.00013824
0.00013824
0.00013824
0.00013824
0.00013824
0.00013824
0.00013824
0.00013824
0.00013824
0.00013824
0.00013824
0.00013824
0.00013824
0.00013824
0.00013824
0.00013824
0.00013824
0.00013824
0.00013824
0.00013824
0.00013824
0.00013824
0.00013824
0.00013824
0.00013824
0.00013824
0.00013824
0.00013824
0.00013824
0.00013824
0.00013824
0.00013824
0.00013821
0.000134985
0.000130515
0.000135434
0.0001382
0.00013824
0.00013824
0.00013824
0.00013824
0.00013824
0.00013824
0.00013824
0.00013824
0.00013824
0.00013824
0.00013824
0.00013824
0.00013824
0.00013824
0.00013824
0.00013824
0.00013824
0.00013824
0.00013824
0.00013824
0.00013824
0.00013824
0.00013824
0.00013824
0.00013824
0.00013824
0.00013824
0.00013824
0.00013824
0.00013824
0.00013824
0.00013824
0.00013824
0.00013824
0.00013824
0.00013824
0.00013824
0.00013824
0.00013824
0.00013824
0.000137887
0.000106626
7.06505e-05
6.71705e-05
6.48618e-05
6.36906e-05
6.36594e-05
6.47274e-05
6.72609e-05
7.1239e-05
0.000111979
0.000138214
0.00013824
0.00013824
0.00013824
0.00013824
0.00013824
0.00013824
0.00013824
0.00013824
0.00013824
0.00013824
0.00013824
0.00013824
0.00013824
0.00013824
0.00013824
0.00013824
0.00013824
0.00013824
0.00013824
0.00013824
0.00013824
0.00013824
0.00013824
0.00013824
0.00013824
0.00013824
0.00013824
0.00013824
0.00013824
0.00013824
0.00013824
0.00013824
0.00013824
0.00013824
0.00013824
0.00013824
0.00013824
0.00013824
0.00013824
0.00013824
0.00013824
0.00013824
0.00013824
0.00013824
0.00013824
0.00013824
0.00013824
0.00013824
0.00013824
0.00013824
0.00013824
0.00013824
0.00013824
0.00013824
0.00013824
0.00013824
0.00013824
0.00013824
0.00013824
0.00013824
0.00013824
0.00013824
0.00013824
0.00013824
0.00013824
0.00013824
0.00013824
0.00013824
0.00013824
0.00013824
0.00013824
0.00013824
0.00013824
0.00013824
0.00013824
0.00013824
0.00013824
0.00013824
0.00013824
0.00013824
0.00013824
0.00013824
0.00013824
0.00013824
0.00013824
0.00013824
0.00013824
0.00013824
0.00013824
0.00013824
0.00013824
0.00013824
0.00013824
0.00013824
0.00013824
0.00013824
0.00013824
0.00013824
0.00013824
0.00013824
0.00013824
0.00013824
0.00013824
0.00013824
0.00013824
0.00013824
0.00013824
0.00013824
0.00013824
0.000138239
0.000132696
0.000105683
7.96778e-05
7.07764e-05
7.04241e-05
7.69888e-05
0.000103422
0.000132844
0.00013824
0.00013824
0.00013824
0.00013824
0.00013824
0.00013824
0.00013824
0.00013824
0.00013824
0.00013824
0.00013824
0.00013824
0.00013824
0.00013824
0.00013824
0.00013824
0.00013824
0.00013824
0.00013824
0.00013824
0.00013824
0.00013824
0.00013824
0.00013824
0.00013824
0.00013824
0.00013824
0.00013824
0.00013824
0.00013824
0.00013824
0.00013824
0.00013824
0.00013824
0.00013824
0.00013824
0.00013824
0.00013824
0.00013824
0.00013824
0.00013824
0.00013824
0.00013824
0.00013824
0.00013824
0.00013824
0.00013824
0.00013824
0.00013824
0.00013824
0.00013824
0.00013824
0.00013824
0.00013824
0.00013824
0.00013824
0.00013824
0.00013824
0.00013824
0.00013824
0.00013824
0.00013824
0.00013824
0.00013824
0.00013824
0.00013824
0.00013824
0.00013824
0.00013824
0.00013824
0.00013824
0.00013824
0.00013824
0.00013824
0.00013824
0.00013824
0.00013824
0.00013824
0.00013824
0.00013824
0.00013824
0.00013824
0.00013824
0.00013824
0.00013824
0.00013824
0.00013824
0.00013824
0.00013824
0.00013824
0.00013824
0.00013824
0.00013824
0.00013824
0.00013824
0.00013824
0.00013824
0.00013824
0.00013824
0.00013824
0.00013824
0.00013824
0.00013824
0.00013824
0.00013824
0.00013824
0.00013824
0.00013824
0.00013824
0.00013824
0.00013824
0.00013824
0.00013824
0.000138239
0.000137955
0.000134507
0.000133647
0.000137671
0.000138238
0.00013824
0.00013824
0.00013824
0.00013824
0.00013824
0.00013824
0.00013824
0.00013824
0.00013824
0.00013824
0.00013824
0.00013824
0.00013824
0.00013824
0.00013824
0.00013824
0.00013824
0.00013824
0.00013824
0.00013824
0.00013824
0.00013824
0.00013824
0.00013824
0.00013824
0.00013824
0.00013824
0.00013824
0.00013824
0.00013824
0.00013824
0.00013824
0.00013824
0.00013824
0.00013824
0.00013824
0.00013824
0.00013824
0.00013824
0.00013824
0.00013824
0.00013824
0.00013824
0.00013824
0.00013824
0.00013824
0.00013824
0.00013824
0.00013824
0.00013824
0.00013824
0.00013824
0.00013824
0.00013824
0.00013824
0.00013824
0.00013824
0.00013824
0.00013824
0.00013824
0.00013824
0.00013824
0.00013824
0.00013824
0.00013824
0.00013824
0.00013824
0.00013824
0.00013824
0.00013824
0.00013824
0.00013824
0.00013824
0.00013824
0.00013824
0.00013824
0.00013824
0.00013824
0.00013824
0.00013824
0.00013824
0.00013824
0.00013824
0.00013824
0.00013824
0.00013824
0.00013824
0.00013824
0.00013824
0.00013824
0.00013824
0.00013824
0.00013824
0.00013824
0.00013824
0.00013824
0.00013824
0.00013824
0.00013824
0.00013824
0.00013824
0.00013824
0.00013824
0.00013824
0.00013824
0.00013824
0.00013824
0.00013824
0.00013824
0.00013824
0.00013824
0.00013824
0.00013824
0.00013824
0.00013824
0.00013824
0.00013824
0.00013824
0.00013824
0.00013824
0.00013824
0.00013824
0.00013824
0.00013824
0.00013824
0.00013824
0.00013824
0.00013824
0.00013824
0.00013824
0.00013824
0.00013824
0.00013824
0.00013824
0.00013824
0.00013824
0.00013824
0.00013824
0.00013824
0.00013824
0.00013824
0.00013824
0.00013824
0.00013824
0.00013824
0.00013824
0.00013824
0.00013824
0.00013824
0.00013824
0.00013824
0.00013824
0.00013824
0.00013824
0.00013824
0.00013824
0.00013824
0.00013824
0.00013824
0.00013824
0.00013824
0.00013824
0.00013824
0.00013824
0.00013824
0.00013824
0.00013824
0.00013824
0.00013824
0.00013824
0.00013824
0.00013824
0.00013824
0.00013824
0.00013824
0.00013824
0.00013824
0.00013824
0.00013824
0.00013824
0.00013824
0.00013824
0.00013824
0.00013824
0.00013824
0.00013824
0.00013824
0.00013824
0.00013824
0.00013824
0.00013824
0.00013824
0.00013824
0.00013824
0.00013824
0.00013824
0.00013824
0.00013824
0.00013824
0.00013824
0.00013824
0.00013824
0.00013824
0.00013824
0.00013824
0.00013824
0.00013824
0.00013824
0.00013824
0.00013824
0.00013824
0.00013824
0.00013824
0.00013824
0.00013824
0.00013824
0.00013824
0.00013824
0.00013824
0.00013824
0.00013824
0.00013824
0.00013824
0.00013824
0.00013824
0.00013824
0.00013824
0.00013824
0.00013824
0.00013824
0.00013824
0.00013824
0.00013824
0.00013824
0.00013824
0.00013824
0.00013824
0.00013824
0.00013824
0.00013824
0.00013824
0.00013824
0.00013824
0.00013824
0.00013824
0.00013824
0.00013824
0.00013824
0.00013824
0.00013824
0.00013824
0.00013824
0.00013824
0.00013824
0.00013824
0.00013824
0.00013824
0.00013824
0.00013824
0.00013824
0.00013824
0.00013824
0.00013824
0.00013824
0.00013824
0.00013824
0.00013824
0.00013824
0.00013824
0.00013824
0.00013824
0.00013824
0.00013824
0.00013824
0.00013824
0.00013824
0.00013824
0.00013824
0.00013824
0.00013824
0.00013824
0.00013824
0.00013824
0.00013824
0.00013824
0.00013824
0.00013824
0.00013824
0.00013824
0.00013824
0.00013824
0.00013824
0.00013824
0.00013824
0.00013824
0.00013824
0.00013824
0.00013824
0.00013824
0.00013824
0.00013824
0.00013824
0.00013824
0.00013824
0.00013824
0.00013824
0.00013824
0.00013824
0.00013824
0.00013824
0.00013824
0.00013824
0.00013824
0.00013824
0.00013824
0.00013824
0.00013824
0.00013824
0.00013824
0.00013824
0.00013824
0.00013824
0.00013824
0.00013824
0.00013824
0.00013824
0.00013824
0.00013824
0.00013824
0.00013824
0.00013824
0.00013824
0.00013824
0.00013824
0.00013824
0.00013824
0.00013824
0.00013824
0.00013824
0.00013824
0.00013824
0.00013824
0.00013824
0.00013824
0.00013824
0.00013824
0.00013824
0.00013824
0.00013824
0.00013824
0.00013824
0.00013824
0.00013824
0.00013824
0.00013824
0.00013824
0.00013824
0.00013824
0.00013824
0.00013824
0.00013824
0.00013824
0.00013824
0.00013824
0.00013824
0.00013824
0.00013824
0.00013824
0.00013824
0.00013824
0.00013824
0.00013824
0.00013824
0.00013824
0.00013824
0.00013824
0.00013824
0.00013824
0.00013824
0.00013824
0.00013824
0.00013824
0.00013824
0.00013824
0.00013824
0.00013824
0.00013824
0.00013824
0.00013824
0.00013824
0.00013824
0.00013824
0.00013824
0.00013824
0.00013824
0.00013824
0.00013824
0.00013824
0.00013824
0.00013824
0.00013824
0.00013824
0.00013824
0.00013824
0.00013824
0.00013824
0.00013824
0.00013824
0.00013824
0.00013824
0.00013824
0.00013824
0.00013824
0.00013824
0.00013824
0.00013824
0.00013824
0.00013824
0.00013824
0.00013824
0.00013824
0.00013824
0.00013824
0.00013824
0.00013824
0.00013824
0.00013824
0.00013824
0.00013824
0.00013824
0.00013824
0.00013824
0.00013824
0.00013824
0.00013824
0.00013824
0.00013824
0.00013824
0.00013824
0.00013824
0.00013824
0.00013824
0.00013824
0.00013824
0.00013824
0.00013824
0.00013824
0.00013824
0.00013824
0.00013824
0.00013824
0.00013824
0.00013824
0.00013824
0.00013824
0.00013824
0.00013824
0.00013824
0.00013824
0.00013824
0.00013824
0.00013824
0.00013824
0.00013824
0.00013824
0.00013824
0.00013824
0.00013824
0.00013824
0.00013824
0.00013824
0.00013824
0.00013824
0.00013824
0.00013824
0.00013824
0.00013824
0.00013824
0.00013824
0.00013824
0.00013824
0.00013824
0.00013824
0.00013824
0.00013824
0.00013824
0.00013824
0.00013824
0.00013824
0.00013824
0.00013824
0.00013824
0.00013824
0.00013824
0.00013824
0.00013824
0.00013824
0.00013824
0.00013824
0.00013824
0.00013824
0.00013824
0.00013824
0.00013824
0.00013824
0.00013824
0.00013824
0.00013824
0.00013824
0.00013824
0.00013824
0.00013824
0.00013824
0.00013824
0.00013824
0.00013824
0.00013824
0.00013824
0.00013824
0.00013824
0.00013824
0.00013824
0.00013824
0.00013824
0.00013824
0.00013824
0.00013824
0.00013824
0.00013824
0.00013824
0.00013824
0.00013824
0.00013824
0.00013824
0.00013824
0.00013824
0.00013824
0.00013824
0.00013824
0.00013824
0.00013824
0.00013824
0.00013824
0.00013824
0.00013824
0.00013824
0.00013824
0.00013824
0.00013824
0.00013824
0.00013824
0.00013824
0.00013824
0.00013824
0.00013824
0.00013824
0.00013824
0.00013824
0.00013824