/*--------------------------------*- C++ -*----------------------------------*\
| =========                 |                                                 |
| \\      /  F ield         | OpenFOAM: The Open Source CFD Toolbox           |
|  \\    /   O peration     | Version:  2406                                  |
|   \\  /    A nd           | Website:  www.openfoam.com                      |
|    \\/     M anipulation  |                                                 |
\*---------------------------------------------------------------------------*/
FoamFile
{
    version     2.0;
    format      ascii;
    arch        "LSB;label=32;scalar=64";
    class       volScalarField;
    location    "8.95";
    object      Da;
}
// * * * * * * * * * * * * * * * * * * * * * * * * * * * * * * * * * * * * * //

dimensions      [0 2 -1 0 0 0 0];

internalField   nonuniform List<scalar> 
14400
(
5.04145e-05
5.04076e-05
5.04039e-05
5.0411e-05
5.04289e-05
5.04517e-05
5.04717e-05
5.04833e-05
5.0485e-05
5.04806e-05
5.04787e-05
5.04901e-05
5.05234e-05
5.05779e-05
5.06353e-05
5.06598e-05
5.06248e-05
5.05533e-05
5.04667e-05
5.03628e-05
5.02209e-05
5.00128e-05
4.97122e-05
4.93017e-05
4.87804e-05
4.81688e-05
4.75077e-05
4.6848e-05
4.62355e-05
4.57009e-05
4.52586e-05
4.49127e-05
4.46645e-05
4.45198e-05
4.44992e-05
4.46633e-05
4.5216e-05
4.72446e-05
6.21981e-05
7.79983e-05
7.8e-05
7.8e-05
7.8e-05
7.8e-05
7.8e-05
7.8e-05
7.8e-05
7.8e-05
7.8e-05
7.8e-05
7.8e-05
7.8e-05
7.8e-05
7.8e-05
7.8e-05
7.8e-05
7.8e-05
7.8e-05
7.79851e-05
5.80787e-05
4.71015e-05
4.53843e-05
4.49331e-05
4.48588e-05
4.49875e-05
4.52734e-05
4.57107e-05
4.63086e-05
4.70763e-05
4.80025e-05
4.90344e-05
5.00779e-05
5.1029e-05
5.18084e-05
5.2372e-05
5.27038e-05
5.28068e-05
5.26965e-05
5.23997e-05
5.19564e-05
5.14229e-05
5.08734e-05
5.03992e-05
5.01165e-05
5.02214e-05
5.12958e-05
5.66282e-05
7.76144e-05
6.06067e-05
5.11022e-05
4.92364e-05
4.86611e-05
4.85035e-05
4.85482e-05
4.87074e-05
4.89318e-05
4.91872e-05
4.9447e-05
4.96905e-05
4.99018e-05
5.00683e-05
5.01796e-05
5.02265e-05
5.02015e-05
5.01014e-05
4.99284e-05
4.96891e-05
4.93931e-05
4.90529e-05
4.86847e-05
4.83085e-05
4.79482e-05
4.76302e-05
4.73836e-05
4.72435e-05
4.7263e-05
4.75515e-05
4.84282e-05
5.14829e-05
7.45734e-05
5.00629e-05
5.00254e-05
4.99781e-05
4.99427e-05
4.99256e-05
4.99231e-05
4.99283e-05
4.99355e-05
4.99433e-05
4.99555e-05
4.99811e-05
5.00321e-05
5.01187e-05
5.02396e-05
5.03658e-05
5.04273e-05
5.03544e-05
5.02208e-05
5.00801e-05
4.99378e-05
4.97729e-05
4.95559e-05
4.92601e-05
4.88691e-05
4.83828e-05
4.78206e-05
4.72184e-05
4.66193e-05
4.60624e-05
4.55744e-05
4.51695e-05
4.48532e-05
4.46294e-05
4.45067e-05
4.45098e-05
4.47064e-05
4.53237e-05
4.76272e-05
6.72108e-05
7.79999e-05
7.8e-05
7.8e-05
7.8e-05
7.8e-05
7.8e-05
7.8e-05
7.8e-05
7.8e-05
7.8e-05
7.8e-05
7.8e-05
7.8e-05
7.8e-05
7.8e-05
7.8e-05
7.8e-05
7.8e-05
7.8e-05
7.79985e-05
6.27157e-05
4.74755e-05
4.54692e-05
4.49586e-05
4.48539e-05
4.49572e-05
4.52156e-05
4.56184e-05
4.61705e-05
4.68785e-05
4.77328e-05
4.86905e-05
4.96709e-05
5.05773e-05
5.13293e-05
5.18782e-05
5.22038e-05
5.23063e-05
5.22008e-05
5.19153e-05
5.14924e-05
5.09905e-05
5.04844e-05
5.0064e-05
4.98458e-05
5.00456e-05
5.14308e-05
5.94215e-05
7.79249e-05
6.56518e-05
5.14233e-05
4.917e-05
4.8492e-05
4.82703e-05
4.82605e-05
4.83692e-05
4.85471e-05
4.87619e-05
4.89898e-05
4.92122e-05
4.94137e-05
4.95804e-05
4.96983e-05
4.97531e-05
4.97325e-05
4.96318e-05
4.94563e-05
4.92184e-05
4.89328e-05
4.86145e-05
4.82794e-05
4.79453e-05
4.76326e-05
4.73644e-05
4.71679e-05
4.70789e-05
4.71581e-05
4.75434e-05
4.86933e-05
5.30907e-05
7.72083e-05
4.95114e-05
4.94023e-05
4.92641e-05
4.91479e-05
4.90685e-05
4.90226e-05
4.90022e-05
4.90012e-05
4.90179e-05
4.90565e-05
4.91272e-05
4.92457e-05
4.94296e-05
4.96859e-05
4.99761e-05
5.01457e-05
4.99502e-05
4.96627e-05
4.94067e-05
4.91894e-05
4.8982e-05
4.87503e-05
4.84667e-05
4.81154e-05
4.76955e-05
4.72215e-05
4.67202e-05
4.62231e-05
4.57594e-05
4.53507e-05
4.50104e-05
4.47469e-05
4.45681e-05
4.44887e-05
4.45427e-05
4.48199e-05
4.5622e-05
4.8548e-05
7.47069e-05
7.8e-05
7.8e-05
7.8e-05
7.8e-05
7.8e-05
7.8e-05
7.8e-05
7.8e-05
7.8e-05
7.8e-05
7.8e-05
7.8e-05
7.8e-05
7.8e-05
7.8e-05
7.8e-05
7.8e-05
7.8e-05
7.8e-05
7.8e-05
7.06659e-05
4.81757e-05
4.56712e-05
4.50269e-05
4.48545e-05
4.49062e-05
4.51122e-05
4.5452e-05
4.5923e-05
4.65261e-05
4.72528e-05
4.80724e-05
4.89255e-05
4.9733e-05
5.04189e-05
5.09291e-05
5.12369e-05
5.13381e-05
5.12466e-05
5.09923e-05
5.06206e-05
5.01918e-05
4.97788e-05
4.9467e-05
4.93726e-05
4.9741e-05
5.16494e-05
6.51432e-05
7.7997e-05
7.32144e-05
5.20854e-05
4.91486e-05
4.82419e-05
4.78922e-05
4.77843e-05
4.78069e-05
4.79068e-05
4.80533e-05
4.82262e-05
4.84102e-05
4.85916e-05
4.87557e-05
4.88836e-05
4.89525e-05
4.89408e-05
4.88403e-05
4.86628e-05
4.84312e-05
4.81676e-05
4.78896e-05
4.76114e-05
4.73468e-05
4.71113e-05
4.69238e-05
4.68096e-05
4.68075e-05
4.69935e-05
4.75708e-05
4.94729e-05
6.13556e-05
7.799e-05
4.90184e-05
4.87632e-05
4.84776e-05
4.82523e-05
4.80982e-05
4.80035e-05
4.79548e-05
4.79439e-05
4.79687e-05
4.80337e-05
4.81519e-05
4.83467e-05
4.86544e-05
4.91214e-05
4.97583e-05
5.02894e-05
4.96656e-05
4.90553e-05
4.86162e-05
4.82965e-05
4.80366e-05
4.77905e-05
4.7527e-05
4.72282e-05
4.68897e-05
4.6519e-05
4.6132e-05
4.57494e-05
4.53912e-05
4.50744e-05
4.4812e-05
4.4615e-05
4.44967e-05
4.44806e-05
4.46202e-05
4.5074e-05
4.66016e-05
5.64756e-05
7.79782e-05
7.8e-05
7.8e-05
7.8e-05
7.8e-05
7.8e-05
7.8e-05
7.8e-05
7.8e-05
7.8e-05
7.8e-05
7.8e-05
7.8e-05
7.8e-05
7.8e-05
7.8e-05
7.8e-05
7.8e-05
7.8e-05
7.8e-05
7.8e-05
7.74666e-05
5.06723e-05
4.62021e-05
4.5186e-05
4.48813e-05
4.4851e-05
4.49834e-05
4.52412e-05
4.56114e-05
4.60875e-05
4.66593e-05
4.73045e-05
4.79828e-05
4.86383e-05
4.92102e-05
4.96476e-05
4.99198e-05
5.00186e-05
4.99557e-05
4.9761e-05
4.94796e-05
4.91685e-05
4.88945e-05
4.8738e-05
4.88226e-05
4.94456e-05
5.2002e-05
7.227e-05
7.8e-05
7.78929e-05
5.70304e-05
4.96155e-05
4.80667e-05
4.75e-05
4.7261e-05
4.71813e-05
4.71939e-05
4.72658e-05
4.73781e-05
4.75183e-05
4.76753e-05
4.7835e-05
4.7975e-05
4.80631e-05
4.80638e-05
4.7964e-05
4.77841e-05
4.75612e-05
4.73245e-05
4.70924e-05
4.68764e-05
4.66862e-05
4.65332e-05
4.64336e-05
4.64134e-05
4.65189e-05
4.68529e-05
4.7722e-05
5.06219e-05
7.26959e-05
7.8e-05
4.89907e-05
4.83603e-05
4.78269e-05
4.74627e-05
4.72284e-05
4.70861e-05
4.70107e-05
4.69901e-05
4.70211e-05
4.71093e-05
4.72709e-05
4.75415e-05
4.79931e-05
4.87876e-05
5.03252e-05
5.32471e-05
4.99304e-05
4.85942e-05
4.78864e-05
4.7446e-05
4.71321e-05
4.68736e-05
4.66309e-05
4.63822e-05
4.61187e-05
4.58408e-05
4.55565e-05
4.52776e-05
4.50177e-05
4.47899e-05
4.4607e-05
4.44826e-05
4.4436e-05
4.45035e-05
4.47714e-05
4.55198e-05
4.82501e-05
7.22763e-05
7.8e-05
7.8e-05
7.8e-05
7.8e-05
7.8e-05
7.8e-05
7.8e-05
7.8e-05
7.8e-05
7.8e-05
7.8e-05
7.8e-05
7.8e-05
7.8e-05
7.8e-05
7.8e-05
7.8e-05
7.8e-05
7.8e-05
7.8e-05
7.8e-05
7.79998e-05
6.57442e-05
4.76097e-05
4.5507e-05
4.4962e-05
4.48135e-05
4.48536e-05
4.50186e-05
4.52823e-05
4.56303e-05
4.60492e-05
4.65201e-05
4.70152e-05
4.74978e-05
4.79266e-05
4.82639e-05
4.84839e-05
4.85779e-05
4.85553e-05
4.84415e-05
4.82755e-05
4.81061e-05
4.79924e-05
4.80168e-05
4.83395e-05
4.94778e-05
5.44989e-05
7.75756e-05
7.8e-05
7.8e-05
7.19659e-05
5.09929e-05
4.81383e-05
4.72211e-05
4.68142e-05
4.66255e-05
4.6555e-05
4.65605e-05
4.66212e-05
4.67254e-05
4.68643e-05
4.70261e-05
4.71872e-05
4.73061e-05
4.73242e-05
4.72192e-05
4.70249e-05
4.68004e-05
4.65817e-05
4.63859e-05
4.62212e-05
4.60941e-05
4.60138e-05
4.59969e-05
4.60742e-05
4.631e-05
4.68789e-05
4.85622e-05
5.83081e-05
7.79719e-05
7.8e-05
5.11039e-05
4.85669e-05
4.74841e-05
4.69087e-05
4.65746e-05
4.63796e-05
4.62763e-05
4.62455e-05
4.62826e-05
4.6394e-05
4.66019e-05
4.69615e-05
4.761e-05
4.90381e-05
5.43839e-05
7.4946e-05
5.18506e-05
4.85065e-05
4.73545e-05
4.67624e-05
4.63888e-05
4.61138e-05
4.58838e-05
4.56718e-05
4.54645e-05
4.52578e-05
4.50536e-05
4.48583e-05
4.46808e-05
4.4532e-05
4.44247e-05
4.43759e-05
4.44137e-05
4.45965e-05
4.50935e-05
4.67403e-05
5.82284e-05
7.79914e-05
7.8e-05
7.8e-05
7.8e-05
7.8e-05
7.8e-05
7.8e-05
7.8e-05
7.8e-05
7.8e-05
7.8e-05
7.8e-05
7.8e-05
7.8e-05
7.8e-05
7.8e-05
7.8e-05
7.8e-05
7.8e-05
7.8e-05
7.8e-05
7.8e-05
7.8e-05
7.72276e-05
5.00982e-05
4.6116e-05
4.51496e-05
4.48246e-05
4.47495e-05
4.48139e-05
4.49735e-05
4.52048e-05
4.54903e-05
4.58125e-05
4.61508e-05
4.64809e-05
4.67773e-05
4.70163e-05
4.7182e-05
4.72692e-05
4.72855e-05
4.72507e-05
4.71951e-05
4.71593e-05
4.71993e-05
4.74099e-05
4.80272e-05
5.02029e-05
6.65523e-05
7.79994e-05
7.8e-05
7.8e-05
7.79848e-05
5.99306e-05
4.90915e-05
4.72121e-05
4.65391e-05
4.62227e-05
4.60706e-05
4.60191e-05
4.60405e-05
4.61224e-05
4.62584e-05
4.64416e-05
4.66504e-05
4.68368e-05
4.68867e-05
4.67543e-05
4.65058e-05
4.62493e-05
4.60254e-05
4.58464e-05
4.57154e-05
4.56363e-05
4.56179e-05
4.56804e-05
4.58691e-05
4.62869e-05
4.72554e-05
5.04998e-05
7.53895e-05
7.8e-05
7.8e-05
7.32294e-05
5.08414e-05
4.77162e-05
4.66872e-05
4.61861e-05
4.59155e-05
4.57745e-05
4.57307e-05
4.57757e-05
4.59189e-05
4.61944e-05
4.67007e-05
4.77318e-05
5.08329e-05
7.38125e-05
7.79989e-05
6.48355e-05
4.94106e-05
4.71313e-05
4.63036e-05
4.58477e-05
4.5543e-05
4.53122e-05
4.51203e-05
4.49497e-05
4.47924e-05
4.46468e-05
4.45155e-05
4.44051e-05
4.43252e-05
4.42905e-05
4.43244e-05
4.447e-05
4.48294e-05
4.57447e-05
4.91695e-05
7.66345e-05
7.8e-05
7.8e-05
7.8e-05
7.8e-05
7.8e-05
7.8e-05
7.8e-05
7.8e-05
7.8e-05
7.8e-05
7.8e-05
7.8e-05
7.8e-05
7.8e-05
7.8e-05
7.8e-05
7.8e-05
7.8e-05
7.8e-05
7.8e-05
7.8e-05
7.8e-05
7.8e-05
7.8e-05
6.96565e-05
4.80783e-05
4.56156e-05
4.49386e-05
4.47014e-05
4.46529e-05
4.47117e-05
4.48407e-05
4.50171e-05
4.52231e-05
4.54423e-05
4.5658e-05
4.58547e-05
4.60189e-05
4.61423e-05
4.62238e-05
4.62704e-05
4.62978e-05
4.63308e-05
4.64067e-05
4.65872e-05
4.69995e-05
4.80144e-05
5.15252e-05
7.64011e-05
7.8e-05
7.8e-05
7.8e-05
7.8e-05
7.72554e-05
5.20039e-05
4.77199e-05
4.65422e-05
4.6039e-05
4.57863e-05
4.56768e-05
4.56671e-05
4.57419e-05
4.58986e-05
4.61443e-05
4.64707e-05
4.68605e-05
4.70025e-05
4.67591e-05
4.63231e-05
4.5962e-05
4.56918e-05
4.55025e-05
4.5386e-05
4.53435e-05
4.53842e-05
4.5539e-05
4.58977e-05
4.67157e-05
4.93162e-05
6.87084e-05
7.79999e-05
7.8e-05
7.8e-05
7.8e-05
7.01785e-05
4.98338e-05
4.70343e-05
4.61309e-05
4.5719e-05
4.55121e-05
4.54469e-05
4.55057e-05
4.57054e-05
4.61116e-05
4.69804e-05
4.95429e-05
6.68048e-05
7.79997e-05
7.8e-05
7.70125e-05
5.13742e-05
4.73285e-05
4.61128e-05
4.55202e-05
4.51585e-05
4.49082e-05
4.47199e-05
4.45692e-05
4.44443e-05
4.43409e-05
4.42594e-05
4.42052e-05
4.41893e-05
4.42315e-05
4.43701e-05
4.46899e-05
4.54542e-05
4.81079e-05
7.13888e-05
7.8e-05
7.8e-05
7.8e-05
7.8e-05
7.8e-05
7.8e-05
7.8e-05
7.8e-05
7.8e-05
7.8e-05
7.8e-05
7.8e-05
7.8e-05
7.8e-05
7.8e-05
7.8e-05
7.8e-05
7.8e-05
7.8e-05
7.8e-05
7.8e-05
7.8e-05
7.8e-05
7.8e-05
7.8e-05
7.79885e-05
5.77786e-05
4.68889e-05
4.52525e-05
4.47483e-05
4.45607e-05
4.45168e-05
4.45542e-05
4.46415e-05
4.47587e-05
4.48911e-05
4.50266e-05
4.51549e-05
4.52688e-05
4.53646e-05
4.54438e-05
4.55138e-05
4.55889e-05
4.56931e-05
4.58668e-05
4.61928e-05
4.68998e-05
4.91129e-05
6.55396e-05
7.79994e-05
7.8e-05
7.8e-05
7.8e-05
7.8e-05
7.8e-05
7.51065e-05
5.03434e-05
4.71551e-05
4.62149e-05
4.5772e-05
4.55778e-05
4.55354e-05
4.56232e-05
4.58455e-05
4.62628e-05
4.6934e-05
4.84207e-05
4.91565e-05
4.81398e-05
4.67327e-05
4.60416e-05
4.56335e-05
4.53879e-05
4.52612e-05
4.52514e-05
4.53681e-05
4.56661e-05
4.64047e-05
4.87023e-05
6.31978e-05
7.79985e-05
7.8e-05
7.8e-05
7.8e-05
7.8e-05
7.79998e-05
6.71025e-05
4.92815e-05
4.66756e-05
4.59042e-05
4.55421e-05
4.54335e-05
4.55211e-05
4.58493e-05
4.65928e-05
4.89147e-05
6.25258e-05
7.79973e-05
7.8e-05
7.8e-05
7.8e-05
7.00406e-05
4.91031e-05
4.637e-05
4.54442e-05
4.49627e-05
4.46634e-05
4.446e-05
4.43143e-05
4.4209e-05
4.41371e-05
4.40977e-05
4.40963e-05
4.41487e-05
4.42877e-05
4.45949e-05
4.53054e-05
4.76336e-05
6.53789e-05
7.79998e-05
7.8e-05
7.8e-05
7.8e-05
7.8e-05
7.8e-05
7.8e-05
7.8e-05
7.8e-05
7.8e-05
7.8e-05
7.8e-05
7.8e-05
7.8e-05
7.8e-05
7.8e-05
7.8e-05
7.8e-05
7.8e-05
7.8e-05
7.8e-05
7.8e-05
7.8e-05
7.8e-05
7.8e-05
7.8e-05
7.8e-05
7.74018e-05
5.01607e-05
4.59852e-05
4.49644e-05
4.45741e-05
4.44101e-05
4.43571e-05
4.43664e-05
4.44126e-05
4.44802e-05
4.45588e-05
4.46409e-05
4.47221e-05
4.48017e-05
4.48828e-05
4.49741e-05
4.50915e-05
4.52628e-05
4.55411e-05
4.60535e-05
4.72376e-05
5.17727e-05
7.74182e-05
7.8e-05
7.8e-05
7.8e-05
7.8e-05
7.8e-05
7.8e-05
7.8e-05
7.4259e-05
5.02643e-05
4.73677e-05
4.62642e-05
4.58705e-05
4.57659e-05
4.5918e-05
4.63355e-05
4.74404e-05
4.96514e-05
6.30841e-05
7.19689e-05
6.01855e-05
4.91821e-05
4.69243e-05
4.60521e-05
4.56207e-05
4.54265e-05
4.5464e-05
4.57437e-05
4.63691e-05
4.86871e-05
6.27382e-05
7.79969e-05
7.8e-05
7.8e-05
7.8e-05
7.8e-05
7.8e-05
7.8e-05
7.79998e-05
6.86162e-05
4.94437e-05
4.70958e-05
4.61129e-05
4.58888e-05
4.60528e-05
4.68306e-05
4.90999e-05
6.4157e-05
7.79967e-05
7.8e-05
7.8e-05
7.8e-05
7.8e-05
7.7995e-05
6.04512e-05
4.78407e-05
4.57668e-05
4.49976e-05
4.45896e-05
4.43437e-05
4.4186e-05
4.40897e-05
4.40441e-05
4.40473e-05
4.4107e-05
4.42519e-05
4.45487e-05
4.52426e-05
4.74654e-05
6.2532e-05
7.79989e-05
7.8e-05
7.8e-05
7.8e-05
7.8e-05
7.8e-05
7.8e-05
7.8e-05
7.8e-05
7.8e-05
7.8e-05
7.8e-05
7.8e-05
7.8e-05
7.8e-05
7.8e-05
7.8e-05
7.8e-05
7.8e-05
7.8e-05
7.8e-05
7.8e-05
7.8e-05
7.8e-05
7.8e-05
7.8e-05
7.8e-05
7.8e-05
7.8e-05
7.47021e-05
4.85525e-05
4.56103e-05
4.47785e-05
4.4429e-05
4.4267e-05
4.41967e-05
4.41785e-05
4.41929e-05
4.42281e-05
4.42772e-05
4.43372e-05
4.44087e-05
4.44966e-05
4.46124e-05
4.47773e-05
4.50313e-05
4.54641e-05
4.63493e-05
4.91339e-05
7.16557e-05
7.8e-05
7.8e-05
7.8e-05
7.8e-05
7.8e-05
7.8e-05
7.8e-05
7.8e-05
7.8e-05
7.62779e-05
5.46709e-05
4.85998e-05
4.73111e-05
4.69019e-05
4.74579e-05
4.87691e-05
5.55645e-05
7.46704e-05
7.79984e-05
7.8e-05
7.79935e-05
7.2277e-05
5.16971e-05
4.81563e-05
4.6758e-05
4.62004e-05
4.63982e-05
4.74779e-05
4.93923e-05
6.81126e-05
7.79983e-05
7.8e-05
7.8e-05
7.8e-05
7.8e-05
7.8e-05
7.8e-05
7.8e-05
7.8e-05
7.8e-05
7.42954e-05
5.48971e-05
4.8686e-05
4.80305e-05
4.84925e-05
5.22631e-05
7.17728e-05
7.79992e-05
7.8e-05
7.8e-05
7.8e-05
7.8e-05
7.8e-05
7.8e-05
7.79458e-05
5.52682e-05
4.7185e-05
4.54428e-05
4.47543e-05
4.44089e-05
4.42095e-05
4.41099e-05
4.40927e-05
4.41556e-05
4.43111e-05
4.46374e-05
4.53072e-05
4.76322e-05
6.34816e-05
7.79986e-05
7.8e-05
7.8e-05
7.8e-05
7.8e-05
7.8e-05
7.8e-05
7.8e-05
7.8e-05
7.8e-05
7.8e-05
7.8e-05
7.8e-05
7.8e-05
7.8e-05
7.8e-05
7.8e-05
7.8e-05
7.8e-05
7.8e-05
7.8e-05
7.8e-05
7.8e-05
7.8e-05
7.8e-05
7.8e-05
7.8e-05
7.8e-05
7.8e-05
7.8e-05
7.8e-05
7.12901e-05
4.8146e-05
4.54465e-05
4.46635e-05
4.4325e-05
4.41506e-05
4.40601e-05
4.40222e-05
4.40192e-05
4.40418e-05
4.40874e-05
4.41577e-05
4.42594e-05
4.44092e-05
4.46419e-05
4.50302e-05
4.57858e-05
4.79535e-05
6.24837e-05
7.79984e-05
7.8e-05
7.8e-05
7.8e-05
7.8e-05
7.8e-05
7.8e-05
7.8e-05
7.8e-05
7.8e-05
7.8e-05
7.79156e-05
6.9168e-05
5.65968e-05
5.25297e-05
5.82133e-05
7.07162e-05
7.79458e-05
7.8e-05
7.8e-05
7.8e-05
7.8e-05
7.8e-05
7.76039e-05
6.68312e-05
5.30423e-05
4.92908e-05
5.05848e-05
6.12801e-05
7.54317e-05
7.79999e-05
7.8e-05
7.8e-05
7.8e-05
7.8e-05
7.8e-05
7.8e-05
7.8e-05
7.8e-05
7.8e-05
7.8e-05
7.8e-05
7.79351e-05
7.25069e-05
6.68503e-05
7.11838e-05
7.77419e-05
7.8e-05
7.8e-05
7.8e-05
7.8e-05
7.8e-05
7.8e-05
7.8e-05
7.8e-05
7.8e-05
7.79132e-05
5.54572e-05
4.73102e-05
4.54254e-05
4.48043e-05
4.4473e-05
4.43451e-05
4.43757e-05
4.45751e-05
4.49594e-05
4.59481e-05
4.82186e-05
6.84052e-05
7.79995e-05
7.8e-05
7.8e-05
7.8e-05
7.8e-05
7.8e-05
7.8e-05
7.8e-05
7.8e-05
7.8e-05
7.8e-05
7.8e-05
7.8e-05
7.8e-05
7.8e-05
7.8e-05
7.8e-05
7.8e-05
7.8e-05
7.8e-05
7.8e-05
7.8e-05
7.8e-05
7.8e-05
7.8e-05
7.8e-05
7.8e-05
7.8e-05
7.8e-05
7.8e-05
7.8e-05
7.8e-05
7.8e-05
7.00626e-05
4.80582e-05
4.54105e-05
4.46496e-05
4.42843e-05
4.40831e-05
4.39793e-05
4.39338e-05
4.39303e-05
4.39655e-05
4.40422e-05
4.41698e-05
4.43758e-05
4.47311e-05
4.54115e-05
4.71712e-05
5.62523e-05
7.79693e-05
7.8e-05
7.8e-05
7.8e-05
7.8e-05
7.8e-05
7.8e-05
7.8e-05
7.8e-05
7.8e-05
7.8e-05
7.8e-05
7.8e-05
7.8e-05
7.79645e-05
7.77341e-05
7.79836e-05
7.8e-05
7.8e-05
7.8e-05
7.8e-05
7.8e-05
7.8e-05
7.8e-05
7.8e-05
7.79998e-05
7.78289e-05
7.60112e-05
7.73189e-05
7.79969e-05
7.8e-05
7.8e-05
7.8e-05
7.8e-05
7.8e-05
7.8e-05
7.8e-05
7.8e-05
7.8e-05
7.8e-05
7.8e-05
7.8e-05
7.8e-05
7.8e-05
7.8e-05
7.79998e-05
7.8e-05
7.8e-05
7.8e-05
7.8e-05
7.8e-05
7.8e-05
7.8e-05
7.8e-05
7.8e-05
7.8e-05
7.8e-05
7.8e-05
7.79611e-05
6.19537e-05
4.81445e-05
4.63209e-05
4.53075e-05
4.50609e-05
4.52334e-05
4.60715e-05
4.74382e-05
5.40081e-05
7.49483e-05
7.8e-05
7.8e-05
7.8e-05
7.8e-05
7.8e-05
7.8e-05
7.8e-05
7.8e-05
7.8e-05
7.8e-05
7.8e-05
7.8e-05
7.8e-05
7.8e-05
7.8e-05
7.8e-05
7.8e-05
7.8e-05
7.8e-05
7.8e-05
7.8e-05
7.8e-05
7.8e-05
7.8e-05
7.8e-05
7.8e-05
7.8e-05
7.8e-05
7.8e-05
7.8e-05
7.8e-05
7.8e-05
7.8e-05
7.8e-05
7.8e-05
7.18813e-05
4.83688e-05
4.57472e-05
4.47919e-05
4.43314e-05
4.41151e-05
4.40054e-05
4.39651e-05
4.39916e-05
4.40892e-05
4.42703e-05
4.45871e-05
4.52502e-05
4.69813e-05
5.44662e-05
7.79126e-05
7.8e-05
7.8e-05
7.8e-05
7.8e-05
7.8e-05
7.8e-05
7.8e-05
7.8e-05
7.8e-05
7.8e-05
7.8e-05
7.8e-05
7.8e-05
7.8e-05
7.8e-05
7.8e-05
7.8e-05
7.8e-05
7.8e-05
7.8e-05
7.8e-05
7.8e-05
7.8e-05
7.8e-05
7.8e-05
7.8e-05
7.8e-05
7.8e-05
7.8e-05
7.8e-05
7.8e-05
7.8e-05
7.8e-05
7.8e-05
7.8e-05
7.8e-05
7.8e-05
7.8e-05
7.8e-05
7.8e-05
7.8e-05
7.8e-05
7.8e-05
7.8e-05
7.8e-05
7.8e-05
7.8e-05
7.8e-05
7.8e-05
7.8e-05
7.8e-05
7.8e-05
7.8e-05
7.8e-05
7.8e-05
7.8e-05
7.8e-05
7.8e-05
7.8e-05
7.79986e-05
7.27524e-05
5.70065e-05
4.85661e-05
4.77616e-05
4.85851e-05
5.61409e-05
7.02835e-05
7.79522e-05
7.8e-05
7.8e-05
7.8e-05
7.8e-05
7.8e-05
7.8e-05
7.8e-05
7.8e-05
7.8e-05
7.8e-05
7.8e-05
7.8e-05
7.8e-05
7.8e-05
7.8e-05
7.8e-05
7.8e-05
7.8e-05
7.8e-05
7.8e-05
7.8e-05
7.8e-05
7.8e-05
7.8e-05
7.8e-05
7.8e-05
7.8e-05
7.8e-05
7.8e-05
7.8e-05
7.8e-05
7.8e-05
7.8e-05
7.8e-05
7.8e-05
7.8e-05
7.8e-05
7.56087e-05
5.15397e-05
4.6752e-05
4.51072e-05
4.46176e-05
4.43566e-05
4.42306e-05
4.42461e-05
4.44092e-05
4.47386e-05
4.53432e-05
4.73948e-05
5.74175e-05
7.79294e-05
7.8e-05
7.8e-05
7.8e-05
7.8e-05
7.8e-05
7.8e-05
7.8e-05
7.8e-05
7.8e-05
7.8e-05
7.8e-05
7.8e-05
7.8e-05
7.8e-05
7.8e-05
7.8e-05
7.8e-05
7.8e-05
7.8e-05
7.8e-05
7.8e-05
7.8e-05
7.8e-05
7.8e-05
7.8e-05
7.8e-05
7.8e-05
7.8e-05
7.8e-05
7.8e-05
7.8e-05
7.8e-05
7.8e-05
7.8e-05
7.8e-05
7.8e-05
7.8e-05
7.8e-05
7.8e-05
7.8e-05
7.8e-05
7.8e-05
7.8e-05
7.8e-05
7.8e-05
7.8e-05
7.8e-05
7.8e-05
7.8e-05
7.8e-05
7.8e-05
7.8e-05
7.8e-05
7.8e-05
7.8e-05
7.8e-05
7.8e-05
7.8e-05
7.8e-05
7.8e-05
7.8e-05
7.8e-05
7.7986e-05
7.6498e-05
7.44853e-05
7.66974e-05
7.79809e-05
7.8e-05
7.8e-05
7.8e-05
7.8e-05
7.8e-05
7.8e-05
7.8e-05
7.8e-05
7.8e-05
7.8e-05
7.8e-05
7.8e-05
7.8e-05
7.8e-05
7.8e-05
7.8e-05
7.8e-05
7.8e-05
7.8e-05
7.8e-05
7.8e-05
7.8e-05
7.8e-05
7.8e-05
7.8e-05
7.8e-05
7.8e-05
7.8e-05
7.8e-05
7.8e-05
7.8e-05
7.8e-05
7.8e-05
7.8e-05
7.8e-05
7.8e-05
7.8e-05
7.8e-05
7.8e-05
7.8e-05
7.78319e-05
6.38429e-05
4.81072e-05
4.6575e-05
4.55517e-05
4.50397e-05
4.50268e-05
4.54935e-05
4.66153e-05
4.83698e-05
6.62455e-05
7.79877e-05
7.8e-05
7.8e-05
7.8e-05
7.8e-05
7.8e-05
7.8e-05
7.8e-05
7.8e-05
7.8e-05
7.8e-05
7.8e-05
7.8e-05
7.8e-05
7.8e-05
7.8e-05
7.8e-05
7.8e-05
7.8e-05
7.8e-05
7.8e-05
7.8e-05
7.8e-05
7.8e-05
7.8e-05
7.8e-05
7.8e-05
7.8e-05
7.8e-05
7.8e-05
7.8e-05
7.8e-05
7.8e-05
7.8e-05
7.8e-05
7.8e-05
7.8e-05
7.8e-05
7.8e-05
7.8e-05
7.8e-05
7.8e-05
7.8e-05
7.8e-05
7.8e-05
7.8e-05
7.8e-05
7.8e-05
7.8e-05
7.8e-05
7.8e-05
7.8e-05
7.8e-05
7.8e-05
7.8e-05
7.8e-05
7.8e-05
7.8e-05
7.8e-05
7.8e-05
7.8e-05
7.8e-05
7.8e-05
7.8e-05
7.8e-05
7.8e-05
7.8e-05
7.8e-05
7.8e-05
7.8e-05
7.8e-05
7.8e-05
7.8e-05
7.8e-05
7.8e-05
7.8e-05
7.8e-05
7.8e-05
7.8e-05
7.8e-05
7.8e-05
7.8e-05
7.8e-05
7.8e-05
7.8e-05
7.8e-05
7.8e-05
7.8e-05
7.8e-05
7.8e-05
7.8e-05
7.8e-05
7.8e-05
7.8e-05
7.8e-05
7.8e-05
7.8e-05
7.8e-05
7.8e-05
7.8e-05
7.8e-05
7.8e-05
7.8e-05
7.8e-05
7.8e-05
7.8e-05
7.8e-05
7.8e-05
7.8e-05
7.8e-05
7.79996e-05
7.54661e-05
6.34522e-05
5.19674e-05
4.81346e-05
4.79879e-05
5.08029e-05
6.24598e-05
7.55432e-05
7.79999e-05
7.8e-05
7.8e-05
7.8e-05
7.8e-05
7.8e-05
7.8e-05
7.8e-05
7.8e-05
7.8e-05
7.8e-05
7.8e-05
7.8e-05
7.8e-05
7.8e-05
7.8e-05
7.8e-05
7.8e-05
7.8e-05
7.8e-05
7.8e-05
7.8e-05
7.8e-05
7.8e-05
7.8e-05
7.8e-05
7.8e-05
7.8e-05
7.8e-05
7.8e-05
7.8e-05
7.8e-05
7.8e-05
7.8e-05
7.8e-05
7.8e-05
7.8e-05
7.8e-05
7.8e-05
7.8e-05
7.8e-05
7.8e-05
7.8e-05
7.8e-05
7.8e-05
7.8e-05
7.8e-05
7.8e-05
7.8e-05
7.8e-05
7.8e-05
7.8e-05
7.8e-05
7.8e-05
7.8e-05
7.8e-05
7.8e-05
7.8e-05
7.8e-05
7.8e-05
7.8e-05
7.8e-05
7.8e-05
7.8e-05
7.8e-05
7.8e-05
7.8e-05
7.8e-05
7.8e-05
7.8e-05
7.8e-05
7.8e-05
7.8e-05
7.8e-05
7.8e-05
7.8e-05
7.8e-05
7.8e-05
7.8e-05
7.8e-05
7.8e-05
7.8e-05
7.8e-05
7.8e-05
7.8e-05
7.8e-05
7.8e-05
7.8e-05
7.8e-05
7.8e-05
7.8e-05
7.8e-05
7.8e-05
7.8e-05
7.8e-05
7.8e-05
7.8e-05
7.8e-05
7.8e-05
7.8e-05
7.8e-05
7.8e-05
7.8e-05
7.8e-05
7.8e-05
7.8e-05
7.8e-05
7.8e-05
7.8e-05
7.8e-05
7.8e-05
7.8e-05
7.8e-05
7.79995e-05
7.78644e-05
7.6269e-05
7.58814e-05
7.77305e-05
7.7999e-05
7.8e-05
7.8e-05
7.8e-05
7.8e-05
7.8e-05
7.8e-05
7.8e-05
7.8e-05
7.8e-05
7.8e-05
7.8e-05
7.8e-05
7.8e-05
7.8e-05
7.8e-05
7.8e-05
7.8e-05
7.8e-05
7.8e-05
7.8e-05
7.8e-05
7.8e-05
7.8e-05
7.8e-05
7.8e-05
7.8e-05
7.8e-05
7.8e-05
7.8e-05
7.8e-05
7.8e-05
7.8e-05
7.8e-05
7.8e-05
7.8e-05
7.8e-05
7.8e-05
7.8e-05
7.8e-05
7.8e-05
7.8e-05
7.8e-05
7.8e-05
7.8e-05
7.8e-05
7.8e-05
7.8e-05
7.8e-05
7.8e-05
7.8e-05
7.8e-05
7.8e-05
7.8e-05
7.8e-05
7.8e-05
7.8e-05
7.8e-05
7.8e-05
7.8e-05
7.8e-05
7.8e-05
7.8e-05
7.8e-05
7.8e-05
7.8e-05
7.8e-05
7.8e-05
7.8e-05
7.8e-05
7.8e-05
7.8e-05
7.8e-05
7.8e-05
7.8e-05
7.8e-05
7.8e-05
7.8e-05
7.8e-05
7.8e-05
7.8e-05
7.8e-05
7.8e-05
7.8e-05
7.8e-05
7.8e-05
7.8e-05
7.8e-05
7.8e-05
7.8e-05
7.8e-05
7.8e-05
7.8e-05
7.8e-05
7.8e-05
7.8e-05
7.8e-05
7.8e-05
7.8e-05
7.8e-05
7.8e-05
7.8e-05
7.8e-05
7.8e-05
7.8e-05
7.8e-05
7.8e-05
7.8e-05
7.8e-05
7.8e-05
7.8e-05
7.8e-05
7.8e-05
7.8e-05
7.8e-05
7.8e-05
7.8e-05
7.8e-05
7.8e-05
7.8e-05
7.8e-05
7.8e-05
7.8e-05
7.8e-05
7.8e-05
7.8e-05
7.8e-05
7.8e-05
7.8e-05
7.8e-05
7.8e-05
7.8e-05
7.8e-05
7.8e-05
7.8e-05
7.8e-05
7.8e-05
7.8e-05
7.8e-05
7.8e-05
7.8e-05
7.8e-05
7.8e-05
7.8e-05
7.8e-05
7.8e-05
7.8e-05
7.8e-05
7.8e-05
7.8e-05
7.8e-05
7.8e-05
7.8e-05
7.8e-05
7.8e-05
7.8e-05
7.8e-05
7.8e-05
7.8e-05
7.8e-05
7.8e-05
7.8e-05
7.8e-05
7.8e-05
7.8e-05
7.8e-05
7.8e-05
7.8e-05
7.8e-05
7.8e-05
7.8e-05
7.8e-05
7.8e-05
7.8e-05
7.8e-05
7.8e-05
7.8e-05
7.8e-05
7.8e-05
7.8e-05
7.8e-05
7.8e-05
7.8e-05
7.8e-05
7.8e-05
7.8e-05
7.8e-05
7.8e-05
7.8e-05
7.8e-05
7.8e-05
7.8e-05
7.8e-05
7.8e-05
7.8e-05
7.8e-05
7.8e-05
7.8e-05
7.8e-05
7.8e-05
7.8e-05
7.8e-05
7.8e-05
7.8e-05
7.8e-05
7.8e-05
7.8e-05
7.8e-05
7.8e-05
7.8e-05
7.8e-05
7.8e-05
7.8e-05
7.8e-05
7.8e-05
7.8e-05
7.8e-05
7.8e-05
7.8e-05
7.8e-05
7.8e-05
7.8e-05
7.8e-05
7.8e-05
7.8e-05
7.8e-05
7.8e-05
7.8e-05
7.8e-05
7.8e-05
7.8e-05
7.8e-05
7.8e-05
7.8e-05
7.8e-05
7.8e-05
7.8e-05
7.8e-05
7.8e-05
7.8e-05
7.8e-05
7.8e-05
7.8e-05
7.8e-05
7.8e-05
7.8e-05
7.8e-05
7.8e-05
7.8e-05
7.8e-05
7.8e-05
7.8e-05
7.8e-05
7.8e-05
7.8e-05
7.8e-05
7.8e-05
7.8e-05
7.8e-05
7.8e-05
7.8e-05
7.8e-05
7.8e-05
7.8e-05
7.8e-05
7.8e-05
7.8e-05
7.8e-05
7.8e-05
7.8e-05
7.8e-05
7.8e-05
7.8e-05
7.8e-05
7.8e-05
7.8e-05
7.8e-05
7.8e-05
7.8e-05
7.8e-05
7.8e-05
7.8e-05
7.8e-05
7.8e-05
7.8e-05
7.8e-05
7.8e-05
7.8e-05
7.8e-05
7.8e-05
7.8e-05
7.8e-05
7.8e-05
7.8e-05
7.8e-05
7.8e-05
7.8e-05
7.8e-05
7.8e-05
7.8e-05
7.8e-05
7.8e-05
7.8e-05
7.8e-05
7.8e-05
7.8e-05
7.8e-05
7.8e-05
7.8e-05
7.8e-05
7.8e-05
7.8e-05
7.8e-05
7.8e-05
7.8e-05
7.8e-05
7.8e-05
7.8e-05
7.8e-05
7.8e-05
7.8e-05
7.8e-05
7.8e-05
7.8e-05
7.8e-05
7.8e-05
7.8e-05
7.8e-05
7.8e-05
7.8e-05
7.8e-05
7.8e-05
7.8e-05
7.8e-05
7.8e-05
7.8e-05
7.8e-05
7.8e-05
7.8e-05
7.8e-05
7.8e-05
7.8e-05
7.8e-05
7.8e-05
7.8e-05
7.8e-05
7.8e-05
7.8e-05
7.8e-05
7.8e-05
7.8e-05
7.8e-05
7.8e-05
7.8e-05
7.8e-05
7.8e-05
7.8e-05
7.8e-05
7.8e-05
7.8e-05
7.8e-05
7.8e-05
7.8e-05
7.8e-05
7.8e-05
7.8e-05
7.8e-05
7.8e-05
7.8e-05
7.8e-05
7.8e-05
7.8e-05
7.8e-05
7.8e-05
7.8e-05
7.8e-05
7.8e-05
7.8e-05
7.8e-05
7.8e-05
7.8e-05
7.8e-05
7.8e-05
7.8e-05
7.8e-05
7.8e-05
7.8e-05
7.8e-05
7.8e-05
7.8e-05
7.8e-05
7.8e-05
7.8e-05
7.8e-05
7.8e-05
7.8e-05
7.8e-05
7.8e-05
7.8e-05
7.8e-05
7.8e-05
7.8e-05
7.8e-05
7.8e-05
7.8e-05
7.8e-05
7.8e-05
7.8e-05
7.8e-05
7.8e-05
7.8e-05
7.8e-05
7.8e-05
7.8e-05
7.8e-05
7.8e-05
7.8e-05
7.8e-05
7.8e-05
7.8e-05
7.8e-05
7.8e-05
7.8e-05
7.8e-05
7.8e-05
7.8e-05
7.8e-05
7.8e-05
7.8e-05
7.8e-05
7.8e-05
7.8e-05
7.8e-05
7.8e-05
7.8e-05
7.8e-05
7.8e-05
7.8e-05
7.8e-05
7.8e-05
7.8e-05
7.8e-05
7.8e-05
7.8e-05
7.8e-05
7.8e-05
7.8e-05
7.8e-05
7.8e-05
7.8e-05
7.8e-05
7.8e-05
7.8e-05
7.8e-05
7.8e-05
7.8e-05
7.8e-05
7.8e-05
7.8e-05
7.8e-05
7.8e-05
7.8e-05
7.8e-05
7.8e-05
7.8e-05
7.8e-05
7.8e-05
7.8e-05
7.8e-05
7.8e-05
7.8e-05
7.8e-05
7.8e-05
7.8e-05
7.8e-05
7.8e-05
7.8e-05
7.8e-05
7.8e-05
7.8e-05
7.8e-05
7.8e-05
7.8e-05
7.8e-05
7.8e-05
7.8e-05
7.8e-05
7.8e-05
7.8e-05
7.8e-05
7.8e-05
7.8e-05
7.8e-05
7.8e-05
7.8e-05
7.8e-05
7.8e-05
7.8e-05
7.8e-05
7.8e-05
7.8e-05
7.8e-05
7.8e-05
7.8e-05
7.8e-05
7.8e-05
7.8e-05
7.8e-05
7.8e-05
7.8e-05
7.8e-05
7.8e-05
7.8e-05
7.8e-05
7.8e-05
7.8e-05
7.8e-05
7.8e-05
7.8e-05
7.8e-05
7.8e-05
7.8e-05
7.8e-05
7.8e-05
7.8e-05
7.8e-05
7.8e-05
7.8e-05
7.8e-05
7.8e-05
7.8e-05
7.8e-05
7.8e-05
7.8e-05
7.8e-05
7.8e-05
7.8e-05
7.8e-05
7.8e-05
7.8e-05
7.8e-05
7.8e-05
7.8e-05
7.8e-05
7.8e-05
7.8e-05
7.8e-05
7.8e-05
7.8e-05
7.8e-05
7.8e-05
7.8e-05
7.8e-05
7.8e-05
7.8e-05
7.8e-05
7.8e-05
7.8e-05
7.8e-05
7.8e-05
7.8e-05
7.8e-05
7.8e-05
7.8e-05
7.8e-05
7.8e-05
7.8e-05
7.8e-05
7.8e-05
7.8e-05
7.8e-05
7.8e-05
7.8e-05
7.8e-05
7.8e-05
7.8e-05
7.8e-05
7.8e-05
7.8e-05
7.8e-05
7.8e-05
7.8e-05
7.8e-05
7.8e-05
7.8e-05
7.8e-05
7.8e-05
7.8e-05
7.8e-05
7.8e-05
7.8e-05
7.8e-05
7.8e-05
7.8e-05
7.8e-05
7.8e-05
7.8e-05
7.8e-05
7.8e-05
7.8e-05
7.8e-05
7.8e-05
7.8e-05
7.8e-05
7.8e-05
7.8e-05
7.8e-05
7.8e-05
7.8e-05
7.8e-05
7.8e-05
7.8e-05
7.8e-05
7.8e-05
7.8e-05
7.8e-05
7.8e-05
7.8e-05
7.8e-05
7.8e-05
7.8e-05
7.8e-05
7.8e-05
7.8e-05
7.8e-05
7.8e-05
7.8e-05
7.8e-05
7.8e-05
7.8e-05
7.8e-05
7.8e-05
7.8e-05
7.8e-05
7.8e-05
7.8e-05
7.8e-05
7.8e-05
7.8e-05
7.8e-05
7.8e-05
7.8e-05
7.8e-05
7.8e-05
7.8e-05
7.8e-05
7.8e-05
7.8e-05
7.8e-05
7.8e-05
7.8e-05
7.8e-05
7.8e-05
7.8e-05
7.8e-05
7.8e-05
7.8e-05
7.8e-05
7.8e-05
7.8e-05
7.8e-05
7.8e-05
7.8e-05
7.8e-05
7.8e-05
7.8e-05
7.8e-05
7.8e-05
7.8e-05
7.8e-05
7.8e-05
7.8e-05
7.8e-05
7.8e-05
7.8e-05
7.8e-05
7.8e-05
7.8e-05
7.8e-05
7.8e-05
7.8e-05
7.8e-05
7.8e-05
7.8e-05
7.8e-05
7.8e-05
7.8e-05
7.8e-05
7.8e-05
7.8e-05
7.8e-05
7.8e-05
7.8e-05
7.8e-05
7.8e-05
7.8e-05
7.8e-05
7.8e-05
7.8e-05
7.8e-05
7.8e-05
7.8e-05
7.8e-05
7.8e-05
7.8e-05
7.8e-05
7.8e-05
7.8e-05
7.8e-05
7.8e-05
7.8e-05
7.8e-05
7.8e-05
7.8e-05
7.8e-05
7.8e-05
7.8e-05
7.8e-05
7.8e-05
7.8e-05
7.8e-05
7.8e-05
7.8e-05
7.8e-05
7.8e-05
7.8e-05
7.8e-05
7.8e-05
7.8e-05
7.8e-05
7.8e-05
7.8e-05
7.8e-05
7.8e-05
7.8e-05
7.8e-05
7.8e-05
7.8e-05
7.8e-05
7.8e-05
7.8e-05
7.8e-05
7.8e-05
7.8e-05
7.8e-05
7.8e-05
7.8e-05
7.8e-05
7.8e-05
7.8e-05
7.8e-05
7.8e-05
7.8e-05
7.8e-05
7.8e-05
7.8e-05
7.8e-05
7.8e-05
7.8e-05
7.8e-05
7.8e-05
7.8e-05
7.8e-05
7.8e-05
7.8e-05
7.8e-05
7.8e-05
7.8e-05
7.8e-05
7.8e-05
7.8e-05
7.8e-05
7.8e-05
7.8e-05
7.8e-05
7.8e-05
7.8e-05
7.8e-05
7.8e-05
7.8e-05
7.8e-05
7.8e-05
7.8e-05
7.8e-05
7.8e-05
7.8e-05
7.8e-05
7.8e-05
7.8e-05
7.8e-05
7.8e-05
7.8e-05
7.8e-05
7.8e-05
7.8e-05
7.8e-05
7.8e-05
7.8e-05
7.8e-05
7.8e-05
7.8e-05
7.8e-05
7.8e-05
7.8e-05
7.8e-05
7.8e-05
7.8e-05
7.8e-05
7.8e-05
7.8e-05
7.8e-05
7.8e-05
7.8e-05
7.8e-05
7.8e-05
7.8e-05
7.8e-05
7.8e-05
7.8e-05
7.8e-05
7.8e-05
7.8e-05
7.8e-05
7.8e-05
7.8e-05
7.8e-05
7.8e-05
7.8e-05
7.8e-05
7.8e-05
7.8e-05
7.8e-05
7.8e-05
7.8e-05
7.8e-05
7.8e-05
7.8e-05
7.8e-05
7.8e-05
7.8e-05
7.8e-05
7.8e-05
7.8e-05
7.8e-05
7.8e-05
7.8e-05
7.8e-05
7.8e-05
7.8e-05
7.8e-05
7.8e-05
7.8e-05
7.8e-05
7.8e-05
7.8e-05
7.8e-05
7.8e-05
7.8e-05
7.8e-05
7.8e-05
7.8e-05
7.8e-05
7.8e-05
7.8e-05
7.8e-05
7.8e-05
7.8e-05
7.8e-05
7.8e-05
7.8e-05
7.8e-05
7.8e-05
7.8e-05
7.8e-05
7.8e-05
7.8e-05
7.8e-05
7.8e-05
7.8e-05
7.8e-05
7.8e-05
7.8e-05
7.8e-05
7.8e-05
7.8e-05
7.8e-05
7.8e-05
7.8e-05
7.8e-05
7.8e-05
7.8e-05
7.8e-05
7.8e-05
7.8e-05
7.8e-05
7.8e-05
7.8e-05
7.8e-05
7.8e-05
7.8e-05
7.8e-05
7.8e-05
7.8e-05
7.8e-05
7.8e-05
7.8e-05
7.8e-05
7.8e-05
7.8e-05
7.8e-05
7.8e-05
7.8e-05
7.8e-05
7.8e-05
7.8e-05
7.8e-05
7.8e-05
7.8e-05
7.8e-05
7.8e-05
7.8e-05
7.8e-05
7.8e-05
7.8e-05
7.8e-05
7.8e-05
7.8e-05
7.8e-05
7.8e-05
7.8e-05
7.8e-05
7.8e-05
7.8e-05
7.8e-05
7.8e-05
7.8e-05
7.8e-05
7.8e-05
7.8e-05
7.8e-05
7.8e-05
7.8e-05
7.8e-05
7.8e-05
7.8e-05
7.8e-05
7.8e-05
7.8e-05
7.8e-05
7.8e-05
7.8e-05
7.8e-05
7.8e-05
7.8e-05
7.8e-05
7.8e-05
7.8e-05
7.8e-05
7.8e-05
7.8e-05
7.8e-05
7.8e-05
7.8e-05
7.8e-05
7.8e-05
7.8e-05
7.8e-05
7.8e-05
7.8e-05
7.8e-05
7.8e-05
7.8e-05
7.8e-05
7.8e-05
7.8e-05
7.8e-05
7.8e-05
7.8e-05
7.8e-05
7.8e-05
7.8e-05
7.8e-05
7.8e-05
7.8e-05
7.8e-05
7.8e-05
7.8e-05
7.8e-05
7.8e-05
7.8e-05
7.8e-05
7.8e-05
7.8e-05
7.8e-05
7.8e-05
7.8e-05
7.8e-05
7.8e-05
7.8e-05
7.8e-05
7.8e-05
7.8e-05
7.8e-05
7.8e-05
7.8e-05
7.8e-05
7.8e-05
7.8e-05
7.8e-05
7.8e-05
7.8e-05
7.8e-05
7.8e-05
7.8e-05
7.8e-05
7.8e-05
7.8e-05
7.8e-05
7.8e-05
7.8e-05
7.8e-05
7.8e-05
7.8e-05
7.8e-05
7.8e-05
7.8e-05
7.8e-05
7.8e-05
7.8e-05
7.8e-05
7.8e-05
7.8e-05
7.8e-05
7.8e-05
7.8e-05
7.8e-05
7.8e-05
7.8e-05
7.8e-05
7.8e-05
7.8e-05
7.8e-05
7.8e-05
7.8e-05
7.8e-05
7.8e-05
7.8e-05
7.8e-05
7.8e-05
7.8e-05
7.8e-05
7.8e-05
7.8e-05
7.8e-05
7.8e-05
7.8e-05
7.8e-05
7.8e-05
7.8e-05
7.8e-05
7.8e-05
7.8e-05
7.8e-05
7.8e-05
7.8e-05
7.8e-05
7.8e-05
7.8e-05
7.8e-05
7.8e-05
7.8e-05
7.8e-05
7.8e-05
7.8e-05
7.8e-05
7.8e-05
7.8e-05
7.8e-05
7.8e-05
7.8e-05
7.8e-05
7.8e-05
7.8e-05
7.8e-05
7.8e-05
7.8e-05
7.8e-05
7.8e-05
7.8e-05
7.8e-05
7.8e-05
7.8e-05
7.8e-05
7.8e-05
7.8e-05
7.8e-05
7.8e-05
7.8e-05
7.8e-05
7.8e-05
7.8e-05