/*--------------------------------*- C++ -*----------------------------------*\
| =========                 |                                                 |
| \\      /  F ield         | OpenFOAM: The Open Source CFD Toolbox           |
|  \\    /   O peration     | Version:  2406                                  |
|   \\  /    A nd           | Website:  www.openfoam.com                      |
|    \\/     M anipulation  |                                                 |
\*---------------------------------------------------------------------------*/
FoamFile
{
    version     2.0;
    format      ascii;
    arch        "LSB;label=32;scalar=64";
    class       volScalarField;
    location    "9.55";
    object      C_0;
}
// * * * * * * * * * * * * * * * * * * * * * * * * * * * * * * * * * * * * * //

dimensions      [1 -3 0 0 0 0 0];

internalField   nonuniform List<scalar> 
14400
(
0.213269
0.212523
0.211202
0.20957
0.207906
0.206455
0.205402
0.204862
0.204876
0.205414
0.206369
0.207554
0.208708
0.209498
0.209567
0.208611
0.206524
0.203502
0.199915
0.196173
0.192649
0.189659
0.187465
0.186294
0.186355
0.187864
0.191058
0.196201
0.203586
0.213527
0.22634
0.242343
0.261856
0.285199
0.312676
0.344526
0.380778
0.420705
0.460089
0.488606
0.508016
0.524572
0.53856
0.550168
0.559541
0.566789
0.571992
0.57521
0.57648
0.575823
0.573241
0.56872
0.562227
0.553711
0.543098
0.530292
0.515162
0.497542
0.47707
0.446761
0.405751
0.3658
0.329785
0.29823
0.27107
0.248058
0.228881
0.213206
0.200689
0.190965
0.183667
0.178451
0.175024
0.173161
0.172702
0.17354
0.17561
0.178883
0.183356
0.189044
0.19597
0.204149
0.21355
0.224056
0.235371
0.246858
0.25699
0.262675
0.261781
0.256414
0.249132
0.241497
0.234187
0.227563
0.221819
0.21704
0.213232
0.210342
0.208271
0.206892
0.206055
0.205611
0.205431
0.205428
0.205586
0.205961
0.206675
0.207893
0.209807
0.212608
0.216477
0.221571
0.228007
0.235853
0.2451
0.255633
0.267179
0.27919
0.290514
0.297744
0.218137
0.217208
0.215594
0.213643
0.211692
0.210016
0.208818
0.208219
0.208264
0.208923
0.210085
0.211558
0.213057
0.214207
0.214561
0.213683
0.211361
0.207917
0.20386
0.19968
0.195788
0.192512
0.190113
0.188814
0.188822
0.190349
0.193625
0.19891
0.206491
0.216673
0.229768
0.246091
0.265963
0.289706
0.317627
0.349973
0.386794
0.427296
0.465184
0.491791
0.510833
0.52714
0.540939
0.552404
0.561667
0.568833
0.573977
0.577157
0.578407
0.577748
0.575181
0.570692
0.56425
0.555807
0.545292
0.532615
0.517653
0.500251
0.480185
0.45161
0.411849
0.371337
0.334723
0.302642
0.275013
0.251575
0.232008
0.215978
0.203137
0.193129
0.185596
0.180196
0.176639
0.174697
0.174207
0.175059
0.177191
0.180573
0.185208
0.191116
0.19833
0.20687
0.216717
0.227763
0.239731
0.251982
0.262648
0.2682
0.267914
0.262343
0.254562
0.246452
0.238726
0.231756
0.225738
0.220758
0.216821
0.21387
0.2118
0.210471
0.209714
0.209357
0.209243
0.209266
0.209399
0.209711
0.210346
0.211499
0.213382
0.216205
0.22016
0.225411
0.232078
0.240231
0.249866
0.260873
0.272981
0.285608
0.297335
0.304048
0.228382
0.227021
0.224753
0.222115
0.219557
0.217415
0.215918
0.215198
0.215303
0.216202
0.217784
0.219844
0.22207
0.224007
0.225035
0.22439
0.221483
0.217078
0.212006
0.206913
0.202267
0.19841
0.195598
0.194043
0.193942
0.195498
0.198931
0.204492
0.212451
0.223101
0.236746
0.253698
0.274278
0.298808
0.327589
0.360846
0.39856
0.43963
0.474429
0.497967
0.516382
0.532217
0.545654
0.55684
0.565891
0.572897
0.577928
0.581033
0.582245
0.58158
0.579042
0.574616
0.568275
0.559974
0.54965
0.537222
0.522583
0.505602
0.486115
0.460574
0.423585
0.382217
0.344574
0.311515
0.28298
0.258706
0.238373
0.221641
0.208165
0.197598
0.189593
0.183824
0.180001
0.177896
0.177339
0.178219
0.180474
0.184079
0.189044
0.195401
0.203195
0.212459
0.223186
0.235278
0.248465
0.262057
0.273414
0.278672
0.279207
0.274004
0.265499
0.256522
0.248002
0.240361
0.233813
0.228447
0.224267
0.22121
0.219159
0.217949
0.217378
0.217219
0.217259
0.217339
0.217414
0.217578
0.218032
0.219028
0.220827
0.223674
0.227784
0.233329
0.240437
0.24918
0.259557
0.271464
0.284632
0.298404
0.310384
0.315612
0.245019
0.242797
0.239356
0.235564
0.23203
0.229156
0.227193
0.226282
0.226472
0.227732
0.22995
0.232915
0.236294
0.23956
0.241881
0.241903
0.237712
0.231555
0.224798
0.218264
0.21246
0.207719
0.20428
0.202334
0.202061
0.203647
0.207297
0.213243
0.221739
0.233061
0.247504
0.265378
0.287001
0.312689
0.342724
0.377252
0.41595
0.456466
0.486385
0.506944
0.524513
0.539691
0.552619
0.563411
0.572159
0.578938
0.583805
0.586802
0.587958
0.587287
0.58479
0.580456
0.574259
0.566163
0.556112
0.544039
0.529857
0.513459
0.494713
0.472369
0.439664
0.39817
0.359378
0.32498
0.295137
0.269643
0.248186
0.230427
0.216023
0.204637
0.195937
0.189611
0.185381
0.18302
0.182357
0.183279
0.185722
0.189671
0.195144
0.202187
0.210858
0.221203
0.233224
0.246818
0.261665
0.276825
0.288359
0.293307
0.294562
0.291224
0.28215
0.271998
0.262356
0.253764
0.246463
0.240554
0.236044
0.232867
0.230891
0.229918
0.22969
0.2299
0.230229
0.230415
0.230372
0.230253
0.230361
0.231053
0.232667
0.235499
0.239793
0.245736
0.25346
0.263034
0.274453
0.287594
0.302109
0.316988
0.327803
0.331449
0.269509
0.265577
0.260188
0.254659
0.24973
0.245837
0.243235
0.242059
0.242356
0.244093
0.247157
0.251344
0.25632
0.261544
0.266052
0.267738
0.260884
0.251902
0.24271
0.234196
0.226835
0.220915
0.216635
0.214158
0.213637
0.215234
0.219136
0.225552
0.234716
0.246892
0.262361
0.281429
0.30441
0.331611
0.363277
0.399464
0.439424
0.47564
0.499741
0.518494
0.535033
0.549415
0.561721
0.572025
0.580396
0.58689
0.591551
0.594413
0.595499
0.59482
0.592376
0.588158
0.582145
0.574305
0.564597
0.552965
0.539346
0.523663
0.505837
0.485783
0.458655
0.419477
0.379383
0.343274
0.311739
0.284658
0.261741
0.242653
0.227054
0.214615
0.205016
0.197963
0.193194
0.190488
0.18968
0.190656
0.193359
0.197778
0.203942
0.211907
0.221742
0.233503
0.247196
0.262704
0.279589
0.296227
0.306582
0.311367
0.313233
0.312133
0.304413
0.293134
0.282181
0.272421
0.264185
0.257611
0.25272
0.249451
0.247658
0.247108
0.247472
0.248328
0.249179
0.249561
0.249282
0.248636
0.248126
0.248273
0.249527
0.252247
0.25671
0.263115
0.271591
0.282198
0.294905
0.309534
0.325507
0.340551
0.348043
0.350705
0.303223
0.296102
0.287803
0.279922
0.273185
0.267996
0.264588
0.26308
0.263506
0.265825
0.269926
0.275603
0.282529
0.290132
0.297017
0.297656
0.290527
0.278202
0.266031
0.255109
0.245852
0.238487
0.233165
0.230014
0.229157
0.230733
0.234902
0.241853
0.251802
0.264995
0.281701
0.302217
0.326849
0.355873
0.389431
0.427168
0.466637
0.495101
0.514833
0.532257
0.547709
0.561217
0.572824
0.582574
0.590511
0.596674
0.601096
0.603801
0.604805
0.604116
0.601735
0.597654
0.591856
0.584317
0.575005
0.56388
0.550898
0.536011
0.519173
0.50035
0.478327
0.445661
0.404651
0.366632
0.333092
0.304094
0.279402
0.258703
0.241664
0.227961
0.217289
0.209368
0.203949
0.200828
0.199846
0.2009
0.203936
0.208951
0.215979
0.225085
0.236344
0.249815
0.265497
0.283238
0.302373
0.319028
0.327442
0.332315
0.33476
0.334905
0.331052
0.320007
0.307843
0.296795
0.287481
0.280145
0.274845
0.271545
0.270101
0.270245
0.271572
0.273519
0.275306
0.276065
0.275303
0.273703
0.272137
0.271381
0.272014
0.274468
0.279045
0.285946
0.295283
0.307077
0.321243
0.337473
0.354566
0.366067
0.370488
0.37262
0.339269
0.333159
0.32205
0.311547
0.302735
0.296035
0.29169
0.289796
0.290372
0.293369
0.298658
0.305987
0.314945
0.324508
0.329554
0.327924
0.323112
0.309796
0.2948
0.281293
0.26991
0.260885
0.254344
0.250385
0.249105
0.25062
0.255068
0.262615
0.273459
0.287825
0.305968
0.328166
0.354704
0.385812
0.421475
0.460503
0.492835
0.514116
0.531913
0.547992
0.562329
0.574921
0.585783
0.594934
0.602399
0.608201
0.612359
0.614889
0.615803
0.615105
0.612796
0.608867
0.603309
0.596102
0.587225
0.576652
0.564355
0.550309
0.534495
0.516908
0.49757
0.472428
0.434889
0.395273
0.359549
0.328351
0.301592
0.279012
0.2603
0.245142
0.233242
0.224334
0.218183
0.214598
0.213434
0.214597
0.218042
0.223768
0.231818
0.242259
0.255167
0.270592
0.288492
0.308548
0.329348
0.343539
0.350762
0.355691
0.358587
0.359573
0.358795
0.352343
0.339624
0.327286
0.316786
0.308617
0.302893
0.299643
0.298755
0.299941
0.302722
0.30643
0.309876
0.311436
0.309628
0.306368
0.303105
0.300967
0.300651
0.302643
0.307255
0.314668
0.324947
0.338017
0.353629
0.370983
0.385346
0.391719
0.394989
0.396666
0.372645
0.370571
0.361722
0.349373
0.338537
0.330225
0.324871
0.322564
0.323317
0.327062
0.333637
0.34258
0.353009
0.36101
0.361625
0.359533
0.356096
0.346045
0.329039
0.313009
0.299381
0.288538
0.280629
0.275742
0.273962
0.275382
0.280124
0.288333
0.300187
0.315885
0.335654
0.359733
0.388349
0.421564
0.458678
0.493712
0.516831
0.534473
0.550713
0.565469
0.578692
0.590356
0.600452
0.608982
0.615951
0.62137
0.625248
0.627594
0.628412
0.627706
0.625474
0.621711
0.616409
0.609557
0.601141
0.591147
0.579562
0.566376
0.55159
0.535214
0.51728
0.497512
0.468977
0.429292
0.391484
0.35787
0.328775
0.304059
0.283448
0.266646
0.25337
0.243366
0.236412
0.23233
0.230987
0.232297
0.236224
0.242773
0.251989
0.263938
0.278692
0.296277
0.316574
0.338913
0.35905
0.369495
0.376184
0.381101
0.384322
0.385973
0.386225
0.384683
0.37696
0.364039
0.352378
0.343387
0.337214
0.334092
0.333985
0.336596
0.341332
0.347639
0.353635
0.35685
0.352927
0.347198
0.341462
0.337435
0.335814
0.337145
0.341706
0.349638
0.360917
0.375204
0.391671
0.407145
0.414941
0.418552
0.421085
0.422389
0.405604
0.405269
0.402128
0.392565
0.380535
0.370671
0.36435
0.361637
0.362593
0.367099
0.374973
0.384946
0.393912
0.396104
0.394609
0.392397
0.389294
0.383781
0.368594
0.350504
0.334641
0.321879
0.312487
0.306573
0.304224
0.305529
0.310591
0.31954
0.332529
0.349724
0.371296
0.3974
0.428129
0.463057
0.498977
0.523204
0.540274
0.556231
0.570997
0.584479
0.596614
0.607359
0.616689
0.624589
0.631053
0.63608
0.639671
0.641826
0.642547
0.641833
0.639683
0.636094
0.63106
0.624576
0.616635
0.607234
0.596369
0.584045
0.570273
0.555077
0.538494
0.520573
0.499817
0.468443
0.429215
0.393079
0.361435
0.334353
0.311626
0.292992
0.278188
0.266976
0.259148
0.254536
0.253017
0.254515
0.258998
0.266477
0.276994
0.290612
0.307381
0.327261
0.349907
0.373617
0.389036
0.397068
0.403377
0.408204
0.411629
0.413772
0.414799
0.414935
0.413151
0.406024
0.394058
0.384608
0.377939
0.375
0.375859
0.380233
0.386961
0.396041
0.401529
0.40314
0.401399
0.395342
0.386944
0.380833
0.377638
0.378176
0.382604
0.391017
0.403282
0.418181
0.432364
0.440279
0.443695
0.44646
0.448409
0.449416
0.438899
0.438774
0.438604
0.435562
0.427729
0.416996
0.410097
0.407019
0.408194
0.413232
0.421951
0.429128
0.431455
0.430015
0.428308
0.426153
0.423429
0.420098
0.411821
0.393774
0.376035
0.361352
0.350408
0.343385
0.340417
0.341597
0.347017
0.356792
0.371053
0.389912
0.413428
0.441562
0.474122
0.509061
0.533187
0.549475
0.564776
0.579179
0.592564
0.604837
0.615926
0.625777
0.634354
0.641632
0.647593
0.652228
0.655529
0.657492
0.658115
0.657396
0.655332
0.651921
0.647161
0.641051
0.633591
0.624783
0.614635
0.60316
0.59038
0.576328
0.561047
0.544595
0.527047
0.505096
0.471837
0.434132
0.4
0.370419
0.34539
0.324737
0.308246
0.295704
0.286921
0.281739
0.280045
0.281769
0.286884
0.2954
0.307351
0.322783
0.341692
0.363903
0.388492
0.408976
0.419024
0.426174
0.432054
0.436711
0.440219
0.442686
0.444263
0.445149
0.445604
0.444641
0.439744
0.431661
0.424571
0.421934
0.423705
0.429833
0.436455
0.440489
0.441933
0.441951
0.442585
0.441186
0.437123
0.43028
0.425698
0.425566
0.429749
0.438272
0.450899
0.461274
0.467707
0.470525
0.473081
0.475185
0.476676
0.477449
0.472318
0.472322
0.472397
0.472689
0.47113
0.466714
0.46095
0.45758
0.45897
0.463274
0.466659
0.467528
0.465803
0.464181
0.462456
0.460479
0.458162
0.455477
0.452289
0.44228
0.423792
0.407329
0.394867
0.386681
0.383068
0.384132
0.389958
0.400641
0.416298
0.436955
0.462421
0.492007
0.524328
0.546946
0.56213
0.57646
0.590177
0.603144
0.615243
0.626379
0.636475
0.64547
0.65332
0.659991
0.66546
0.669708
0.672724
0.674499
0.675027
0.674304
0.672328
0.669097
0.664612
0.658876
0.651893
0.643673
0.634228
0.623582
0.611761
0.598806
0.584769
0.569714
0.553723
0.536896
0.51436
0.48048
0.444744
0.412768
0.385321
0.362472
0.344132
0.330129
0.320301
0.314502
0.312627
0.314611
0.320431
0.33009
0.343599
0.360961
0.382024
0.406117
0.429912
0.442746
0.450144
0.456552
0.461952
0.466366
0.469849
0.472491
0.474417
0.475793
0.476825
0.477764
0.478383
0.476507
0.474029
0.472724
0.473784
0.47586
0.477401
0.476875
0.476451
0.476624
0.47741
0.47886
0.479851
0.47885
0.477559
0.477708
0.481346
0.487411
0.493235
0.49695
0.498923
0.500994
0.502921
0.504521
0.505662
0.506255
0.505734
0.505797
0.50597
0.506343
0.507049
0.507515
0.506135
0.504833
0.504725
0.505
0.503706
0.501713
0.500021
0.498449
0.496855
0.495144
0.493264
0.491211
0.489029
0.486085
0.476588
0.459656
0.446178
0.436849
0.432636
0.433622
0.4399
0.451512
0.468591
0.490997
0.517681
0.544887
0.564706
0.578226
0.591303
0.604058
0.616328
0.627976
0.638886
0.648962
0.658124
0.666307
0.673464
0.679553
0.684546
0.688421
0.69116
0.692752
0.693189
0.692465
0.690578
0.687527
0.683315
0.677947
0.671433
0.663786
0.655025
0.645176
0.634276
0.622367
0.609508
0.595768
0.581232
0.566
0.550173
0.528024
0.495244
0.461751
0.431967
0.40679
0.386461
0.370866
0.359897
0.353429
0.351359
0.353631
0.360222
0.371124
0.386282
0.405645
0.428733
0.453453
0.468405
0.475777
0.482244
0.487938
0.492837
0.496951
0.50032
0.503011
0.505123
0.506781
0.508139
0.509367
0.510638
0.512138
0.513155
0.51329
0.513187
0.51221
0.511104
0.510507
0.510357
0.510684
0.511514
0.512879
0.514811
0.517427
0.519453
0.521147
0.523547
0.525981
0.527155
0.528471
0.530014
0.531607
0.533087
0.534318
0.535197
0.535654
0.539086
0.539164
0.539343
0.539663
0.540159
0.540807
0.541522
0.541632
0.540629
0.538903
0.537186
0.535585
0.534121
0.532738
0.531373
0.529979
0.528538
0.527073
0.52565
0.524391
0.522595
0.515679
0.503789
0.493745
0.489253
0.490254
0.497026
0.509365
0.527336
0.550294
0.570389
0.586124
0.59763
0.609235
0.620799
0.63214
0.6431
0.653546
0.663364
0.672459
0.68075
0.688173
0.694674
0.700211
0.704751
0.708268
0.710743
0.712161
0.712512
0.71179
0.709992
0.707118
0.703174
0.698166
0.692106
0.685012
0.676908
0.667823
0.657798
0.646879
0.635129
0.622619
0.609435
0.59568
0.581468
0.566908
0.546338
0.516748
0.485618
0.458155
0.435818
0.418518
0.406333
0.399145
0.39686
0.399429
0.406834
0.419051
0.435802
0.456983
0.48081
0.496077
0.503435
0.50954
0.515119
0.520118
0.524507
0.528283
0.531468
0.534111
0.536281
0.538071
0.539583
0.540926
0.542188
0.543397
0.544384
0.544931
0.544792
0.544357
0.543909
0.543693
0.543787
0.54424
0.545082
0.546332
0.547995
0.550045
0.552307
0.554513
0.556133
0.557357
0.558532
0.559762
0.561055
0.562334
0.563501
0.564466
0.565153
0.565509
0.57236
0.572429
0.572576
0.572808
0.573118
0.573455
0.573695
0.573564
0.572881
0.571783
0.570552
0.569319
0.568138
0.56701
0.56592
0.564859
0.563838
0.562894
0.562106
0.561596
0.561548
0.561854
0.55895
0.554813
0.551495
0.552697
0.559973
0.572098
0.586342
0.599705
0.61054
0.62007
0.630067
0.640284
0.650519
0.660603
0.670386
0.679743
0.688565
0.696759
0.704245
0.71096
0.716849
0.721867
0.72598
0.729159
0.731383
0.732637
0.732908
0.73219
0.730481
0.727781
0.724096
0.719435
0.713813
0.70725
0.699772
0.691412
0.682212
0.672224
0.661509
0.650142
0.63821
0.625815
0.613074
0.600124
0.587109
0.569438
0.545073
0.516435
0.492591
0.473546
0.460157
0.45223
0.449697
0.452529
0.460694
0.474239
0.491908
0.513299
0.526795
0.533439
0.538749
0.543829
0.548572
0.552907
0.55679
0.560205
0.56316
0.565683
0.567821
0.569636
0.571196
0.572567
0.573793
0.574874
0.575741
0.576302
0.576511
0.576514
0.576484
0.576569
0.576859
0.577406
0.57824
0.579373
0.580792
0.582445
0.584216
0.585937
0.587416
0.588682
0.589852
0.590992
0.59211
0.593172
0.594119
0.594892
0.595439
0.595722
0.605565
0.605618
0.605722
0.605873
0.606049
0.606201
0.60624
0.606045
0.605546
0.604797
0.603918
0.603002
0.602102
0.601243
0.600438
0.599701
0.599059
0.59856
0.598283
0.59834
0.598884
0.60012
0.602337
0.604086
0.605494
0.608771
0.61473
0.622493
0.630396
0.637341
0.645089
0.653476
0.662283
0.671314
0.680392
0.689365
0.698099
0.706476
0.714394
0.721765
0.728513
0.734573
0.739893
0.744428
0.748141
0.751004
0.752994
0.754094
0.754293
0.753582
0.75196
0.749428
0.745993
0.741666
0.736461
0.730403
0.723517
0.71584
0.707415
0.698295
0.688542
0.678231
0.667449
0.656296
0.644889
0.633366
0.621889
0.610652
0.597044
0.578779
0.556137
0.535754
0.521568
0.512956
0.510127
0.513104
0.521576
0.53605
0.551105
0.56114
0.565929
0.570061
0.574291
0.578456
0.582435
0.586147
0.589541
0.592588
0.595283
0.597639
0.599684
0.601456
0.602999
0.604352
0.605541
0.606567
0.607405
0.608025
0.608434
0.608706
0.608943
0.609241
0.609673
0.610284
0.611101
0.612129
0.613353
0.614728
0.616176
0.6176
0.618913
0.620102
0.621203
0.622242
0.623223
0.624124
0.624911
0.625544
0.625988
0.626217
0.638718
0.638754
0.638823
0.638914
0.639005
0.639058
0.639019
0.63883
0.638462
0.637939
0.637322
0.636669
0.636025
0.635423
0.634888
0.634447
0.634135
0.634005
0.634127
0.634596
0.63553
0.637067
0.639344
0.642408
0.646327
0.650639
0.655177
0.660098
0.66572
0.672043
0.678998
0.686461
0.694278
0.702295
0.710369
0.718367
0.726168
0.733668
0.740771
0.747394
0.753467
0.758927
0.763723
0.76781
0.771153
0.773723
0.775495
0.776454
0.776586
0.775886
0.774349
0.77198
0.768783
0.764773
0.759965
0.754382
0.748053
0.741016
0.733313
0.724998
0.716133
0.706791
0.697057
0.687029
0.676821
0.666564
0.656412
0.646549
0.637195
0.627788
0.615524
0.601925
0.588991
0.579964
0.576783
0.579607
0.586238
0.593138
0.598512
0.600762
0.603468
0.606582
0.609901
0.613267
0.616564
0.619707
0.622638
0.625323
0.627746
0.629907
0.63182
0.633506
0.634992
0.636302
0.637452
0.638448
0.639285
0.639961
0.640495
0.640933
0.64134
0.641781
0.642307
0.642956
0.643749
0.644689
0.645763
0.646937
0.648161
0.649376
0.650532
0.651611
0.652615
0.653551
0.654414
0.655191
0.655856
0.656385
0.656753
0.656942
0.671834
0.671858
0.671901
0.671954
0.671998
0.672007
0.671949
0.671795
0.671533
0.671177
0.670761
0.670326
0.669907
0.669536
0.669245
0.669063
0.669031
0.669197
0.669624
0.670387
0.671573
0.673273
0.675563
0.678473
0.681988
0.685951
0.690285
0.695038
0.700308
0.706111
0.712401
0.719091
0.726071
0.733221
0.740423
0.747564
0.75454
0.761256
0.767626
0.773574
0.779034
0.783946
0.788261
0.791938
0.794939
0.797238
0.79881
0.799639
0.799713
0.799025
0.797572
0.795357
0.792388
0.788677
0.784242
0.779106
0.773299
0.766857
0.759824
0.752252
0.744201
0.735744
0.72696
0.717943
0.708801
0.699656
0.690647
0.681935
0.673702
0.666151
0.659558
0.652868
0.645595
0.639641
0.636367
0.63592
0.636954
0.637222
0.637507
0.638729
0.640598
0.6429
0.645463
0.648148
0.650846
0.653477
0.655982
0.65832
0.66047
0.662423
0.664182
0.665756
0.667161
0.668411
0.669517
0.670487
0.671325
0.67204
0.672651
0.673191
0.673704
0.674234
0.674818
0.675485
0.67625
0.677116
0.678073
0.679097
0.680155
0.68121
0.682229
0.683194
0.684096
0.684932
0.685693
0.686368
0.686938
0.687387
0.687697
0.687855
0.704927
0.704943
0.704971
0.705003
0.705025
0.705022
0.704974
0.704867
0.704697
0.704474
0.704221
0.703966
0.703739
0.703571
0.703491
0.703531
0.703729
0.704129
0.704784
0.705754
0.707102
0.708888
0.71116
0.713935
0.717198
0.720891
0.724975
0.729458
0.734365
0.739693
0.745403
0.751432
0.757694
0.764095
0.770537
0.776927
0.783172
0.78919
0.794904
0.800243
0.805147
0.809562
0.813439
0.816739
0.819428
0.821478
0.822868
0.823579
0.823602
0.822928
0.821556
0.819489
0.816735
0.813306
0.809221
0.804502
0.799179
0.793289
0.786873
0.779983
0.772677
0.765022
0.757095
0.748983
0.740785
0.732611
0.724584
0.716841
0.709528
0.702798
0.696794
0.691566
0.687288
0.683729
0.680703
0.678166
0.676318
0.675448
0.675384
0.676051
0.677294
0.678957
0.680902
0.683014
0.685197
0.687375
0.689491
0.691505
0.69339
0.695133
0.696728
0.698176
0.699486
0.700664
0.701719
0.702658
0.703489
0.704223
0.704877
0.705476
0.706051
0.706632
0.707247
0.707916
0.70865
0.709452
0.710315
0.711223
0.712152
0.713079
0.71398
0.714839
0.715644
0.716387
0.717059
0.717649
0.718143
0.718528
0.718792
0.718927
0.738003
0.738015
0.738036
0.738061
0.738079
0.738082
0.738059
0.738002
0.737914
0.737801
0.737682
0.737578
0.737514
0.737518
0.737616
0.73784
0.738224
0.738806
0.739631
0.740744
0.742192
0.744019
0.746253
0.74891
0.75198
0.755439
0.759266
0.763454
0.768001
0.772891
0.778088
0.78354
0.789178
0.794926
0.800705
0.806433
0.812032
0.817429
0.822555
0.827348
0.831751
0.835714
0.839194
0.842152
0.844556
0.84638
0.847603
0.848209
0.848187
0.847529
0.846236
0.844309
0.841757
0.838592
0.834832
0.830501
0.825627
0.820246
0.814397
0.808131
0.801501
0.794572
0.787415
0.78011
0.772745
0.765419
0.758239
0.751317
0.744772
0.738718
0.733254
0.728442
0.724333
0.72086
0.717952
0.715598
0.713874
0.712867
0.712531
0.712799
0.713569
0.71473
0.716176
0.717811
0.719552
0.721334
0.723103
0.724819
0.726454
0.727991
0.729419
0.730736
0.731942
0.73304
0.734037
0.734937
0.73575
0.736485
0.737157
0.737785
0.738392
0.738997
0.739622
0.740281
0.740982
0.741728
0.742513
0.743327
0.744153
0.744974
0.745774
0.746538
0.747254
0.747914
0.748508
0.749025
0.749456
0.749789
0.750018
0.750133
0.771068
0.771079
0.771099
0.771124
0.771149
0.771168
0.771176
0.77117
0.771154
0.771135
0.771128
0.77115
0.771223
0.771369
0.771616
0.771989
0.77252
0.773241
0.774188
0.775398
0.776905
0.77874
0.780925
0.78347
0.786372
0.789618
0.793196
0.797092
0.801294
0.805781
0.810518
0.815461
0.820552
0.825728
0.830923
0.836067
0.841094
0.845938
0.85054
0.854842
0.858794
0.86235
0.86547
0.868118
0.870264
0.871883
0.872956
0.873467
0.873406
0.872767
0.871548
0.869754
0.867391
0.864472
0.861016
0.857043
0.852583
0.847669
0.84234
0.836641
0.830625
0.824351
0.817883
0.811295
0.804666
0.798082
0.791634
0.785417
0.779525
0.774048
0.769061
0.764616
0.760742
0.757426
0.754645
0.7524
0.750715
0.749614
0.749073
0.749044
0.749453
0.75022
0.751261
0.7525
0.753868
0.755306
0.756767
0.758214
0.759617
0.760958
0.762223
0.763406
0.764504
0.765518
0.76645
0.767304
0.768088
0.76881
0.769482
0.770117
0.770733
0.771343
0.771963
0.772603
0.77327
0.773964
0.774683
0.775418
0.776158
0.776891
0.777603
0.778283
0.778921
0.779507
0.780032
0.780488
0.780865
0.781157
0.781355
0.781456
0.804121
0.804133
0.804156
0.804188
0.804225
0.804265
0.804307
0.804349
0.804397
0.804458
0.804544
0.804671
0.804857
0.805122
0.805488
0.805981
0.806625
0.80745
0.808484
0.809755
0.81129
0.813113
0.815238
0.817673
0.820419
0.823467
0.826807
0.830425
0.834304
0.83842
0.842744
0.847233
0.85184
0.856512
0.861191
0.865819
0.870338
0.87469
0.878823
0.882686
0.886234
0.889423
0.892218
0.894585
0.896498
0.897933
0.898871
0.899297
0.899204
0.898584
0.897437
0.895767
0.893581
0.890891
0.887714
0.884073
0.879993
0.875507
0.870652
0.865469
0.860008
0.854322
0.848472
0.842521
0.836542
0.830608
0.824798
0.819191
0.813864
0.808889
0.804326
0.800218
0.796593
0.793455
0.790804
0.78864
0.786972
0.7858
0.785105
0.78485
0.78498
0.785434
0.786148
0.78706
0.788112
0.789255
0.790446
0.791651
0.792842
0.793999
0.795109
0.796161
0.797151
0.798078
0.79894
0.799743
0.800489
0.801186
0.801842
0.802469
0.803078
0.80368
0.804284
0.804899
0.805529
0.806176
0.806836
0.807503
0.80817
0.808828
0.809464
0.810072
0.81064
0.811161
0.811626
0.812029
0.812361
0.812617
0.812791
0.812878
0.837162
0.837176
0.837205
0.837246
0.837299
0.837362
0.837436
0.837522
0.837626
0.837755
0.83792
0.838133
0.838411
0.838772
0.839235
0.83982
0.840551
0.84145
0.842542
0.843848
0.845389
0.847182
0.849239
0.851566
0.854163
0.857025
0.86014
0.863496
0.867075
0.870854
0.874803
0.878887
0.883064
0.887288
0.891511
0.895681
0.899748
0.903662
0.907377
0.910847
0.91403
0.91689
0.919393
0.921508
0.923211
0.924479
0.925296
0.925648
0.925527
0.924928
0.92385
0.922296
0.920274
0.917796
0.914878
0.911541
0.90781
0.903715
0.89929
0.894575
0.889615
0.884459
0.87916
0.873777
0.868372
0.863011
0.857759
0.852685
0.847852
0.843318
0.839134
0.835338
0.831955
0.828999
0.826475
0.824385
0.822732
0.821509
0.820699
0.82027
0.820183
0.820389
0.820838
0.82148
0.822267
0.823157
0.824112
0.825102
0.826101
0.827089
0.828052
0.828978
0.829863
0.830701
0.831492
0.832237
0.832938
0.833601
0.834233
0.83484
0.83543
0.836013
0.836594
0.83718
0.837773
0.838374
0.838981
0.839589
0.840193
0.840784
0.841356
0.841899
0.842406
0.84287
0.843283
0.84364
0.843934
0.844159
0.844312
0.844389
0.870188
0.870206
0.870241
0.870293
0.870362
0.870448
0.870552
0.870678
0.870831
0.871017
0.871247
0.871531
0.871884
0.872321
0.872858
0.873514
0.874308
0.875259
0.876385
0.877705
0.879235
0.880987
0.88297
0.885189
0.887644
0.890328
0.893232
0.896344
0.899646
0.903116
0.906727
0.910447
0.91424
0.918066
0.921882
0.925645
0.92931
0.932834
0.936175
0.939293
0.942151
0.944715
0.946955
0.948844
0.950357
0.951477
0.952186
0.952472
0.952329
0.951751
0.950737
0.949292
0.947423
0.945141
0.942461
0.939403
0.935991
0.932252
0.928219
0.923928
0.919419
0.914738
0.909932
0.905054
0.900159
0.895303
0.890544
0.885938
0.881539
0.877398
0.873555
0.870045
0.866892
0.864111
0.861711
0.859695
0.858062
0.856806
0.85591
0.855349
0.855092
0.8551
0.855335
0.855754
0.856318
0.856993
0.857744
0.858544
0.859371
0.860204
0.86103
0.861838
0.86262
0.863371
0.864089
0.864774
0.865426
0.866049
0.866648
0.867226
0.867791
0.868347
0.8689
0.869454
0.870009
0.870567
0.871125
0.87168
0.872228
0.872761
0.873275
0.873762
0.874216
0.874629
0.874997
0.875314
0.875574
0.875774
0.875909
0.875977
0.903197
0.903218
0.90326
0.903323
0.903407
0.903515
0.903647
0.903808
0.904002
0.904236
0.904518
0.90486
0.905272
0.905768
0.906363
0.907071
0.907909
0.908892
0.910035
0.911353
0.912858
0.91456
0.916466
0.918578
0.920894
0.92341
0.926118
0.929003
0.93205
0.935238
0.938542
0.941935
0.945384
0.948854
0.952308
0.955707
0.959014
0.962189
0.965196
0.967999
0.970566
0.972865
0.974869
0.976554
0.977899
0.978885
0.979498
0.979727
0.979565
0.979009
0.978057
0.976713
0.974985
0.972883
0.970422
0.96762
0.964498
0.961083
0.957405
0.953497
0.949395
0.945141
0.940777
0.936349
0.931907
0.927499
0.923174
0.918983
0.91497
0.911178
0.907643
0.904395
0.901456
0.898842
0.896562
0.894621
0.893016
0.891742
0.890785
0.890124
0.889735
0.889586
0.889647
0.889882
0.890261
0.890751
0.891326
0.89196
0.892633
0.893327
0.894027
0.894724
0.895408
0.896075
0.89672
0.897343
0.897943
0.898522
0.899082
0.899627
0.90016
0.900686
0.901207
0.901725
0.902242
0.902758
0.903271
0.903779
0.904276
0.904759
0.905221
0.905659
0.906065
0.906435
0.906763
0.907045
0.907276
0.907453
0.907572
0.907633
0.936185
0.936209
0.936257
0.936331
0.93643
0.936557
0.936714
0.936904
0.937132
0.937406
0.937731
0.938118
0.938577
0.939118
0.939754
0.940499
0.941364
0.942364
0.94351
0.944814
0.946285
0.947931
0.949756
0.951761
0.953945
0.956302
0.958825
0.9615
0.964312
0.967243
0.970269
0.973367
0.976506
0.979657
0.982787
0.985862
0.988848
0.991712
0.99442
0.996942
0.999247
1.00131
1.0031
1.00461
1.0058
1.00667
1.00719
1.00737
1.0072
1.00666
1.00577
1.00452
1.00292
1.00099
0.998724
0.996155
0.993299
0.990178
0.986822
0.983259
0.979524
0.975653
0.971684
0.967659
0.96362
0.95961
0.955673
0.95185
0.948181
0.944702
0.941444
0.938436
0.935695
0.933239
0.931075
0.929209
0.92764
0.926361
0.925363
0.924629
0.924137
0.923864
0.923784
0.923868
0.924091
0.924426
0.924849
0.925338
0.925874
0.926442
0.927028
0.927622
0.928214
0.9288
0.929374
0.929935
0.930481
0.931013
0.931531
0.932039
0.932537
0.933028
0.933515
0.933998
0.934477
0.934953
0.935424
0.935887
0.936339
0.936775
0.937193
0.937586
0.937951
0.938282
0.938575
0.938826
0.939032
0.939189
0.939295
0.939349
0.969149
0.969176
0.969231
0.969314
0.969426
0.96957
0.969747
0.969962
0.970219
0.970524
0.970883
0.971305
0.971798
0.972372
0.973037
0.973805
0.974686
0.97569
0.976828
0.978108
0.979537
0.981122
0.982864
0.984765
0.986822
0.989029
0.991379
0.993859
0.996456
0.999151
1.00193
1.00476
1.00762
1.01048
1.01332
1.01611
1.01881
1.02139
1.02383
1.0261
1.02817
1.03002
1.03163
1.03297
1.03402
1.03479
1.03524
1.03537
1.03519
1.03467
1.03383
1.03267
1.0312
1.02941
1.02733
1.02498
1.02236
1.01951
1.01644
1.01319
1.00979
1.00626
1.00265
0.998983
0.995304
0.991649
0.988057
0.984562
0.981201
0.978003
0.974997
0.972207
0.969651
0.967342
0.965291
0.963501
0.961972
0.960701
0.959678
0.95889
0.95832
0.957949
0.957755
0.957716
0.957809
0.958012
0.958305
0.958668
0.959084
0.95954
0.960022
0.96052
0.961027
0.961536
0.962041
0.962541
0.963033
0.963517
0.963992
0.96446
0.964921
0.965376
0.965827
0.966273
0.966716
0.967153
0.967584
0.968006
0.968416
0.968812
0.969188
0.969542
0.96987
0.970166
0.970429
0.970653
0.970836
0.970976
0.971071
0.971119
1.00209
1.00212
1.00218
1.00227
1.00239
1.00255
1.00274
1.00298
1.00326
1.00359
1.00397
1.00442
1.00494
1.00553
1.00622
1.007
1.00788
1.00888
1.01
1.01125
1.01263
1.01415
1.01581
1.01761
1.01955
1.02161
1.0238
1.0261
1.0285
1.03098
1.03353
1.03612
1.03873
1.04133
1.04391
1.04643
1.04888
1.05121
1.05341
1.05546
1.05732
1.05898
1.06041
1.06161
1.06255
1.06321
1.0636
1.0637
1.0635
1.06301
1.06222
1.06114
1.05978
1.05813
1.05622
1.05406
1.05166
1.04905
1.04625
1.04328
1.04018
1.03696
1.03366
1.03032
1.02696
1.02363
1.02034
1.01714
1.01406
1.01111
1.00834
1.00574
1.00336
1.00119
0.999245
0.997531
0.996048
0.994793
0.993758
0.992933
0.992305
0.991857
0.991572
0.991432
0.991417
0.991509
0.99169
0.991944
0.992255
0.992611
0.992999
0.993411
0.993838
0.994274
0.994715
0.995155
0.995594
0.99603
0.996461
0.996888
0.99731
0.997728
0.998143
0.998553
0.998959
0.99936
0.999753
1.00014
1.00051
1.00087
1.00121
1.00153
1.00182
1.00209
1.00232
1.00252
1.00268
1.00281
1.00289
1.00294
1.03499
1.03502
1.03509
1.03519
1.03532
1.03549
1.0357
1.03595
1.03625
1.03659
1.037
1.03746
1.038
1.03861
1.0393
1.04009
1.04097
1.04195
1.04305
1.04426
1.04559
1.04705
1.04863
1.05033
1.05214
1.05408
1.05611
1.05825
1.06046
1.06275
1.06508
1.06745
1.06984
1.07221
1.07455
1.07684
1.07906
1.08117
1.08316
1.085
1.08667
1.08816
1.08944
1.09051
1.09134
1.09192
1.09225
1.09232
1.09211
1.09164
1.0909