/*--------------------------------*- C++ -*----------------------------------*\
| =========                 |                                                 |
| \\      /  F ield         | OpenFOAM: The Open Source CFD Toolbox           |
|  \\    /   O peration     | Version:  2406                                  |
|   \\  /    A nd           | Website:  www.openfoam.com                      |
|    \\/     M anipulation  |                                                 |
\*---------------------------------------------------------------------------*/
FoamFile
{
    version     2.0;
    format      ascii;
    arch        "LSB;label=32;scalar=64";
    class       volScalarField;
    location    "9.55";
    object      C_0_0;
}
// * * * * * * * * * * * * * * * * * * * * * * * * * * * * * * * * * * * * * //

dimensions      [1 -3 0 0 0 0 0];

internalField   nonuniform List<scalar> 
14400
(
0.213294
0.212548
0.211225
0.209592
0.207927
0.206476
0.205422
0.204882
0.204897
0.205436
0.206393
0.207581
0.208736
0.209528
0.209598
0.208644
0.206556
0.203533
0.199944
0.196201
0.192676
0.189685
0.187492
0.186323
0.186387
0.187901
0.191102
0.196253
0.20365
0.213602
0.226429
0.242448
0.261978
0.28534
0.312838
0.344711
0.380988
0.420938
0.460304
0.488796
0.508203
0.524757
0.538744
0.550351
0.559723
0.566969
0.572171
0.575389
0.576659
0.576001
0.573419
0.568898
0.562405
0.553889
0.543277
0.530471
0.515342
0.497722
0.477255
0.446964
0.405963
0.365992
0.329953
0.298375
0.271195
0.248163
0.228969
0.213279
0.200747
0.191011
0.183703
0.178478
0.175045
0.173178
0.172716
0.173552
0.175623
0.178896
0.183371
0.189063
0.195994
0.204178
0.213586
0.224099
0.235422
0.246917
0.257056
0.262743
0.261848
0.256477
0.249189
0.241548
0.234231
0.227602
0.221853
0.21707
0.213259
0.210366
0.208294
0.206913
0.206076
0.205632
0.205451
0.205449
0.205607
0.205982
0.206697
0.207917
0.209832
0.212635
0.216508
0.221605
0.228047
0.235898
0.245152
0.255692
0.267245
0.279264
0.290595
0.297827
0.218165
0.217236
0.215622
0.213669
0.211716
0.21004
0.208842
0.208243
0.208289
0.208948
0.210112
0.211587
0.213089
0.214242
0.214598
0.21372
0.211397
0.207952
0.203893
0.199712
0.195819
0.192542
0.190144
0.188847
0.188858
0.190389
0.193672
0.198966
0.206558
0.216752
0.229861
0.246199
0.266089
0.289851
0.317792
0.35016
0.387006
0.42753
0.465397
0.49198
0.51102
0.527326
0.541123
0.552586
0.561848
0.569013
0.574157
0.577336
0.578586
0.577926
0.575359
0.57087
0.564428
0.555985
0.545471
0.532793
0.517832
0.500431
0.480367
0.451812
0.412065
0.371532
0.334894
0.30279
0.275141
0.251684
0.2321
0.216053
0.203198
0.193178
0.185634
0.180227
0.176663
0.174717
0.174224
0.175074
0.177206
0.180589
0.185226
0.191138
0.198356
0.206902
0.216756
0.227809
0.239785
0.252044
0.262717
0.268271
0.267985
0.262409
0.254622
0.246505
0.238774
0.231798
0.225775
0.220791
0.216851
0.213897
0.211826
0.210495
0.209738
0.209381
0.209267
0.20929
0.209424
0.209736
0.210372
0.211526
0.21341
0.216235
0.220194
0.225449
0.232121
0.24028
0.249921
0.260935
0.273051
0.285685
0.297418
0.304132
0.22842
0.227057
0.224789
0.222148
0.219589
0.217446
0.215949
0.215228
0.215334
0.216235
0.217819
0.219882
0.22211
0.22405
0.225081
0.224438
0.221529
0.217122
0.212048
0.206952
0.202305
0.198447
0.195635
0.194082
0.193985
0.195545
0.198986
0.204555
0.212525
0.223187
0.236846
0.253813
0.274411
0.29896
0.327761
0.361039
0.398774
0.439859
0.474637
0.498155
0.516569
0.532402
0.545837
0.557022
0.566072
0.573077
0.578107
0.581212
0.582423
0.581758
0.579219
0.574794
0.568452
0.560151
0.549828
0.5374
0.522762
0.505782
0.486295
0.460772
0.423801
0.382416
0.34475
0.311669
0.283113
0.258821
0.238471
0.221723
0.208232
0.197653
0.189638
0.183859
0.18003
0.17792
0.17736
0.178239
0.180493
0.1841
0.189067
0.195428
0.203227
0.212497
0.223231
0.23533
0.248526
0.262126
0.273487
0.278747
0.279282
0.274077
0.265566
0.256582
0.248056
0.24041
0.233857
0.228487
0.224303
0.221244
0.219192
0.217981
0.217409
0.217251
0.217291
0.217371
0.217446
0.217611
0.218065
0.219061
0.220862
0.223712
0.227824
0.233373
0.240486
0.249235
0.259618
0.271532
0.284707
0.298487
0.31047
0.315697
0.245069
0.242846
0.239403
0.235608
0.232072
0.229197
0.227233
0.226322
0.226513
0.227775
0.229995
0.232964
0.236346
0.239616
0.241941
0.241965
0.237772
0.231612
0.224852
0.218314
0.212508
0.207767
0.204327
0.202384
0.202114
0.203705
0.207362
0.213316
0.221822
0.233157
0.247614
0.265503
0.287143
0.312851
0.342906
0.377454
0.416172
0.456691
0.486584
0.507132
0.524699
0.539875
0.552802
0.563592
0.572339
0.579117
0.583984
0.586981
0.588136
0.587465
0.584967
0.580633
0.574437
0.56634
0.55629
0.544217
0.530035
0.513638
0.494893
0.47256
0.439878
0.398376
0.359564
0.325144
0.29528
0.269767
0.248292
0.230518
0.2161
0.204701
0.19599
0.189655
0.185419
0.183053
0.182386
0.183306
0.18575
0.189699
0.195175
0.202222
0.210898
0.221249
0.233277
0.246879
0.261734
0.276902
0.288439
0.293387
0.294643
0.291305
0.282226
0.272068
0.26242
0.253821
0.246515
0.240602
0.23609
0.232911
0.230934
0.22996
0.229731
0.229942
0.230271
0.230459
0.230416
0.230296
0.230404
0.231097
0.232712
0.235546
0.239842
0.245789
0.253518
0.263098
0.274523
0.287671
0.302192
0.317078
0.327892
0.331537
0.269577
0.265642
0.260249
0.254717
0.249785
0.24589
0.243286
0.242111
0.242409
0.244148
0.247215
0.251406
0.256387
0.261617
0.26613
0.267821
0.260962
0.251976
0.242779
0.234261
0.226897
0.220976
0.216696
0.214221
0.213702
0.215305
0.219214
0.225638
0.234813
0.247
0.262484
0.281568
0.304567
0.331787
0.363473
0.39968
0.439659
0.475853
0.49993
0.51868
0.535218
0.549599
0.561903
0.572206
0.580576
0.587069
0.591729
0.594591
0.595676
0.594996
0.592552
0.588334
0.582321
0.574482
0.564774
0.553143
0.539524
0.523842
0.506016
0.485965
0.45886
0.419698
0.379582
0.343451
0.311895
0.284794
0.26186
0.242756
0.227143
0.214691
0.205081
0.198019
0.193243
0.190532
0.189719
0.190694
0.193397
0.197817
0.203984
0.211953
0.221793
0.23356
0.247261
0.262777
0.27967
0.296314
0.306668
0.311454
0.313319
0.31222
0.3045
0.293216
0.282255
0.27249
0.264249
0.257671
0.252777
0.249506
0.247713
0.247163
0.247527
0.248385
0.249236
0.249619
0.24934
0.248693
0.248182
0.24833
0.249584
0.252305
0.256771
0.263179
0.271661
0.282272
0.294986
0.309622
0.325601
0.340646
0.348133
0.350795
0.303312
0.296185
0.287881
0.279995
0.273255
0.268063
0.264654
0.263146
0.263573
0.265895
0.27
0.275681
0.282613
0.290223
0.297113
0.297752
0.290625
0.278294
0.266118
0.255191
0.245931
0.238564
0.233242
0.230092
0.229238
0.230819
0.234995
0.241955
0.251915
0.26512
0.281841
0.302373
0.327023
0.356066
0.389644
0.427397
0.466864
0.495298
0.51502
0.532442
0.547892
0.5614
0.573005
0.582753
0.59069
0.596853
0.601274
0.603978
0.604981
0.604293
0.601912
0.59783
0.592032
0.584493
0.575181
0.564057
0.551076
0.536189
0.519352
0.50053
0.478518
0.445883
0.404863
0.366824
0.333263
0.304246
0.279537
0.258821
0.241767
0.228052
0.217369
0.209438
0.204012
0.200885
0.1999
0.200952
0.203988
0.209003
0.216034
0.225145
0.236409
0.249886
0.265576
0.283324
0.302467
0.319123
0.327535
0.332407
0.334852
0.334997
0.331148
0.3201
0.307931
0.296876
0.287558
0.280218
0.274916
0.271614
0.27017
0.270315
0.271643
0.273592
0.275381
0.276141
0.275378
0.273777
0.272209
0.271452
0.272085
0.27454
0.279119
0.286024
0.295365
0.307165
0.321337
0.337573
0.354669
0.366161
0.37058
0.372711
0.339365
0.333259
0.322145
0.311638
0.30282
0.296118
0.291771
0.289877
0.290455
0.293455
0.298749
0.306083
0.315048
0.324616
0.329659
0.328029
0.323222
0.309907
0.294906
0.281394
0.270008
0.26098
0.254439
0.25048
0.249204
0.250723
0.255178
0.262734
0.273589
0.287969
0.306127
0.328342
0.354899
0.386027
0.42171
0.460749
0.493042
0.514302
0.532098
0.548175
0.562511
0.575102
0.585963
0.595113
0.602577
0.608378
0.612535
0.615065
0.615979
0.615281
0.612971
0.609043
0.603484
0.596278
0.587401
0.576828
0.564532
0.550487
0.534673
0.517087
0.49775
0.472634
0.435117
0.395482
0.359739
0.328521
0.301745
0.279149
0.260422
0.24525
0.233339
0.224421
0.218263
0.214672
0.213504
0.214665
0.218109
0.223837
0.23189
0.242335
0.255248
0.270679
0.288587
0.30865
0.329455
0.34364
0.350861
0.355789
0.358684
0.35967
0.358893
0.352447
0.339725
0.327382
0.316877
0.308705
0.302978
0.299727
0.29884
0.300027
0.30281
0.306522
0.309973
0.311534
0.309725
0.306461
0.303194
0.301054
0.300737
0.30273
0.307343
0.31476
0.325045
0.338121
0.353739
0.371096
0.385448
0.391813
0.395083
0.396759
0.372741
0.370673
0.361834
0.349481
0.33864
0.330325
0.324968
0.322662
0.323417
0.327165
0.333746
0.342695
0.35313
0.361124
0.361734
0.359644
0.356212
0.346173
0.329166
0.313131
0.299499
0.288653
0.280743
0.275858
0.27408
0.275506
0.280254
0.288473
0.300338
0.316051
0.335835
0.359932
0.388566
0.421802
0.458932
0.493926
0.517015
0.534657
0.550896
0.565651
0.578872
0.590535
0.600631
0.609159
0.616128
0.621546
0.625424
0.627769
0.628587
0.627881
0.625649
0.621886
0.616584
0.609732
0.601316
0.591323
0.579738
0.566553
0.551767
0.535393
0.517461
0.497702
0.469199
0.429516
0.391694
0.358063
0.32895
0.304217
0.28359
0.266774
0.253487
0.243472
0.236511
0.232423
0.231075
0.232384
0.23631
0.24286
0.252079
0.264033
0.278792
0.296383
0.316688
0.339032
0.359165
0.369602
0.376288
0.381203
0.384424
0.386075
0.386327
0.38479
0.377075
0.36415
0.352485
0.343491
0.337316
0.334193
0.334087
0.3367
0.341438
0.347751
0.353756
0.35697
0.353048
0.347312
0.34157
0.33754
0.335916
0.337247
0.34181
0.349746
0.361031
0.375324
0.391795
0.407251
0.415036
0.418646
0.421179
0.422483
0.405703
0.405368
0.402237
0.39269
0.380656
0.370788
0.364465
0.361753
0.36271
0.367219
0.3751
0.38508
0.394033
0.396217
0.394723
0.392514
0.389414
0.383913
0.368742
0.350649
0.33478
0.322017
0.312623
0.30671
0.304365
0.305674
0.310744
0.319703
0.332705
0.349915
0.371503
0.397623
0.428368
0.463307
0.499198
0.52339
0.540457
0.556412
0.571178
0.584659
0.596793
0.607537
0.616866
0.624765
0.631229
0.636255
0.639845
0.642
0.642721
0.642007
0.639857
0.636268
0.631234
0.62475
0.61681
0.607409
0.596544
0.584221
0.57045
0.555255
0.538674
0.520755
0.50002
0.468685
0.429451
0.393299
0.361637
0.334536
0.311793
0.293143
0.278327
0.267104
0.259268
0.25465
0.253126
0.254622
0.259105
0.266585
0.277105
0.290728
0.307501
0.327389
0.350041
0.373751
0.389154
0.39718
0.403487
0.408312
0.411735
0.413877
0.414903
0.41504
0.413263
0.406146
0.394179
0.384729
0.378058
0.375117
0.375978
0.380353
0.387082
0.396165
0.401643
0.403252
0.401515
0.395471
0.387066
0.380956
0.377756
0.378293
0.382724
0.391142
0.40341
0.418315
0.432475
0.440376
0.44379
0.446555
0.448504
0.44951
0.439
0.438876
0.438707
0.435678
0.427862
0.417126
0.410229
0.407153
0.408328
0.413367
0.422093
0.429253
0.431571
0.430132
0.428426
0.426274
0.423553
0.420228
0.411971
0.393936
0.376196
0.361513
0.350568
0.343546
0.340581
0.341766
0.347195
0.356981
0.371255
0.39013
0.413663
0.441812
0.474373
0.509291
0.533381
0.549658
0.564957
0.579359
0.592743
0.605015
0.616103
0.625953
0.63453
0.641807
0.647767
0.652401
0.655702
0.657665
0.658288
0.657569
0.655505
0.652094
0.647334
0.641224
0.633764
0.624957
0.61481
0.603336
0.590557
0.576505
0.561225
0.544775
0.527228
0.505307
0.472098
0.434383
0.400232
0.370632
0.345584
0.324914
0.30841
0.295856
0.287064
0.281876
0.280177
0.281898
0.287013
0.29553
0.307485
0.322921
0.341835
0.364054
0.388649
0.409111
0.419145
0.426291
0.432167
0.436822
0.440328
0.442794
0.44437
0.445255
0.44571
0.444756
0.439868
0.431798
0.424704
0.422064
0.42384
0.429967
0.436575
0.440599
0.442034
0.442051
0.442687
0.4413
0.43725
0.430422
0.42583
0.425697
0.429882
0.438413
0.451033
0.461388
0.467805
0.470622
0.473177
0.475281
0.476772
0.477544
0.472421
0.472425
0.472501
0.472794
0.471248
0.466845
0.461096
0.457732
0.45912
0.463413
0.466787
0.467645
0.46592
0.464299
0.462577
0.460603
0.45829
0.45561
0.452433
0.442453
0.423972
0.407514
0.395054
0.386869
0.383259
0.384328
0.390163
0.400857
0.416529
0.437202
0.462687
0.49228
0.524562
0.547146
0.562312
0.57664
0.590356
0.603322
0.61542
0.626555
0.63665
0.645644
0.653493
0.660164
0.665632
0.66988
0.672896
0.67467
0.675198
0.674475
0.672499
0.669269
0.664784
0.659048
0.652065
0.643846
0.634402
0.623756
0.611936
0.598982
0.584946
0.569892
0.553903
0.537077
0.514576
0.480755
0.445009
0.413012
0.385544
0.362677
0.344322
0.330308
0.320469
0.314664
0.312784
0.314766
0.320586
0.330246
0.343757
0.361122
0.38219
0.406288
0.430065
0.442876
0.450269
0.456673
0.462069
0.46648
0.469961
0.472602
0.474527
0.475901
0.476932
0.47787
0.478494
0.476626
0.474153
0.47285
0.473905
0.475974
0.477507
0.476975
0.476551
0.476724
0.477511
0.47896
0.479961
0.47897
0.47769
0.477846
0.481482
0.487534
0.493346
0.497048
0.49902
0.501091
0.503017
0.504617
0.505758
0.506351
0.505839
0.505903
0.506076
0.506449
0.507155
0.50763
0.506258
0.504961
0.504853
0.505122
0.503821
0.50183
0.50014
0.498569
0.496979
0.495271
0.493394
0.491346
0.48917
0.486247
0.47678
0.459863
0.446395
0.437064
0.432854
0.433847
0.440133
0.451758
0.468855
0.491269
0.517971
0.545117
0.564901
0.578406
0.591482
0.604236
0.616504
0.628152
0.639061
0.649136
0.658297
0.66648
0.673636
0.679725
0.684717
0.688591
0.69133
0.692923
0.693359
0.692635
0.690748
0.687697
0.683486
0.678118
0.671604
0.663957
0.655197
0.64535
0.63445
0.622542
0.609684
0.595945
0.58141
0.56618
0.550355
0.528247
0.495533
0.462029
0.432222
0.407026
0.386682
0.371073
0.360094
0.353618
0.351544
0.353813
0.360405
0.371308
0.386468
0.40583
0.428919
0.453632
0.46855
0.475912
0.482373
0.488062
0.492958
0.497069
0.500435
0.503124
0.505234
0.506891
0.508247
0.509473
0.510742
0.51224
0.513261
0.513398
0.513291
0.512308
0.511203
0.510607
0.510457
0.510784
0.511614
0.512979
0.514911
0.517527
0.519563
0.521261
0.523658
0.526082
0.527252
0.528568
0.530111
0.531704
0.533183
0.534414
0.535293
0.53575
0.539192
0.53927
0.53945
0.53977
0.540266
0.540914
0.541627
0.541738
0.540737
0.539014
0.537301
0.535702
0.53424
0.53286
0.531498
0.530107
0.52867
0.52721
0.525792
0.524539
0.522766
0.515879
0.504035
0.493982
0.489499
0.49051
0.497288
0.509636
0.52763
0.550565
0.570612
0.586308
0.597808
0.609412
0.620976
0.632315
0.643274
0.653719
0.663537
0.672631
0.680922
0.688344
0.694845
0.700381
0.704921
0.708438
0.710912
0.71233
0.712681
0.711958
0.71016
0.707287
0.703343
0.698335
0.692276
0.685183
0.677079
0.667995
0.65797
0.647053
0.635304
0.622794
0.609612
0.595858
0.581649
0.567092
0.546567
0.517049
0.485902
0.45842
0.43607
0.418756
0.406561
0.399366
0.397076
0.399641
0.407046
0.419267
0.436017
0.457191
0.481014
0.496244
0.503578
0.509677
0.51525
0.520244
0.52463
0.528403
0.531585
0.534226
0.536394
0.538181
0.539692
0.541034
0.542294
0.5435
0.544486
0.54503
0.544892
0.544456
0.544009
0.543793
0.543887
0.54434
0.545181
0.546432
0.548094
0.550144
0.552404
0.554609
0.556229
0.557454
0.558628
0.559859
0.561152
0.562431
0.563598
0.564562
0.565249
0.565606
0.572468
0.572537
0.572683
0.572916
0.573226
0.573564
0.573804
0.573673
0.572991
0.571896
0.570667
0.569437
0.568258
0.567133
0.566046
0.564988
0.56397
0.563031
0.562248
0.561743
0.5617
0.562024
0.559149
0.555047
0.551761
0.55298
0.560255
0.572366
0.586577
0.599909
0.610716
0.620246
0.630242
0.640458
0.650693
0.660775
0.670558
0.679915
0.688736
0.696929
0.704415
0.711129
0.717017
0.722035
0.726147
0.729327
0.731551
0.732804
0.733075
0.732357
0.730648
0.727948
0.724263
0.719603
0.713982
0.707419
0.699941
0.691582
0.682383
0.672396
0.661682
0.650317
0.638386
0.625992
0.613253
0.600305
0.587294
0.569672
0.545371
0.516722
0.492877
0.473817
0.460418
0.452484
0.449946
0.452774
0.460938
0.474489
0.492153
0.513518
0.526975
0.533591
0.538893
0.543968
0.548705
0.553035
0.556915
0.560327
0.563278
0.565799
0.567935
0.569748
0.571306
0.572675
0.573899
0.574979
0.575844
0.576404
0.576612
0.576615
0.576585
0.57667
0.576959
0.577506
0.57834
0.579473
0.580891
0.582544
0.584314
0.586033
0.587513
0.588778
0.589949
0.591089
0.592207
0.593269
0.594216
0.594989
0.595535
0.595818
0.605674
0.605726
0.605831
0.605982
0.606159
0.60631
0.60635
0.606156
0.605659
0.604911
0.604035
0.603121
0.602223
0.601367
0.600565
0.59983
0.599192
0.598697
0.598424
0.598485
0.599034
0.600274
0.602497
0.604273
0.6057
0.608986
0.614943
0.622694
0.630572
0.637512
0.645261
0.653647
0.662455
0.671484
0.680562
0.689535
0.698268
0.706645
0.714563
0.721933
0.72868
0.73474
0.74006
0.744594
0.748307
0.75117
0.75316
0.75426
0.754458
0.753748
0.752126
0.749594
0.74616
0.741832
0.736628
0.73057
0.723685
0.716009
0.707584
0.698465
0.688714
0.678404
0.667623
0.656471
0.645067
0.633546
0.622071
0.610839
0.597275
0.579055
0.556459
0.536052
0.52186
0.513246
0.510412
0.513379
0.521844
0.536329
0.551326
0.561325
0.566087
0.570212
0.574436
0.578595
0.582569
0.586277
0.589667
0.592711
0.595403
0.597756
0.599799
0.601569
0.60311
0.604461
0.605648
0.606673
0.607509
0.608129
0.608537
0.608808
0.609044
0.609342
0.609773
0.610384
0.611201
0.612229
0.613452
0.614827
0.616274
0.617698
0.61901
0.620199
0.6213
0.622339
0.62332
0.624221
0.625008
0.625641
0.626085
0.626314
0.638828
0.638864
0.638933
0.639024
0.639115
0.639169
0.639131
0.638943
0.638576
0.638055
0.63744
0.636788
0.636147
0.635548
0.635015
0.634577
0.634268
0.634141
0.634267
0.63474
0.635677
0.637218
0.639498
0.642564
0.646483
0.650798
0.655337
0.660261
0.665886
0.67221
0.679166
0.686629
0.694445
0.702463
0.710537
0.718534
0.726335
0.733834
0.740937
0.74756
0.753632
0.759092
0.763888
0.767975
0.771318
0.773887
0.775659
0.776618
0.77675
0.77605
0.774514
0.772144
0.768948
0.764938
0.76013
0.754548
0.74822
0.741183
0.733481
0.725167
0.716303
0.706962
0.697229
0.687203
0.676996
0.666741
0.656592
0.646732
0.637381
0.628002
0.615771
0.60221
0.5893
0.580286
0.5771
0.579901
0.586493
0.593354
0.598691
0.600923
0.603623
0.606732
0.610045
0.613406
0.616698
0.619837
0.622765
0.625446
0.627866
0.630025
0.631936
0.63362
0.635104
0.636412
0.63756
0.638554
0.63939
0.640065
0.640598
0.641035
0.641442
0.641882
0.642408
0.643057
0.643849
0.644789
0.645862
0.647036
0.648259
0.649474
0.650629
0.651708
0.652712
0.653648
0.654511
0.655288
0.655953
0.656482
0.65685
0.657039
0.671945
0.671969
0.672012
0.672065
0.672109
0.672119
0.672062
0.671909
0.671648
0.671293
0.67088
0.670446
0.670029
0.669661
0.669372
0.669193
0.669164
0.669333
0.669763
0.670529
0.671718
0.673421
0.675713
0.678626
0.682142
0.686107
0.690443
0.695197
0.70047
0.706274
0.712565
0.719256
0.726235
0.733386
0.740587
0.747729
0.754704
0.76142
0.76779
0.773738
0.779197
0.784109
0.788424
0.7921
0.795102
0.7974
0.798972
0.799801
0.799875
0.799187
0.797734
0.79552
0.792551
0.788841
0.784406
0.77927
0.773464
0.767022
0.75999
0.752419
0.744369
0.735912
0.72713
0.718115
0.708974
0.69983
0.690823
0.682114
0.673883
0.666333
0.659742
0.653081
0.645826
0.63988
0.636603
0.636143
0.637154
0.63739
0.637671
0.638888
0.640751
0.643048
0.645606
0.648286
0.650981
0.653608
0.656109
0.658444
0.660591
0.662542
0.664298
0.665871
0.667274
0.668522
0.669626
0.670594
0.671431
0.672145
0.672754
0.673294
0.673806
0.674336
0.67492
0.675586
0.67635
0.677216
0.678172
0.679196
0.680254
0.681308
0.682327
0.683291
0.684194
0.685029
0.68579
0.686465
0.687035
0.687484
0.687794
0.687952
0.705038
0.705054
0.705082
0.705115
0.705138
0.705135
0.705088
0.704982
0.704813
0.704591
0.70434
0.704087
0.703862
0.703696
0.703618
0.70366
0.703861
0.704264
0.704922
0.705895
0.707245
0.709034
0.711308
0.714085
0.71735
0.721044
0.72513
0.729615
0.734523
0.739852
0.745564
0.751593
0.757855
0.764256
0.770699
0.777088
0.783334
0.789352
0.795065
0.800405
0.805309
0.809723
0.8136
0.8169
0.819589
0.821639
0.823028
0.82374
0.823762
0.823089
0.821717
0.81965
0.816897
0.813468
0.809383
0.804664
0.799342
0.793452
0.787037
0.780148
0.772843
0.765189
0.757263
0.749152
0.740955
0.732783
0.724757
0.717016
0.709704
0.702974
0.696971
0.691742
0.68746
0.683899
0.680871
0.678333
0.676484
0.675611
0.675544
0.676207
0.677444
0.679103
0.681045
0.683153
0.685331
0.687506
0.689619
0.69163
0.693512
0.695252
0.696845
0.698291
0.699599
0.700775
0.701828
0.702766
0.703596
0.704328
0.704981
0.70558
0.706154
0.706734
0.707349
0.708017
0.708751
0.709552
0.710415
0.711322
0.712251
0.713177
0.714078
0.714937
0.715742
0.716485
0.717156
0.717746
0.71824
0.718625
0.718889
0.719024
0.738115
0.738127
0.738149
0.738173
0.738192
0.738196
0.738173
0.738118
0.73803
0.737919
0.737801
0.737699
0.737637
0.737643
0.737743
0.737969
0.738355
0.73894
0.739767
0.740883
0.742334
0.744162
0.746399
0.749057
0.752129
0.75559
0.759419
0.763608
0.768157
0.773047
0.778245
0.783698
0.789337
0.795085
0.800864
0.806592
0.812191
0.817588
0.822714
0.827507
0.83191
0.835873
0.839352
0.84231
0.844715
0.846539
0.847762
0.848368
0.848345
0.847688
0.846395
0.844468
0.841916
0.838752
0.834993
0.830662
0.825788
0.820407
0.81456
0.808294
0.801665
0.794737
0.78758
0.780276
0.772912
0.765588
0.758408
0.751488
0.744943
0.73889
0.733425
0.728612
0.724501
0.721027
0.718116
0.715761
0.714035
0.713025
0.712686
0.712951
0.713717
0.714875
0.716317
0.717948
0.719686
0.721464
0.72323
0.724943
0.726576
0.72811
0.729537
0.730851
0.732055
0.733152
0.734146
0.735046
0.735857
0.736591
0.737262
0.737889
0.738495
0.7391
0.739724
0.740382
0.741083
0.741828
0.742613
0.743426
0.744251
0.745072
0.745872
0.746635
0.747352
0.748011
0.748605
0.749122
0.749553
0.749886
0.750114
0.75023
0.77118
0.771191
0.771212
0.771237
0.771263
0.771282
0.771291
0.771286
0.771271
0.771253
0.771247
0.771271
0.771345
0.771494
0.771742
0.772118
0.772651
0.773374
0.774324
0.775535
0.777045
0.778882
0.781069
0.783615
0.786519
0.789767
0.793346
0.797244
0.801447
0.805935
0.810673
0.815616
0.820708
0.825884
0.831079
0.836224
0.841251
0.846095
0.850696
0.854999
0.858951
0.862507
0.865627
0.868274
0.87042
0.87204
0.873113
0.873624
0.873563
0.872924
0.871706
0.869911
0.867549
0.86463
0.861174
0.857202
0.852743
0.847829
0.8425
0.836802
0.830787
0.824513
0.818046
0.811459
0.80483
0.798247
0.7918
0.785583
0.779692
0.774215
0.769228
0.764781
0.760906
0.757588
0.754806
0.752559
0.750872
0.749769
0.749226
0.749193
0.749599
0.750362
0.7514
0.752636
0.754001
0.755436
0.756894
0.758338
0.759739
0.761077
0.76234
0.763522
0.764618
0.76563
0.76656
0.767413
0.768196
0.768916
0.769587
0.770222
0.770836
0.771446
0.772065
0.772705
0.77337
0.774064
0.774782
0.775517
0.776257
0.776989
0.777701
0.778381
0.779019
0.779604
0.780129
0.780585
0.780962
0.781254
0.781452
0.781553
0.804234
0.804246
0.804269
0.804301
0.804339
0.80438
0.804422
0.804466
0.804514
0.804576
0.804664
0.804792
0.804979
0.805246
0.805614
0.806109
0.806755
0.807582
0.808618
0.809891
0.811428
0.813252
0.815379
0.817816
0.820564
0.823614
0.826955
0.830574
0.834454
0.838571
0.842895
0.847385
0.851993
0.856666
0.861345
0.865973
0.870492
0.874845
0.878978
0.882841
0.886388
0.889578
0.892373
0.89474
0.896653
0.898088
0.899026
0.899452
0.899359
0.898739
0.897593
0.895923
0.893737
0.891047
0.887871
0.88423
0.880151
0.875665
0.87081
0.865628
0.860167
0.854482
0.848632
0.842682
0.836703
0.83077
0.824961
0.819354
0.814027
0.809052
0.804488
0.80038
0.796753
0.793614
0.790961
0.788796
0.787126
0.785952
0.785255
0.784996
0.785124
0.785575
0.786286
0.787195
0.788244
0.789384
0.790573
0.791775
0.792964
0.794119
0.795226
0.796277
0.797265
0.79819
0.799051
0.799852
0.800596
0.801292
0.801948
0.802574
0.803182
0.803782
0.804386
0.805001
0.80563
0.806276
0.806935
0.807603
0.808269
0.808926
0.809563
0.81017
0.810738
0.811258
0.811724
0.812126
0.812458
0.812714
0.812887
0.812975
0.837275
0.83729
0.837318
0.83736
0.837413
0.837477
0.837552
0.837639
0.837744
0.837874
0.838039
0.838254
0.838534
0.838896
0.83936
0.839948
0.84068
0.841581
0.842674
0.843982
0.845525
0.84732
0.849379
0.851707
0.854306
0.857169
0.860285
0.863642
0.867222
0.871002
0.874952
0.879037
0.883215
0.887439
0.891662
0.895832
0.8999
0.903814
0.907529
0.910999
0.914183
0.917043
0.919546
0.921661
0.923364
0.924632
0.925449
0.925801
0.92568
0.925081
0.924003
0.92245
0.920428
0.91795
0.915033
0.911696
0.907965
0.90387
0.899446
0.894732
0.889772
0.884616
0.879318
0.873935
0.868531
0.86317
0.857919
0.852844
0.848011
0.843477
0.839293
0.835496
0.832112
0.829155
0.826629
0.824538
0.822883
0.821658
0.820845
0.820414
0.820324
0.820527
0.820974
0.821613
0.822397
0.823285
0.824238
0.825225
0.826222
0.827208
0.828169
0.829094
0.829976
0.830813
0.831602
0.832346
0.833046
0.833708
0.834338
0.834944
0.835534
0.836116
0.836697
0.837282
0.837874
0.838474
0.839081
0.839689
0.840292
0.840883
0.841454
0.841997
0.842504
0.842967
0.843381
0.843737
0.844031
0.844256
0.844409
0.844486
0.870302
0.870319
0.870355
0.870407
0.870476
0.870563
0.870668
0.870795
0.870948
0.871136
0.871366
0.871652
0.872006
0.872444
0.872983
0.873641
0.874436
0.875389
0.876516
0.877838
0.879369
0.881123
0.883108
0.885329
0.887784
0.89047
0.893375
0.896489
0.899791
0.903262
0.906874
0.910595
0.914389
0.918215
0.922032
0.925795
0.92946
0.932984
0.936325
0.939443
0.942302
0.944866
0.947106
0.948995
0.950508
0.951628
0.952337
0.952624
0.95248
0.951902
0.950889
0.949444
0.947575
0.945293
0.942614
0.939556
0.936144
0.932405
0.928373
0.924082
0.919573
0.914893
0.910088
0.90521
0.900315
0.895459
0.8907
0.886094
0.881696
0.877553
0.87371
0.8702
0.867045
0.864263
0.861862
0.859844
0.85821
0.856952
0.856053
0.85549
0.855231
0.855237
0.855469
0.855886
0.856448
0.85712
0.857869
0.858667
0.859491
0.860323
0.861147
0.861953
0.862733
0.863483
0.8642
0.864883
0.865534
0.866156
0.866753
0.867331
0.867895
0.86845
0.869003
0.869555
0.87011
0.870667
0.871225
0.871779
0.872326
0.87286
0.873373
0.87386
0.874313
0.874727
0.875095
0.875411
0.875671
0.875871
0.876005
0.876073
0.903311
0.903332
0.903374
0.903437
0.903522
0.90363
0.903763
0.903924
0.904119
0.904354
0.904638
0.90498
0.905394
0.905891
0.906487
0.907197
0.908036
0.90902
0.910165
0.911485
0.912992
0.914695
0.916602
0.918715
0.921033
0.92355
0.926259
0.929145
0.932193
0.935382
0.938687
0.942081
0.94553
0.949
0.952455
0.955854
0.959161
0.962337
0.965344
0.968147
0.970714
0.973013
0.975018
0.976703
0.978048
0.979034
0.979647
0.979876
0.979715
0.979158
0.978207
0.976863
0.975135
0.973034
0.970573
0.967771
0.964649
0.961235
0.957557
0.953649
0.949547
0.945293
0.940929
0.936502
0.93206
0.927652
0.923328
0.919136
0.915123
0.911331
0.907795
0.904546
0.901606
0.898991
0.89671
0.894767
0.893161
0.891885
0.890926
0.890263
0.889872
0.889721
0.889779
0.890013
0.890389
0.890877
0.89145
0.892082
0.892753
0.893445
0.894144
0.894838
0.895521
0.896186
0.89683
0.897452
0.898051
0.898628
0.899187
0.899731
0.900264
0.900788
0.901309
0.901827
0.902343
0.902859
0.903371
0.903878
0.904375
0.904857
0.905319
0.905756
0.906162
0.906532
0.90686
0.907142
0.907373
0.907549
0.907669
0.907729
0.936299
0.936323
0.936372
0.936445
0.936545
0.936672
0.93683
0.93702
0.93725
0.937524
0.93785
0.938238
0.938698
0.93924
0.939878
0.940624
0.94149
0.942492
0.943639
0.944944
0.946417
0.948064
0.94989
0.951896
0.954082
0.95644
0.958964
0.961639
0.964453
0.967384
0.970412
0.97351
0.97665
0.979802
0.982932
0.986007
0.988994
0.991858
0.994566
0.997088
0.999394
1.00146
1.00325
1.00475
1.00595
1.00681
1.00734
1.00752
1.00734
1.00681
1.00592
1.00467
1.00307
1.00113
0.998873
0.996304
0.993448
0.990328
0.986971
0.983409
0.979674
0.975803
0.971835
0.96781
0.963771
0.959761
0.955823
0.952
0.948331
0.944851
0.941594
0.938584
0.935843
0.933385
0.93122
0.929353
0.927782
0.926502
0.925502
0.924766
0.924272
0.923997
0.923915
0.923997
0.924218
0.924551
0.924972
0.925459
0.925993
0.92656
0.927144
0.927736
0.928327
0.928911
0.929484
0.930043
0.930588
0.931119
0.931637
0.932143
0.932641
0.933131
0.933617
0.934099
0.934578
0.935053
0.935523
0.935986
0.936437
0.936874
0.937291
0.937684
0.938048
0.938379
0.938672
0.938923
0.939128
0.939286
0.939392
0.939445
0.969262
0.96929
0.969344
0.969428
0.969541
0.969685
0.969862
0.970078
0.970336
0.970641
0.971002
0.971424
0.971918
0.972494
0.97316
0.973929
0.974811
0.975817
0.976955
0.978237
0.979668
0.981253
0.982997
0.984899
0.986957
0.989165
0.991516
0.993997
0.996594
0.999291
1.00207
1.0049
1.00776
1.01062
1.01346
1.01625
1.01895
1.02153
1.02398
1.02625
1.02832
1.03017
1.03177
1.03311
1.03417
1.03493
1.03538
1.03552
1.03533
1.03482
1.03398
1.03282
1.03134
1.02956
1.02748
1.02512
1.02251
1.01966
1.01659
1.01334
1.00994
1.00641
1.0028
0.999131
0.995452
0.991797
0.988204
0.98471
0.981348
0.97815
0.975144
0.972353
0.969795
0.967486
0.965433
0.963642
0.962112
0.960839
0.959815
0.959025
0.958453
0.95808
0.957885
0.957844
0.957935
0.958136
0.958426
0.958788
0.959202
0.959656
0.960137
0.960634
0.961139
0.961646
0.962151
0.96265
0.963141
0.963623
0.964097
0.964564
0.965024
0.965479
0.965929
0.966375
0.966816
0.967253
0.967683
0.968105
0.968515
0.96891
0.969286
0.96964
0.969967
0.970263
0.970525
0.970749
0.970933
0.971073
0.971167
0.971215
1.0022
1.00223
1.00229
1.00238
1.0025
1.00266
1.00286
1.00309
1.00337
1.0037
1.00409
1.00454
1.00506
1.00566
1.00634
1.00712
1.00801
1.00901
1.01013
1.01138
1.01276
1.01428
1.01595
1.01775
1.01968
1.02175
1.02394
1.02624
1.02864
1.03112
1.03366
1.03625
1.03886
1.04147
1.04405
1.04658
1.04902
1.05135
1.05356
1.0556
1.05746
1.05912
1.06056
1.06175
1.06269
1.06336
1.06374
1.06384
1.06365
1.06315
1.06237
1.06129
1.05992
1.05828
1.05637
1.0542
1.05181
1.0492
1.0464
1.04343
1.04032
1.03711
1.03381
1.03047
1.02711
1.02377
1.02049
1.01729
1.0142
1.01126
1.00848
1.00589
1.0035
1.00133
0.999385
0.99767
0.996185
0.994929
0.993892
0.993066
0.992436
0.991986
0.9917
0.991558
0.991542
0.991632
0.991811
0.992063
0.992373
0.992727
0.993114
0.993524
0.99395
0.994385
0.994824
0.995263
0.995701
0.996135
0.996566
0.996991
0.997413
0.997831
0.998245
0.998654
0.99906
0.999459
0.999852
1.00024
1.00061
1.00096
1.0013
1.00162
1.00192
1.00218
1.00242
1.00262
1.00278
1.00291
1.00299
1.00303
1.03511
1.03514
1.0352
1.0353
1.03543
1.0356
1.03581
1.03606
1.03636
1.03671
1.03712
1.03758
1.03812
1.03873
1.03942
1.04021
1.04109
1.04208
1.04318
1.04439
1.04572
1.04718
1.04876
1.05046
1.05228
1.05421
1.05625
1.05838
1.0606
1.06288
1.06522
1.06759
1.06997
1.07235
1.07469
1.07698
1.0792
1.08131
1.0833
1.08514
1.08681
1.0883
1.08958
1.09065
1.09148
1.09206
1.09239
1.09246
1.09226
1.09179
1.09105
1.09004
1.08878
1.08726
1.0855
1.08352
1.08132
1.07893