/*--------------------------------*- C++ -*----------------------------------*\
| =========                 |                                                 |
| \\      /  F ield         | OpenFOAM: The Open Source CFD Toolbox           |
|  \\    /   O peration     | Version:  2406                                  |
|   \\  /    A nd           | Website:  www.openfoam.com                      |
|    \\/     M anipulation  |                                                 |
\*---------------------------------------------------------------------------*/
FoamFile
{
    version     2.0;
    format      ascii;
    arch        "LSB;label=32;scalar=64";
    class       volScalarField;
    location    "9.55";
    object      D;
}
// * * * * * * * * * * * * * * * * * * * * * * * * * * * * * * * * * * * * * //

dimensions      [0 2 -1 0 0 0 0];

internalField   nonuniform List<scalar> 
14400
(
7.90815e-05
7.90943e-05
7.91363e-05
7.92154e-05
7.93211e-05
7.94305e-05
7.95187e-05
7.95678e-05
7.95725e-05
7.9543e-05
7.9503e-05
7.94846e-05
7.95177e-05
7.96136e-05
7.97457e-05
7.98476e-05
7.98649e-05
7.98399e-05
7.98048e-05
7.97379e-05
7.95768e-05
7.92418e-05
7.86551e-05
7.77547e-05
7.65082e-05
7.4928e-05
7.30859e-05
7.11166e-05
6.91907e-05
6.74569e-05
6.60001e-05
6.48444e-05
6.39843e-05
6.34142e-05
6.31556e-05
6.33009e-05
6.41546e-05
6.69976e-05
8.03581e-05
0.000137702
0.00013824
0.00013824
0.00013824
0.00013824
0.00013824
0.00013824
0.00013824
0.00013824
0.00013824
0.00013824
0.00013824
0.00013824
0.00013824
0.00013824
0.00013824
0.00013824
0.00013824
0.00013824
0.00013625
7.5759e-05
6.67433e-05
6.45784e-05
6.40034e-05
6.41111e-05
6.46789e-05
6.56624e-05
6.70848e-05
6.89888e-05
7.13779e-05
7.4143e-05
7.70355e-05
7.97546e-05
8.20735e-05
8.38742e-05
8.51135e-05
8.57887e-05
8.59202e-05
8.55441e-05
8.47136e-05
8.3507e-05
8.20406e-05
8.048e-05
7.90456e-05
7.80274e-05
7.78859e-05
7.98529e-05
9.04625e-05
0.000137041
9.82858e-05
7.90697e-05
7.51845e-05
7.40797e-05
7.39216e-05
7.42298e-05
7.47964e-05
7.54967e-05
7.62416e-05
7.69645e-05
7.76168e-05
7.81648e-05
7.85856e-05
7.88621e-05
7.89788e-05
7.89227e-05
7.86863e-05
7.82706e-05
7.76831e-05
7.69364e-05
7.60491e-05
7.50516e-05
7.39897e-05
7.29268e-05
7.19398e-05
7.11136e-05
7.05428e-05
7.03535e-05
7.07821e-05
7.24956e-05
7.88701e-05
0.000127473
7.80553e-05
7.79978e-05
7.79395e-05
7.79206e-05
7.79462e-05
7.79987e-05
7.80542e-05
7.80947e-05
7.81151e-05
7.81255e-05
7.81507e-05
7.82255e-05
7.83831e-05
7.86322e-05
7.89208e-05
7.91065e-05
7.90445e-05
7.88854e-05
7.8732e-05
7.85804e-05
7.83661e-05
7.80048e-05
7.74166e-05
7.65411e-05
7.53507e-05
7.38635e-05
7.21531e-05
7.03463e-05
6.85923e-05
6.70157e-05
6.56872e-05
6.46303e-05
6.38458e-05
6.33366e-05
6.31348e-05
6.3352e-05
6.43641e-05
6.80181e-05
9.05609e-05
0.000138182
0.00013824
0.00013824
0.00013824
0.00013824
0.00013824
0.00013824
0.00013824
0.00013824
0.00013824
0.00013824
0.00013824
0.00013824
0.00013824
0.00013824
0.00013824
0.00013824
0.00013824
0.00013824
0.000137922
8.30298e-05
6.76627e-05
6.47723e-05
6.40321e-05
6.40582e-05
6.45558e-05
6.54575e-05
6.67729e-05
6.85352e-05
7.07499e-05
7.33317e-05
7.60705e-05
7.86897e-05
8.09561e-05
8.27321e-05
8.39601e-05
8.46301e-05
8.47591e-05
8.43836e-05
8.35605e-05
8.23753e-05
8.09535e-05
7.94678e-05
7.81419e-05
7.72689e-05
7.73515e-05
8.00058e-05
9.59738e-05
0.000137979
0.000108939
7.96589e-05
7.48853e-05
7.35292e-05
7.32023e-05
7.33629e-05
7.37934e-05
7.43719e-05
7.50153e-05
7.56629e-05
7.62695e-05
7.68009e-05
7.72289e-05
7.7526e-05
7.76637e-05
7.76165e-05
7.7373e-05
7.69419e-05
7.63456e-05
7.56102e-05
7.47639e-05
7.38404e-05
7.28837e-05
7.195e-05
7.1106e-05
7.04273e-05
7.00053e-05
6.99778e-05
7.06322e-05
7.28422e-05
8.09381e-05
0.00013462
7.6354e-05
7.61308e-05
7.58579e-05
7.56448e-05
7.55185e-05
7.54646e-05
7.54583e-05
7.54808e-05
7.55268e-05
7.56067e-05
7.57476e-05
7.59913e-05
7.63851e-05
7.69523e-05
7.76126e-05
7.80331e-05
7.77138e-05
7.72148e-05
7.67966e-05
7.64653e-05
7.61409e-05
7.57283e-05
7.51445e-05
7.43315e-05
7.32673e-05
7.19736e-05
7.0519e-05
6.9008e-05
6.75528e-05
6.62437e-05
6.51345e-05
6.42497e-05
6.36007e-05
6.32054e-05
6.31147e-05
6.34742e-05
6.47746e-05
6.97398e-05
0.000110832
0.000138239
0.00013824
0.00013824
0.00013824
0.00013824
0.00013824
0.00013824
0.00013824
0.00013824
0.00013824
0.00013824
0.00013824
0.00013824
0.00013824
0.00013824
0.00013824
0.00013824
0.00013824
0.00013824
0.000138234
0.000101485
6.93979e-05
6.51372e-05
6.40996e-05
6.39719e-05
6.4337e-05
6.50883e-05
6.62112e-05
6.77206e-05
6.96205e-05
7.18553e-05
7.42756e-05
7.66577e-05
7.87782e-05
8.04758e-05
8.16647e-05
8.23171e-05
8.2443e-05
8.20798e-05
8.12927e-05
8.01809e-05
7.88838e-05
7.7582e-05
7.6496e-05
7.59164e-05
7.64042e-05
8.02578e-05
0.000107912
0.000138227
0.000125538
8.08148e-05
7.45429e-05
7.26632e-05
7.20099e-05
7.19051e-05
7.20989e-05
7.2465e-05
7.29264e-05
7.34314e-05
7.39423e-05
7.44277e-05
7.48548e-05
7.51818e-05
7.53566e-05
7.53288e-05
7.50787e-05
7.46311e-05
7.40365e-05
7.33435e-05
7.25911e-05
7.18134e-05
7.10472e-05
7.03352e-05
6.9729e-05
6.92927e-05
6.91183e-05
6.9373e-05
7.04817e-05
7.4241e-05
9.54378e-05
0.000138153
7.46192e-05
7.40759e-05
7.34663e-05
7.29916e-05
7.26774e-05
7.2496e-05
7.24151e-05
7.24133e-05
7.24846e-05
7.26401e-05
7.29104e-05
7.33503e-05
7.4043e-05
7.50892e-05
7.64908e-05
7.76128e-05
7.64643e-05
7.52681e-05
7.44202e-05
7.38294e-05
7.33564e-05
7.28821e-05
7.23177e-05
7.16067e-05
7.07285e-05
6.97002e-05
6.85724e-05
6.74169e-05
6.63078e-05
6.53061e-05
6.44537e-05
6.37781e-05
6.3303e-05
6.30653e-05
6.31456e-05
6.37579e-05
6.56297e-05
7.26299e-05
0.000132487
0.00013824
0.00013824
0.00013824
0.00013824
0.00013824
0.00013824
0.00013824
0.00013824
0.00013824
0.00013824
0.00013824
0.00013824
0.00013824
0.00013824
0.00013824
0.00013824
0.00013824
0.00013824
0.00013824
0.00013824
0.000124837
7.17377e-05
6.57826e-05
6.42686e-05
6.3898e-05
6.40716e-05
6.46221e-05
6.55002e-05
6.66964e-05
6.82039e-05
6.99861e-05
7.19483e-05
7.39348e-05
7.57631e-05
7.72732e-05
7.83572e-05
7.89639e-05
7.9091e-05
7.87758e-05
7.80932e-05
7.7155e-05
7.6108e-05
7.51278e-05
7.44218e-05
7.42836e-05
7.53646e-05
8.0674e-05
0.000123323
0.00013824
0.000137654
8.83707e-05
7.50231e-05
7.18782e-05
7.07128e-05
7.0269e-05
7.01869e-05
7.03134e-05
7.05683e-05
7.09051e-05
7.12939e-05
7.17094e-05
7.212e-05
7.2475e-05
7.26974e-05
7.26997e-05
7.24483e-05
7.19917e-05
7.14174e-05
7.07958e-05
7.01704e-05
6.95707e-05
6.90226e-05
6.85557e-05
6.82096e-05
6.80433e-05
6.81584e-05
6.87723e-05
7.0515e-05
7.64725e-05
0.000121394
0.00013824
7.38089e-05
7.25297e-05
7.13987e-05
7.061e-05
7.01006e-05
6.97959e-05
6.9644e-05
6.96164e-05
6.97052e-05
6.99232e-05
7.03078e-05
7.09345e-05
7.19532e-05
7.3679e-05
7.67803e-05
8.18948e-05
7.62553e-05
7.3591e-05
7.21304e-05
7.12373e-05
7.06091e-05
7.00771e-05
6.95408e-05
6.89429e-05
6.82597e-05
6.74966e-05
6.66819e-05
6.58574e-05
6.50683e-05
6.43558e-05
6.37544e-05
6.32954e-05
6.30155e-05
6.29754e-05
6.33095e-05
6.44257e-05
6.84789e-05
9.96814e-05
0.000138234
0.00013824
0.00013824
0.00013824
0.00013824
0.00013824
0.00013824
0.00013824
0.00013824
0.00013824
0.00013824
0.00013824
0.00013824
0.00013824
0.00013824
0.00013824
0.00013824
0.00013824
0.00013824
0.00013824
0.00013824
0.000138039
8.4134e-05
6.7617e-05
6.47092e-05
6.39085e-05
6.38212e-05
6.4135e-05
6.4748e-05
6.56208e-05
6.67299e-05
6.80423e-05
6.94962e-05
7.09921e-05
7.2403e-05
7.36017e-05
7.44875e-05
7.50026e-05
7.51361e-05
7.4922e-05
7.44345e-05
7.37816e-05
7.30968e-05
7.25365e-05
7.23018e-05
7.27446e-05
7.48728e-05
8.39046e-05
0.000136306
0.00013824
0.00013824
0.000120666
7.76017e-05
7.15981e-05
6.9655e-05
6.88187e-05
6.8465e-05
6.83747e-05
6.84494e-05
6.86409e-05
6.89236e-05
6.92781e-05
6.96787e-05
7.0075e-05
7.03672e-05
7.04125e-05
7.0149e-05
6.96654e-05
6.90986e-05
6.85379e-05
6.80243e-05
6.75795e-05
6.72204e-05
6.69685e-05
6.68588e-05
6.69564e-05
6.73936e-05
6.8509e-05
7.16006e-05
8.58609e-05
0.000137797
0.00013824
7.71064e-05
7.23798e-05
7.01438e-05
6.88965e-05
6.8156e-05
6.77227e-05
6.75015e-05
6.74474e-05
6.75478e-05
6.78193e-05
6.83137e-05
6.91438e-05
7.05858e-05
7.35275e-05
8.28215e-05
0.000126477
7.95829e-05
7.27754e-05
7.03472e-05
6.91018e-05
6.8316e-05
6.77267e-05
6.72107e-05
6.67044e-05
6.61783e-05
6.56261e-05
6.50582e-05
6.4496e-05
6.39662e-05
6.34977e-05
6.3121e-05
6.28722e-05
6.28037e-05
6.30121e-05
6.37233e-05
6.5673e-05
7.29502e-05
0.000133657
0.00013824
0.00013824
0.00013824
0.00013824
0.00013824
0.00013824
0.00013824
0.00013824
0.00013824
0.00013824
0.00013824
0.00013824
0.00013824
0.00013824
0.00013824
0.00013824
0.00013824
0.00013824
0.00013824
0.00013824
0.00013824
0.00013824
0.000123047
7.14536e-05
6.56085e-05
6.40882e-05
6.36521e-05
6.36995e-05
6.40465e-05
6.46178e-05
6.53717e-05
6.62709e-05
6.72682e-05
6.82987e-05
6.92815e-05
7.01323e-05
7.07795e-05
7.11792e-05
7.13227e-05
7.12378e-05
7.09849e-05
7.06509e-05
7.03452e-05
7.02081e-05
7.04581e-05
7.16044e-05
7.59803e-05
0.000107407
0.000138234
0.00013824
0.00013824
0.000138047
9.03365e-05
7.27571e-05
6.91661e-05
6.7803e-05
6.71651e-05
6.68811e-05
6.68102e-05
6.68944e-05
6.71091e-05
6.74395e-05
6.78706e-05
6.83645e-05
6.87996e-05
6.89214e-05
6.85903e-05
6.80006e-05
6.73773e-05
6.68267e-05
6.63763e-05
6.60374e-05
6.582e-05
6.57423e-05
6.58447e-05
6.62171e-05
6.70703e-05
6.90524e-05
7.55375e-05
0.000125917
0.00013824
0.00013824
0.000119304
7.66115e-05
7.02537e-05
6.80466e-05
6.69372e-05
6.63294e-05
6.60245e-05
6.594e-05
6.6053e-05
6.63882e-05
6.70294e-05
6.81742e-05
7.04326e-05
7.69333e-05
0.000123402
0.000138221
0.000100974
7.3841e-05
6.93087e-05
6.75808e-05
6.66075e-05
6.59456e-05
6.54292e-05
6.49802e-05
6.45606e-05
6.4155e-05
6.37626e-05
6.33926e-05
6.30614e-05
6.27912e-05
6.26123e-05
6.25695e-05
6.27435e-05
6.33124e-05
6.48129e-05
7.00689e-05
0.000114193
0.00013824
0.00013824
0.00013824
0.00013824
0.00013824
0.00013824
0.00013824
0.00013824
0.00013824
0.00013824
0.00013824
0.00013824
0.00013824
0.00013824
0.00013824
0.00013824
0.00013824
0.00013824
0.00013824
0.00013824
0.00013824
0.00013824
0.00013824
0.000138197
9.0812e-05
6.80671e-05
6.46381e-05
6.36567e-05
6.33869e-05
6.34659e-05
6.37655e-05
6.42219e-05
6.47911e-05
6.54316e-05
6.60973e-05
6.67372e-05
6.73004e-05
6.7745e-05
6.80457e-05
6.81999e-05
6.82291e-05
6.81783e-05
6.81147e-05
6.81314e-05
6.83697e-05
6.91014e-05
7.10803e-05
7.78811e-05
0.000130868
0.00013824
0.00013824
0.00013824
0.00013824
0.000132573
7.7234e-05
6.97562e-05
6.74491e-05
6.64152e-05
6.59169e-05
6.57095e-05
6.5713e-05
6.59006e-05
6.62623e-05
6.68037e-05
6.75417e-05
6.8367e-05
6.87146e-05
6.80979e-05
6.71692e-05
6.63427e-05
6.57155e-05
6.52635e-05
6.49798e-05
6.48654e-05
6.49409e-05
6.52662e-05
6.60042e-05
6.76303e-05
7.24743e-05
0.000104064
0.000138235
0.00013824
0.00013824
0.000138238
0.000109815
7.39812e-05
6.84448e-05
6.65192e-05
6.56004e-05
6.51678e-05
6.50419e-05
6.51764e-05
6.56141e-05
6.65223e-05
6.83556e-05
7.33193e-05
0.000102779
0.000138231
0.00013824
0.000131232
7.64822e-05
6.91692e-05
6.67173e-05
6.54682e-05
6.46946e-05
6.41482e-05
6.37217e-05
6.3365e-05
6.30546e-05
6.27827e-05
6.25521e-05
6.23744e-05
6.22706e-05
6.22755e-05
6.24522e-05
6.29384e-05
6.41231e-05
6.77765e-05
9.05523e-05
0.000138201
0.00013824
0.00013824
0.00013824
0.00013824
0.00013824
0.00013824
0.00013824
0.00013824
0.00013824
0.00013824
0.00013824
0.00013824
0.00013824
0.00013824
0.00013824
0.00013824
0.00013824
0.00013824
0.00013824
0.00013824
0.00013824
0.00013824
0.00013824
0.00013824
0.000133538
7.30462e-05
6.58945e-05
6.39857e-05
6.32831e-05
6.30651e-05
6.31079e-05
6.33134e-05
6.36254e-05
6.40023e-05
6.44075e-05
6.48065e-05
6.51689e-05
6.54718e-05
6.57035e-05
6.58665e-05
6.59791e-05
6.60778e-05
6.62214e-05
6.65037e-05
6.70971e-05
6.84412e-05
7.25839e-05
9.96961e-05
0.000138221
0.00013824
0.00013824
0.00013824
0.00013824
0.00013824
0.000121552
7.47338e-05
6.8384e-05
6.64176e-05
6.55735e-05
6.51821e-05
6.51082e-05
6.53167e-05
6.5804e-05
6.66254e-05
6.80706e-05
7.05836e-05
7.25e-05
6.98409e-05
6.75662e-05
6.6118e-05
6.52498e-05
6.46987e-05
6.44172e-05
6.43852e-05
6.46338e-05
6.52765e-05
6.67074e-05
7.04976e-05
8.89314e-05
0.000138114
0.00013824
0.00013824
0.00013824
0.00013824
0.000138224
9.92361e-05
7.22247e-05
6.73321e-05
6.56498e-05
6.4975e-05
6.4779e-05
6.49575e-05
6.55979e-05
6.7159e-05
7.1235e-05
8.97849e-05
0.000138111
0.00013824
0.00013824
0.000138237
0.000106212
7.17813e-05
6.67088e-05
6.48871e-05
6.39172e-05
6.3298e-05
6.2859e-05
6.25301e-05
6.22784e-05
6.20904e-05
6.19661e-05
6.19173e-05
6.19695e-05
6.21724e-05
6.26272e-05
6.36044e-05
6.61287e-05
7.68558e-05
0.000137374
0.00013824
0.00013824
0.00013824
0.00013824
0.00013824
0.00013824
0.00013824
0.00013824
0.00013824
0.00013824
0.00013824
0.00013824
0.00013824
0.00013824
0.00013824
0.00013824
0.00013824
0.00013824
0.00013824
0.00013824
0.00013824
0.00013824
0.00013824
0.00013824
0.00013824
0.00013824
0.000118142
7.07266e-05
6.5144e-05
6.35487e-05
6.29148e-05
6.26782e-05
6.26534e-05
6.27553e-05
6.29342e-05
6.31547e-05
6.33899e-05
6.36195e-05
6.38308e-05
6.40196e-05
6.41919e-05
6.43662e-05
6.4578e-05
6.48904e-05
6.54201e-05
6.64167e-05
6.86048e-05
7.57524e-05
0.000131812
0.00013824
0.00013824
0.00013824
0.00013824
0.00013824
0.00013824
0.00013824
0.000116017
7.38653e-05
6.78815e-05
6.62055e-05
6.54011e-05
6.5205e-05
6.55324e-05
6.64156e-05
6.8033e-05
7.27712e-05
8.87737e-05
0.000113045
8.26909e-05
7.15665e-05
6.72829e-05
6.5706e-05
6.48127e-05
6.44529e-05
6.45078e-05
6.50522e-05
6.64016e-05
7.02086e-05
8.53965e-05
0.000137899
0.00013824
0.00013824
0.00013824
0.00013824
0.00013824
0.00013824
0.000138214
9.94412e-05
7.21623e-05
6.71325e-05
6.5841e-05
6.54773e-05
6.57729e-05
6.69374e-05
7.13071e-05
8.97656e-05
0.000138026
0.00013824
0.00013824
0.00013824
0.00013824
0.000137584
8.04533e-05
6.79895e-05
6.49463e-05
6.36135e-05
6.285e-05
6.23531e-05
6.20188e-05
6.17988e-05
6.16726e-05
6.16403e-05
6.17203e-05
6.19538e-05
6.2434e-05
6.33674e-05
6.54835e-05
7.30727e-05
0.000134763
0.00013824
0.00013824
0.00013824
0.00013824
0.00013824
0.00013824
0.00013824
0.00013824
0.00013824
0.00013824
0.00013824
0.00013824
0.00013824
0.00013824
0.00013824
0.00013824
0.00013824
0.00013824
0.00013824
0.00013824
0.00013824
0.00013824
0.00013824
0.00013824
0.00013824
0.00013824
0.00013824
0.000138235
0.000100165
6.90487e-05
6.45597e-05
6.31421e-05
6.25266e-05
6.2252e-05
6.21601e-05
6.21766e-05
6.2258e-05
6.23772e-05
6.25174e-05
6.26701e-05
6.28352e-05
6.30217e-05
6.3251e-05
6.35637e-05
6.40421e-05
6.48686e-05
6.65614e-05
7.16345e-05
0.000108548
0.000138239
0.00013824
0.00013824
0.00013824
0.00013824
0.00013824
0.00013824
0.00013824
0.00013824
0.000122664
7.50333e-05
6.99313e-05
6.71454e-05
6.65821e-05
6.74281e-05
7.04193e-05
7.55178e-05
0.000117905
0.000138111
0.000138239
0.00013776
0.000107662
7.34871e-05
6.87366e-05
6.62129e-05
6.55622e-05
6.57688e-05
6.72044e-05
7.16701e-05
9.43925e-05
0.000137991
0.00013824
0.00013824
0.00013824
0.00013824
0.00013824
0.00013824
0.00013824
0.00013824
0.000138228
0.000114548
7.40818e-05
7.03147e-05
6.90652e-05
7.00143e-05
7.3296e-05
0.000105934
0.000138144
0.00013824
0.00013824
0.00013824
0.00013824
0.00013824
0.00013824
0.000132423
7.34969e-05
6.61891e-05
6.3949e-05
6.287e-05
6.22272e-05
6.18433e-05
6.1631e-05
6.15561e-05
6.16228e-05
6.18728e-05
6.23939e-05
6.34542e-05
6.57358e-05
7.29009e-05
0.00013306
0.00013824
0.00013824
0.00013824
0.00013824
0.00013824
0.00013824
0.00013824
0.00013824
0.00013824
0.00013824
0.00013824
0.00013824
0.00013824
0.00013824
0.00013824
0.00013824
0.00013824
0.00013824
0.00013824
0.00013824
0.00013824
0.00013824
0.00013824
0.00013824
0.00013824
0.00013824
0.00013824
0.00013824
0.00013824
0.000138173
8.81489e-05
6.78021e-05
6.40944e-05
6.27768e-05
6.21533e-05
6.18415e-05
6.17014e-05
6.16629e-05
6.16908e-05
6.17661e-05
6.18809e-05
6.20372e-05
6.2248e-05
6.25408e-05
6.29691e-05
6.36554e-05
6.49255e-05
6.80479e-05
8.24588e-05
0.000137875
0.00013824
0.00013824
0.00013824
0.00013824
0.00013824
0.00013824
0.00013824
0.00013824
0.00013824
0.00013824
0.000134109
0.000100294
7.50093e-05
7.26209e-05
7.66172e-05
0.000105082
0.000135008
0.00013824
0.00013824
0.00013824
0.00013824
0.000138239
0.0001295
9.06334e-05
7.24286e-05
7.06584e-05
7.13423e-05
7.80379e-05
0.000118541
0.000138212
0.00013824
0.00013824
0.00013824
0.00013824
0.00013824
0.00013824
0.00013824
0.00013824
0.00013824
0.00013824
0.00013824
0.00013335
0.000108256
9.31314e-05
0.000104383
0.000129888
0.000138238
0.00013824
0.00013824
0.00013824
0.00013824
0.00013824
0.00013824
0.00013824
0.00013824
0.000126638
7.22752e-05
6.56999e-05
6.36961e-05
6.26402e-05
6.21169e-05
6.18814e-05
6.18609e-05
6.20734e-05
6.26539e-05
6.38651e-05
6.71988e-05
7.70827e-05
0.00013504
0.00013824
0.00013824
0.00013824
0.00013824
0.00013824
0.00013824
0.00013824
0.00013824
0.00013824
0.00013824
0.00013824
0.00013824
0.00013824
0.00013824
0.00013824
0.00013824
0.00013824
0.00013824
0.00013824
0.00013824
0.00013824
0.00013824
0.00013824
0.00013824
0.00013824
0.00013824
0.00013824
0.00013824
0.00013824
0.00013824
0.00013824
0.000138005
8.30572e-05
6.72872e-05
6.38255e-05
6.24991e-05
6.18522e-05
6.152e-05
6.13534e-05
6.12953e-05
6.13168e-05
6.14065e-05
6.15682e-05
6.18222e-05
6.22103e-05
6.28133e-05
6.38533e-05
6.6066e-05
7.34185e-05
0.000133165
0.00013824
0.00013824
0.00013824
0.00013824
0.00013824
0.00013824
0.00013824
0.00013824
0.00013824
0.00013824
0.00013824
0.00013824
0.000138232
0.00013539
0.000129796
0.00013658
0.000138237
0.00013824
0.00013824
0.00013824
0.00013824
0.00013824
0.00013824
0.00013824
0.000138185
0.000129709
0.000117109
0.000123666
0.000137327
0.00013824
0.00013824
0.00013824
0.00013824
0.00013824
0.00013824
0.00013824
0.00013824
0.00013824
0.00013824
0.00013824
0.00013824
0.00013824
0.00013824
0.000138239
0.000138201
0.000138237
0.00013824
0.00013824
0.00013824
0.00013824
0.00013824
0.00013824
0.00013824
0.00013824
0.00013824
0.00013824
0.00013824
0.000129064
7.35357e-05
6.72114e-05
6.42172e-05
6.32833e-05
6.29535e-05
6.30274e-05
6.35613e-05
6.52938e-05
6.95855e-05
9.45068e-05
0.000137604
0.00013824
0.00013824
0.00013824
0.00013824
0.00013824
0.00013824
0.00013824
0.00013824
0.00013824
0.00013824
0.00013824
0.00013824
0.00013824
0.00013824
0.00013824
0.00013824
0.00013824
0.00013824
0.00013824
0.00013824
0.00013824
0.00013824
0.00013824
0.00013824
0.00013824
0.00013824
0.00013824
0.00013824
0.00013824
0.00013824
0.00013824
0.00013824
0.00013824
0.000137954
8.45943e-05
6.76668e-05
6.37897e-05
6.23751e-05
6.17261e-05
6.13731e-05
6.12093e-05
6.11757e-05
6.12485e-05
6.14337e-05
6.17695e-05
6.23394e-05
6.32953e-05
6.52591e-05
7.17295e-05
0.000125314
0.00013824
0.00013824
0.00013824
0.00013824
0.00013824
0.00013824
0.00013824
0.00013824
0.00013824
0.00013824
0.00013824
0.00013824
0.00013824
0.00013824
0.00013824
0.00013824
0.00013824
0.00013824
0.00013824
0.00013824
0.00013824
0.00013824
0.00013824
0.00013824
0.00013824
0.00013824
0.00013824
0.00013824
0.00013824
0.00013824
0.00013824
0.00013824
0.00013824
0.00013824
0.00013824
0.00013824
0.00013824
0.00013824
0.00013824
0.00013824
0.00013824
0.00013824
0.00013824
0.00013824
0.00013824
0.00013824
0.00013824
0.00013824
0.00013824
0.00013824
0.00013824
0.00013824
0.00013824
0.00013824
0.00013824
0.00013824
0.00013824
0.00013824
0.00013824
0.000135716
9.38352e-05
7.04476e-05
6.78597e-05
6.70168e-05
6.75277e-05
6.92755e-05
7.96059e-05
0.000122391
0.000138227
0.00013824
0.00013824
0.00013824
0.00013824
0.00013824
0.00013824
0.00013824
0.00013824
0.00013824
0.00013824
0.00013824
0.00013824
0.00013824
0.00013824
0.00013824
0.00013824
0.00013824
0.00013824
0.00013824
0.00013824
0.00013824
0.00013824
0.00013824
0.00013824
0.00013824
0.00013824
0.00013824
0.00013824
0.00013824
0.00013824
0.00013824
0.00013824
0.00013824
0.00013824
0.00013824
0.000138113
9.42775e-05
6.88312e-05
6.40833e-05
6.26743e-05
6.19001e-05
6.15561e-05
6.14459e-05
6.15068e-05
6.17486e-05
6.22603e-05
6.33071e-05
6.52861e-05
7.14703e-05
0.000123072
0.00013824
0.00013824
0.00013824
0.00013824
0.00013824
0.00013824
0.00013824
0.00013824
0.00013824
0.00013824
0.00013824
0.00013824
0.00013824
0.00013824
0.00013824
0.00013824
0.00013824
0.00013824
0.00013824
0.00013824
0.00013824
0.00013824
0.00013824
0.00013824
0.00013824
0.00013824
0.00013824
0.00013824
0.00013824
0.00013824
0.00013824
0.00013824
0.00013824
0.00013824
0.00013824
0.00013824
0.00013824
0.00013824
0.00013824
0.00013824
0.00013824
0.00013824
0.00013824
0.00013824
0.00013824
0.00013824
0.00013824
0.00013824
0.00013824
0.00013824
0.00013824
0.00013824
0.00013824
0.00013824
0.00013824
0.00013824
0.00013824
0.00013824
0.00013824
0.00013824
0.00013824
0.000138224
0.000127937
0.000105593
9.61236e-05
0.000104051
0.000123544
0.000137943
0.00013824
0.00013824
0.00013824
0.00013824
0.00013824
0.00013824
0.00013824
0.00013824
0.00013824
0.00013824
0.00013824
0.00013824
0.00013824
0.00013824
0.00013824
0.00013824
0.00013824
0.00013824
0.00013824
0.00013824
0.00013824
0.00013824
0.00013824
0.00013824
0.00013824
0.00013824
0.00013824
0.00013824
0.00013824
0.00013824
0.00013824
0.00013824
0.00013824
0.00013824
0.00013824
0.00013824
0.00013824
0.00013824
0.000138226
0.000113695
7.08593e-05
6.63458e-05
6.36015e-05
6.2807e-05
6.25348e-05
6.25837e-05
6.29759e-05
6.39683e-05
6.73251e-05
7.44972e-05
0.000129748
0.00013824
0.00013824
0.00013824
0.00013824
0.00013824
0.00013824
0.00013824
0.00013824
0.00013824
0.00013824
0.00013824
0.00013824
0.00013824
0.00013824
0.00013824
0.00013824
0.00013824
0.00013824
0.00013824
0.00013824
0.00013824
0.00013824
0.00013824
0.00013824
0.00013824
0.00013824
0.00013824
0.00013824
0.00013824
0.00013824
0.00013824
0.00013824
0.00013824
0.00013824
0.00013824
0.00013824
0.00013824
0.00013824
0.00013824
0.00013824
0.00013824
0.00013824
0.00013824
0.00013824
0.00013824
0.00013824
0.00013824
0.00013824
0.00013824
0.00013824
0.00013824
0.00013824
0.00013824
0.00013824
0.00013824
0.00013824
0.00013824
0.00013824
0.00013824
0.00013824
0.00013824
0.00013824
0.00013824
0.00013824
0.000138239
0.000138229
0.000138238
0.00013824
0.00013824
0.00013824
0.00013824
0.00013824
0.00013824
0.00013824
0.00013824
0.00013824
0.00013824
0.00013824
0.00013824
0.00013824
0.00013824
0.00013824
0.00013824
0.00013824
0.00013824
0.00013824
0.00013824
0.00013824
0.00013824
0.00013824
0.00013824
0.00013824
0.00013824
0.00013824
0.00013824
0.00013824
0.00013824
0.00013824
0.00013824
0.00013824
0.00013824
0.00013824
0.00013824
0.00013824
0.00013824
0.00013824
0.00013824
0.00013824
0.00013824
0.000132622
9.54401e-05
7.0157e-05
6.77088e-05
6.66818e-05
6.66818e-05
6.78262e-05
7.06709e-05
0.000101253
0.000136897
0.00013824
0.00013824
0.00013824
0.00013824
0.00013824
0.00013824
0.00013824
0.00013824
0.00013824
0.00013824
0.00013824
0.00013824
0.00013824
0.00013824
0.00013824
0.00013824
0.00013824
0.00013824
0.00013824
0.00013824
0.00013824
0.00013824
0.00013824
0.00013824
0.00013824
0.00013824
0.00013824
0.00013824
0.00013824
0.00013824
0.00013824
0.00013824
0.00013824
0.00013824
0.00013824
0.00013824
0.00013824
0.00013824
0.00013824
0.00013824
0.00013824
0.00013824
0.00013824
0.00013824
0.00013824
0.00013824
0.00013824
0.00013824
0.00013824
0.00013824
0.00013824
0.00013824
0.00013824
0.00013824
0.00013824
0.00013824
0.00013824
0.00013824
0.00013824
0.00013824
0.00013824
0.00013824
0.00013824
0.00013824
0.00013824
0.00013824
0.00013824
0.00013824
0.00013824
0.00013824
0.00013824
0.00013824
0.00013824
0.00013824
0.00013824
0.00013824
0.00013824
0.00013824
0.00013824
0.00013824
0.00013824
0.00013824
0.00013824
0.00013824
0.00013824
0.00013824
0.00013824
0.00013824
0.00013824
0.00013824
0.00013824
0.00013824
0.00013824
0.00013824
0.00013824
0.00013824
0.00013824
0.00013824
0.00013824
0.00013824
0.00013824
0.00013824
0.00013824
0.00013824
0.00013824
0.00013824
0.00013824
0.00013824
0.00013824
0.00013824
0.00013824
0.000138231
0.0001318
0.000111855
9.76084e-05
9.67559e-05
0.000110918
0.000132233
0.000138237
0.00013824
0.00013824
0.00013824
0.00013824
0.00013824
0.00013824
0.00013824
0.00013824
0.00013824
0.00013824
0.00013824
0.00013824
0.00013824
0.00013824
0.00013824
0.00013824
0.00013824
0.00013824
0.00013824
0.00013824
0.00013824
0.00013824
0.00013824
0.00013824
0.00013824
0.00013824
0.00013824
0.00013824
0.00013824
0.00013824
0.00013824
0.00013824
0.00013824
0.00013824
0.00013824
0.00013824
0.00013824
0.00013824
0.00013824
0.00013824
0.00013824
0.00013824
0.00013824
0.00013824
0.00013824
0.00013824
0.00013824
0.00013824
0.00013824
0.00013824
0.00013824
0.00013824
0.00013824
0.00013824
0.00013824
0.00013824
0.00013824
0.00013824
0.00013824
0.00013824
0.00013824
0.00013824
0.00013824
0.00013824
0.00013824
0.00013824
0.00013824
0.00013824
0.00013824
0.00013824
0.00013824
0.00013824
0.00013824
0.00013824
0.00013824
0.00013824
0.00013824
0.00013824
0.00013824
0.00013824
0.00013824
0.00013824
0.00013824
0.00013824
0.00013824
0.00013824
0.00013824
0.00013824
0.00013824
0.00013824
0.00013824
0.00013824
0.00013824
0.00013824
0.00013824
0.00013824
0.00013824
0.00013824
0.00013824
0.00013824
0.00013824
0.00013824
0.00013824
0.00013824
0.00013824
0.00013824
0.00013824
0.00013824
0.00013824
0.00013824
0.00013824
0.00013824
0.00013824
0.00013824
0.00013824
0.000138233
0.000138231
0.00013824
0.00013824
0.00013824
0.00013824
0.00013824
0.00013824
0.00013824
0.00013824
0.00013824
0.00013824
0.00013824
0.00013824
0.00013824
0.00013824
0.00013824
0.00013824
0.00013824
0.00013824
0.00013824
0.00013824
0.00013824
0.00013824
0.00013824
0.00013824
0.00013824
0.00013824
0.00013824
0.00013824
0.00013824
0.00013824
0.00013824
0.00013824
0.00013824
0.00013824
0.00013824
0.00013824
0.00013824
0.00013824
0.00013824
0.00013824
0.00013824
0.00013824
0.00013824
0.00013824
0.00013824
0.00013824
0.00013824
0.00013824
0.00013824
0.00013824
0.00013824
0.00013824
0.00013824
0.00013824
0.00013824
0.00013824
0.00013824
0.00013824
0.00013824
0.00013824
0.00013824
0.00013824
0.00013824
0.00013824
0.00013824
0.00013824
0.00013824
0.00013824
0.00013824
0.00013824
0.00013824
0.00013824
0.00013824
0.00013824
0.00013824
0.00013824
0.00013824
0.00013824
0.00013824
0.00013824
0.00013824
0.00013824
0.00013824
0.00013824
0.00013824
0.00013824
0.00013824
0.00013824
0.00013824
0.00013824
0.00013824
0.00013824
0.00013824
0.00013824
0.00013824
0.00013824
0.00013824
0.00013824
0.00013824
0.00013824
0.00013824
0.00013824
0.00013824
0.00013824
0.00013824
0.00013824
0.00013824
0.00013824
0.00013824
0.00013824
0.00013824
0.00013824
0.00013824
0.00013824
0.00013824
0.00013824
0.00013824
0.00013824
0.00013824
0.00013824
0.00013824
0.00013824
0.00013824
0.00013824
0.00013824
0.00013824
0.00013824
0.00013824
0.00013824
0.00013824
0.00013824
0.00013824
0.00013824
0.00013824
0.00013824
0.00013824
0.00013824
0.00013824
0.00013824
0.00013824
0.00013824
0.00013824
0.00013824
0.00013824
0.00013824
0.00013824
0.00013824
0.00013824
0.00013824
0.00013824
0.00013824
0.00013824
0.00013824
0.00013824
0.00013824
0.00013824
0.00013824
0.00013824
0.00013824
0.00013824
0.00013824
0.00013824
0.00013824
0.00013824
0.00013824
0.00013824
0.00013824
0.00013824
0.00013824
0.00013824
0.00013824
0.00013824
0.00013824
0.00013824
0.00013824
0.00013824
0.00013824
0.00013824
0.00013824
0.00013824
0.00013824
0.00013824
0.00013824
0.00013824
0.00013824
0.00013824
0.00013824
0.00013824
0.00013824
0.00013824
0.00013824
0.00013824
0.00013824
0.00013824
0.00013824
0.00013824
0.00013824
0.00013824
0.00013824
0.00013824
0.00013824
0.00013824
0.00013824
0.00013824
0.00013824
0.00013824
0.00013824
0.00013824
0.00013824
0.00013824
0.00013824
0.00013824
0.00013824
0.00013824
0.00013824
0.00013824
0.00013824
0.00013824
0.00013824
0.00013824
0.00013824
0.00013824
0.00013824
0.00013824
0.00013824
0.00013824
0.00013824
0.00013824
0.00013824
0.00013824
0.00013824
0.00013824
0.00013824
0.00013824
0.00013824
0.00013824
0.00013824
0.00013824
0.00013824
0.00013824
0.00013824
0.00013824
0.00013824
0.00013824
0.00013824
0.00013824
0.00013824
0.00013824
0.00013824
0.00013824
0.00013824
0.00013824
0.00013824
0.00013824
0.00013824
0.00013824
0.00013824
0.00013824
0.00013824
0.00013824
0.00013824
0.00013824
0.00013824
0.00013824
0.00013824
0.00013824
0.00013824
0.00013824
0.00013824
0.00013824
0.00013824
0.00013824
0.00013824
0.00013824
0.00013824
0.00013824
0.00013824
0.00013824
0.00013824
0.00013824
0.00013824
0.00013824
0.00013824
0.00013824
0.00013824
0.00013824
0.00013824
0.00013824
0.00013824
0.00013824
0.00013824
0.00013824
0.00013824
0.00013824
0.00013824
0.00013824
0.00013824
0.00013824
0.00013824
0.00013824
0.00013824
0.00013824
0.00013824
0.00013824
0.00013824
0.00013824
0.00013824
0.00013824
0.00013824
0.00013824
0.00013824
0.00013824
0.00013824
0.00013824
0.00013824
0.00013824
0.00013824
0.00013824
0.00013824
0.00013824
0.00013824
0.00013824
0.00013824
0.00013824
0.00013824
0.00013824
0.00013824
0.00013824
0.00013824
0.00013824
0.00013824
0.00013824
0.00013824
0.00013824
0.00013824
0.00013824
0.00013824
0.00013824
0.00013824
0.00013824
0.00013824
0.00013824
0.00013824
0.00013824
0.00013824
0.00013824
0.00013824
0.00013824
0.00013824
0.00013824
0.00013824
0.00013824
0.00013824
0.00013824
0.00013824
0.00013824
0.00013824
0.00013824
0.00013824
0.00013824
0.00013824
0.00013824
0.00013824
0.00013824
0.00013824
0.00013824
0.00013824
0.00013824
0.00013824
0.00013824
0.00013824
0.00013824
0.00013824
0.00013824
0.00013824
0.00013824
0.00013824
0.00013824
0.00013824
0.00013824
0.00013824
0.00013824
0.00013824
0.00013824
0.00013824
0.00013824
0.00013824
0.00013824
0.00013824
0.00013824
0.00013824
0.00013824
0.00013824
0.00013824
0.00013824
0.00013824
0.00013824
0.00013824
0.00013824
0.00013824
0.00013824
0.00013824
0.00013824
0.00013824
0.00013824
0.00013824
0.00013824
0.00013824
0.00013824
0.00013824
0.00013824
0.00013824
0.00013824
0.00013824
0.00013824
0.00013824
0.00013824
0.00013824
0.00013824
0.00013824
0.00013824
0.00013824
0.00013824
0.00013824
0.00013824
0.00013824
0.00013824
0.00013824
0.00013824
0.00013824
0.00013824
0.00013824
0.00013824
0.00013824
0.00013824
0.00013824
0.00013824
0.00013824