/*--------------------------------*- C++ -*----------------------------------*\
| =========                 |                                                 |
| \\      /  F ield         | OpenFOAM: The Open Source CFD Toolbox           |
|  \\    /   O peration     | Version:  2406                                  |
|   \\  /    A nd           | Website:  www.openfoam.com                      |
|    \\/     M anipulation  |                                                 |
\*---------------------------------------------------------------------------*/
FoamFile
{
    version     2.0;
    format      ascii;
    arch        "LSB;label=32;scalar=64";
    class       volScalarField;
    location    "1.95";
    object      C_0_0;
}
// * * * * * * * * * * * * * * * * * * * * * * * * * * * * * * * * * * * * * //

dimensions      [1 -3 0 0 0 0 0];

internalField   nonuniform List<scalar> 
14400
(
1.68177
1.67602
1.66389
1.64033
1.60077
1.56184
1.53797
1.53248
1.54629
1.57853
1.62585
1.67256
1.70212
1.72031
1.73298
1.74088
1.74427
1.7431
1.7369
1.72471
1.70059
1.6618
1.62636
1.60751
1.60867
1.63076
1.67292
1.73154
1.79047
1.83106
1.85919
1.88318
1.9039
1.92194
1.93772
1.95156
1.96369
1.97428
1.98347
1.99137
1.99807
2.00364
2.00813
2.01158
2.01403
2.01551
2.01604
2.01562
2.01426
2.01197
2.00873
2.00454
1.99938
1.99322
1.98603
1.97777
1.9684
1.95785
1.94605
1.93291
1.91832
1.90215
1.88423
1.86435
1.84225
1.81757
1.78986
1.75851
1.72269
1.66883
1.59297
1.51938
1.45892
1.41465
1.38784
1.3789
1.38771
1.41365
1.45529
1.50961
1.56615
1.60484
1.62759
1.64457
1.65683
1.66503
1.66959
1.67074
1.66857
1.66301
1.65383
1.64061
1.62256
1.59514
1.55064
1.50293
1.46921
1.4526
1.45389
1.47196
1.50359
1.53435
1.54925
1.55324
1.54885
1.53356
1.50233
1.47003
1.45123
1.44923
1.46514
1.49819
1.54529
1.5893
1.61643
1.63441
1.64773
1.65718
1.66326
1.66624
1.68752
1.68241
1.67184
1.6548
1.62423
1.58554
1.56051
1.55456
1.56886
1.60225
1.64909
1.68621
1.70905
1.72583
1.73777
1.74537
1.74883
1.74811
1.74291
1.73261
1.71583
1.68588
1.65025
1.63008
1.63083
1.6535
1.69703
1.75546
1.80372
1.83646
1.86333
1.88646
1.90658
1.92419
1.93967
1.95328
1.96522
1.97567
1.98476
1.99257
1.9992
2.00471
2.00916
2.01258
2.01501
2.01647
2.01698
2.01655
2.0152
2.01291
2.00969
2.00551
2.00037
1.99424
1.98709
1.97889
1.96957
1.9591
1.94738
1.93435
1.9199
1.9039
1.88619
1.86658
1.84482
1.8206
1.7935
1.76296
1.72814
1.68414
1.61974
1.54478
1.48275
1.43731
1.40993
1.40094
1.4102
1.43715
1.48013
1.53537
1.5825
1.61222
1.63335
1.64929
1.66088
1.66867
1.673
1.67407
1.67195
1.66662
1.65789
1.64543
1.62872
1.60684
1.57171
1.52552
1.49114
1.4741
1.47598
1.49502
1.52601
1.54848
1.5585
1.56162
1.55804
1.54758
1.52465
1.49302
1.47325
1.47062
1.48694
1.52061
1.56613
1.60082
1.62246
1.63907
1.65158
1.66056
1.66636
1.66921
1.69837
1.69426
1.68599
1.67357
1.65674
1.63057
1.60377
1.59704
1.6122
1.64731
1.68042
1.70332
1.72169
1.73617
1.74689
1.754
1.75758
1.75762
1.754
1.74657
1.73528
1.71954
1.69553
1.67334
1.67351
1.6971
1.74259
1.78629
1.81908
1.84678
1.87121
1.89274
1.91176
1.92859
1.94348
1.95665
1.96825
1.97844
1.98731
1.99496
2.00145
2.00686
2.01122
2.01457
2.01695
2.01837
2.01886
2.01842
2.01707
2.01479
2.01159
2.00745
2.00236
1.99629
1.98922
1.98111
1.97191
1.96158
1.95004
1.93722
1.92303
1.90735
1.89005
1.87095
1.84985
1.8265
1.80058
1.77167
1.73926
1.70271
1.6555
1.59194
1.52915
1.48185
1.45357
1.44447
1.45442
1.48306
1.52687
1.57182
1.6034
1.62611
1.64429
1.65836
1.66875
1.67577
1.67966
1.68057
1.67856
1.67362
1.66566
1.65451
1.63997
1.62186
1.6
1.56802
1.53325
1.51523
1.51833
1.53818
1.55757
1.56809
1.57463
1.57668
1.5741
1.56703
1.55599
1.53601
1.51545
1.51154
1.52879
1.56273
1.59414
1.61561
1.63345
1.64784
1.65898
1.66711
1.67241
1.67504
1.71334
1.71028
1.70428
1.69572
1.68545
1.67436
1.65995
1.65488
1.66842
1.68999
1.70736
1.72366
1.7382
1.75028
1.75963
1.76616
1.76987
1.77077
1.76891
1.76441
1.75768
1.74967
1.74107
1.73055
1.73205
1.75456
1.78549
1.81185
1.83683
1.86038
1.88198
1.90154
1.91914
1.93491
1.94902
1.96158
1.97271
1.98252
1.99109
1.99849
2.0048
2.01004
2.01428
2.01753
2.01984
2.02121
2.02166
2.02121
2.01985
2.01759
2.01442
2.01034
2.00532
1.99934
1.99238
1.98441
1.97539
1.96526
1.95398
1.94147
1.92765
1.91243
1.8957
1.87732
1.85714
1.83498
1.81064
1.78389
1.75453
1.72247
1.68801
1.64558
1.59467
1.54608
1.51741
1.5082
1.51826
1.54802
1.58053
1.6068
1.62684
1.64455
1.65934
1.67112
1.67997
1.68599
1.68931
1.69
1.68811
1.68365
1.67661
1.66698
1.65479
1.64023
1.62386
1.60671
1.58544
1.57002
1.57093
1.57986
1.58589
1.59148
1.59525
1.59638
1.59464
1.59026
1.58405
1.57738
1.56776
1.56599
1.58055
1.6011
1.61773
1.63367
1.6479
1.65986
1.66938
1.67647
1.68115
1.68348
1.73136
1.72922
1.72515
1.71959
1.71341
1.70802
1.7054
1.70545
1.71268
1.72198
1.73359
1.74575
1.75718
1.76712
1.77517
1.78114
1.78498
1.7867
1.78644
1.78448
1.78137
1.7781
1.77631
1.77814
1.78405
1.799
1.81618
1.8357
1.85602
1.87593
1.89479
1.91229
1.92833
1.94292
1.9561
1.96793
1.97848
1.98783
1.99603
2.00313
2.00919
2.01424
2.01832
2.02145
2.02366
2.02496
2.02537
2.0249
2.02354
2.0213
2.01818
2.01416
2.00923
2.00337
1.99656
1.98877
1.97996
1.9701
1.95914
1.94702
1.93367
1.91902
1.90299
1.88548
1.8664
1.84564
1.8231
1.79872
1.7725
1.74464
1.71564
1.68649
1.65548
1.62239
1.59744
1.58818
1.59395
1.60935
1.62433
1.63836
1.65263
1.66588
1.6774
1.68682
1.69401
1.69892
1.70158
1.702
1.70022
1.69625
1.69016
1.68202
1.67199
1.66041
1.64792
1.63563
1.62515
1.61653
1.6131
1.61239
1.61422
1.61669
1.6185
1.61895
1.61781
1.61531
1.61215
1.60958
1.60951
1.61214
1.61995
1.62976
1.64147
1.65345
1.6646
1.6743
1.68223
1.68823
1.69225
1.69426
1.75151
1.75011
1.7475
1.74409
1.74056
1.73787
1.73713
1.73915
1.74362
1.7506
1.75926
1.76857
1.77764
1.78584
1.79279
1.79826
1.80219
1.8046
1.80567
1.80569
1.80521
1.80504
1.80629
1.81028
1.818
1.82892
1.84283
1.85875
1.87561
1.89254
1.90895
1.92449
1.93898
1.95233
1.96452
1.97556
1.98547
1.99429
2.00207
2.00882
2.01459
2.01941
2.0233
2.02629
2.02838
2.02961
2.02996
2.02947
2.02811
2.0259
2.02283
2.01889
2.01407
2.00835
2.00172
1.99414
1.9856
1.97605
1.96546
1.95379
1.94098
1.92699
1.91176
1.89523
1.87735
1.85808
1.83741
1.81537
1.79212
1.76795
1.74341
1.7194
1.69722
1.67816
1.66208
1.65324
1.65193
1.65436
1.6608
1.66967
1.67942
1.68896
1.69755
1.70475
1.71032
1.71412
1.71608
1.71621
1.7145
1.71099
1.70576
1.69893
1.69072
1.68149
1.67179
1.66239
1.65423
1.64802
1.64385
1.64203
1.64192
1.64255
1.64311
1.6431
1.64235
1.64104
1.63964
1.63896
1.63998
1.64332
1.64875
1.6562
1.66493
1.67405
1.68276
1.69053
1.697
1.70198
1.70534
1.70704
1.77307
1.77221
1.77064
1.7687
1.76687
1.76577
1.76604
1.76811
1.77198
1.77753
1.78429
1.79163
1.79897
1.80583
1.81188
1.81693
1.82091
1.82386
1.82593
1.82741
1.82875
1.83054
1.83354
1.83849
1.84587
1.85561
1.86747
1.88086
1.89513
1.90966
1.92398
1.93775
1.95077
1.9629
1.97409
1.98431
1.99354
2.00181
2.00912
2.01549
2.02095
2.02551
2.02919
2.03201
2.03398
2.03512
2.03542
2.03489
2.03354
2.03136
2.02835
2.0245
2.0198
2.01425
2.00781
2.00048
1.99223
1.98303
1.97287
1.96169
1.94948
1.9362
1.92183
1.90632
1.88968
1.87192
1.85307
1.83325
1.81266
1.79162
1.77066
1.75048
1.73199
1.71616
1.70382
1.6956
1.69169
1.69169
1.69484
1.70011
1.70644
1.71298
1.71908
1.72432
1.7284
1.73113
1.73243
1.73225
1.73058
1.72745
1.72296
1.71723
1.71048
1.70304
1.69534
1.68792
1.68134
1.67606
1.67225
1.66996
1.66887
1.66847
1.66829
1.66799
1.66747
1.66683
1.6664
1.66666
1.6681
1.67107
1.67554
1.68133
1.68802
1.69505
1.70186
1.70804
1.71327
1.71734
1.72011
1.72151
1.79549
1.79501
1.79416
1.79319
1.79244
1.7923
1.79316
1.79527
1.79867
1.80325
1.80872
1.8147
1.82078
1.82662
1.83197
1.83667
1.84066
1.84399
1.84678
1.84928
1.85182
1.85485
1.85884
1.86425
1.87137
1.8802
1.89056
1.9021
1.9144
1.927
1.93955
1.95176
1.96343
1.97442
1.98464
1.99404
2.00259
2.01027
2.0171
2.02307
2.0282
2.03248
2.03594
2.03859
2.04042
2.04146
2.04169
2.04114
2.03979
2.03764
2.0347
2.03095
2.0264
2.02102
2.0148
2.00774
1.99981
1.99099
1.98127
1.97063
1.95905
1.94652
1.93301
1.91855
1.90314
1.88683
1.86971
1.8519
1.83364
1.81523
1.79711
1.77986
1.7641
1.75052
1.73966
1.73192
1.7274
1.72585
1.72677
1.72948
1.73324
1.73742
1.74149
1.74505
1.74781
1.74959
1.75027
1.74978
1.7481
1.74528
1.74138
1.73654
1.73094
1.72486
1.71861
1.71259
1.70716
1.70263
1.69913
1.69669
1.69513
1.69419
1.69358
1.6931
1.6927
1.69243
1.69249
1.69316
1.69471
1.69732
1.70098
1.70557
1.71078
1.71625
1.7216
1.7265
1.73069
1.73399
1.73625
1.73739
1.81839
1.81817
1.8178
1.81747
1.81739
1.81783
1.81903
1.82113
1.82417
1.82807
1.83266
1.83767
1.84283
1.8479
1.8527
1.85711
1.86109
1.86465
1.86793
1.8711
1.87441
1.87818
1.88272
1.88832
1.89516
1.90324
1.91247
1.9226
1.93334
1.94439
1.95546
1.96632
1.97678
1.98671
1.99601
2.00462
2.01249
2.0196
2.02594
2.0315
2.03628
2.04028
2.04351
2.04597
2.04766
2.04859
2.04876
2.04818
2.04683
2.04473
2.04186
2.03822
2.03381
2.02862
2.02264
2.01586
2.00827
1.99985
1.9906
1.98051
1.96958
1.95779
1.94517
1.93172
1.9175
1.90256
1.88702
1.87101
1.85476
1.83854
1.82272
1.80773
1.79405
1.78214
1.77238
1.76503
1.76014
1.75755
1.75692
1.75778
1.75963
1.76198
1.7644
1.76657
1.76821
1.76915
1.76927
1.76848
1.76678
1.76418
1.76075
1.7566
1.75189
1.74683
1.74166
1.73666
1.73209
1.72816
1.72496
1.72253
1.72078
1.71957
1.71872
1.71815
1.71779
1.71769
1.71796
1.71877
1.72025
1.72251
1.72552
1.72917
1.73328
1.73757
1.74179
1.74567
1.74902
1.75167
1.75349
1.75442
1.84152
1.84146
1.84141
1.84149
1.84183
1.84261
1.84399
1.84604
1.84881
1.85222
1.85617
1.86047
1.86496
1.86946
1.87383
1.87799
1.88191
1.88561
1.88919
1.89277
1.89655
1.90073
1.90554
1.91116
1.91769
1.92515
1.93347
1.94248
1.95199
1.96176
1.97158
1.98127
1.99065
1.99962
2.00807
2.01593
2.02315
2.0297
2.03556
2.04071
2.04514
2.04886
2.05185
2.05412
2.05566
2.05649
2.05659
2.05597
2.05463
2.05257
2.04978
2.04626
2.04201
2.03702
2.03128
2.0248
2.01755
2.00955
2.00078
1.99124
1.98095
1.9699
1.95813
1.94567
1.93257
1.91891
1.90479
1.89037
1.87584
1.86145
1.84749
1.83429
1.82222
1.8116
1.8027
1.79568
1.79058
1.78729
1.78557
1.78511
1.78552
1.78646
1.78758
1.7886
1.78931
1.78954
1.78916
1.78811
1.78636
1.78392
1.78084
1.77723
1.77319
1.7689
1.76454
1.76031
1.75639
1.75294
1.75003
1.74769
1.7459
1.74457
1.74361
1.74297
1.74261
1.74257
1.74291
1.7437
1.74503
1.74694
1.7494
1.75233
1.75558
1.75897
1.7623
1.76538
1.76805
1.77016
1.77163
1.77238
1.8647
1.86475
1.86491
1.86523
1.86583
1.86681
1.86826
1.87025
1.87279
1.87584
1.87931
1.8831
1.88708
1.89114
1.89516
1.89911
1.90295
1.9067
1.91043
1.91424
1.91827
1.92266
1.92755
1.93307
1.93929
1.94621
1.95377
1.96187
1.97036
1.97907
1.98784
1.99651
2.00495
2.01305
2.02071
2.02788
2.03448
2.0405
2.04589
2.05064
2.05473
2.05815
2.06091
2.06298
2.06438
2.0651
2.06514
2.06449
2.06316
2.06114
2.05843
2.05504
2.05095
2.04616
2.04067
2.03448
2.02759
2.02
2.01171
2.00273
1.99307
1.98274
1.9718
1.96026
1.9482
1.9357
1.92286
1.90983
1.89678
1.88392
1.87149
1.85974
1.84895
1.83934
1.83112
1.8244
1.81921
1.81545
1.81297
1.81154
1.81089
1.81074
1.81084
1.81096
1.8109
1.81052
1.80972
1.80843
1.80662
1.80429
1.80148
1.79827
1.79474
1.79104
1.78729
1.78364
1.78023
1.77717
1.77452
1.77232
1.77055
1.76919
1.76818
1.7675
1.76713
1.76708
1.76739
1.76809
1.76923
1.77082
1.77282
1.77517
1.77775
1.78043
1.78307
1.78551
1.78763
1.78931
1.79048
1.79108
1.88782
1.88795
1.88822
1.8887
1.88944
1.89052
1.892
1.89391
1.89626
1.89902
1.90214
1.90554
1.90913
1.91284
1.91658
1.92033
1.92407
1.92781
1.93159
1.93551
1.93963
1.94408
1.94894
1.9543
1.96019
1.96661
1.97353
1.98087
1.98851
1.99633
2.00419
2.01199
2.01959
2.02691
2.03386
2.04038
2.04641
2.05191
2.05686
2.06122
2.06498
2.06812
2.07064
2.07253
2.07378
2.07439
2.07436
2.07369
2.07237
2.0704
2.06778
2.0645
2.06058
2.056
2.05076
2.04488
2.03834
2.03116
2.02334
2.01489
2.00584
1.99621
1.98604
1.97537
1.96428
1.95283
1.94113
1.92932
1.91754
1.90597
1.8948
1.88423
1.87448
1.8657
1.85805
1.85161
1.84639
1.84233
1.83933
1.8372
1.83576
1.83479
1.83409
1.83348
1.83281
1.83194
1.83078
1.82928
1.82739
1.82513
1.82252
1.81961
1.81648
1.81322
1.80993
1.80674
1.80372
1.80098
1.79856
1.7965
1.7948
1.79345
1.79243
1.79173
1.79132
1.79123
1.79147
1.79205
1.79299
1.79428
1.79589
1.79777
1.79982
1.80194
1.80402
1.80596
1.80764
1.80898
1.80991
1.81038
1.91083
1.91099
1.91133
1.9119
1.91272
1.91384
1.9153
1.91713
1.91932
1.92185
1.92469
1.92779
1.93107
1.93449
1.938
1.94157
1.94519
1.94886
1.95263
1.95655
1.96068
1.96508
1.96984
1.97498
1.98054
1.98652
1.99288
1.99956
2.00648
2.01353
2.02062
2.02765
2.03451
2.04114
2.04744
2.05337
2.05886
2.06389
2.06841
2.0724
2.07584
2.07871
2.081
2.08271
2.08382
2.08433
2.08424
2.08354
2.08223
2.08031
2.07777
2.07462
2.07086
2.06649
2.06151
2.05592
2.04973
2.04294
2.03558
2.02766
2.0192
2.01022
2.00078
1.99092
1.9807
1.9702
1.95952
1.94877
1.93809
1.92761
1.9175
1.90792
1.89902
1.89094
1.88377
1.87759
1.8724
1.86817
1.8648
1.86218
1.86015
1.85856
1.85725
1.85607
1.8549
1.85363
1.85218
1.8505
1.84855
1.84633
1.84386
1.84118
1.83834
1.83542
1.83249
1.82964
1.82694
1.82446
1.82224
1.82032
1.8187
1.81739
1.81637
1.81564
1.81521
1.81506
1.8152
1.81565
1.81639
1.81742
1.8187
1.82019
1.82181
1.82348
1.82513
1.82666
1.82799
1.82905
1.82978
1.83016
1.93366
1.93385
1.93423
1.93484
1.93569
1.93682
1.93824
1.93998
1.94203
1.94438
1.94699
1.94984
1.95287
1.95606
1.95936
1.96276
1.96624
1.96982
1.97353
1.97738
1.98144
1.98574
1.99034
1.99524
2.00049
2.00605
2.01192
2.01802
2.02431
2.0307
2.03712
2.04347
2.04968
2.05568
2.0614
2.06678
2.07179
2.07637
2.08049
2.08413
2.08726
2.08988
2.09195
2.09348
2.09446
2.09487
2.09472
2.09399
2.0927
2.09082
2.08838
2.08535
2.08176
2.07759
2.07285
2.06756
2.06171
2.05531
2.04839
2.04097
2.03306
2.0247
2.01594
2.00681
1.9974
1.98775
1.97797
1.96816
1.95842
1.94889
1.93968
1.93092
1.92275
1.91525
1.90851
1.90258
1.89746
1.89313
1.88953
1.88655
1.8841
1.88205
1.88027
1.87866
1.8771
1.87551
1.87382
1.87198
1.86997
1.86778
1.86541
1.8629
1.86029
1.85763
1.85498
1.8524
1.84995
1.84768
1.84563
1.84383
1.84229
1.84102
1.84001
1.83927
1.8388
1.83858
1.83863
1.83894
1.8395
1.8403
1.8413
1.84247
1.84374
1.84506
1.84635
1.84755
1.8486
1.84944
1.85002
1.85032
1.95631
1.95651
1.95691
1.95753
1.95838
1.95949
1.96087
1.96252
1.96445
1.96663
1.96906
1.9717
1.97452
1.9775
1.98062
1.98385
1.9872
1.99066
1.99426
1.99802
2.00196
2.00611
2.01052
2.01518
2.0201
2.02529
2.0307
2.0363
2.04204
2.04785
2.05367
2.05943
2.06506
2.0705
2.07569
2.08058
2.08513
2.0893
2.09305
2.09636
2.09921
2.10158
2.10345
2.10481
2.10566
2.10598
2.10577
2.10502
2.10374
2.10192
2.09956
2.09666
2.09322
2.08926
2.08476
2.07975
2.07423
2.06821
2.06171
2.05476
2.04737
2.03959
2.03145
2.02301
2.01432
2.00544
1.99646
1.98747
1.97856
1.96983
1.96139
1.95335
1.94579
1.9388
1.93244
1.92675
1.92174
1.91737
1.91362
1.91041
1.90765
1.90526
1.90314
1.90118
1.89932
1.89748
1.8956
1.89364
1.89157
1.88939
1.8871
1.88472
1.88228
1.87982
1.87739
1.87502
1.87277
1.87068
1.86878
1.86708
1.86562
1.86439
1.86339
1.86264
1.86213
1.86185
1.8618
1.86199
1.86238
1.86298
1.86375
1.86464
1.86563
1.86666
1.86767
1.86861
1.86943
1.87008
1.87054
1.87077
1.97876
1.97896
1.97936
1.97998
1.98082
1.9819
1.98322
1.98479
1.9866
1.98864
1.99091
1.99337
1.99602
1.99882
2.00176
2.00484
2.00804
2.01137
2.01484
2.01846
2.02226
2.02624
2.03043
2.03484
2.03946
2.04429
2.04929
2.05444
2.05969
2.06499
2.07029
2.07552
2.08063
2.08557
2.09028
2.09473
2.09886
2.10265
2.10606
2.10906
2.11164
2.11378
2.11545
2.11666
2.11738
2.11761
2.11735
2.11659
2.11532
2.11355
2.11128
2.1085
2.10522
2.10145
2.09719
2.09245
2.08724
2.08158
2.07548
2.06897
2.06208
2.05483
2.04727
2.03945
2.03142
2.02323
2.01497
2.0067
1.99851
1.99049
1.98272
1.97529
1.96827
1.96172
1.95571
1.95025
1.94535
1.94101
1.93717
1.93381
1.93084
1.92821
1.92582
1.92362
1.92153
1.91949
1.91746
1.9154
1.91329
1.91112
1.90889
1.9066
1.9043
1.90199
1.89972
1.89753
1.89544
1.89349
1.89171
1.89011
1.8887
1.88751
1.88653
1.88577
1.88522
1.88488
1.88475
1.88481
1.88507
1.88549
1.88605
1.88673
1.88748
1.88827
1.88905
1.88978
1.89041
1.89092
1.89128
1.89146
2.00101
2.00121
2.00161
2.00221
2.00303
2.00407
2.00533
2.00681
2.00851
2.01043
2.01256
2.01487
2.01735
2.01999
2.02277
2.0257
2.02875
2.03193
2.03526
2.03873
2.04236
2.04616
2.05014
2.05429
2.05862
2.06311
2.06774
2.07248
2.07729
2.08213
2.08696
2.09172
2.09637
2.10086
2.10514
2.10918
2.11293
2.11637
2.11946
2.12218
2.12451
2.12643
2.12793
2.12898
2.12959
2.12974
2.12943
2.12865
2.12741
2.12569
2.1235
2.12084
2.11772
2.11413
2.1101
2.10562
2.10071
2.09538
2.08967
2.08357
2.07714
2.07039
2.06336
2.0561
2.04867
2.0411
2.03347
2.02585
2.0183
2.01089
2.00371
1.99681
1.99026
1.98412
1.97841
1.97318
1.96842
1.96412
1.96026
1.95681
1.9537
1.9509
1.94833
1.94594
1.94368
1.9415
1.93935
1.93722
1.93507
1.9329
1.93071
1.92851
1.9263
1.92412
1.92199
1.91993
1.91797
1.91614
1.91445
1.91293
1.91158
1.91042
1.90945
1.90868
1.90809
1.9077
1.90749
1.90745
1.90758
1.90785
1.90825
1.90874
1.9093
1.90989
1.91048
1.91104
1.91153
1.91192
1.91219
1.91233
2.02306
2.02325
2.02364
2.02423
2.02501
2.02601
2.0272
2.02861
2.03022
2.03202
2.03402
2.03619
2.03852
2.04101
2.04365
2.04642
2.04932
2.05236
2.05553
2.05884
2.0623
2.0659
2.06966
2.07356
2.07761
2.08179
2.08607
2.09044
2.09486
2.09929
2.1037
2.10804
2.11227
2.11635
2.12025
2.12391
2.12732
2.13044
2.13324
2.1357
2.13779
2.13951
2.14084
2.14176
2.14226
2.14233
2.14198
2.14119
2.13996
2.13829
2.13619
2.13364
2.13067
2.12726
2.12344
2.11921
2.11459
2.10959
2.10422
2.09852
2.09251
2.08621
2.07968
2.07294
2.06604
2.05903
2.05197
2.04492
2.03793
2.03108
2.02441
2.01798
2.01185
2.00607
2.00065
1.99564
1.99102
1.98679
1.98295
1.97945
1.97626
1.97335
1.97065
1.96813
1.96575
1.96346
1.96124
1.95905
1.95687
1.95471
1.95256
1.95041
1.94829
1.94621
1.94418
1.94223
1.94037
1.93863
1.93703
1.93557
1.93428
1.93314
1.93218
1.9314
1.93078
1.93034
1.93006
1.92993
1.92994
1.93009
1.93034
1.93068
1.93108
1.93151
1.93195
1.93237
1.93273
1.93303
1.93324
1.93335
2.04492
2.04511
2.04548
2.04604
2.04679
2.04774
2.04888
2.0502
2.05172
2.05342
2.0553
2.05734
2.05954
2.06189
2.06438
2.06701
2.06977
2.07265
2.07567
2.07881
2.08209
2.08549
2.08903
2.09269
2.09647
2.10036
2.10433
2.10835
2.11242
2.11648
2.12051
2.12447
2.12832
2.13204
2.13558
2.13891
2.142
2.14482
2.14735
2.14957
2.15145
2.15299
2.15415
2.15494
2.15535
2.15536
2.15496
2.15416
2.15295
2.15134
2.14931
2.14688
2.14404
2.14081
2.1372
2.13321
2.12885
2.12415
2.11911
2.11378
2.10816
2.10229
2.0962
2.08993
2.08352
2.07702
2.07047
2.06393
2.05744
2.05107
2.04486
2.03886
2.03311
2.02765
2.0225
2.01769
2.01322
2.00909
2.00528
2.00178
1.99856
1.99557
1.9928
1.99019
1.98773
1.98536
1.98308
1.98085
1.97867
1.97651
1.97439
1.97229
1.97024
1.96823
1.96629
1.96443
1.96266
1.961
1.95946
1.95806
1.9568
1.95569
1.95474
1.95394
1.9533
1.95281
1.95247
1.95226
1.95218
1.95222
1.95235
1.95256
1.95283
1.95313
1.95344
1.95374
1.95401
1.95423
1.95438
1.95446
2.06659
2.06677
2.06713
2.06766
2.06838
2.06928
2.07035
2.07161
2.07304
2.07464
2.07641
2.07834
2.08041
2.08263
2.08498
2.08747
2.09008
2.09281
2.09567
2.09865
2.10174
2.10495
2.10828
2.11171
2.11523
2.11884
2.12252
2.12623
2.12997
2.1337
2.13738
2.141
2.14452
2.1479
2.15111
2.15414
2.15694
2.1595
2.16178
2.16378
2.16546
2.16682
2.16785
2.16852
2.16883
2.16878
2.16835
2.16754
2.16636
2.16479
2.16284
2.16051
2.15782
2.15475
2.15133
2.14756
2.14346
2.13903
2.13431
2.12931
2.12406
2.11857
2.1129
2.10706
2.10109
2.09505
2.08896
2.08288
2.07684
2.0709
2.0651
2.05948
2.05407
2.0489
2.04401
2.0394
2.03508
2.03106
2.02731
2.02384
2.0206
2.01759
2.01477
2.01211
2.00959
2.00718
2.00486
2.00262
2.00042
1.99828
1.99618
1.99413
1.99213
1.99019
1.98832
1.98653
1.98483
1.98324
1.98176
1.9804
1.97917
1.97809
1.97714
1.97633
1.97566
1.97514
1.97474
1.97446
1.97431
1.97425
1.97428
1.97438
1.97454
1.97473
1.97494
1.97515
1.97534
1.97549
1.9756
1.97566
2.08808
2.08825
2.08859
2.0891
2.08978
2.09063
2.09165
2.09284
2.09419
2.0957
2.09737
2.09918
2.10114
2.10323
2.10545
2.1078
2.11027
2.11285
2.11555
2.11836
2.12128
2.1243
2.12742
2.13062
2.13391
2.13726
2.14066
2.14409
2.14753
2.15095
2.15433
2.15763
2.16084
2.16392
2.16685
2.16959
2.17213
2.17444
2.1765
2.17829
2.1798
2.181
2.18189
2.18246
2.18269
2.18257
2.18211
2.1813
2.18014
2.17862
2.17674
2.17452
2.17195
2.16904
2.16581
2.16225
2.15838
2.15422
2.14979
2.1451
2.14018
2.13506
2.12976
2.12431
2.11875
2.11312
2.10744
2.10177
2.09614
2.09059
2.08516
2.07988
2.07478
2.06989
2.06524
2.06082
2.05666
2.05274
2.04908
2.04564
2.04243
2.03942
2.03658
2.0339
2.03135
2.02892
2.02658
2.02432
2.02213
2.02
2.01793
2.01592
2.01397
2.01209
2.01027
2.00854
2.0069
2.00536
2.00393
2.00261
2.00141
2.00034
1.99939
1.99858
1.99789
1.99733
1.99688
1.99655
1.99633
1.99619
1.99614
1.99615
1.99622
1.99632
1.99644
1.99657
1.9967
1.9968
1.99687
1.99691
2.1094
2.10956
2.10989
2.11037
2.11102
2.11182
2.11278
2.11391
2.11518
2.1166
2.11817
2.11988
2.12172
2.1237
2.12579
2.12801
2.13034
2.13278
2.13532
2.13797
2.14071
2.14355
2.14646
2.14946
2.15252
2.15563
2.15878
2.16194
2.16511
2.16825
2.17134
2.17436
2.17729
2.1801
2.18276
2.18525
2.18755
2.18963
2.19149
2.19309
2.19443
2.19549
2.19626
2.19672
2.19688
2.19672
2.19623
2.19542
2.19427
2.1928
2.191
2.18887
2.18643
2.18367
2.1806
2.17724
2.1736
2.16968
2.16552
2.16112
2.15651
2.15172
2.14676
2.14167
2.13648
2.13122
2.12593
2.12063
2.11536
2.11017
2.10507
2.1001
2.09529
2.09065
2.08622
2.08199
2.07798
2.07418
2.07061
2.06723
2.06406
2.06106
2.05823
2.05555
2.05299
2.05055
2.04821
2.04596
2.04378
2.04167
2.03963
2.03765
2.03574
2.0339
2.03214
2.03046
2.02887
2.02737
2.02598
2.02469
2.02352
2.02246
2.02152
2.0207
2.01999
2.0194
2.01892
2.01854
2.01825
2.01805
2.01793
2.01787
2.01786
2.01788
2.01794
2.018
2.01807
2.01813
2.01818
2.0182
2.13056
2.13071
2.13102
2.13148
2.13209
2.13285
2.13376
2.13482
2.13602
2.13736
2.13884
2.14045
2.14218
2.14404
2.14602
2.1481
2.1503
2.1526
2.15499
2.15748
2.16005
2.16271
2.16544
2.16823
2.17107
2.17396
2.17687
2.17979
2.18271
2.18559
2.18843
2.19119
2.19386
2.19642
2.19883
2.20109
2.20317
2.20506
2.20672
2.20816
2.20934
2.21027
2.21093
2.2113
2.21139
2.21118
2.21067
2.20986
2.20874
2.20731
2.20558
2.20355
2.20122
2.1986
2.19569
2.19252
2.18908
2.18539
2.18148
2.17735
2.17303
2.16854
2.1639
2.15914
2.15428
2.14936
2.14441
2.13945
2.13452
2.12964
2.12485
2.12016
2.11561
2.11122
2.10699
2.10294
2.09908
2.09541
2.09193
2.08863
2.0855
2.08254
2.07974
2.07707
2.07452
2.07209
2.06976
2.06751
2.06535
2.06327
2.06125
2.05931
2.05744
2.05564
2.05393
2.05229
2.05074
2.04928
2.04792
2.04667
2.04551
2.04447
2.04353
2.0427
2.04198
2.04136
2.04085
2.04042
2.04009
2.03984
2.03965
2.03953
2.03946
2.03942
2.03942
2.03943
2.03946
2.03948
2.0395
2.03951
2.15157
2.15171
2.152
2.15243
2.15301
2.15373
2.15458
2.15558
2.15671
2.15798
2.15937
2.16088
2.16252
2.16427
2.16613
2.16809
2.17016
2.17232
2.17457
2.1769
2.17931
2.1818
2.18434
2.18694
2.18959
2.19226
2.19496
2.19765
2.20033
2.20298
2.20558
2.20811
2.21055
2.21287
2.21507
2.21712
2.219
2.22069
2.22219
2.22347
2.22451
2.22532
2.22588
2.22617
2.2262
2.22595
2.22542
2.2246
2.22351
2.22212
2.22046
2.21852
2.2163
2.21381
2.21106
2.20805
2.20481
2.20134
2.19765
2.19377
2.18972
2.1855
2.18115
2.17669
2.17214
2.16754
2.16289
2.15824
2.15361
2.14903
2.14452
2.14009
2.13579
2.13161
2.12758
2.1237
2.11999
2.11644
2.11306
2.10984
2.10678
2.10387
2.1011
2.09846
2.09594
2.09352
2.09121
2.08899
2.08685
2.08479
2.08281
2.0809
2.07906
2.07731
2.07563
2.07403
2.07252
2.0711
2.06977
2.06853
2.0674
2.06636
2.06543
2.0646
2.06386
2.06322
2.06268
2.06222
2.06185
2.06155
2.06131
2.06114
2.06102
2.06093
2.06088
2.06085
2.06084
2.06083
2.06084
2.06084
2.17243
2.17256
2.17284
2.17324
2.17379
2.17446
2.17527
2.17621
2.17728
2.17846
2.17977
2.1812
2.18274
2.18438
2.18613
2.18798
2.18992
2.19195
2.19406
2.19624
2.1985
2.20082
2.20319
2.20561
2.20807
2.21055
2.21304
2.21553
2.21799
2.22043
2.22281
2.22512
2.22734
2.22946
2.23146
2.23331
2.23501
2.23653
2.23787
2.23901
2.23993
2.24062
2.24109
2.24131
2.24128
2.24099
2.24044
2.23963
2.23856
2.23722
2.23562
2.23376
2.23164
2.22928
2.22667
2.22383
2.22076
2.21749
2.21402
2.21037
2.20656
2.2026
2.19852
2.19433
2.19007
2.18574
2.18139
2.17702
2.17267
2.16835
2.16409
2.15991
2.15583
2.15186
2.14801
2.1443
2.14073
2.13731
2.13403
2.1309
2.12791
2.12506
2.12234
2.11973
2.11724
2.11486
2.11257
2.11038
2.10827
2.10624
2.10428
2.10241
2.10061
2.09889
2.09725
2.09569
2.09421
2.09282
2.09151
2.0903
2.08918
2.08816
2.08723
2.08639
2.08565
2.08499
2.08442
2.08394
2.08353
2.08319
2.08292
2.0827
2.08253
2.08241
2.08232
2.08225
2.08221
2.08218
2.08217
2.08216
2.19315
2.19328
2.19353
2.19392
2.19443
2.19507
2.19583
2.19671
2.19771
2.19883
2.20006
2.2014
2.20285
2.20439
2.20604
2.20777
2.20959
2.21149
2.21347
2.21551
2.21762
2.21979
2.222
2.22425
2.22653
2.22882
2.23112
2.23342
2.23569
2.23792
2.2401
2.24221
2.24424
2.24617
2.24798
2.24966
2.25119
2.25256
2.25375
2.25476
2.25556
2.25616
2.25654
2.25669
2.25661
2.25629
2.25573
2.25493
2.25388
2.25258
2.25104
2.24926
2.24724
2.24499
2.24251
2.23983
2.23693
2.23384
2.23057
2.22713
2.22355
2.21982
2.21599
2.21206
2.20805
2.20398
2.19989
2.19578
2.19168
2.18761
2.18358
2.17963
2.17575
2.17198
2.16831
2.16475
2.16133
2.15803
2.15486
2.15182
2.14891
2.14612
2.14345
2.14089
2.13845
2.1361
2.13384
2.13168
2.1296
2.1276
2.12569
2.12384
2.12208
2.12039
2.11879
2.11726
2.11581
2.11445
2.11317
2.11198
2.11087
2.10986
2.10893
2.10809
2.10734
2.10667
2.10609
2.10558
2.10514
2.10477
2.10446
2.10421
2.10401
2.10385
2.10372
2.10363
2.10356
2.10352
2.10349
2.10348
2.21374
2.21386
2.2141
2.21447
2.21495
2.21555
2.21626
2.21709
2.21804
2.21909
2.22024
2.2215
2.22286
2.22431
2.22585
2.22748
2.22918
2.23096
2.23281
2.23472
2.23669
2.23871
2.24076
2.24285
2.24497
2.24709
2.24921
2.25133
2.25342
2.25547
2.25746
2.25939
2.26124
2.263
2.26464
2.26615
2.26753
2.26876
2.26982
2.27071
2.27141
2.27191
2.27222
2.27231
2.27218
2.27184
2.27126
2.27046
2.26944
2.26818
2.2667
2.26499
2.26307
2.26092
2.25858
2.25603
2.25329
2.25037
2.24728
2.24404
2.24067
2.23716
2.23355
2.22985
2.22608
2.22226
2.2184
2.21453
2.21066
2.20682
2.20301
2.19926
2.19558
2.19199
2.18848
2.18508
2.18179
2.17861
2.17555
2.17261
2.16978
2.16706
2.16445
2.16195
2.15954
2.15724
2.15502
2.1529
2.15085
2.14889
2.14701
2.1452
2.14347
2.14182
2.14024
2.13874
2.13733
2.13599
2.13473
2.13356
2.13247
2.13147
2.13055
2.12971
2.12895
2.12827
2.12767
2.12714
2.12668
2.12629
2.12595
2.12567
2.12544
2.12525
2.1251
2.12499
2.1249
2.12484
2.1248
2.12478
2.23421
2.23432
2.23455
2.23489
2.23535
2.23591
2.23658
2.23736
2.23825
2.23923
2.24032
2.2415
2.24277
2.24413
2.24558
2.2471
2.2487
2.25036
2.25209
2.25387
2.25571
2.25758
2.2595
2.26144
2.26339
2.26536
2.26732
2.26926
2.27118
2.27306
2.27489
2.27665
2.27834
2.27993
2.28142
2.28279
2.28403
2.28512
2.28606
2.28684
2.28745
2.28787
2.2881
2.28814
2.28798
2.2876
2.28702
2.28623
2.28523
2.28401
2.28258
2.28095
2.27911
2.27707
2.27484
2.27242
2.26983
2.26707
2.26415
2.26109
2.25791
2.25461
2.2512
2.24772
2.24417
2.24056
2.23693
2.23327
2.22962
2.22599
2.22238
2.21883
2.21533
2.21191
2.20856
2.2053
2.20215
2.19909
2.19613
2.19328
2.19053
2.18789
2.18534
2.1829
2.18055
2.17829
2.17612
2.17403
2.17203
2.1701
2.16825
2.16648
2.16479
2.16317
2.16162
2.16015
2.15876
2.15745
2.15622
2.15506
2.15399
2.15299
2.15208
2.15124
2.15048
2.14979
2.14918
2.14864
2.14816
2.14775
2.14739
2.14708
2.14683
2.14662
2.14644
2.14631
2.1462
2.14613
2.14608
2.14606
2.25457
2.25467
2.25489
2.25521
2.25563
2.25616
2.25679
2.25753
2.25836
2.25928
2.2603
2.26141
2.2626
2.26387
2.26522
2.26665
2.26814
2.2697
2.27131
2.27297
2.27468
2.27643
2.2782
2.28
2.28181
2.28362
2.28543
2.28722
2.28899
2.29071
2.29238
2.29399
2.29552
2.29697
2.29832
2.29955
2.30066
2.30164
2.30247
2.30315
2.30367
2.30402
2.30419
2.30417
2.30397
2.30358
2.30299
2.30221
2.30123
2.30005
2.29867
2.2971
2.29534
2.2934
2.29128
2.28899
2.28653
2.28392
2.28116
2.27827
2.27527
2.27215
2.26894
2.26565
2.2623
2.2589
2.25547
2.25202
2.24857
2.24512
2.24171
2.23833
2.23501
2.23174
2.22855
2.22543
2.2224
2.21945
2.2166
2.21384
2.21118
2.20861
2.20614
2.20375
2.20146
2.19925
2.19712
2.19508
2.19312
2.19123
2.18942
2.18768
2.18602
2.18443
2.18292
2.18148
2.18012
2.17883
2.17762
2.17648
2.17542
2.17444
2.17353
2.17269
2.17193
2.17124
2.17062
2.17007
2.16958
2.16914
2.16877
2.16845
2.16817
2.16794
2.16775
2.1676
2.16748
2.1674
2.16734
2.16731
2.27481
2.27491
2.27511
2.27541
2.27581
2.27631
2.2769
2.27759
2.27837
2.27924
2.28019
2.28123
2.28234
2.28354
2.2848
2.28613
2.28752
2.28897
2.29048
2.29203
2.29362
2.29524
2.29688
2.29855
2.30022
2.3019
2.30356
2.30521
2.30683
2.30841
2.30994
2.3114
2.3128
2.31411
2.31532
2.31643
2.31743
2.3183
2.31903
2.31962
2.32006
2.32034
2.32045
2.32039
2.32016
2.31975
2.31916
2.31838
2.31742
2.31628
2.31495
2.31345
2.31177
2.30991
2.30789
2.30572
2.30338
2.30091
2.2983
2.29557
2.29273
2.28979
2.28675
2.28365
2.28048
2.27727
2.27403
2.27076
2.2675
2.26423
2.26099
2.25778
2.25462
2.2515
2.24845
2.24547
2.24256
2.23973
2.23698
2.23431
2.23174
2.22924
2.22684
2.22452
2.22228
2.22012
2.21805
2.21605
2.21413
2.21228
2.21051
2.20881
2.20718
2.20563
2.20415
2.20274
2.2014
2.20014
2.19894
2.19782
2.19678
2.19581
2.1949
2.19407
2.19331
2.19262
2.19199
2.19143
2.19093
2.19048
2.1901
2.18976
2.18947
2.18922
2.18902
2.18885
2.18873
2.18863
2.18857
2.18854
2.29496
2.29505
2.29524
2.29552
2.2959
2.29636
2.29692
2.29756
2.29829
2.2991
2.3
2.30097
2.30201
2.30312
2.30431
2.30555
2.30685
2.3082
2.3096
2.31104
2.31252
2.31402
2.31555
2.31709
2.31864
2.32018
2.32171
2.32323
2.32471
2.32616
2.32755
2.32889
2.33016
2.33134
2.33244
2.33343
2.33432
2.33509
2.33573
2.33624
2.33661
2.33682
2.33689
2.33679
2.33653
2.3361
2.33551
2.33474
2.3338
2.33269
2.33142
2.32997
2.32836
2.32659
2.32467
2.3226
2.32038
2.31804
2.31557
2.31298
2.31029
2.30751
2.30464
2.30171
2.29871
2.29568
2.29261
2.28951
2.28642
2.28332
2.28024
2.27719
2.27418
2.27121
2.26829
2.26543
2.26264
2.25992
2.25727
2.2547
2.2522
2.24979
2.24745
2.2452
2.24302
2.24092