/*--------------------------------*- C++ -*----------------------------------*\
| =========                 |                                                 |
| \\      /  F ield         | OpenFOAM: The Open Source CFD Toolbox           |
|  \\    /   O peration     | Version:  2406                                  |
|   \\  /    A nd           | Website:  www.openfoam.com                      |
|    \\/     M anipulation  |                                                 |
\*---------------------------------------------------------------------------*/
FoamFile
{
    version     2.0;
    format      ascii;
    arch        "LSB;label=32;scalar=64";
    class       volScalarField;
    location    "3.2";
    object      C;
}
// * * * * * * * * * * * * * * * * * * * * * * * * * * * * * * * * * * * * * //

dimensions      [1 -3 0 0 0 0 0];

internalField   nonuniform List<scalar> 
14400
(
0.660684
0.646314
0.624052
0.602875
0.585482
0.573204
0.566819
0.566778
0.573298
0.586374
0.605779
0.630994
0.661005
0.69343
0.717278
0.726705
0.727019
0.717134
0.694565
0.668111
0.646034
0.630371
0.622116
0.621917
0.630267
0.647558
0.674105
0.71012
0.755654
0.810384
0.872757
0.935283
0.979401
1.00906
1.03508
1.05803
1.07828
1.09614
1.11184
1.12557
1.13746
1.14764
1.1562
1.16322
1.16875
1.17283
1.17551
1.17681
1.17673
1.17529
1.17248
1.16828
1.16268
1.15564
1.14712
1.13706
1.12539
1.11202
1.09685
1.07975
1.06055
1.03905
1.015
0.988066
0.957851
0.921133
0.865406
0.793876
0.728235
0.671076
0.622821
0.583381
0.552496
0.529867
0.515207
0.508269
0.508852
0.516797
0.531976
0.554252
0.583412
0.618972
0.659576
0.700163
0.727418
0.741893
0.750779
0.75457
0.753427
0.747224
0.735408
0.71129
0.675876
0.641571
0.612047
0.588468
0.571218
0.560286
0.555367
0.555859
0.560776
0.56856
0.576763
0.581602
0.577153
0.569362
0.562038
0.557656
0.557799
0.563487
0.575358
0.593758
0.618746
0.649989
0.686345
0.724017
0.750056
0.763871
0.772598
0.776847
0.672595
0.661761
0.639617
0.617265
0.598855
0.585841
0.57901
0.578815
0.585471
0.598958
0.619031
0.645118
0.675967
0.707802
0.727432
0.735202
0.73585
0.728818
0.709312
0.682491
0.659607
0.64322
0.634436
0.63392
0.642179
0.659612
0.686527
0.723124
0.769437
0.825156
0.888709
0.945388
0.983666
1.01264
1.03817
1.06072
1.08068
1.0983
1.11382
1.1274
1.13917
1.14926
1.15775
1.1647
1.17019
1.17424
1.1769
1.17818
1.1781
1.17666
1.17386
1.16969
1.16412
1.15712
1.14866
1.13866
1.12708
1.11382
1.09879
1.08185
1.06285
1.04161
1.01787
0.991348
0.961624
0.92755
0.877211
0.807397
0.741285
0.683339
0.634359
0.594322
0.56298
0.540036
0.525203
0.518234
0.518927
0.527123
0.542692
0.565501
0.595356
0.631812
0.673425
0.711009
0.733894
0.747452
0.755872
0.759505
0.758486
0.752747
0.742
0.722836
0.690596
0.655334
0.625005
0.600889
0.583391
0.572518
0.568007
0.56932
0.575593
0.585454
0.596617
0.604498
0.597002
0.586234
0.576821
0.571073
0.570383
0.575649
0.587442
0.606069
0.63157
0.663592
0.700888
0.735093
0.756098
0.768862
0.777074
0.781097
0.692411
0.686582
0.669356
0.645509
0.625363
0.610987
0.603308
0.602812
0.609741
0.624028
0.645366
0.673055
0.705295
0.731102
0.744136
0.750775
0.751993
0.747779
0.735466
0.710787
0.686609
0.668865
0.659067
0.657928
0.666005
0.683713
0.711347
0.749049
0.796684
0.853295
0.914859
0.960246
0.992046
1.01968
1.04421
1.06602
1.08539
1.10257
1.11773
1.13103
1.14258
1.15248
1.16082
1.16766
1.17306
1.17705
1.17966
1.18091
1.18082
1.17939
1.17662
1.17249
1.16699
1.16008
1.15172
1.14186
1.13045
1.1174
1.10262
1.086
1.0674
1.04665
1.02354
0.99783
0.969192
0.937248
0.896069
0.834965
0.76742
0.707879
0.657491
0.616289
0.584049
0.560482
0.545305
0.538275
0.539188
0.547877
0.564201
0.588009
0.619072
0.656721
0.698231
0.728483
0.746069
0.75815
0.765753
0.769091
0.768265
0.763278
0.75405
0.740245
0.71636
0.681856
0.650601
0.625561
0.607605
0.596834
0.593063
0.595855
0.604504
0.617773
0.632662
0.637957
0.632998
0.618502
0.605662
0.597519
0.595326
0.599821
0.611478
0.630521
0.656886
0.689744
0.726088
0.751667
0.767192
0.778402
0.785741
0.789368
0.717664
0.714185
0.705215
0.685894
0.664428
0.648334
0.639497
0.638556
0.64591
0.661307
0.684212
0.712961
0.740552
0.756654
0.766038
0.771768
0.773568
0.771472
0.765782
0.750973
0.726511
0.707103
0.695955
0.693901
0.701703
0.719804
0.74848
0.78776
0.837249
0.894459
0.941964
0.975522
1.00408
1.02983
1.05298
1.07375
1.09231
1.10885
1.12351
1.1364
1.14762
1.15727
1.1654
1.17207
1.17734
1.18123
1.18377
1.18499
1.18489
1.18347
1.18074
1.17667
1.17126
1.16447
1.15628
1.14662
1.13546
1.12271
1.1083
1.09214
1.0741
1.05405
1.03182
1.00724
0.980065
0.950059
0.916666
0.870122
0.805208
0.74448
0.692278
0.649432
0.615891
0.591408
0.575721
0.568602
0.569843
0.579255
0.596661
0.621833
0.654443
0.69322
0.728332
0.749029
0.763041
0.773324
0.7799
0.782839
0.782205
0.77805
0.770438
0.759527
0.744714
0.720153
0.688386
0.662103
0.643558
0.6329
0.63008
0.634693
0.646089
0.662227
0.6711
0.671915
0.671367
0.662862
0.64713
0.636228
0.63217
0.635669
0.647162
0.666735
0.694253
0.727509
0.753502
0.769804
0.782347
0.791813
0.79812
0.801267
0.746396
0.744206
0.740234
0.731002
0.714406
0.697124
0.687069
0.685488
0.693486
0.710116
0.734066
0.75832
0.774369
0.783977
0.791593
0.79669
0.799037
0.798682
0.795952
0.790908
0.777582
0.757244
0.744868
0.741625
0.749076
0.76764
0.797541
0.838411
0.888444
0.932495
0.965307
0.993113
1.01891
1.04258
1.06414
1.08367
1.10126
1.11702
1.13105
1.14344
1.15425
1.16356
1.17143
1.17789
1.18299
1.18676
1.18921
1.19038
1.19026
1.18886
1.18618
1.1822
1.17691
1.17028
1.16229
1.15289
1.14204
1.12968
1.11574
1.10015
1.0828
1.06362
1.04246
1.01923
0.993773
0.965994
0.935831
0.901989
0.854325
0.793183
0.738788
0.693917
0.65874
0.63308
0.616717
0.609482
0.611162
0.621503
0.640261
0.666887
0.700492
0.736243
0.758466
0.772405
0.783743
0.792205
0.797684
0.800161
0.799667
0.796277
0.790126
0.781463
0.770728
0.756915
0.735782
0.70926
0.690536
0.680007
0.678192
0.684294
0.697162
0.705078
0.706605
0.706893
0.706823
0.705581
0.698027
0.685665
0.680042
0.682478
0.69377
0.713448
0.741046
0.763322
0.778347
0.790438
0.800578
0.808384
0.813658
0.816312
0.777318
0.776009
0.773676
0.770838
0.764507
0.754578
0.744417
0.741932
0.750861
0.767776
0.784521
0.797228
0.805616
0.813287
0.819666
0.824362
0.827207
0.828266
0.827834
0.826444
0.823954
0.815762
0.804622
0.800219
0.807445
0.826387
0.857131
0.897768
0.933931
0.96267
0.988171
1.01271
1.03587
1.05745
1.07733
1.09552
1.11204
1.12693
1.14024
1.15205
1.16238
1.17131
1.17885
1.18507
1.18997
1.19359
1.19595
1.19706
1.19692
1.19554
1.19292
1.18904
1.18389
1.17746
1.16971
1.16062
1.15014
1.13822
1.12483
1.1099
1.09336
1.07515
1.05519
1.03343
1.00981
0.984314
0.957008
0.928059
0.895522
0.851234
0.796334
0.749674
0.712753
0.685736
0.66852
0.661148
0.663388
0.674788
0.695084
0.722572
0.754298
0.775156
0.787526
0.798373
0.807318
0.81407
0.81847
0.820452
0.820025
0.817264
0.812325
0.805471
0.797114
0.787845
0.777245
0.762128
0.746282
0.735941
0.734922
0.738602
0.742412
0.742423
0.742207
0.742228
0.742392
0.742805
0.743062
0.739605
0.736426
0.738027
0.749008
0.765612
0.781596
0.793141
0.803501
0.813022
0.821143
0.827485
0.831817
0.834011
0.809548
0.808836
0.80762
0.806293
0.805438
0.803927
0.801354
0.801924
0.808141
0.816979
0.824492
0.830905
0.837569
0.843889
0.849422
0.853884
0.857165
0.85934
0.860674
0.861629
0.86287
0.864818
0.864286
0.865976
0.87416
0.892731
0.918638
0.944995
0.9676
0.989779
1.012
1.03368
1.05443
1.07399
1.09222
1.10905
1.12444
1.1384
1.15095
1.16212
1.17193
1.18042
1.18762
1.19355
1.19824
1.20169
1.20394
1.20498
1.20482
1.20346
1.20091
1.19714
1.19216
1.18595
1.17848
1.16972
1.15966
1.14825
1.13547
1.12126
1.10559
1.08842
1.06973
1.04949
1.02771
1.00445
0.979827
0.954071
0.927542
0.898834
0.86135
0.815588
0.777649
0.74935
0.731046
0.723525
0.726475
0.738646
0.759985
0.782793
0.799212
0.808897
0.818046
0.826242
0.833085
0.838288
0.841673
0.843153
0.842716
0.840429
0.836438
0.830981
0.824409
0.817194
0.809924
0.803101
0.794655
0.787406
0.784039
0.78238
0.779708
0.778244
0.777571
0.777421
0.777714
0.77854
0.780182
0.783082
0.785103
0.788919
0.796699
0.805739
0.813303
0.821397
0.829491
0.837007
0.843486
0.848596
0.852114
0.853904
0.842489
0.842169
0.841672
0.841276
0.841365
0.842387
0.844775
0.847733
0.850954
0.854472
0.85905
0.864326
0.869866
0.875277
0.880249
0.884588
0.888229
0.891254
0.893892
0.896527
0.899701
0.904118
0.910725
0.918699
0.929334
0.944591
0.961811
0.978982
0.997532
1.01685
1.03636
1.05558
1.07417
1.09187
1.10852
1.12401
1.13827
1.15128
1.16304
1.17354
1.1828
1.19083
1.19766
1.20328
1.20773
1.21101
1.21313
1.21409
1.21391
1.21258
1.2101
1.20647
1.20167
1.19569
1.18852
1.18014
1.17053
1.15966
1.14752
1.13408
1.11932
1.10323
1.08581
1.06708
1.0471
1.02594
1.00378
0.980856
0.957517
0.934238
0.910863
0.882199
0.850767
0.822438
0.802861
0.795171
0.798883
0.809537
0.821055
0.83045
0.836476
0.843028
0.849519
0.855465
0.860491
0.864324
0.866783
0.867768
0.867257
0.865299
0.862016
0.857606
0.852349
0.846597
0.840755
0.835213
0.830265
0.82576
0.821197
0.817494
0.814899
0.813273
0.812412
0.812171
0.812501
0.813461
0.815209
0.817962
0.821873
0.82673
0.83164
0.837091
0.843194
0.84965
0.856062
0.862027
0.867198
0.8713
0.874138
0.875587
0.875751
0.875677
0.875624
0.875774
0.876359
0.877614
0.879672
0.882329
0.885342
0.88882
0.89291
0.89748
0.902293
0.907103
0.91171
0.915988
0.91991
0.923555
0.927113
0.930888
0.935288
0.940802
0.947952
0.957075
0.968301
0.980881
0.994939
1.0103
1.0267
1.04373
1.061
1.07812
1.0948
1.11081
1.12598
1.14018
1.15335
1.16542
1.17638
1.18621
1.1949
1.20246
1.20889
1.21419
1.21839
1.22148
1.22347
1.22436
1.22415
1.22285
1.22046
1.21696
1.21235
1.20663
1.19978
1.19179
1.18265
1.17235
1.16087
1.14821
1.13438
1.11936
1.1032
1.08594
1.06765
1.04844
1.0285
1.00805
0.987432
0.96704
0.947374
0.928991
0.909745
0.89082
0.87546
0.866695
0.864586
0.866171
0.867661
0.869681
0.87309
0.877221
0.881537
0.885607
0.88909
0.891735
0.893365
0.89388
0.893246
0.891495
0.88872
0.885079
0.880783
0.876091
0.871284
0.866619
0.862273
0.858264
0.854561
0.85146
0.849121
0.847536
0.846634
0.846349
0.846658
0.847593
0.84923
0.851653
0.85488
0.858769
0.863034
0.8677
0.872733
0.877947
0.883078
0.887842
0.891977
0.895268
0.89755
0.898718
0.909088
0.909163
0.909374
0.909834
0.910681
0.91204
0.913967
0.916402
0.919262
0.922554
0.92629
0.930392
0.934723
0.939133
0.943498
0.947745
0.951868
0.955941
0.960116
0.964625
0.969759
0.975849
0.983206
0.99203
1.00236
1.01396
1.02675
1.04058
1.05522
1.07039
1.08577
1.1011
1.1161
1.13059
1.1444
1.1574
1.16952
1.18068
1.19085
1.20001
1.20813
1.2152
1.22124
1.22622
1.23016
1.23305
1.23491
1.23572
1.23549
1.23422
1.23191
1.22856
1.22415
1.21869
1.21218
1.20459
1.19593
1.1862
1.1754
1.16353
1.1506
1.13665
1.1217
1.10582
1.08911
1.07168
1.05371
1.03543
1.01712
0.999113
0.981818
0.965662
0.951073
0.938564
0.927925
0.919343
0.91293
0.908866
0.907283
0.907498
0.908981
0.911228
0.913802
0.916334
0.918529
0.920159
0.921062
0.92114
0.920352
0.918713
0.916292
0.913205
0.909612
0.905701
0.901672
0.897707
0.893944
0.890461
0.887322
0.884665
0.882587
0.881117
0.880239
0.879932
0.880188
0.881023
0.882466
0.88454
0.887225
0.890432
0.894027
0.897942
0.902091
0.906328
0.910461
0.914285
0.917602
0.920243
0.922078
0.923017
0.942349
0.942512
0.942875
0.943509
0.944492
0.945896
0.947754
0.95005
0.952752
0.955843
0.959302
0.963074
0.967073
0.971208
0.975405
0.979625
0.983877
0.988224
0.992787
0.997735
1.00328
1.00963
1.01699
1.02548
1.03513
1.04585
1.05753
1.07005
1.08322
1.09682
1.11062
1.12439
1.13793
1.15105
1.16362
1.17551
1.18664
1.19693
1.20635
1.21484
1.2224
1.229
1.23463
1.23929
1.24297
1.24567
1.24738
1.24812
1.24787
1.24663
1.24441
1.24121
1.23701
1.23182
1.22564
1.21846
1.21029
1.20114
1.191
1.1799
1.16786
1.15492
1.14113
1.12655
1.11128
1.09546
1.07925
1.06284
1.04649
1.03048
1.01512
1.00076
0.987694
0.976212
0.966385
0.958295
0.952032
0.947657
0.945106
0.944048
0.944108
0.944909
0.946107
0.947398
0.948531
0.949309
0.949585
0.949266
0.948308
0.946713
0.944528
0.941838
0.938759
0.935429
0.931994
0.928592
0.925336
0.922313
0.919602
0.917291
0.915446
0.914104
0.913273
0.912952
0.91314
0.913844
0.91507
0.916815
0.919048
0.921705
0.924699
0.927949
0.931361
0.934811
0.938154
0.941235
0.943902
0.946025
0.9475
0.948256
0.975447
0.975659
0.976107
0.976833
0.977882
0.979298
0.981102
0.983291
0.985851
0.988764
0.992003
0.995529
0.999286
1.00322
1.00729
1.01147
1.01579
1.02029
1.02507
1.03025
1.03598
1.0424
1.04964
1.05778
1.06684
1.07677
1.08748
1.09887
1.11078
1.12305
1.13549
1.14792
1.16016
1.17207
1.18352
1.19438
1.20459
1.21406
1.22275
1.23062
1.23763
1.24376
1.249
1.25334
1.25676
1.25926
1.26084
1.2615
1.26123
1.26003
1.2579
1.25484
1.25086
1.24594
1.24009
1.23332
1.22564
1.21705
1.20756
1.19721
1.18603
1.17405
1.16133
1.14796
1.13402
1.11964
1.10497
1.09019
1.07552
1.06119
1.04744
1.03455
1.02274
1.0122
1.00306
0.995395
0.989247
0.984623
0.981435
0.979479
0.978492
0.978195
0.978319
0.97862
0.97889
0.97896
0.978702
0.978031
0.9769
0.975303
0.97327
0.970859
0.968156
0.965261
0.962284
0.95933
0.956493
0.953854
0.951483
0.949448
0.947802
0.946579
0.945797
0.945462
0.945577
0.946143
0.947156
0.948601
0.950448
0.952642
0.955116
0.957795
0.960591
0.963401
0.96611
0.968597
0.970746
0.972455
0.973641
0.974249
1.00833
1.00857
1.00906
1.00983
1.01091
1.01231
1.01406
1.01616
1.0186
1.02136
1.02442
1.02775
1.03132
1.0351
1.03906
1.04319
1.04752
1.05208
1.05695
1.06222
1.06799
1.07435
1.0814
1.08917
1.09768
1.1069
1.11675
1.12716
1.13799
1.14911
1.16037
1.17163
1.18273
1.19356
1.20399
1.21392
1.22327
1.23198
1.23999
1.24725
1.25374
1.25942
1.26428
1.2683
1.27147
1.27378
1.27523
1.27581
1.27552
1.27436
1.27232
1.26941
1.26563
1.26098
1.25547
1.2491
1.24189
1.23385
1.22499
1.21536
1.20499
1.19391
1.1822
1.16993
1.15719
1.1441
1.1308
1.11744
1.10421
1.0913
1.07891
1.06725
1.0565
1.0468
1.03827
1.03097
1.02494
1.02015
1.01653
1.01394
1.01219
1.01106
1.01035
1.00987
1.00945
1.00894
1.00823
1.00725
1.00596
1.00433
1.00239
1.00017
0.997744
0.995176
0.992551
0.989951
0.987453
0.985125
0.983028
0.981217
0.979736
0.978615
0.977873
0.977521
0.977562
0.977994
0.978808
0.979987
0.981499
0.983298
0.985329
0.987524
0.989807
0.992092
0.994287
0.996297
0.99803
0.999406
1.00036
1.00085
1.04098
1.04123
1.04174
1.04252
1.0436
1.04498
1.04668
1.04869
1.05102
1.05365
1.05656
1.05974
1.06315
1.06679
1.07065
1.07471
1.07901
1.08356
1.08844
1.0937
1.0994
1.10562
1.11242
1.11981
1.12781
1.13638
1.14548
1.15502
1.16491
1.17503
1.18526
1.19549
1.20559
1.21544
1.22495
1.23403
1.2426
1.2506
1.25796
1.26466
1.27065
1.2759
1.28039
1.28411
1.28703
1.28916
1.29048
1.29099
1.29068
1.28956
1.28761
1.28485
1.28127
1.27689
1.2717
1.26572
1.25897
1.25145
1.24321
1.23425
1.22464
1.21441
1.20363
1.19236
1.18071
1.16878
1.15668
1.14457
1.13258
1.12089
1.10966
1.09905
1.0892
1.08024
1.07225
1.06529
1.05938
1.05451
1.05061
1.04757
1.04525
1.0435
1.04216
1.04107
1.04009
1.03911
1.03804
1.0368
1.03535
1.03367
1.03178
1.0297
1.02747
1.02515
1.02279
1.02047
1.01824
1.01616
1.01429
1.01266
1.01131
1.01027
1.00956
1.00919
1.00916
1.00946
1.0101
1.01104
1.01226
1.01372
1.01538
1.01716
1.01902
1.02087
1.02265
1.02427
1.02567
1.02678
1.02755
1.02794
1.07337
1.07363
1.07414
1.07492
1.07599
1.07734
1.07898
1.08092
1.08314
1.08565
1.08844
1.09148
1.09476
1.09828
1.10203
1.106
1.11023
1.11473
1.11955
1.12472
1.1303
1.13633
1.14284
1.14985
1.15737
1.16535
1.17376
1.18254
1.19159
1.20083
1.21016
1.21948
1.22868
1.23766
1.24635
1.25465
1.2625
1.26984
1.27661
1.28277
1.28829
1.29313
1.29728
1.30071
1.3034
1.30535
1.30655
1.30699
1.30666
1.30557
1.30372
1.3011
1.29773
1.2936
1.28873
1.28312
1.27681
1.2698
1.26212
1.25381
1.24491
1.23546
1.22553
1.21519
1.20452
1.19362
1.18259
1.17156
1.16066
1.15003
1.13979
1.13008
1.12101
1.11269
1.10519
1.09855
1.09279
1.0879
1.08382
1.08047
1.07775
1.07554
1.07371
1.07215
1.07074
1.06939
1.06801
1.06654
1.06496
1.06323
1.06136
1.05937
1.05729
1.05515
1.053
1.0509
1.04888
1.047
1.0453
1.04381
1.04257
1.0416
1.04091
1.04051
1.04041
1.0406
1.04108
1.04181
1.04278
1.04396
1.04529
1.04673
1.04824
1.04973
1.05117
1.05247
1.0536
1.05449
1.05511
1.05543
1.10551
1.10577
1.10628
1.10705
1.10808
1.10939
1.11098
1.11285
1.11498
1.11739
1.12006
1.12297
1.12614
1.12954
1.13317
1.13705
1.14118
1.14558
1.15029
1.15533
1.16074
1.16654
1.17276
1.1794
1.18645
1.19389
1.20168
1.20977
1.21808
1.22655
1.23508
1.24358
1.25198
1.26019
1.26813
1.27573
1.28292
1.28965
1.29587
1.30154
1.30661
1.31107
1.31488
1.31804
1.32051
1.32229
1.32337
1.32375
1.32341
1.32236
1.32059
1.31811
1.31493
1.31105
1.30648
1.30124
1.29534
1.28881
1.28167
1.27396
1.26572
1.257
1.24785
1.23834
1.22856
1.21858
1.2085
1.19843
1.18848
1.17876
1.16938
1.16046
1.15208
1.14433
1.13727
1.13094
1.12534
1.12047
1.11629
1.11274
1.10974
1.10719
1.105
1.10308
1.10134
1.09968
1.09806
1.09641
1.09471
1.09293
1.09107
1.08914
1.08716
1.08516
1.08317
1.08123
1.07938
1.07766
1.0761
1.07472
1.07356
1.07264
1.07196
1.07154
1.07138
1.07146
1.07179
1.07235
1.0731
1.07403
1.07509
1.07625
1.07745
1.07866
1.07981
1.08086
1.08176
1.08248
1.08297
1.08323
1.1374
1.13765
1.13815
1.1389
1.13991
1.14118
1.14271
1.1445
1.14655
1.14886
1.15142
1.15423
1.15727
1.16056
1.16408
1.16784
1.17185
1.17614
1.1807
1.18558
1.19079
1.19635
1.20226
1.20853
1.21514
1.22208
1.22931
1.23678
1.24443
1.2522
1.26001
1.2678
1.27548
1.28299
1.29025
1.29721
1.3038
1.30997
1.31568
1.32088
1.32555
1.32965
1.33315
1.33605
1.33831
1.33993
1.3409
1.34122
1.34087
1.33985
1.33817
1.33583
1.33283
1.32919
1.32491
1.32001
1.31451
1.30842
1.30179
1.29464
1.28701
1.27896
1.27052
1.26178
1.25279
1.24363
1.2344
1.22518
1.21606
1.20715
1.19853
1.1903
1.18253
1.17529
1.16863
1.16258
1.15716
1.15236
1.14814
1.14446
1.14127
1.13848
1.13603
1.13384
1.13183
1.12995
1.12813
1.12634
1.12454
1.12271
1.12085
1.11896
1.11706
1.11516
1.11329
1.11148
1.10976
1.10816
1.1067
1.10542
1.10432
1.10343
1.10276
1.10231
1.10209
1.10208
1.10228
1.10268
1.10325
1.10397
1.1048
1.10572
1.10667
1.10763
1.10855
1.10939
1.11011
1.11068
1.11108
1.11128
1.16904
1.16928
1.16977
1.1705
1.17147
1.1727
1.17417
1.1759
1.17787
1.18009
1.18255
1.18524
1.18817
1.19134
1.19474
1.19837
1.20226
1.2064
1.21081
1.2155
1.22049
1.22579
1.2314
1.23731
1.24351
1.24999
1.2567
1.2636
1.27066
1.2778
1.28497
1.29211
1.29915
1.30603
1.31268
1.31905
1.32509
1.33076
1.33599
1.34077
1.34506
1.34882
1.35203
1.35468
1.35675
1.35823
1.35909
1.35935
1.35899
1.35801
1.35641
1.3542
1.35138
1.34797
1.34396
1.33938
1.33425
1.32859
1.32243
1.3158
1.30874
1.30129
1.29351
1.28545
1.27718
1.26877
1.26029
1.25182
1.24344
1.23524
1.22729
1.21967
1.21244
1.20566
1.19937
1.1936
1.18837
1.18365
1.17944
1.1757
1.17239
1.16944
1.1668
1.16441
1.16221
1.16015
1.15818
1.15627
1.15439
1.15252
1.15066
1.14879
1.14694
1.14512
1.14335
1.14164
1.14002
1.13851
1.13714
1.13592
1.13488
1.13401
1.13334
1.13286
1.13258
1.13249
1.13258
1.13284
1.13325
1.13379
1.13443
1.13514
1.13589
1.13664
1.13737
1.13803
1.13861
1.13906
1.13937
1.13954
1.20044
1.20067
1.20114
1.20185
1.20279
1.20397
1.20539
1.20705
1.20894
1.21107
1.21343
1.21602
1.21884
1.22188
1.22516
1.22866
1.23241
1.23639
1.24063
1.24513
1.24989
1.25493
1.26023
1.2658
1.27161
1.27765
1.28389
1.29028
1.2968
1.30338
1.30997
1.31652
1.32298
1.32929
1.33539
1.34123
1.34677
1.35196
1.35677
1.36115
1.36508
1.36853
1.37148
1.3739
1.37579
1.37712
1.3779
1.3781
1.37773
1.37679
1.37527
1.37318
1.37053
1.36733
1.36358
1.35931
1.35452
1.34926
1.34353
1.33738
1.33084
1.32396
1.31677
1.30934
1.30172
1.29398
1.28617
1.27837
1.27065
1.26308
1.25572
1.24864
1.2419
1.23554
1.2296
1.2241
1.21905
1.21444
1.21028
1.20652
1.20314
1.20009
1.19732
1.19479
1.19245
1.19026
1.18818
1.18618
1.18423
1.18233
1.18046
1.17861
1.17681
1.17504
1.17334
1.1717
1.17016
1.16873
1.16743
1.16626
1.16525
1.1644
1.16372
1.16321
1.16288
1.16272
1.16271
1.16285
1.16313
1.16351
1.16399
1.16453
1.1651
1.16569
1.16625
1.16677
1.16722
1.16758
1.16783
1.16795
1.2316
1.23182
1.23228
1.23296
1.23387
1.235
1.23637
1.23796
1.23978
1.24182
1.24408
1.24657
1.24928
1.2522
1.25535
1.25872
1.26231
1.26613
1.27019
1.27448
1.27902
1.28379
1.2888
1.29404
1.29948
1.30512
1.31092
1.31685
1.32287
1.32894
1.33501
1.34103
1.34697
1.35275
1.35835
1.36371
1.36879
1.37356
1.37797
1.38199
1.38559
1.38875
1.39145
1.39366
1.39538
1.39658
1.39727
1.39742
1.39705
1.39614
1.3947
1.39273
1.39024
1.38723
1.38373
1.37974
1.37528
1.37038
1.36506
1.35936
1.3533
1.34693
1.34029
1.33342
1.32639
1.31924
1.31204
1.30484
1.29771
1.2907
1.28387
1.27729
1.27098
1.26501
1.25938
1.25413
1.24927
1.2448
1.2407
1.23697
1.23356
1.23045
1.2276
1.22497
1.22254
1.22025
1.21809
1.21603
1.21404
1.21211
1.21023
1.2084
1.20662
1.2049
1.20325
1.20168
1.2002
1.19882
1.19757
1.19644
1.19545
1.19461
1.19393
1.19339
1.19301
1.19278
1.19269
1.19273
1.19289
1.19314
1.19348
1.19387
1.19431
1.19475
1.19518
1.19558
1.19593
1.19621
1.1964
1.1965
1.26253
1.26275
1.26319
1.26384
1.26471
1.26581
1.26711
1.26864
1.27039
1.27234
1.27452
1.2769
1.2795
1.2823
1.28532
1.28855
1.29199
1.29564
1.29951
1.3036
1.3079
1.31242
1.31714
1.32206
1.32716
1.33242
1.33782
1.34332
1.34889
1.35449
1.36009
1.36564
1.37109
1.37641
1.38155
1.38647
1.39114
1.39551
1.39955
1.40324
1.40654
1.40943
1.4119
1.41392
1.41548
1.41656
1.41716
1.41728
1.4169
1.41602
1.41465
1.41279
1.41045
1.40764
1.40436
1.40064
1.39648
1.39192
1.38698
1.38168
1.37607
1.37016
1.36402
1.35767
1.35117
1.34456
1.3379
1.33124
1.32464
1.31814
1.31179
1.30564
1.29974
1.29411
1.28879
1.28379
1.27912
1.27478
1.27077
1.26708
1.26368
1.26055
1.25766
1.25497
1.25248
1.25013
1.24791
1.2458
1.24378
1.24183
1.23995
1.23813
1.23638
1.2347
1.23309
1.23156
1.23013
1.2288
1.22758
1.22648
1.22551
1.22468
1.22398
1.22342
1.223
1.22271
1.22254
1.22249
1.22255
1.2227
1.22291
1.22319
1.2235
1.22382
1.22414
1.22444
1.22471
1.22492
1.22506
1.22514
1.29325
1.29346
1.29388
1.29451
1.29534
1.29639
1.29765
1.29911
1.30078
1.30266
1.30474
1.30702
1.3095
1.31219
1.31508
1.31816
1.32145
1.32493
1.32862
1.3325
1.33658
1.34084
1.34529
1.34991
1.35468
1.35959
1.36461
1.36972
1.37488
1.38006
1.38522
1.39033
1.39535
1.40025
1.40497
1.40949
1.41377
1.41778
1.42149
1.42487
1.4279
1.43055
1.4328
1.43464
1.43605
1.43702
1.43755
1.43762
1.43724
1.4364
1.4351
1.43334
1.43114
1.4285
1.42544
1.42196
1.41809
1.41385
1.40925
1.40433
1.39912
1.39365
1.38795
1.38207
1.37605
1.36994
1.36377
1.35759
1.35146
1.34542
1.3395
1.33376
1.32822
1.32292
1.31787
1.31311
1.30862
1.30443
1.30053
1.2969
1.29353
1.29041
1.2875
1.28479
1.28226
1.27988
1.27762
1.27548
1.27344
1.27148
1.26961
1.2678
1.26607
1.26442
1.26284
1.26136
1.25996
1.25866
1.25747
1.25639
1.25544
1.2546
1.25389
1.25331
1.25285
1.2525
1.25228
1.25215
1.25212
1.25217
1.25229
1.25246
1.25267
1.2529
1.25313
1.25334
1.25354
1.25369
1.2538
1.25386
1.32376
1.32396
1.32436
1.32496
1.32577
1.32677
1.32797
1.32937
1.33097
1.33276
1.33475
1.33694
1.33931
1.34188
1.34463
1.34758
1.35071
1.35402
1.35752
1.3612
1.36506
1.36909
1.37327
1.3776
1.38207
1.38665
1.39132
1.39607
1.40085
1.40564
1.41041
1.41512
1.41975
1.42425
1.42859
1.43275
1.43668
1.44036
1.44376
1.44686
1.44963
1.45205
1.45411
1.45578
1.45706
1.45793
1.45839
1.45843
1.45804
1.45723
1.45599
1.45434
1.45227
1.4498
1.44693
1.44368
1.44007
1.43612
1.43184
1.42727
1.42243
1.41735
1.41207
1.40662
1.40103
1.39536
1.38964
1.3839
1.3782
1.37257
1.36705
1.36167
1.35647
1.35146
1.34668
1.34214
1.33784
1.3338
1.33001
1.32646
1.32314
1.32004
1.31715
1.31444
1.31189
1.30949
1.30722
1.30507
1.30302
1.30106
1.29919
1.2974
1.29569
1.29406
1.29251
1.29105
1.28969
1.28842
1.28725
1.28619
1.28524
1.2844
1.28368
1.28307
1.28258
1.28219
1.28191
1.28172
1.28161
1.28158
1.28162
1.2817
1.28182
1.28197
1.28212
1.28227
1.2824
1.28251
1.28259
1.28263
1.35406
1.35426
1.35464
1.35522
1.35599
1.35694
1.35809
1.35943
1.36096
1.36268
1.36458
1.36666
1.36893
1.37137
1.374
1.3768
1.37978
1.38293
1.38625
1.38973
1.39338
1.39717
1.4011
1.40516
1.40934
1.41362
1.41797
1.42237
1.4268
1.43124
1.43565
1.44
1.44426
1.44841
1.4524
1.45622
1.45984
1.46322
1.46634
1.46918
1.47171
1.47393
1.4758
1.47732
1.47848
1.47926
1.47965
1.47965
1.47927
1.47849
1.47731
1.47575
1.4738
1.47149
1.4688
1.46577
1.4624
1.45871
1.45473
1.45048
1.44598
1.44126
1.43635
1.43129
1.42611
1.42084
1.41552
1.41018
1.40487
1.39961
1.39445
1.38941
1.38451
1.37979
1.37525
1.37092
1.36681
1.36291
1.35924
1.35578
1.35253
1.34948
1.34661
1.34392
1.34138
1.33898
1.33671
1.33455
1.3325
1.33055
1.32869
1.32691
1.32522
1.32362
1.32209
1.32066
1.31932
1.31807
1.31692
1.31587
1.31493
1.31409
1.31335
1.31272
1.3122
1.31177
1.31144
1.31119
1.31103
1.31093
1.3109
1.31091
1.31095
1.31103
1.31112
1.31121
1.31129
1.31136
1.31142
1.31144
1.38418
1.38436
1.38473
1.38528
1.38601
1.38693
1.38803
1.38931
1.39077
1.3924
1.39422
1.3962
1.39836
1.40069
1.40319
1.40586
1.40868
1.41167
1.41481
1.4181
1.42154
1.42511
1.4288
1.43261
1.43652
1.4405
1.44455
1.44865
1.45276
1.45687
1.46094
1.46496
1.46889
1.47271
1.47639
1.47991
1.48323
1.48633
1.48919
1.4918
1.49412
1.49614
1.49785
1.49923
1.50027
1.50096
1.5013
1.50127
1.50089
1.50013
1.49902
1.49754
1.49571
1.49354
1.49102
1.48819
1.48504
1.48161
1.4779
1.47394
1.46975
1.46536
1.4608
1.45609
1.45127
1.44636
1.44141
1.43644
1.43148
1.42657
1.42173
1.41699
1.41238
1.40792
1.40362
1.39949
1.39555
1.39181
1.38826
1.3849
1.38172
1.37873
1.3759
1.37324
1.37072
1.36833
1.36607
1.36393
1.36189
1.35995
1.3581
1.35634
1.35467
1.35309
1.35159
1.35018
1.34885
1.34762
1.34649
1.34545
1.34451
1.34366
1.34292
1.34227
1.34172
1.34126
1.34089
1.34059
1.34037
1.34022
1.34012
1.34007
1.34006
1.34008
1.34011
1.34015
1.3402
1.34024
1.34027
1.34028
1.41411
1.41428
1.41463
1.41516
1.41586
1.41674
1.41778
1.419
1.42039
1.42195
1.42368
1.42557
1.42763
1.42984
1.43222
1.43475
1.43743
1.44025
1.44322
1.44633
1.44957
1.45292
1.45639
1.45996
1.46361
1.46733
1.4711
1.4749
1.47872
1.48253
1.4863
1.49001
1.49364
1.49716
1.50055
1.50378
1.50683
1.50969
1.51231
1.5147
1.51682
1.51867
1.52022
1.52147
1.52241
1.52302
1.52331
1.52326
1.52287
1.52215
1.52108
1.51969
1.51797
1.51592
1.51357
1.51091
1.50798
1.50477
1.50131
1.49762
1.49372
1.48963
1.48538
1.481
1.47651
1.47194
1.46732
1.46268
1.45804
1.45345
1.44891
1.44445
1.44011
1.43588
1.4318
1.42787
1.42411
1.42051
1.41708
1.41383
1.41074
1.40781
1.40504
1.40241
1.39993
1.39757
1.39533
1.3932
1.39118
1.38926
1.38743
1.38569
1.38404
1.38247
1.38099
1.3796
1.3783
1.37708
1.37596
1.37493
1.37399
1.37314
1.37239
1.37173
1.37115
1.37066
1.37025
1.36992
1.36965
1.36945
1.3693
1.3692
1.36914
1.3691
1.36909
1.3691
1.36911
1.36912
1.36913
1.36914
1.44386
1.44403
1.44436
1.44487
1.44553
1.44637
1.44737
1.44853
1.44985
1.45134
1.45298
1.45478
1.45673
1.45883
1.46109
1.46348
1.46602
1.4687
1.4715
1.47443
1.47747
1.48063
1.48388
1.48722
1.49063
1.4941
1.49761
1.50115
1.50469
1.50822
1.51171
1.51514
1.51849
1.52174
1.52486
1.52784
1.53064
1.53326
1.53567
1.53786
1.5398
1.54148
1.5429
1.54403
1.54487
1.54542
1.54565
1.54558
1.54519
1.54449
1.54348
1.54216
1.54054
1.53862
1.53641
1.53393
1.53118
1.52818
1.52495
1.52151
1.51787
1.51406
1.5101
1.50601
1.50183
1.49756
1.49325
1.48891
1.48457
1.48026
1.476
1.47181
1.46771
1.46371
1.45984
1.45609
1.45249
1.44904
1.44574
1.44259
1.43959
1.43674
1.43403
1.43145
1.429
1.42668
1.42447
1.42237
1.42037
1.41847
1.41666
1.41494
1.41331
1.41177
1.41031
1.40894
1.40765
1.40645
1.40534
1.40432
1.40338
1.40253
1.40177
1.40109
1.4005
1.39998
1.39954
1.39917
1.39887
1.39863
1.39844
1.39829
1.39819
1.39811
1.39806
1.39803
1.39801
1.398
1.398
1.398
1.47345
1.47361
1.47393
1.4744
1.47504
1.47583
1.47678
1.47789
1.47915
1.48056
1.48212
1.48383
1.48568
1.48768
1.48981
1.49208
1.49448
1.49701
1.49965
1.50241
1.50527
1.50823
1.51128
1.51441
1.51759
1.52083
1.5241
1.52739
1.53068
1.53395
1.53718
1.54035
1.54345
1.54644
1.54932
1.55206
1.55464
1.55705
1.55926
1.56126
1.56304
1.56457
1.56586
1.56688
1.56764
1.56811
1.56831
1.56821
1.56783
1.56715
1.56619
1.56494
1.56341
1.5616
1.55953
1.5572
1.55463
1.55183
1.54881
1.5456
1.5422
1.53864
1.53495
1.53113
1.52722
1.52324
1.5192
1.51514
1.51108
1.50703
1.50302
1.49907
1.4952
1.49142
1.48774
1.48417
1.48073
1.47742
1.47424
1.4712
1.46829
1.46552
1.46288
1.46036
1.45796
1.45568
1.4535
1.45143
1.44946
1.44759
1.44581
1.44411
1.44251
1.44098
1.43955
1.43819
1.43692
1.43574
1.43463
1.43362
1.43268
1.43183
1.43106
1.43037
1.42976
1.42923
1.42876
1.42836
1.42803
1.42775
1.42752
1.42734
1.4272
1.42709
1.42701
1.42695
1.42691
1.42688
1.42687
1.42686
1.50288
1.50303
1.50333
1.50378
1.50439
1.50514
1.50605
1.5071
1.50829
1.50963
1.51111
1.51274
1.51449
1.51638
1.5184
1.52055
1.52281
1.5252
1.52769
1.53028
1.53298
1.53575
1.53861
1.54153
1.54451
1.54753
1.55057
1.55363
1.55668
1.55972
1.56271
1.56564
1.5685
1.57127
1.57392
1.57644
1.57882
1.58103
1.58305
1.58489
1.58651
1.58791
1.58908
1.59
1.59068
1.5911
1.59125
1.59113
1.59075
1.5901
1.58918
1.588
1.58655
1.58485
1.58291
1.58072
1.57832
1.57569
1.57287
1.56986
1.56669
1.56337
1.55991
1.55634
1.55269
1.54896
1.54518
1.54138
1.53756
1.53376
1.52999
1.52626
1.5226
1.51902
1.51552
1.51213
1.50884
1.50567
1.50261
1.49968
1.49687
1.49417
1.4916
1.48914
1.4868
1.48456
1.48243
1.4804
1.47846
1.47662
1.47486
1.47319
1.47161
1.47011
1.46869
1.46736
1.46611
1.46493
1.46384
1.46283
1.4619
1.46105
1.46028
1.45958
1.45895
1.4584
1.45791
1.45749
1.45713
1.45682
1.45657
1.45635
1.45618
1.45605
1.45594
1.45586
1.45579
1.45575
1.45573
1.45571
1.53215
1.53229
1.53258
1.53301
1.53359
1.53431
1.53516
1.53616
1.5373
1.53857
1.53997
1.54151
1.54317
1.54496
1.54687
1.54889
1.55103
1.55328
1.55562
1.55806
1.56059
1.5632
1.56587
1.5686
1.57138
1.5742
1.57703
1.57987
1.58271
1.58552
1.58829
1.59101
1.59365
1.5962
1.59865
1.60097
1.60316
1.60518
1.60705
1.60872
1.61021
1.61148
1.61254
1.61338
1.61398
1.61434
1.61446
1.61433
1.61395
1.61332
1.61244
1.61132
1.60995
1.60835
1.60652
1.60447
1.60221
1.59975
1.59711
1.5943
1.59133
1.58822
1.58499
1.58165
1.57822
1.57473
1.57119
1.56762
1.56404
1.56046
1.55691
1.55339
1.54993
1.54653
1.54321
1.53997
1.53683
1.53379
1.53086
1.52803
1.52532