/*--------------------------------*- C++ -*----------------------------------*\
| =========                 |                                                 |
| \\      /  F ield         | OpenFOAM: The Open Source CFD Toolbox           |
|  \\    /   O peration     | Version:  2406                                  |
|   \\  /    A nd           | Website:  www.openfoam.com                      |
|    \\/     M anipulation  |                                                 |
\*---------------------------------------------------------------------------*/
FoamFile
{
    version     2.0;
    format      ascii;
    arch        "LSB;label=32;scalar=64";
    class       volScalarField;
    location    "3.2";
    object      C_0_0;
}
// * * * * * * * * * * * * * * * * * * * * * * * * * * * * * * * * * * * * * //

dimensions      [1 -3 0 0 0 0 0];

internalField   nonuniform List<scalar> 
14400
(
0.66446
0.650094
0.627693
0.606352
0.588816
0.576434
0.569992
0.569944
0.576505
0.58967
0.609209
0.634591
0.664785
0.697364
0.721197
0.730579
0.730923
0.721167
0.698616
0.671975
0.649716
0.633907
0.625552
0.625301
0.633648
0.650989
0.677635
0.713801
0.759536
0.814514
0.877135
0.939311
0.983032
1.01262
1.0386
1.0615
1.08171
1.09954
1.11521
1.1289
1.14077
1.15093
1.15947
1.16647
1.17199
1.17606
1.17873
1.18002
1.17994
1.17849
1.17568
1.17149
1.16589
1.15885
1.15033
1.14028
1.12862
1.11527
1.10012
1.08304
1.06386
1.04239
1.01837
0.991479
0.961311
0.924879
0.869465
0.797803
0.731946
0.674559
0.626096
0.586482
0.555462
0.532737
0.518022
0.511068
0.511676
0.519686
0.534967
0.557381
0.586711
0.62247
0.663273
0.703755
0.730802
0.745232
0.754093
0.757868
0.756717
0.750515
0.738731
0.714717
0.679283
0.644811
0.615131
0.591437
0.574115
0.563156
0.558255
0.558811
0.563839
0.571778
0.580161
0.585141
0.580549
0.572573
0.565088
0.560589
0.560661
0.566323
0.578212
0.596674
0.621766
0.653151
0.68966
0.727318
0.753229
0.767001
0.775714
0.779957
0.676284
0.665524
0.643332
0.620803
0.602242
0.58912
0.582231
0.582028
0.588727
0.602307
0.62252
0.648784
0.679822
0.71172
0.731275
0.739042
0.739718
0.732767
0.713386
0.686412
0.663342
0.646806
0.63792
0.637351
0.645607
0.66309
0.690104
0.726847
0.773349
0.829284
0.893025
0.949328
0.987273
1.0162
1.04167
1.06419
1.0841
1.10169
1.11718
1.13073
1.14248
1.15255
1.16102
1.16796
1.17343
1.17747
1.18012
1.18139
1.1813
1.17986
1.17706
1.17289
1.16732
1.16033
1.15187
1.14189
1.13031
1.11707
1.10205
1.08513
1.06616
1.04494
1.02124
0.994755
0.965078
0.931191
0.8812
0.811412
0.745077
0.686887
0.637689
0.597474
0.565995
0.542954
0.528066
0.521082
0.521801
0.530064
0.545737
0.568687
0.598708
0.635347
0.677128
0.714553
0.737252
0.75078
0.759177
0.762794
0.761766
0.756026
0.745284
0.72623
0.694045
0.658609
0.628127
0.603897
0.586327
0.575426
0.570932
0.572308
0.578688
0.588707
0.600061
0.607973
0.600445
0.589481
0.579904
0.574041
0.573281
0.578522
0.590334
0.609024
0.634625
0.666787
0.70424
0.73836
0.759234
0.771981
0.780183
0.7842
0.696031
0.690227
0.673108
0.649143
0.628849
0.614358
0.60662
0.606117
0.613091
0.627476
0.648967
0.67684
0.709231
0.734915
0.747899
0.754559
0.755802
0.751613
0.739455
0.714816
0.69044
0.672545
0.662647
0.661452
0.669525
0.687284
0.71502
0.752864
0.800676
0.857449
0.91899
0.964037
0.995651
1.02323
1.04771
1.06947
1.08881
1.10595
1.12109
1.13435
1.14588
1.15576
1.16409
1.17091
1.17629
1.18027
1.18287
1.18412
1.18402
1.18259
1.17982
1.17569
1.17018
1.16328
1.15493
1.14508
1.13368
1.12064
1.10588
1.08928
1.0707
1.04997
1.0269
1.00122
0.972622
0.940718
0.899885
0.839188
0.771358
0.711541
0.660924
0.61954
0.587162
0.563498
0.548265
0.54122
0.542161
0.55092
0.567356
0.591311
0.62254
0.660344
0.701905
0.731925
0.749406
0.761459
0.769042
0.772364
0.771529
0.766538
0.757311
0.743546
0.719766
0.68518
0.653793
0.628648
0.610619
0.599818
0.596062
0.598913
0.607651
0.621047
0.635993
0.641199
0.636324
0.621769
0.608795
0.600558
0.598297
0.602768
0.614447
0.633552
0.660009
0.692984
0.729387
0.754842
0.77031
0.781507
0.788837
0.79246
0.721215
0.717723
0.708851
0.689672
0.668059
0.651834
0.64294
0.641994
0.649394
0.66489
0.687968
0.716897
0.744321
0.760316
0.769736
0.775493
0.777318
0.775247
0.769595
0.754955
0.730428
0.710909
0.699677
0.697561
0.705357
0.723516
0.752301
0.791719
0.841398
0.898752
0.945881
0.979165
1.00766
1.03336
1.05646
1.07719
1.09572
1.11223
1.12685
1.13972
1.15092
1.16054
1.16865
1.17531
1.18056
1.18444
1.18698
1.18819
1.18808
1.18666
1.18392
1.17986
1.17445
1.16767
1.15948
1.14983
1.13867
1.12594
1.11155
1.0954
1.07738
1.05736
1.03516
1.01061
0.983471
0.953504
0.920237
0.874059
0.809227
0.748271
0.695849
0.652829
0.619151
0.594571
0.578826
0.571691
0.572961
0.582448
0.599979
0.625315
0.658103
0.697027
0.731845
0.752353
0.766345
0.776607
0.783166
0.786091
0.785447
0.781285
0.77367
0.762758
0.748032
0.723578
0.691684
0.665311
0.646686
0.635994
0.633188
0.637863
0.6493
0.665513
0.674294
0.675078
0.674553
0.666135
0.650327
0.639378
0.63525
0.638726
0.650244
0.669886
0.697477
0.730844
0.756711
0.77291
0.78544
0.794897
0.801198
0.804342
0.749892
0.747693
0.743702
0.734602
0.71817
0.700756
0.690676
0.689093
0.697134
0.713833
0.737957
0.762023
0.777937
0.787584
0.795234
0.800359
0.80273
0.802398
0.799689
0.794764
0.781584
0.761198
0.748787
0.745452
0.752892
0.771527
0.801566
0.842529
0.892752
0.93644
0.968947
0.996706
1.02246
1.04608
1.0676
1.08709
1.10465
1.12038
1.13439
1.14674
1.15754
1.16683
1.17467
1.18112
1.18621
1.18996
1.19241
1.19357
1.19345
1.19204
1.18936
1.18538
1.18009
1.17347
1.16548
1.15609
1.14525
1.1329
1.11898
1.1034
1.08608
1.06691
1.04578
1.02257
0.99715
0.969406
0.939281
0.905675
0.858396
0.797122
0.742529
0.697508
0.662195
0.636438
0.620017
0.612763
0.614466
0.624884
0.643784
0.670587
0.704318
0.739761
0.761754
0.775687
0.787011
0.795459
0.800924
0.803388
0.802883
0.799484
0.793326
0.784656
0.773909
0.760197
0.739153
0.712616
0.693798
0.683235
0.681428
0.687621
0.700412
0.708256
0.709707
0.709999
0.70992
0.708748
0.701258
0.688973
0.683248
0.685666
0.696983
0.716749
0.744337
0.766511
0.781421
0.793509
0.803644
0.811445
0.816715
0.819367
0.780768
0.779453
0.777109
0.774258
0.768065
0.758251
0.748196
0.745694
0.754676
0.771529
0.788155
0.800724
0.809143
0.816847
0.823256
0.827978
0.830846
0.831924
0.83151
0.830135
0.827779
0.819715
0.80879
0.804204
0.811421
0.830451
0.861403
0.901915
0.937828
0.966287
0.991754
1.01626
1.03938
1.06092
1.08077
1.09892
1.11541
1.13027
1.14356
1.15534
1.16566
1.17456
1.18209
1.18829
1.19318
1.19679
1.19914
1.20024
1.20009
1.19871
1.19609
1.19221
1.18706
1.18063
1.17289
1.1638
1.15333
1.14143
1.12805
1.11314
1.09661
1.07842
1.05849
1.03675
1.01315
0.987689
0.960413
0.931494
0.899248
0.855322
0.800249
0.753515
0.716449
0.689336
0.672065
0.664666
0.66691
0.678373
0.69883
0.726463
0.75782
0.778435
0.790782
0.801621
0.810555
0.817295
0.821682
0.823652
0.823214
0.820443
0.815494
0.808629
0.800258
0.790971
0.780441
0.765392
0.749628
0.739292
0.738221
0.741803
0.745536
0.745477
0.74527
0.745293
0.74545
0.745848
0.746169
0.742781
0.739688
0.741332
0.752301
0.76881
0.78471
0.796175
0.80654
0.816062
0.824181
0.830521
0.834851
0.837044
0.812959
0.812243
0.811019
0.809683
0.808817
0.807406
0.804902
0.805497
0.811709
0.820492
0.827921
0.834364
0.841058
0.847406
0.852965
0.85745
0.860751
0.862943
0.864293
0.86526
0.866511
0.868563
0.868171
0.869946
0.87823
0.896826
0.922572
0.948726
0.971181
0.993338
1.01553
1.03718
1.0579
1.07743
1.09563
1.11242
1.12778
1.14172
1.15425
1.16539
1.17519
1.18366
1.19084
1.19676
1.20143
1.20488
1.20711
1.20815
1.20798
1.20662
1.20407
1.2003
1.19532
1.18911
1.18164
1.1729
1.16284
1.15144
1.13867
1.12448
1.10882
1.09167
1.073
1.05278
1.03102
1.00778
0.983187
0.957454
0.930946
0.902507
0.865283
0.819729
0.781594
0.753223
0.73488
0.727322
0.730232
0.742399
0.763901
0.786329
0.802492
0.812135
0.821274
0.82946
0.836292
0.841483
0.844857
0.846324
0.845877
0.843579
0.839577
0.834108
0.827521
0.820288
0.812997
0.806183
0.797801
0.790574
0.787167
0.785412
0.782729
0.781271
0.780602
0.780452
0.780739
0.781555
0.783184
0.786087
0.788197
0.792042
0.799788
0.808749
0.816298
0.8244
0.832501
0.840018
0.846498
0.851608
0.855124
0.856914
0.845865
0.845542
0.84504
0.844636
0.844715
0.845723
0.848098
0.851084
0.854293
0.857839
0.862448
0.867751
0.873318
0.878753
0.883747
0.888106
0.891765
0.894805
0.897456
0.900102
0.903283
0.907703
0.914311
0.92243
0.933109
0.948294
0.965359
0.982515
1.00105
1.02035
1.03984
1.05904
1.0776
1.09528
1.11189
1.12735
1.14159
1.15458
1.16632
1.1768
1.18604
1.19406
1.20086
1.20648
1.21091
1.21418
1.21629
1.21725
1.21706
1.21573
1.21325
1.20962
1.20482
1.19884
1.19167
1.1833
1.17369
1.16284
1.1507
1.13727
1.12253
1.10646
1.08905
1.07034
1.05037
1.02924
1.0071
0.984188
0.960864
0.937596
0.914354
0.885924
0.854775
0.826539
0.806965
0.799239
0.802841
0.813276
0.82457
0.833704
0.839701
0.846239
0.852718
0.858653
0.863668
0.86749
0.869937
0.870912
0.87039
0.868421
0.865126
0.860703
0.855432
0.849664
0.843803
0.838241
0.833265
0.828748
0.824183
0.82049
0.817899
0.816275
0.815416
0.815172
0.815498
0.81645
0.818189
0.820931
0.824823
0.829673
0.834585
0.840053
0.846165
0.852628
0.859044
0.865012
0.870184
0.874287
0.877124
0.878573
0.879095
0.879018
0.878962
0.879106
0.879685
0.880934
0.882986
0.885645
0.888671
0.892168
0.896281
0.900874
0.905709
0.91054
0.915165
0.919461
0.923398
0.927056
0.930625
0.934409
0.938814
0.94433
0.951478
0.960593
0.971803
0.984373
0.998429
1.01378
1.03017
1.04719
1.06443
1.08153
1.09819
1.11418
1.12932
1.1435
1.15665
1.1687
1.17964
1.18944
1.19812
1.20566
1.21208
1.21737
1.22156
1.22464
1.22662
1.2275
1.22729
1.22599
1.22359
1.22009
1.21548
1.20976
1.20292
1.19493
1.1858
1.1755
1.16403
1.15139
1.13756
1.12256
1.10642
1.08917
1.07089
1.0517
1.03177
1.01134
0.990726
0.970338
0.950668
0.932279
0.913213
0.894409
0.879092
0.870305
0.868128
0.869584
0.87089
0.872892
0.876284
0.880402
0.884707
0.888765
0.892238
0.894871
0.896491
0.896995
0.89635
0.894588
0.891802
0.888148
0.883839
0.879133
0.87431
0.869628
0.865266
0.861245
0.857538
0.854438
0.8521
0.850515
0.849613
0.849325
0.849629
0.850559
0.852188
0.854603
0.85782
0.861704
0.865971
0.870643
0.875682
0.880901
0.886036
0.890802
0.894939
0.89823
0.900513
0.901681
0.912401
0.912475
0.912684
0.913141
0.913984
0.91534
0.917267
0.919705
0.922576
0.925882
0.929634
0.933755
0.938104
0.942531
0.946913
0.951174
0.955311
0.959395
0.963579
0.968095
0.973233
0.979324
0.986678
0.995497
1.00581
1.01741
1.0302
1.04401
1.05864
1.07379
1.08917
1.10447
1.11946
1.13392
1.14771
1.16069
1.17279
1.18393
1.19409
1.20322
1.21133
1.21839
1.22441
1.22938
1.23331
1.23619
1.23804
1.23884
1.23861
1.23734
1.23503
1.23167
1.22727
1.22181
1.21529
1.20771
1.19906
1.18934
1.17854
1.16668
1.15377
1.13982
1.12489
1.10902
1.09232
1.0749
1.05695
1.03867
1.02036
1.00236
0.985061
0.968895
0.954286
0.941762
0.931129
0.922536
0.916111
0.912058
0.910468
0.910672
0.912143
0.914378
0.916941
0.919462
0.921647
0.923266
0.924159
0.924227
0.923428
0.921778
0.919346
0.916248
0.912642
0.908718
0.904675
0.900697
0.896922
0.89343
0.890286
0.887626
0.885546
0.884074
0.883194
0.882884
0.883137
0.883966
0.885403
0.887471
0.89015
0.893354
0.896949
0.900867
0.905019
0.909259
0.913396
0.917221
0.92054
0.923182
0.925017
0.925956
0.945633
0.945795
0.946158
0.946789
0.947771
0.949175
0.951034
0.953335
0.956045
0.959147
0.96262
0.966406
0.97042
0.974569
0.97878
0.983013
0.987276
0.991632
0.996203
1.00116
1.0067
1.01305
1.02041
1.0289
1.03854
1.04925
1.06093
1.07344
1.08659
1.10018
1.11397
1.12772
1.14124
1.15435
1.1669
1.17877
1.18988
1.20016
1.20955
1.21804
1.22558
1.23216
1.23778
1.24243
1.2461
1.24879
1.2505
1.25123
1.25097
1.24973
1.24751
1.2443
1.2401
1.23492
1.22874
1.22156
1.2134
1.20425
1.19412
1.18303
1.171
1.15807
1.14428
1.12971
1.11446
1.09865
1.08244
1.06604
1.04969
1.03368
1.01832
1.00395
0.990873
0.979381
0.969546
0.961451
0.955185
0.950809
0.948252
0.947186
0.947236
0.948028
0.949215
0.950497
0.95162
0.952387
0.952653
0.952324
0.951356
0.949751
0.947556
0.944854
0.941764
0.938422
0.934976
0.931562
0.928296
0.925265
0.922549
0.920233
0.918385
0.91704
0.916206
0.915882
0.916066
0.916766
0.917987
0.919727
0.921956
0.924611
0.927604
0.930855
0.934268
0.937721
0.941066
0.944148
0.946816
0.94894
0.950415
0.951171
0.978702
0.978915
0.979362
0.980087
0.981137
0.982554
0.98436
0.986554
0.989121
0.992042
0.995293
0.99883
1.0026
1.00655
1.01063
1.01482
1.01915
1.02366
1.02844
1.03363
1.03936
1.04578
1.05302
1.06116
1.07021
1.08013
1.09083
1.10221
1.11411
1.12637
1.1388
1.15121
1.16344
1.17534
1.18676
1.19761
1.2078
1.21726
1.22594
1.23379
1.24078
1.2469
1.25213
1.25646
1.25987
1.26237
1.26394
1.26459
1.26431
1.26311
1.26098
1.25792
1.25393
1.24901
1.24317
1.2364
1.22872
1.22014
1.21066
1.20032
1.18914
1.17717
1.16446
1.15109
1.13716
1.12279
1.10812
1.09335
1.07868
1.06435
1.0506
1.0377
1.02588
1.01534
1.00619
0.99852
0.992368
0.987739
0.984547
0.982583
0.981587
0.981281
0.981396
0.981688
0.981949
0.98201
0.981742
0.981061
0.979921
0.978315
0.976271
0.97385
0.971136
0.968231
0.965244
0.96228
0.959434
0.956787
0.95441
0.952371
0.950721
0.949494
0.948708
0.94837
0.948481
0.949043
0.950052
0.951494
0.953337
0.955529
0.958002
0.960681
0.963478
0.966289
0.968999
0.971487
0.973637
0.975346
0.976533
0.977141
1.01156
1.0118
1.01229
1.01306
1.01414
1.01554
1.0173
1.0194
1.02184
1.02461
1.02768
1.03102
1.0346
1.03839
1.04236
1.0465
1.05083
1.0554
1.06028
1.06555
1.07132
1.07769
1.08473
1.0925
1.101
1.11021
1.12006
1.13046
1.14128
1.15239
1.16364
1.17489
1.18598
1.19679
1.2072
1.21712
1.22646
1.23515
1.24314
1.25039
1.25687
1.26254
1.26739
1.2714
1.27456
1.27686
1.2783
1.27888
1.27858
1.27742
1.27538
1.27247
1.26869
1.26404
1.25853
1.25216
1.24495
1.23691
1.22807
1.21844
1.20807
1.197
1.18529
1.17303
1.1603
1.14721
1.13392
1.12056
1.10733
1.09442
1.08203
1.07037
1.05961
1.04991
1.04137
1.03407
1.02803
1.02323
1.01961
1.01701
1.01525
1.01411
1.0134
1.01291
1.01248
1.01196
1.01124
1.01026
1.00895
1.00731
1.00536
1.00314
1.0007
0.998122
0.995488
0.99288
0.990373
0.988038
0.985935
0.984119
0.982633
0.981508
0.980763
0.980407
0.980445
0.980873
0.981684
0.982859
0.984368
0.986166
0.988195
0.99039
0.992673
0.994959
0.997154
0.999164
1.0009
1.00227
1.00323
1.00372
1.04418
1.04443
1.04494
1.04572
1.0468
1.04819
1.04989
1.05191
1.05424
1.05687
1.05979
1.06297
1.0664
1.07005
1.07391
1.07798
1.08228
1.08685
1.09173
1.09698
1.10269
1.10891
1.11571
1.1231
1.13109
1.13966
1.14875
1.15828
1.16816
1.17827
1.1885
1.19871
1.20879
1.21864
1.22813
1.2372
1.24576
1.25374
1.26109
1.26778
1.27375
1.27899
1.28348
1.28718
1.2901
1.29222
1.29354
1.29404
1.29373
1.2926
1.29065
1.28789
1.28431
1.27992
1.27474
1.26876
1.26201
1.2545
1.24625
1.23731
1.22769
1.21747
1.20669
1.19543
1.18379
1.17186
1.15977
1.14765
1.13567
1.12398
1.11274
1.10213
1.09227
1.08331
1.07531
1.06835
1.06244
1.05756
1.05365
1.0506
1.04828
1.04653
1.04518
1.04408
1.04309
1.04211
1.04102
1.03977
1.03831
1.03663
1.03473
1.03264
1.0304
1.02807
1.02571
1.02338
1.02114
1.01906
1.01717
1.01554
1.01418
1.01314
1.01243
1.01205
1.01202
1.01232
1.01295
1.01389
1.01511
1.01657
1.01822
1.02001
1.02186
1.02372
1.02549
1.02712
1.02852
1.02962
1.03039
1.03079
1.07655
1.0768
1.07731
1.0781
1.07916
1.08051
1.08216
1.0841
1.08633
1.08885
1.09164
1.09468
1.09798
1.1015
1.10525
1.10924
1.11347
1.11797
1.12279
1.12797
1.13355
1.13957
1.14609
1.1531
1.16061
1.16859
1.17699
1.18576
1.1948
1.20404
1.21336
1.22266
1.23185
1.24083
1.2495
1.25779
1.26563
1.27295
1.27971
1.28587
1.29137
1.2962
1.30034
1.30376
1.30645
1.30839
1.30958
1.31001
1.30969
1.30859
1.30674
1.30412
1.30074
1.29661
1.29174
1.28614
1.27982
1.27282
1.26514
1.25684
1.24794
1.23849
1.22857
1.21823
1.20756
1.19666
1.18564
1.17461
1.16371
1.15307
1.14283
1.13312
1.12405
1.11573
1.10822
1.10158
1.09582
1.09092
1.08683
1.08347
1.08075
1.07853
1.0767
1.07513
1.07371
1.07235
1.07096
1.06949
1.0679
1.06616
1.06429
1.06229
1.0602
1.05805
1.05589
1.05378
1.05176
1.04987
1.04816
1.04667
1.04543
1.04445
1.04375
1.04335
1.04325
1.04344
1.04391
1.04464
1.04561
1.04678
1.04812
1.04956
1.05106
1.05256
1.05399
1.0553
1.05642
1.05731
1.05793
1.05825
1.10866
1.10891
1.10942
1.11019
1.11123
1.11254
1.11413
1.116
1.11814
1.12055
1.12323
1.12615
1.12932
1.13272
1.13636
1.14024
1.14438
1.14879
1.1535
1.15854
1.16395
1.16975
1.17597
1.1826
1.18965
1.19709
1.20487
1.21296
1.22126
1.22972
1.23824
1.24673
1.25512
1.26332
1.27125
1.27883
1.28602
1.29274
1.29894
1.3046
1.30967
1.31411
1.31792
1.32107
1.32353
1.32531
1.32638
1.32675
1.32641
1.32535
1.32358
1.3211
1.31792
1.31404
1.30947
1.30423
1.29833
1.2918
1.28466
1.27696
1.26872
1.26
1.25085
1.24135
1.23157
1.22159
1.21152
1.20145
1.19149
1.18177
1.1724
1.16347
1.15509
1.14734
1.14027
1.13393
1.12833
1.12346
1.11927
1.11571
1.11271
1.11015
1.10796
1.10603
1.10428
1.10262
1.10099
1.09933
1.09762
1.09583
1.09397
1.09203
1.09004
1.08803
1.08604
1.08409
1.08224
1.08051
1.07894
1.07756
1.0764
1.07547
1.07479
1.07436
1.07419
1.07428
1.0746
1.07516
1.07591
1.07684
1.0779
1.07905
1.08025
1.08146
1.08261
1.08366
1.08456
1.08528
1.08577
1.08602
1.14052
1.14076
1.14126
1.14202
1.14303
1.1443
1.14583
1.14763
1.14968
1.152
1.15456
1.15737
1.16042
1.16371
1.16723
1.171
1.17502
1.1793
1.18387
1.18875
1.19396
1.19951
1.20542
1.21169
1.2183
1.22524
1.23246
1.23993
1.24757
1.25533
1.26313
1.27091
1.27858
1.28608
1.29334
1.30028
1.30686
1.31303
1.31873
1.32392
1.32858
1.33267
1.33616
1.33905
1.34131
1.34292
1.34389
1.3442
1.34384
1.34282
1.34114
1.3388
1.3358
1.33215
1.32787
1.32297
1.31747
1.31139
1.30476
1.29761
1.28999
1.28193
1.2735
1.26476
1.25577
1.24662
1.23738
1.22816
1.21904
1.21013
1.20151
1.19327
1.1855
1.17826
1.1716
1.16555
1.16012
1.15531
1.15109
1.14741
1.1442
1.14141
1.13896
1.13676
1.13475
1.13286
1.13103
1.12923
1.12742
1.12559
1.12372
1.12182
1.11991
1.11801
1.11613
1.11432
1.11259
1.11098
1.10952
1.10823
1.10713
1.10624
1.10556
1.10511
1.10488
1.10487
1.10507
1.10547
1.10604
1.10675
1.10758
1.1085
1.10945
1.11041
1.11133
1.11216
1.11289
1.11346
1.11385
1.11406
1.17213
1.17237
1.17285
1.17358
1.17456
1.17579
1.17727
1.17899
1.18097
1.18319
1.18565
1.18835
1.19129
1.19445
1.19786
1.2015
1.20538
1.20953
1.21394
1.21863
1.22363
1.22892
1.23453
1.24043
1.24663
1.2531
1.25981
1.26671
1.27376
1.2809
1.28806
1.29519
1.30222
1.30909
1.31573
1.3221
1.32813
1.33378
1.33901
1.34378
1.34806
1.35181
1.35502
1.35766
1.35972
1.36119
1.36206
1.36231
1.36194
1.36096
1.35936
1.35715
1.35433
1.35091
1.3469
1.34232
1.33719
1.33153
1.32537
1.31874
1.31168
1.30424
1.29646
1.2884
1.28013
1.27172
1.26324
1.25477
1.24639
1.23819
1.23024
1.22261
1.21538
1.2086
1.20231
1.19654
1.19129
1.18658
1.18236
1.17862
1.17529
1.17234
1.1697
1.1673
1.16509
1.16303
1.16105
1.15914
1.15725
1.15537
1.1535
1.15163
1.14978
1.14795
1.14616
1.14445
1.14283
1.14131
1.13994
1.13872
1.13766
1.13679
1.13612
1.13564
1.13535
1.13526
1.13535
1.13561
1.13602
1.13655
1.13719
1.1379
1.13865
1.1394
1.14012
1.14079
1.14136
1.14181
1.14213
1.14229
1.20349
1.20373
1.2042
1.2049
1.20585
1.20703
1.20845
1.21011
1.21201
1.21414
1.2165
1.2191
1.22192
1.22497
1.22825
1.23175
1.2355
1.23948
1.24372
1.24822
1.25299
1.25802
1.26332
1.26888
1.2747
1.28073
1.28697
1.29336
1.29986
1.30644
1.31302
1.31957
1.32602
1.33232
1.33841
1.34424
1.34978
1.35496
1.35976
1.36413
1.36806
1.3715
1.37444
1.37686
1.37874
1.38006
1.38083
1.38103
1.38066
1.37971
1.37819
1.3761
1.37345
1.37024
1.36649
1.36222
1.35744
1.35217
1.34645
1.3403
1.33376
1.32688
1.31969
1.31226
1.30464
1.2969
1.28909
1.28129
1.27357
1.26599
1.25864
1.25156
1.24481
1.23845
1.2325
1.227
1.22194
1.21734
1.21317
1.2094
1.20602
1.20296
1.20018
1.19765
1.1953
1.19311
1.19102
1.18901
1.18706
1.18515
1.18327
1.18143
1.17961
1.17784
1.17613
1.17449
1.17295
1.17151
1.1702
1.16903
1.16801
1.16716
1.16648
1.16597
1.16563
1.16546
1.16545
1.16559
1.16587
1.16625
1.16672
1.16726
1.16784
1.16842
1.16898
1.1695
1.16995
1.17031
1.17056
1.17068
1.23463
1.23485
1.23531
1.23599
1.2369
1.23803
1.2394
1.24099
1.24281
1.24486
1.24713
1.24962
1.25232
1.25525
1.2584
1.26177
1.26537
1.26919
1.27325
1.27754
1.28208
1.28685
1.29186
1.29709
1.30253
1.30816
1.31396
1.31988
1.3259
1.33196
1.33803
1.34405
1.34997
1.35575
1.36134
1.3667
1.37177
1.37653
1.38093
1.38494
1.38854
1.39169
1.39438
1.39659
1.3983
1.3995
1.40018
1.40033
1.39995
1.39904
1.39759
1.39562
1.39313
1.39012
1.38662
1.38263
1.37817
1.37327
1.36795
1.36224
1.35619
1.34982
1.34317
1.33631
1.32928
1.32213
1.31493
1.30773
1.30059
1.29359
1.28676
1.28017
1.27386
1.26788
1.26226
1.25701
1.25214
1.24766
1.24356
1.23982
1.23641
1.23329
1.23044
1.22781
1.22536
1.22308
1.22091
1.21884
1.21684
1.2149
1.21302
1.21119
1.2094
1.20768
1.20602
1.20444
1.20296
1.20158
1.20032
1.19918
1.19819
1.19735
1.19666
1.19612
1.19574
1.1955
1.19541
1.19545
1.1956
1.19586
1.19619
1.19659
1.19702
1.19746
1.19789
1.19829
1.19864
1.19891
1.1991
1.1992
1.26553
1.26575
1.26619
1.26684
1.26771
1.26881
1.27012
1.27165
1.27339
1.27535
1.27753
1.27991
1.28251
1.28532
1.28834
1.29157
1.29501
1.29866
1.30253
1.30662
1.31093
1.31544
1.32016
1.32508
1.33018
1.33543
1.34083
1.34632
1.35189
1.35749
1.36308
1.36862
1.37407
1.37938
1.38451
1.38942
1.39408
1.39845
1.40248
1.40616
1.40946
1.41235
1.41481
1.41682
1.41837
1.41945
1.42005
1.42016
1.41977
1.41889
1.41752
1.41566
1.41332
1.4105
1.40722
1.4035
1.39934
1.39478
1.38984
1.38454
1.37893
1.37302
1.36688
1.36053
1.35403
1.34742
1.34076
1.3341
1.32749
1.32099
1.31464
1.3085
1.30259
1.29696
1.29163
1.28663
1.28195
1.27761
1.2736
1.2699
1.2665
1.26336
1.26046
1.25778
1.25527
1.25292
1.2507
1.24858
1.24655
1.2446
1.24271
1.24089
1.23914
1.23745
1.23583
1.2343
1.23286
1.23153
1.2303
1.2292
1.22823
1.22739
1.22669
1.22612
1.2257
1.22541
1.22524
1.22519
1.22524
1.22539
1.2256
1.22588
1.22618
1.22651
1.22683
1.22713
1.22739
1.2276
1.22775
1.22782
1.29622
1.29643
1.29685
1.29748
1.29831
1.29936
1.30062
1.30208
1.30375
1.30563
1.30771
1.31
1.31249
1.31517
1.31806
1.32115
1.32443
1.32792
1.3316
1.33549
1.33956
1.34383
1.34828
1.35289
1.35766
1.36257
1.36759
1.37269
1.37784
1.38302
1.38817
1.39328
1.3983
1.40318
1.4079
1.41241
1.41669
1.42069
1.42439
1.42777
1.43079
1.43343
1.43568
1.43751
1.43892
1.43989
1.44041
1.44048
1.44009
1.43924
1.43794
1.43619
1.43398
1.43134
1.42828
1.4248
1.42092
1.41668
1.41208
1.40716
1.40195
1.39648
1.39078
1.3849
1.37888
1.37277
1.3666
1.36042
1.35429
1.34824
1.34233
1.33658
1.33104
1.32573
1.32069
1.31591
1.31143
1.30723
1.30333
1.29969
1.29632
1.29319
1.29028
1.28757
1.28503
1.28264
1.28038
1.27824
1.27619
1.27423
1.27234
1.27054
1.2688
1.26714
1.26556
1.26407
1.26267
1.26137
1.26017
1.25909
1.25813
1.25729
1.25658
1.25599
1.25553
1.25518
1.25495
1.25482
1.25479
1.25484
1.25496
1.25513
1.25533
1.25556
1.25579
1.256
1.2562
1.25635
1.25646
1.25652
1.32669
1.3269
1.3273
1.3279
1.3287
1.32971
1.33091
1.33231
1.33391
1.33571
1.3377
1.33988
1.34226
1.34483
1.34758
1.35053
1.35366
1.35698
1.36048
1.36416
1.36801
1.37204
1.37622
1.38055
1.38501
1.38959
1.39426
1.399
1.40378
1.40856
1.41333
1.41804
1.42265
1.42715
1.43149
1.43564
1.43956
1.44324
1.44664
1.44973
1.45249
1.45491
1.45696
1.45863
1.4599
1.46077
1.46122
1.46125
1.46086
1.46005
1.45881
1.45715
1.45508
1.45261
1.44974
1.44649
1.44288
1.43892
1.43465
1.43008
1.42523
1.42015
1.41487
1.40942
1.40384
1.39816
1.39244
1.3867
1.381
1.37537
1.36984
1.36446
1.35925
1.35425
1.34946
1.34492
1.34062
1.33657
1.33277
1.32922
1.3259
1.3228
1.3199
1.31718
1.31463
1.31223
1.30995
1.3078
1.30574
1.30378
1.3019
1.30011
1.29839
1.29676
1.29521
1.29374
1.29237
1.2911
1.28992
1.28886
1.28791
1.28707
1.28634
1.28573
1.28523
1.28484
1.28456
1.28436
1.28426
1.28423
1.28426
1.28434
1.28446
1.28461
1.28476
1.28491
1.28504
1.28515
1.28523
1.28527
1.35697
1.35716
1.35755
1.35813
1.35889
1.35985
1.361
1.36234
1.36387
1.36559
1.36749
1.36958
1.37184
1.37429
1.37692
1.37972
1.3827
1.38585
1.38917
1.39265
1.39629
1.40008
1.40402
1.40808
1.41225
1.41652
1.42087
1.42527
1.4297
1.43413
1.43853
1.44288
1.44714
1.45128
1.45527
1.45908
1.46269
1.46606
1.46918
1.47201
1.47455
1.47675
1.47862
1.48014
1.48129
1.48206
1.48245
1.48246
1.48206
1.48128
1.4801
1.47854
1.47659
1.47427
1.47158
1.46855
1.46518
1.46149
1.45751
1.45326
1.44875
1.44404
1.43913
1.43406
1.42888
1.42361
1.41829
1.41295
1.40764
1.40238
1.39721
1.39217
1.38727
1.38254
1.378
1.37367
1.36955
1.36566
1.36198
1.35852
1.35526
1.35221
1.34933
1.34663
1.34409
1.34169
1.33941
1.33725
1.3352
1.33324
1.33137
1.32959
1.3279
1.32629
1.32476
1.32332
1.32198
1.32072
1.31957
1.31852
1.31757
1.31673
1.31599
1.31536
1.31483
1.3144
1.31407
1.31382
1.31365
1.31355
1.31351
1.31352
1.31357
1.31364
1.31373
1.31382
1.31391
1.31398
1.31403
1.31406
1.38705
1.38724
1.38761
1.38816
1.38889
1.38981
1.39091
1.39219
1.39365
1.39528
1.3971
1.39909
1.40125
1.40358
1.40608
1.40874
1.41157
1.41456
1.4177
1.42099
1.42442
1.42799
1.43168
1.43549
1.43939
1.44338
1.44742
1.45151
1.45562
1.45973
1.4638
1.46781
1.47174
1.47555
1.47923
1.48274
1.48605
1.48915
1.49201
1.4946
1.49692
1.49894
1.50064
1.50202
1.50305
1.50374
1.50408
1.50405
1.50366
1.5029
1.50178
1.5003
1.49847
1.49629
1.49378
1.49094
1.48779
1.48436
1.48064
1.47668
1.47249
1.4681
1.46354
1.45883
1.45401
1.4491
1.44415
1.43917
1.43422
1.4293
1.42446
1.41972
1.41511
1.41064
1.40634
1.40221
1.39827
1.39452
1.39097
1.3876
1.38443
1.38143
1.3786
1.37593
1.3734
1.37101
1.36875
1.3666
1.36456
1.36261
1.36076
1.359
1.35732
1.35573
1.35423
1.35281
1.35149
1.35025
1.34911
1.34807
1.34713
1.34628
1.34553
1.34488
1.34433
1.34387
1.34349
1.34319
1.34297
1.34282
1.34272
1.34267
1.34265
1.34267
1.3427
1.34274
1.34279
1.34283
1.34286
1.34287
1.41695
1.41713
1.41748
1.41801
1.41871
1.41958
1.42063
1.42185
1.42324
1.4248
1.42653
1.42842
1.43048
1.43269
1.43507
1.4376
1.44028
1.44311
1.44608
1.44918
1.45242
1.45577
1.45924
1.4628
1.46645
1.47017
1.47394
1.47774
1.48155
1.48535
1.48912
1.49283
1.49645
1.49997
1.50335
1.50658
1.50963
1.51247
1.5151
1.51748
1.51959
1.52144
1.52299
1.52423
1.52517
1.52578
1.52606
1.526
1.52561
1.52488
1.52382
1.52242
1.5207
1.51865
1.51629
1.51364
1.5107
1.50749
1.50403
1.50034
1.49644
1.49235
1.4881
1.48371
1.47922
1.47465
1.47003
1.46539
1.46075
1.45615
1.45161
1.44716
1.44281
1.43858
1.4345
1.43056
1.4268
1.42319
1.41976
1.4165
1.41341
1.41048
1.4077
1.40507
1.40258
1.40022
1.39798
1.39585
1.39382
1.39189
1.39006
1.38832
1.38666
1.38509
1.38361
1.38221
1.38091
1.37969
1.37856
1.37753
1.37658
1.37573
1.37498
1.37431
1.37373
1.37324
1.37283
1.3725
1.37223
1.37202
1.37187
1.37177
1.37171
1.37167
1.37166
1.37166
1.37167
1.37169
1.3717
1.3717
1.44668
1.44684
1.44718
1.44768
1.44835
1.44918
1.45018
1.45134
1.45267
1.45415
1.4558
1.4576
1.45955
1.46165
1.46391
1.4663
1.46884
1.47151
1.47432
1.47725
1.48029
1.48344
1.48669
1.49003
1.49344
1.49691
1.50042
1.50395
1.50749
1.51101
1.5145
1.51793
1.52127
1.52452
1.52763
1.53061
1.53341
1.53602
1.53843
1.54061
1.54254
1.54423
1.54564
1.54677
1.5476
1.54814
1.54837
1.5483
1.54791
1.5472
1.54619
1.54487
1.54324
1.54132
1.53911
1.53663
1.53388
1.53088
1.52765
1.5242
1.52056
1.51675
1.51279
1.5087
1.50451
1.50024
1.49593
1.49159
1.48725
1.48294
1.47867
1.47448
1.47038
1.46638
1.4625
1.45876
1.45515
1.4517
1.44839
1.44524
1.44223
1.43938
1.43666
1.43408
1.43163
1.4293
1.42709
1.42499
1.42298
1.42108
1.41927
1.41755
1.41591
1.41436
1.4129
1.41153
1.41024
1.40903
1.40792
1.40689
1.40595
1.4051
1.40433
1.40365
1.40306
1.40254
1.4021
1.40173
1.40142
1.40118
1.40098
1.40084
1.40073
1.40065
1.4006
1.40057
1.40056
1.40055
1.40054
1.40054
1.47623
1.47639
1.47671
1.47719
1.47782
1.47862
1.47957
1.48068
1.48193
1.48335
1.48491
1.48662
1.48847
1.49046
1.4926
1.49487
1.49727
1.49979
1.50244
1.50519
1.50806
1.51102
1.51406
1.51718
1.52037
1.5236
1.52687
1.53016
1.53344
1.53671
1.53994
1.54311
1.5462
1.54919
1.55206
1.5548
1.55738
1.55978
1.56198
1.56398
1.56575
1.56728
1.56857
1.56959
1.57034
1.57081
1.571
1.5709
1.57051
1.56984
1.56887
1.56762
1.56608
1.56428
1.5622
1.55987
1.5573
1.5545
1.55148
1.54826
1.54486
1.5413
1.5376
1.53379
1.52988
1.52589
1.52185
1.51779
1.51373
1.50968
1.50567
1.50172
1.49784
1.49405
1.49037
1.4868
1.48336
1.48005
1.47687
1.47382
1.47091
1.46813
1.46548
1.46296
1.46056
1.45827
1.4561
1.45402
1.45205
1.45017
1.44838
1.44669
1.44508
1.44355
1.44211
1.44075
1.43948
1.43829
1.43718
1.43616
1.43523
1.43437
1.4336
1.43291
1.4323
1.43176
1.43129
1.43089
1.43056
1.43028
1.43005
1.42986
1.42972
1.42961
1.42953
1.42947
1.42943
1.4294
1.42939
1.42938
1.50563
1.50578
1.50608
1.50654
1.50714
1.5079
1.5088
1.50985
1.51105
1.51239
1.51387
1.51549
1.51725
1.51914
1.52116
1.5233
1.52557
1.52795
1.53044
1.53304
1.53573
1.5385
1.54136
1.54428
1.54725
1.55027
1.55331
1.55637
1.55942
1.56244
1.56543
1.56836
1.57122
1.57398
1.57663
1.57915
1.58152
1.58372
1.58575
1.58758
1.5892
1.59059
1.59176
1.59268
1.59335
1.59376
1.59391
1.5938
1.59341
1.59276
1.59183
1.59065
1.5892
1.5875
1.58555
1.58337
1.58095
1.57833
1.57551
1.5725
1.56932
1.566
1.56254
1.55897
1.55531
1.55158
1.54781
1.544
1.54018
1.53638
1.5326
1.52888
1.52521
1.52163
1.51813
1.51473
1.51144
1.50826
1.50521
1.50227
1.49945
1.49676
1.49418
1.49172
1.48937
1.48713
1.485
1.48296
1.48102
1.47917
1.47741
1.47574
1.47415
1.47265
1.47123
1.46989
1.46864
1.46746
1.46637
1.46535
1.46442
1.46357
1.46279
1.46209
1.46146
1.46091
1.46042
1.46
1.45963
1.45932
1.45907
1.45885
1.45868
1.45854
1.45843
1.45835
1.45829
1.45825
1.45822
1.45821
1.53487
1.53502
1.5353
1.53574
1.53631
1.53703
1.53789
1.53888
1.54002
1.54129
1.54269
1.54423
1.54589
1.54768
1.54959
1.55161
1.55375
1.556
1.55834
1.56078
1.56331
1.56591
1.56858
1.57131
1.57409
1.5769
1.57974
1.58258
1.58541
1.58822
1.59099
1.5937
1.59634
1.59889
1.60133
1.60365
1.60583
1.60785
1.60971
1.61138
1.61286
1.61414
1.61519
1.61602
1.61662
1.61698
1.61709
1.61696
1.61658
1.61594
1.61506
1.61394
1.61257
1.61097
1.60914
1.60708
1.60482
1.60236
1.59972
1.5969
1.59393
1.59082
1.58759
1.58425
1.58082
1.57733
1.57379
1.57021
1.56663
1.56305
1.55949
1.55597
1.55251
1.54911
1.54578
1.54255
1.5394
1.53636
1.53342
1.5306
1.52788
1.52526