/*--------------------------------*- C++ -*----------------------------------*\
| =========                 |                                                 |
| \\      /  F ield         | OpenFOAM: The Open Source CFD Toolbox           |
|  \\    /   O peration     | Version:  2406                                  |
|   \\  /    A nd           | Website:  www.openfoam.com                      |
|    \\/     M anipulation  |                                                 |
\*---------------------------------------------------------------------------*/
FoamFile
{
    version     2.0;
    format      ascii;
    arch        "LSB;label=32;scalar=64";
    class       volScalarField;
    location    "9";
    object      C;
}
// * * * * * * * * * * * * * * * * * * * * * * * * * * * * * * * * * * * * * //

dimensions      [1 -3 0 0 0 0 0];

internalField   nonuniform List<scalar> 
14400
(
0.216362
0.215552
0.214121
0.212361
0.210578
0.209041
0.207952
0.207435
0.207537
0.208227
0.209387
0.210819
0.212233
0.213266
0.213518
0.21265
0.210539
0.207406
0.203668
0.19978
0.196158
0.19315
0.191051
0.190114
0.190577
0.192678
0.19667
0.202823
0.211426
0.222777
0.237181
0.254955
0.276427
0.301929
0.331778
0.366223
0.405262
0.44775
0.484813
0.510507
0.529609
0.545935
0.559726
0.571168
0.580402
0.587533
0.592641
0.595785
0.597
0.596305
0.593703
0.589177
0.582695
0.574204
0.563632
0.550881
0.53582
0.51828
0.49804
0.470087
0.430862
0.388349
0.349516
0.315341
0.285792
0.260601
0.239438
0.221959
0.207819
0.196676
0.188185
0.182012
0.177857
0.175473
0.174674
0.175334
0.177373
0.180753
0.185467
0.19153
0.198961
0.207771
0.217918
0.229265
0.241491
0.253895
0.264754
0.270719
0.26976
0.263883
0.255877
0.247506
0.239503
0.232254
0.225965
0.220729
0.216552
0.213378
0.211104
0.209588
0.208671
0.208189
0.208001
0.208012
0.208203
0.208635
0.20944
0.2108
0.212921
0.216007
0.22025
0.22581
0.232807
0.241304
0.251287
0.262632
0.275047
0.287939
0.300033
0.307585
0.221727
0.220717
0.218968
0.216863
0.214771
0.212994
0.21175
0.211172
0.211309
0.212128
0.213514
0.215259
0.217054
0.218487
0.219065
0.218293
0.215924
0.212333
0.208087
0.203731
0.199718
0.196408
0.194096
0.193029
0.193439
0.195558
0.199633
0.205928
0.214722
0.22631
0.240994
0.259091
0.280927
0.306833
0.337119
0.372007
0.411437
0.454125
0.489563
0.513604
0.532385
0.548469
0.562076
0.573377
0.582504
0.589555
0.594607
0.597713
0.59891
0.598213
0.595626
0.591133
0.584703
0.576286
0.565813
0.55319
0.538297
0.520978
0.501033
0.474764
0.437009
0.394053
0.354729
0.32008
0.29008
0.264469
0.242917
0.225082
0.21062
0.199189
0.190451
0.184078
0.179776
0.177299
0.176459
0.177128
0.179228
0.182722
0.187607
0.193902
0.201633
0.210817
0.22142
0.233318
0.246206
0.259389
0.270747
0.276508
0.276208
0.270193
0.261693
0.252841
0.244417
0.236818
0.230255
0.22482
0.220518
0.21729
0.215024
0.213568
0.212742
0.212357
0.212243
0.212282
0.212447
0.212808
0.213526
0.214809
0.216888
0.219987
0.224307
0.230016
0.237237
0.246036
0.256403
0.268222
0.281209
0.294733
0.307151
0.313955
0.23297
0.231483
0.229023
0.226178
0.223437
0.221165
0.219606
0.218901
0.219104
0.220184
0.222024
0.224406
0.226995
0.229303
0.230647
0.230163
0.227151
0.222512
0.217174
0.211846
0.207037
0.203118
0.200375
0.199043
0.199341
0.201489
0.20572
0.212283
0.221448
0.233499
0.248734
0.267468
0.290027
0.316738
0.347895
0.38366
0.423738
0.466005
0.498013
0.519681
0.537857
0.553479
0.566732
0.577761
0.58668
0.593576
0.598518
0.601552
0.602712
0.602012
0.599455
0.595026
0.588697
0.580423
0.570142
0.55777
0.543202
0.526303
0.506904
0.483242
0.448459
0.405285
0.365185
0.329636
0.298748
0.272301
0.249981
0.231444
0.216346
0.20435
0.195126
0.188359
0.183762
0.181095
0.18017
0.180857
0.183081
0.186806
0.192037
0.1988
0.207132
0.217059
0.228559
0.241516
0.255629
0.270141
0.282068
0.287439
0.28799
0.282581
0.273383
0.263652
0.254419
0.246143
0.239051
0.233235
0.2287
0.22538
0.223151
0.221837
0.22122
0.221057
0.221115
0.221218
0.221318
0.221515
0.222027
0.223128
0.225099
0.228199
0.232653
0.238639
0.246287
0.255665
0.266767
0.279484
0.293528
0.308177
0.320535
0.325653
0.251101
0.248661
0.244925
0.240842
0.237064
0.234018
0.23197
0.231068
0.231367
0.232837
0.235359
0.238717
0.242559
0.246334
0.249147
0.249464
0.245021
0.238479
0.231342
0.224491
0.218467
0.213628
0.210232
0.208494
0.20861
0.21078
0.215219
0.222159
0.231853
0.244577
0.26062
0.280294
0.30392
0.331822
0.364276
0.40139
0.442506
0.481839
0.508769
0.528564
0.545883
0.560858
0.573613
0.584256
0.592879
0.599553
0.604335
0.607266
0.608373
0.607669
0.605155
0.60082
0.594637
0.586569
0.576562
0.564546
0.550436
0.534127
0.515492
0.494252
0.464162
0.422143
0.381062
0.344187
0.311976
0.284289
0.260831
0.241261
0.225234
0.212416
0.202484
0.195139
0.190106
0.187153
0.186099
0.186815
0.189227
0.193305
0.199061
0.20653
0.215761
0.226786
0.239592
0.254058
0.269826
0.285838
0.297657
0.302639
0.303911
0.300648
0.291096
0.280182
0.269806
0.260568
0.252724
0.246376
0.24153
0.238114
0.23599
0.23495
0.234718
0.234967
0.235348
0.235571
0.23554
0.235417
0.235537
0.236286
0.238028
0.241076
0.245683
0.252043
0.26029
0.270489
0.282626
0.296563
0.311921
0.327535
0.338115
0.341685
0.277559
0.273223
0.267381
0.261446
0.256195
0.25208
0.249366
0.248194
0.248615
0.250598
0.254027
0.258691
0.264247
0.270143
0.275384
0.277489
0.270241
0.26069
0.250989
0.242072
0.234431
0.228368
0.2241
0.221806
0.221655
0.223824
0.228504
0.235909
0.246275
0.259865
0.276961
0.297863
0.322883
0.352318
0.386389
0.425009
0.466579
0.499339
0.521358
0.539916
0.556255
0.570457
0.582604
0.592771
0.601026
0.607422
0.612004
0.614804
0.615844
0.615135
0.612677
0.60846
0.602463
0.594653
0.584989
0.573417
0.55987
0.544277
0.526558
0.50665
0.481969
0.444994
0.402573
0.363949
0.330009
0.300699
0.275752
0.254836
0.237608
0.223733
0.212898
0.204813
0.19922
0.195899
0.194679
0.195439
0.198108
0.202664
0.209122
0.217527
0.227934
0.240384
0.254865
0.271243
0.289031
0.306306
0.316537
0.321311
0.323184
0.322165
0.314585
0.302606
0.290906
0.280493
0.271721
0.264724
0.259521
0.256045
0.254146
0.253581
0.254006
0.254971
0.255936
0.256377
0.256089
0.255372
0.254794
0.254926
0.256244
0.259129
0.263868
0.270666
0.279652
0.290879
0.304298
0.319692
0.336411
0.351511
0.358481
0.361126
0.313505
0.305754
0.296837
0.288431
0.281288
0.275825
0.272276
0.270766
0.271334
0.273945
0.278482
0.284727
0.292328
0.300672
0.308163
0.30883
0.302015
0.289067
0.276308
0.264922
0.255332
0.247779
0.242431
0.239432
0.238923
0.241054
0.245997
0.253945
0.265117
0.279759
0.298142
0.320551
0.347268
0.378529
0.414408
0.454262
0.491919
0.51706
0.536254
0.553488
0.568763
0.582111
0.593575
0.6032
0.611031
0.617105
0.621454
0.624102
0.625065
0.62435
0.621958
0.61788
0.6121
0.604593
0.595326
0.584261
0.571352
0.556551
0.539812
0.521093
0.500179
0.470721
0.429249
0.389067
0.353131
0.321861
0.2951
0.272544
0.253857
0.238711
0.226798
0.217837
0.211584
0.207835
0.206431
0.207259
0.210258
0.215411
0.22274
0.232293
0.244126
0.258282
0.27474
0.293312
0.313227
0.329946
0.338054
0.342866
0.345281
0.345429
0.341949
0.330846
0.317998
0.306312
0.296491
0.288759
0.283179
0.279709
0.278207
0.278401
0.279878
0.28204
0.284066
0.284915
0.284118
0.282319
0.280558
0.279684
0.280303
0.282861
0.287676
0.294951
0.304791
0.31722
0.332096
0.348988
0.366399
0.376959
0.381124
0.383211
0.350258
0.344642
0.333017
0.321926
0.312631
0.305613
0.301095
0.299192
0.299933
0.303274
0.30908
0.317079
0.326774
0.336947
0.341586
0.339911
0.335759
0.322703
0.307254
0.293286
0.281537
0.27228
0.265669
0.261825
0.260867
0.262927
0.268155
0.276723
0.288832
0.30471
0.324613
0.348798
0.377491
0.410789
0.448341
0.487787
0.515971
0.535501
0.553109
0.569017
0.583198
0.595649
0.606384
0.615424
0.622792
0.628513
0.632605
0.635085
0.635963
0.635243
0.632925
0.629003
0.623464
0.616291
0.607461
0.596948
0.584725
0.570765
0.555045
0.537554
0.518297
0.495629
0.461503
0.419881
0.381688
0.348164
0.319292
0.294818
0.274428
0.257805
0.24465
0.234691
0.227697
0.223476
0.221882
0.222815
0.226221
0.23209
0.240446
0.251337
0.26482
0.280922
0.29957
0.320381
0.341662
0.355077
0.362014
0.366818
0.369645
0.370625
0.369964
0.364206
0.351219
0.338352
0.327435
0.318915
0.312949
0.309568
0.308672
0.309973
0.313013
0.317072
0.321023
0.32268
0.320847
0.317125
0.313477
0.311104
0.310682
0.31271
0.317527
0.325305
0.336084
0.349835
0.366191
0.384002
0.396988
0.40254
0.405742
0.407384
0.383625
0.382236
0.374508
0.361706
0.350327
0.341691
0.336128
0.333802
0.334737
0.338882
0.346058
0.355787
0.366853
0.373981
0.374154
0.372255
0.369273
0.360713
0.343822
0.327422
0.31341
0.302291
0.294262
0.289447
0.28796
0.289921
0.295463
0.304738
0.31792
0.335218
0.356865
0.383074
0.413966
0.449378
0.487814
0.517956
0.538072
0.555572
0.571663
0.586275
0.599363
0.610903
0.620888
0.629318
0.636202
0.641549
0.645369
0.64767
0.648458
0.647734
0.645497
0.641743
0.636463
0.629646
0.621279
0.611346
0.599836
0.586738
0.572049
0.55578
0.537962
0.51865
0.493526
0.455686
0.415845
0.380002
0.348795
0.322146
0.299814
0.28151
0.26695
0.255872
0.248057
0.243325
0.241543
0.242622
0.246516
0.253216
0.262749
0.275161
0.290495
0.308743
0.329729
0.352631
0.372069
0.38156
0.388009
0.392748
0.395854
0.397455
0.39773
0.39669
0.389894
0.376652
0.364802
0.355516
0.349159
0.345931
0.345862
0.348613
0.353717
0.360396
0.36739
0.370466
0.366788
0.36016
0.353848
0.349525
0.347709
0.348991
0.353742
0.362054
0.373767
0.388792
0.405811
0.419339
0.425898
0.429439
0.431921
0.433198
0.41691
0.41665
0.414569
0.406632
0.394158
0.384123
0.377543
0.37481
0.375941
0.380877
0.389377
0.400077
0.407603
0.40897
0.407615
0.405652
0.402922
0.398697
0.385791
0.367548
0.351309
0.338246
0.328679
0.322785
0.320696
0.322541
0.328441
0.338521
0.352919
0.371809
0.395387
0.42378
0.456797
0.493148
0.523705
0.544267
0.561205
0.577051
0.591695
0.605057
0.617076
0.627713
0.636946
0.644759
0.651149
0.656113
0.659652
0.661769
0.662464
0.661737
0.659586
0.656008
0.650999
0.644552
0.636661
0.627323
0.616535
0.604301
0.590633
0.575557
0.559116
0.541375
0.522294
0.495078
0.455703
0.417813
0.384127
0.355067
0.330557
0.310366
0.294231
0.281906
0.273181
0.267894
0.265924
0.26719
0.271651
0.279301
0.290161
0.304265
0.321625
0.342141
0.365285
0.388664
0.402261
0.409715
0.415714
0.42031
0.42357
0.425609
0.426591
0.426733
0.425724
0.419645
0.408212
0.398587
0.391864
0.388795
0.389763
0.394129
0.401227
0.409871
0.41437
0.41576
0.414413
0.409722
0.40102
0.394896
0.391426
0.391772
0.396422
0.40533
0.41765
0.433153
0.445032
0.451383
0.454694
0.457397
0.459305
0.46029
0.450455
0.450383
0.45032
0.448607
0.442472
0.432323
0.425133
0.422145
0.423396
0.428732
0.43776
0.443317
0.444527
0.443194
0.441685
0.439814
0.437468
0.434603
0.428522
0.413083
0.395418
0.380555
0.369397
0.362339
0.359583
0.361306
0.367628
0.378632
0.394381
0.414987
0.440581
0.471065
0.504981
0.534194
0.554267
0.570227
0.585431
0.599731
0.613012
0.625181
0.63617
0.645929
0.654422
0.661624
0.667521
0.672101
0.675358
0.67729
0.677892
0.677163
0.675102
0.671705
0.666972
0.6609
0.653492
0.644749
0.634679
0.623297
0.610626
0.5967
0.581569
0.565301
0.547977
0.528989
0.500664
0.461929
0.42579
0.394131
0.367227
0.344952
0.327069
0.313355
0.303622
0.297723
0.295555
0.297048
0.30216
0.310877
0.323208
0.339152
0.358664
0.381479
0.406219
0.423979
0.432559
0.439284
0.444821
0.449207
0.452507
0.454821
0.456292
0.457107
0.457511
0.457323
0.453383
0.446884
0.440183
0.437223
0.439345
0.444751
0.449743
0.452777
0.453253
0.453227
0.454043
0.453852
0.451073
0.446027
0.441061
0.440503
0.444992
0.454431
0.465661
0.474147
0.478909
0.48161
0.484097
0.486152
0.48761
0.488367
0.484071
0.484109
0.484248
0.48462
0.484323
0.481163
0.477024
0.474385
0.475462
0.478526
0.480868
0.480612
0.479028
0.477595
0.476115
0.474453
0.472534
0.470343
0.467928
0.460924
0.44538
0.429499
0.416834
0.408583
0.4051
0.406711
0.413535
0.425608
0.442806
0.465092
0.492435
0.523758
0.549715
0.568081
0.582725
0.596942
0.61056
0.623432
0.635439
0.646485
0.656495
0.665411
0.673189
0.679796
0.685209
0.689411
0.69239
0.694139
0.694651
0.693923
0.691953
0.688739
0.684283
0.678587
0.671656
0.663501
0.654136
0.643583
0.631872
0.619047
0.60516
0.590283
0.574498
0.557898
0.539095
0.511032
0.473917
0.439775
0.410374
0.385872
0.366078
0.350831
0.339971
0.333388
0.331005
0.332762
0.338607
0.348505
0.36243
0.380286
0.401844
0.426145
0.446772
0.45715
0.464062
0.470041
0.475078
0.479191
0.482431
0.484877
0.486647
0.487893
0.488804
0.489609
0.490532
0.489493
0.487536
0.48645
0.487061
0.488451
0.488978
0.488051
0.487694
0.487886
0.488702
0.490124
0.492024
0.492056
0.491674
0.492576
0.495987
0.500955
0.50562
0.50807
0.510019
0.512048
0.513934
0.515501
0.516619
0.5172
0.517649
0.517733
0.517942
0.518352
0.519068
0.520151
0.519848
0.519068
0.518881
0.518519
0.516581
0.514843
0.513375
0.512042
0.510727
0.509349
0.507871
0.506302
0.504703
0.503158
0.496963
0.484486
0.47105
0.461802
0.457547
0.459097
0.466506
0.479809
0.498395
0.52166
0.548906
0.570156
0.585608
0.598658
0.611608
0.624257
0.636434
0.647997
0.658826
0.668825
0.677914
0.686031
0.693126
0.699161
0.704108
0.707944
0.710653
0.712225
0.71265
0.711925
0.710047
0.707015
0.702834
0.697507
0.691046
0.683464
0.674781
0.665026
0.654234
0.642454
0.629743
0.616174
0.601834
0.586825
0.571266
0.553386
0.527043
0.492012
0.460387
0.433705
0.41188
0.394968
0.382852
0.375493
0.372866
0.374922
0.381584
0.392751
0.408353
0.427998
0.450791
0.472431
0.483991
0.490556
0.496496
0.501741
0.506258
0.51005
0.513147
0.51561
0.517526
0.519012
0.520204
0.521253
0.522306
0.523468
0.524561
0.524876
0.524316
0.523179
0.522244
0.521698
0.521584
0.521923
0.522751
0.524085
0.525957
0.528467
0.531272
0.533517
0.535593
0.53702
0.538097
0.539491
0.541049
0.54263
0.54409
0.545301
0.546164
0.546613
0.551142
0.551234
0.551436
0.551779
0.552287
0.552929
0.553527
0.553695
0.552906
0.551562
0.550139
0.548801
0.547589
0.546471
0.545401
0.544345
0.543299
0.542293
0.541399
0.540742
0.540491
0.537006
0.530192
0.521333
0.516581
0.518325
0.526223
0.540625
0.559693
0.578747
0.594712
0.606586
0.617855
0.629333
0.640792
0.652043
0.662923
0.673296
0.683045
0.692075
0.700306
0.707672
0.714123
0.719615
0.724117
0.727603
0.730054
0.731456
0.731801
0.731081
0.729294
0.726442
0.722529
0.717562
0.711556
0.704526
0.696499
0.687506
0.677586
0.666791
0.655182
0.642836
0.62984
0.616301
0.602342
0.588112
0.572119
0.548886
0.516974
0.488853
0.464993
0.446375
0.432863
0.424611
0.421698
0.424091
0.431651
0.444077
0.461315
0.481913
0.501953
0.513316
0.519118
0.524585
0.529627
0.534168
0.538164
0.541602
0.544497
0.546888
0.548837
0.550425
0.551746
0.552894
0.553943
0.554912
0.555696
0.556061
0.555922
0.555497
0.555101
0.554913
0.55502
0.55547
0.556295
0.557507
0.559109
0.561069
0.563214
0.565274
0.566912
0.568252
0.569474
0.570746
0.572056
0.573335
0.574493
0.575447
0.576124
0.576476
0.584543
0.584623
0.584788
0.585041
0.585372
0.585726
0.585977
0.585933
0.585429
0.584587
0.583613
0.582634
0.58171
0.580853
0.58006
0.579332
0.578687
0.57817
0.577859
0.577879
0.578406
0.579701
0.580139
0.579122
0.579182
0.582255
0.589552
0.599917
0.611275
0.621732
0.630523
0.639982
0.649892
0.660026
0.670186
0.6802
0.68992
0.699218
0.707983
0.716124
0.723561
0.73023
0.736078
0.74106
0.745142
0.748297
0.750503
0.751747
0.752015
0.751303
0.749607
0.74693
0.743277
0.738658
0.733088
0.726587
0.719184
0.710911
0.701813
0.691941
0.68136
0.670147
0.65839
0.646195
0.633689
0.621016
0.608353
0.595034
0.575913
0.550621
0.525361
0.505435
0.490403
0.481141
0.477893
0.480633
0.489163
0.502386
0.52043
0.535899
0.545307
0.549941
0.55456
0.559038
0.563259
0.56714
0.570628
0.573698
0.576351
0.578608
0.580509
0.582106
0.583462
0.584633
0.585658
0.586543
0.587236
0.587662
0.587809
0.587785
0.587751
0.587833
0.588114
0.588643
0.589449
0.590541
0.591903
0.593487
0.595179
0.59683
0.598301
0.599602
0.600802
0.601964
0.603095
0.604159
0.605102
0.605869
0.606411
0.606691
0.617865
0.617927
0.61805
0.618227
0.618434
0.618626
0.618723
0.618631
0.61829
0.617745
0.617092
0.616413
0.615762
0.61517
0.614654
0.614236
0.613948
0.61384
0.61399
0.614507
0.615534
0.617256
0.619879
0.623627
0.627487
0.631851
0.637464
0.643524
0.649689
0.656732
0.664541
0.672928
0.681705
0.690693
0.699725
0.708651
0.717339
0.725672
0.733547
0.740876
0.747585
0.75361
0.758898
0.763404
0.767094
0.769939
0.771917
0.773011
0.77321
0.772508
0.770902
0.768394
0.764991
0.760704
0.75555
0.749552
0.742737
0.735142
0.726812
0.717801
0.708172
0.698
0.687376
0.676403
0.665201
0.653912
0.642699
0.631754
0.621183
0.607146
0.59007
0.571246
0.554941
0.544856
0.541255
0.544056
0.553349
0.564995
0.574225
0.580023
0.58309
0.586536
0.590143
0.593748
0.597231
0.600504
0.603509
0.606212
0.608601
0.610684
0.612483
0.61403
0.615362
0.616516
0.617515
0.618363
0.619045
0.619542
0.619866
0.620083
0.620284
0.620555
0.620958
0.621539
0.622319
0.623304
0.624476
0.625794
0.627186
0.628565
0.62986
0.631054
0.632165
0.633214
0.634201
0.635103
0.635888
0.636517
0.636958
0.637185
0.651124
0.65117
0.651259
0.65138
0.651512
0.65162
0.651658
0.651577
0.651355
0.651011
0.650596
0.650163
0.649756
0.649409
0.649151
0.649011
0.649027
0.649252
0.649755
0.650624
0.651968
0.653907
0.656552
0.65996
0.663997
0.668521
0.673329
0.67862
0.684467
0.690938
0.697981
0.705483
0.713308
0.721316
0.729369
0.73734
0.745113
0.752583
0.759655
0.766249
0.772293
0.777727
0.782499
0.786565
0.789891
0.792448
0.794214
0.79517
0.795307
0.794617
0.793098
0.790753
0.787589
0.783618
0.778858
0.773332
0.76707
0.760109
0.752494
0.744278
0.735524
0.726307
0.716712
0.706839
0.696801
0.68673
0.676776
0.667111
0.65793
0.649477
0.640763
0.630508
0.620599
0.612953
0.609192
0.609438
0.612205
0.615531
0.617039
0.618396
0.620459
0.622969
0.625727
0.628581
0.631413
0.634137
0.636692
0.639039
0.641158
0.643045
0.644709
0.646167
0.647442
0.648555
0.649522
0.65035
0.65104
0.651594
0.652032
0.652397
0.652748
0.653142
0.653627
0.654234
0.654984
0.655879
0.656904
0.658029
0.659206
0.660384
0.661518
0.662588
0.663591
0.664527
0.665391
0.666165
0.666828
0.667354
0.667719
0.667906
0.684336
0.684371
0.684437
0.684523
0.684614
0.684686
0.684711
0.684666
0.68454
0.684348
0.684118
0.683887
0.683691
0.683561
0.683529
0.683629
0.683899
0.684387
0.685153
0.686267
0.687807
0.689851
0.692461
0.695656
0.699382
0.703566
0.708141
0.713148
0.718621
0.724572
0.730963
0.737715
0.744729
0.751892
0.759095
0.766228
0.773191
0.779891
0.786242
0.792171
0.797611
0.802506
0.806805
0.810467
0.813458
0.815749
0.817319
0.81815
0.81823
0.817555
0.81612
0.813931
0.810993
0.80732
0.802931
0.797848
0.792102
0.78573
0.778776
0.771293
0.763341
0.754992
0.746327
0.737439
0.728434
0.719432
0.710565
0.701984
0.693851
0.686346
0.679635
0.674019
0.669155
0.664584
0.661096
0.658837
0.656853
0.655535
0.655375
0.656057
0.657381
0.659154
0.661217
0.663434
0.665702
0.667938
0.670083
0.672094
0.673947
0.675629
0.67714
0.678488
0.679683
0.680739
0.681667
0.682475
0.68317
0.683761
0.68427
0.684726
0.68517
0.68564
0.686171
0.686788
0.687505
0.688323
0.689232
0.69021
0.691227
0.692247
0.693241
0.69419
0.695083
0.695913
0.696669
0.697339
0.697906
0.698351
0.698658
0.698815
0.717514
0.717541
0.717593
0.717662
0.717735
0.717798
0.717835
0.717834
0.717794
0.717722
0.717641
0.717577
0.717558
0.717615
0.717777
0.718076
0.718551
0.719244
0.720203
0.721483
0.723142
0.725231
0.727787
0.73082
0.73431
0.73822
0.74252
0.747211
0.752296
0.757766
0.763583
0.769687
0.775999
0.782431
0.78889
0.795287
0.801533
0.807546
0.813252
0.818582
0.823476
0.82788
0.831748
0.83504
0.837724
0.839772
0.841162
0.841879
0.841911
0.841251
0.839898
0.837856
0.835132
0.831739
0.827696
0.823027
0.81776
0.811933
0.805588
0.798776
0.791555
0.783992
0.776164
0.768156
0.760065
0.751997
0.744069
0.736408
0.729146
0.72242
0.716356
0.711069
0.706516
0.702675
0.699414
0.696685
0.694652
0.693357
0.692868
0.693078
0.693852
0.695051
0.69655
0.698238
0.700023
0.701832
0.703607
0.705308
0.706906
0.708384
0.709736
0.710961
0.712064
0.713052
0.713933
0.714713
0.715403
0.716012
0.71656
0.717067
0.717564
0.718077
0.71863
0.719242
0.719924
0.720676
0.721491
0.722353
0.723243
0.724136
0.72501
0.725848
0.726639
0.727371
0.728034
0.728617
0.729105
0.729486
0.729748
0.729881
0.750663
0.750687
0.750733
0.750795
0.750866
0.750936
0.750997
0.751043
0.751077
0.751107
0.751148
0.751221
0.751351
0.751563
0.751886
0.752349
0.752986
0.753834
0.754931
0.756322
0.758047
0.760143
0.762634
0.765529
0.768818
0.772484
0.776508
0.78088
0.785588
0.790612
0.795916
0.80145
0.807149
0.812941
0.818749
0.824496
0.830107
0.835509
0.840637
0.845429
0.84983
0.85379
0.857266
0.860222
0.862626
0.864452
0.86568
0.866293
0.866282
0.86564
0.864366
0.862463
0.85994
0.856809
0.853089
0.848803
0.843979
0.838653
0.832867
0.826668
0.82011
0.813258
0.806181
0.798957
0.791673
0.784423
0.777307
0.770432
0.763905
0.757831
0.752302
0.747383
0.743083
0.739389
0.73626
0.733685
0.731713
0.730371
0.729664
0.729535
0.729896
0.730649
0.731694
0.732944
0.734321
0.735759
0.737207
0.738625
0.739984
0.741265
0.742457
0.743555
0.744559
0.745472
0.746298
0.747043
0.747716
0.748326
0.748889
0.74942
0.749942
0.750473
0.75103
0.751627
0.752272
0.752965
0.753701
0.75447
0.755256
0.756043
0.756814
0.757555
0.758253
0.758898
0.75948
0.759989
0.760412
0.760741
0.760965
0.761079
0.783788
0.783812
0.783857
0.78392
0.783997
0.784082
0.784172
0.784265
0.784365
0.784479
0.784621
0.784808
0.785061
0.785402
0.785855
0.786449
0.787211
0.788173
0.789367
0.790826
0.792581
0.794659
0.797077
0.799842
0.80295
0.80639
0.810149
0.814212
0.818563
0.823177
0.82802
0.833048
0.838207
0.843435
0.848668
0.853841
0.858889
0.863747
0.868359
0.872668
0.876624
0.880183
0.883305
0.885956
0.888106
0.889731
0.890811
0.891333
0.891284
0.890661
0.889462
0.887691
0.885356
0.882469
0.879048
0.875116
0.8707
0.865835
0.860559
0.854917
0.848961
0.842749
0.836344
0.829818
0.823247
0.816714
0.810304
0.804107
0.798211
0.792697
0.787637
0.783079
0.779045
0.775539
0.772552
0.770082
0.768145
0.766748
0.765881
0.765502
0.76555
0.765953
0.766634
0.767524
0.768556
0.769676
0.770836
0.772
0.77314
0.774236
0.775273
0.776244
0.777146
0.777978
0.778744
0.779446
0.780091
0.780688
0.781248
0.781784
0.78231
0.782842
0.78339
0.783965
0.784572
0.785212
0.78588
0.786569
0.787269
0.787966
0.788648
0.789303
0.78992
0.790489
0.791
0.791445
0.791814
0.792099
0.792293
0.792392
0.81689
0.816915
0.816963
0.817032
0.81712
0.817224
0.817344
0.817481
0.817638
0.817824
0.81805
0.81833
0.818682
0.819127
0.819685
0.82038
0.821236
0.822279
0.823537
0.825033
0.826793
0.828836
0.831173
0.833812
0.836749
0.839978
0.843485
0.847257
0.851275
0.855513
0.85994
0.864516
0.869194
0.873923
0.878648
0.883312
0.887859
0.892233
0.896382
0.900258
0.903816
0.907014
0.909816
0.912191
0.914111
0.915554
0.916502
0.916941
0.916861
0.916258
0.915131
0.913483
0.911322
0.908662
0.905518
0.901912
0.897871
0.893427
0.888616
0.883481
0.878068
0.872431
0.866629
0.860724
0.854784
0.848881
0.843089
0.837482
0.832134
0.827111
0.822469
0.81825
0.81448
0.811171
0.808325
0.805946
0.804038
0.802597
0.801609
0.801042
0.80085
0.800978
0.801367
0.80196
0.802704
0.803552
0.804462
0.8054
0.806341
0.807264
0.808154
0.809002
0.809803
0.810552
0.811252
0.811905
0.812514
0.813087
0.813631
0.814157
0.814674
0.815194
0.815724
0.816271
0.816839
0.817429
0.818037
0.818658
0.819284
0.819904
0.82051
0.82109
0.821635
0.822137
0.822587
0.822977
0.8233
0.823548
0.823717
0.823803
0.849967
0.849994
0.850047
0.850124
0.850226
0.850351
0.8505
0.850676
0.850883
0.851129
0.851423
0.851779
0.852212
0.852739
0.853378
0.854149
0.855074
0.856173
0.857467
0.858978
0.860723
0.862717
0.864969
0.867483
0.870257
0.873286
0.876557
0.880057
0.883766
0.88766
0.89171
0.895881
0.900131
0.904416
0.908689
0.912901
0.917001
0.920943
0.92468
0.928168
0.931367
0.93424
0.936754
0.93888
0.940593
0.941873
0.942702
0.943068
0.942962
0.942379
0.94132
0.939787
0.937789
0.935338
0.932449
0.929143
0.925446
0.921386
0.916998
0.912322
0.9074
0.90228
0.897016
0.891664
0.886283
0.880936
0.875687
0.870599
0.865733
0.861143
0.856877
0.852973
0.849455
0.846338
0.843632
0.84134
0.839462
0.837992
0.836916
0.836207
0.83583
0.835741
0.835895
0.836246
0.836749
0.837365
0.838058
0.838798
0.83956
0.840325
0.841078
0.841808
0.842509
0.843176
0.843809
0.844407
0.844974
0.845514
0.846033
0.846538
0.847036
0.847535
0.84804
0.848556
0.849085
0.849628
0.850182
0.850743
0.851304
0.851858
0.852396
0.852911
0.853394
0.853837
0.854234
0.854577
0.85486
0.855077
0.855225
0.855299
0.883018
0.883047
0.883106
0.883193
0.883308
0.883453
0.88363
0.88384
0.884089
0.884385
0.884735
0.885152
0.885648
0.886238
0.886938
0.887766
0.888737
0.88987
0.891182
0.892689
0.894404
0.89634
0.898502
0.900893
0.903511
0.906351
0.909401
0.912647
0.916071
0.919652
0.92336
0.927166
0.931033
0.934922
0.938792
0.9426
0.946302
0.949858
0.953226
0.956366
0.959243
0.961825
0.96408
0.965982
0.967509
0.968642
0.969365
0.969666
0.969538
0.968977
0.967982
0.966557
0.96471
0.962451
0.959797
0.956766
0.953382
0.949673
0.945669
0.941408
0.936928
0.932274
0.927492
0.922632
0.917749
0.912895
0.908125
0.903495
0.899054
0.894851
0.890925
0.887309
0.884027
0.881096
0.878525
0.876319
0.874478
0.872995
0.871856
0.871041
0.870521
0.870261
0.870226
0.870379
0.870682
0.871102
0.871608
0.872174
0.872777
0.873398
0.874024
0.874644
0.875249
0.875835
0.876399
0.876941
0.877461
0.877963
0.87845
0.878927
0.879398
0.87987
0.880345
0.880827
0.881317
0.881816
0.882321
0.882828
0.883332
0.883827
0.884306
0.884764
0.885192
0.885584
0.885934
0.886236
0.886485
0.886676
0.886805
0.88687
0.91604
0.916072
0.916136
0.916232
0.916361
0.916525
0.916725
0.916965
0.91725
0.917585
0.91798
0.918445
0.91899
0.919628
0.920372
0.921238
0.922238
0.923388
0.924701
0.92619
0.927866
0.929736
0.931806
0.934076
0.936545
0.939205
0.942048
0.945059
0.948221
0.951515
0.954914
0.958391
0.961913
0.965447
0.968956
0.972403
0.975751
0.978961
0.981998
0.984827
0.987416
0.989736
0.991758
0.99346
0.99482
0.995821
0.996449
0.996694
0.996548
0.996008
0.995074
0.99375
0.992042
0.989961
0.987521
0.984742
0.981644
0.978253
0.974598
0.970712
0.966631
0.962395
0.958044
0.953625
0.949184
0.944768
0.940425
0.9362
0.932139
0.928281
0.924662
0.92131
0.918249
0.915492
0.913052
0.910934
0.909135
0.907653
0.906473
0.90558
0.90495
0.904557
0.904371
0.904361
0.904498
0.904752
0.905098
0.905512
0.905974
0.906467
0.906977
0.907493
0.908008
0.908515
0.909012
0.909495
0.909966
0.910426
0.910876
0.91132
0.91176
0.9122
0.912643
0.91309
0.913542
0.913998
0.914457
0.914915
0.915368
0.915811
0.916239
0.916646
0.917026
0.917373
0.917682
0.917949
0.918168
0.918336
0.91845
0.918507
0.949029
0.949064
0.949134
0.949239
0.94938
0.94956
0.949781
0.950045
0.950359
0.950726
0.951156
0.951657
0.952239
0.952911
0.953686
0.954575
0.95559
0.956743
0.958045
0.959506
0.961133
0.962933
0.964909
0.967061
0.969386
0.971877
0.974526
0.977319
0.980241
0.983272
0.98639
0.989569
0.992781
0.995996
0.999183
1.00231
1.00534
1.00824
1.01098
1.01353
1.01586
1.01794
1.01976
1.02128
1.02249
1.02337
1.02392
1.02411
1.02395
1.02343
1.02256
1.02133
1.01975
1.01783
1.01559
1.01304
1.0102
1.0071
1.00376
1.00021
0.99649
0.992629
0.988666
0.984641
0.980595
0.976569
0.972605
0.968743
0.965021
0.961474
0.958132
0.955023
0.952164
0.949573
0.947259
0.945227
0.943478
0.942007
0.940804
0.939855
0.939143
0.938645
0.938338
0.938197
0.938196
0.938311
0.93852
0.938803
0.939141
0.939519
0.939923
0.940345
0.940774
0.941207
0.941637
0.942063
0.942484
0.942899
0.943309
0.943716
0.944122
0.944529
0.944937
0.945348
0.945762
0.946178
0.946594
0.947007
0.947414
0.947811
0.948193
0.948555
0.948892
0.9492
0.949474
0.949709
0.949902
0.95005
0.95015
0.950201
0.981984
0.982021
0.982096
0.982209
0.982361
0.982555
0.982792
0.983076
0.983412
0.983805
0.984262
0.98479
0.985396
0.986092
0.986885
0.987785
0.988804
0.989949
0.99123
0.992654
0.994227
0.995954
0.997836
0.999873
1.00206
1.00439
1.00686
1.00945
1.01215
1.01494
1.0178
1.02071
1.02365
1.02657
1.02947
1.03231
1.03505
1.03767
1.04015
1.04245
1.04455
1.04642
1.04805
1.04941
1.05048
1.05126
1.05173
1.05189
1.05172
1.05122
1.0504
1.04925
1.04779
1.04602
1.04396
1.04162
1.03902
1.03618
1.03313
1.02989
1.02649
1.02297
1.01935
1.01568
1.01198
1.00831
1.00468
1.00114
0.997727
0.994461
0.991371
0.988483
0.985813
0.983377
0.981184
0.979239
0.977542
0.976092
0.97488
0.973895
0.973122
0.972543
0.97214
0.971892
0.971777
0.971776
0.971869
0.972038
0.972267
0.972543
0.972853
0.973188
0.973539
0.9739
0.974267
0.974636
0.975006
0.975376
0.975745
0.976114
0.976484
0.976855
0.977228
0.977603
0.97798
0.978357
0.978733
0.979105
0.97947
0.979825
0.980166
0.980488
0.980788
0.981061
0.981303
0.981511
0.981682
0.981812
0.9819
0.981945
1.0149
1.01494
1.01502
1.01514
1.0153
1.01551
1.01576
1.01606
1.01641
1.01682
1.0173
1.01784
1.01847
1.01917
1.01998
1.02088
1.02189
1.02302
1.02427
1.02565
1.02717
1.02882
1.03061
1.03253
1.03459
1.03677
1.03907
1.04147
1.04397
1.04654
1.04917
1.05184
1.05452
1.05719
1.05982
1.0624
1.06488
1.06726
1.0695
1.07157
1.07346
1.07515
1.07661
1.07782
1.07878
1.07946
1.07987
1.07998
1.0798
1.07933
1.07856
1.07749
1.07614
1.07451
1.07261
1.07046
1.06808
1.06548
1.06268
1.05972
1.05661
1.05339
1.05009
1.04674
1.04336
1.03999
1.03667
1.03343
1.03028
1.02727
1.02441
1.02172
1.01923
1.01694
1.01486
1.013
1.01136
1.00994
1.00873
1.00772
1.00691
1.00627
1.00579
1.00545
1.00525
1.00515
1.00514
1.00521
1.00535
1.00553
1.00576
1.00601
1.00629
1.00659
1.00689
1.00721
1.00753
1.00785
1.00818
1.00851
1.00884
1.00918
1.00952
1.00986
1.0102
1.01054
1.01088
1.01121
1.01154
1.01185
1.01216
1.01244
1.01271
1.01295
1.01317
1.01335
1.0135
1.01362
1.01369
1.01373
1.04778
1.04782
1.0479
1.04803
1.0482
1.04841
1.04867
1.04898
1.04935
1.04977
1.05026
1.05082
1.05145
1.05216
1.05297
1.05386
1.05486
1.05597
1.05718
1.05852
1.05997
1.06155
1.06325
1.06506
1.06699
1.06903
1.07118
1.07341
1.07571
1.07808
1.0805
1.08294
1.08539
1.08783
1.09023
1.09257
1.09483
1.09698
1.099
1.10088
1.10258
1.1041
1.10541
1.10649
1.10734
1.10795
1.10829
1.10837
1.10819
1.10773
1.10701
1.10602
1.10476
1.10326
1.10151
1.09954
1.09735
1.09496
1.09241
1.08969