/*--------------------------------*- C++ -*----------------------------------*\
| =========                 |                                                 |
| \\      /  F ield         | OpenFOAM: The Open Source CFD Toolbox           |
|  \\    /   O peration     | Version:  2406                                  |
|   \\  /    A nd           | Website:  www.openfoam.com                      |
|    \\/     M anipulation  |                                                 |
\*---------------------------------------------------------------------------*/
FoamFile
{
    version     2.0;
    format      ascii;
    arch        "LSB;label=32;scalar=64";
    class       volScalarField;
    location    "9";
    object      C_0;
}
// * * * * * * * * * * * * * * * * * * * * * * * * * * * * * * * * * * * * * //

dimensions      [1 -3 0 0 0 0 0];

internalField   nonuniform List<scalar> 
14400
(
0.216395
0.215584
0.214153
0.212391
0.210607
0.209069
0.207979
0.207462
0.207566
0.208257
0.20942
0.210854
0.212271
0.213305
0.21356
0.212693
0.210581
0.207448
0.203708
0.199819
0.196195
0.193188
0.19109
0.190156
0.190622
0.192729
0.196728
0.202892
0.211507
0.222871
0.23729
0.255081
0.276572
0.302094
0.331966
0.366436
0.4055
0.448012
0.485053
0.51072
0.529819
0.546143
0.559932
0.571372
0.580604
0.587734
0.592842
0.595984
0.597199
0.596503
0.593901
0.589374
0.582892
0.574403
0.563831
0.55108
0.53602
0.518482
0.498242
0.470314
0.431108
0.38857
0.34971
0.315511
0.285939
0.260728
0.239546
0.222049
0.207894
0.196737
0.188234
0.182052
0.177889
0.1755
0.174698
0.175355
0.177394
0.180775
0.185491
0.191557
0.198994
0.207809
0.217963
0.229318
0.241553
0.253966
0.264832
0.270799
0.26984
0.263958
0.255944
0.247566
0.239557
0.232302
0.226008
0.220767
0.216587
0.21341
0.211133
0.209617
0.208699
0.208217
0.208028
0.208039
0.208231
0.208663
0.209469
0.210831
0.212954
0.216043
0.220289
0.225854
0.232856
0.24136
0.25135
0.262703
0.275126
0.288027
0.300129
0.307683
0.221764
0.220751
0.219002
0.216896
0.214803
0.213025
0.211781
0.211203
0.211341
0.212162
0.213551
0.215298
0.217095
0.218532
0.219111
0.218341
0.215972
0.21238
0.208132
0.203774
0.199759
0.19645
0.194138
0.193074
0.193488
0.195613
0.199696
0.206
0.214806
0.226407
0.241106
0.25922
0.281075
0.307002
0.337311
0.372223
0.411677
0.454384
0.489799
0.513817
0.532595
0.548676
0.562282
0.573581
0.582706
0.589756
0.594807
0.597912
0.599108
0.598411
0.595824
0.591331
0.5849
0.576484
0.566011
0.553389
0.538498
0.521179
0.501235
0.474988
0.437253
0.394276
0.354927
0.320253
0.29023
0.264598
0.243028
0.225176
0.210697
0.199252
0.190503
0.184121
0.179812
0.177329
0.176485
0.177152
0.179251
0.182747
0.187634
0.193932
0.201669
0.210858
0.221469
0.233375
0.246272
0.259463
0.270828
0.27659
0.27629
0.270272
0.261764
0.252905
0.244474
0.236869
0.230301
0.224862
0.220556
0.217325
0.215057
0.2136
0.212773
0.212388
0.212274
0.212314
0.212479
0.212841
0.213559
0.214844
0.216925
0.220026
0.22435
0.230063
0.237289
0.246094
0.256468
0.268296
0.281291
0.294824
0.307249
0.314053
0.233019
0.231529
0.229066
0.226219
0.223477
0.221204
0.219644
0.218939
0.219144
0.220226
0.222068
0.224453
0.227046
0.229357
0.230705
0.230222
0.22721
0.222569
0.217228
0.211897
0.207086
0.203167
0.200425
0.199096
0.199398
0.201552
0.20579
0.212363
0.221539
0.233603
0.248853
0.267605
0.290182
0.316914
0.348095
0.383885
0.423985
0.46626
0.498239
0.519893
0.538066
0.553686
0.566937
0.577965
0.586882
0.593777
0.598717
0.601751
0.60291
0.60221
0.599652
0.595223
0.588895
0.580621
0.57034
0.557969
0.543401
0.526503
0.507106
0.48346
0.448699
0.405512
0.365389
0.329817
0.298905
0.272438
0.250098
0.231544
0.21643
0.20442
0.195185
0.188408
0.183804
0.181131
0.180201
0.180887
0.18311
0.186836
0.192069
0.198836
0.207174
0.217107
0.228614
0.241579
0.255701
0.270221
0.282154
0.287526
0.288077
0.282666
0.273462
0.263723
0.254483
0.246201
0.239103
0.233283
0.228745
0.225423
0.223192
0.221877
0.221259
0.221096
0.221154
0.221258
0.221358
0.221556
0.222068
0.22317
0.225142
0.228245
0.232702
0.238692
0.246345
0.25573
0.266839
0.279564
0.293617
0.308274
0.320635
0.325753
0.251163
0.248721
0.244981
0.240894
0.237114
0.234067
0.232018
0.231117
0.231417
0.232889
0.235415
0.238776
0.242623
0.246403
0.249221
0.249541
0.245095
0.23855
0.231409
0.224555
0.218529
0.213689
0.210294
0.208557
0.208677
0.210853
0.215299
0.222249
0.231955
0.244691
0.26075
0.280441
0.304087
0.33201
0.364489
0.401629
0.442771
0.482081
0.508982
0.528774
0.546091
0.561064
0.573816
0.584458
0.59308
0.599753
0.604534
0.607464
0.60857
0.607866
0.605352
0.601016
0.594834
0.586766
0.576759
0.564745
0.550635
0.534327
0.515694
0.49446
0.464395
0.422381
0.381278
0.344379
0.312144
0.284436
0.260958
0.24137
0.225328
0.212496
0.202553
0.195197
0.190156
0.187198
0.18614
0.186854
0.189265
0.193344
0.199103
0.206576
0.215812
0.226843
0.239657
0.254131
0.269907
0.285928
0.297749
0.30273
0.304003
0.300741
0.291184
0.280263
0.269881
0.260636
0.252787
0.246435
0.241585
0.238167
0.236042
0.235
0.234769
0.235018
0.235399
0.235623
0.235593
0.235469
0.235589
0.236339
0.238083
0.241132
0.245742
0.252106
0.260358
0.270563
0.282707
0.296652
0.312019
0.327639
0.338216
0.341786
0.277639
0.273299
0.267453
0.261513
0.256259
0.252142
0.249427
0.248255
0.248678
0.250663
0.254096
0.258764
0.264326
0.270229
0.275477
0.277587
0.270335
0.260779
0.251073
0.242152
0.234508
0.228444
0.224176
0.221884
0.221737
0.223911
0.228598
0.236012
0.246391
0.259993
0.277104
0.298024
0.323063
0.35252
0.386616
0.42526
0.466841
0.499564
0.521568
0.540124
0.556461
0.570661
0.582807
0.592973
0.601226
0.607621
0.612202
0.615001
0.616041
0.615331
0.612873
0.608656
0.602659
0.59485
0.585186
0.573614
0.560069
0.544476
0.526758
0.506851
0.48219
0.445241
0.402801
0.364155
0.330191
0.300859
0.275892
0.254959
0.237714
0.223826
0.212979
0.204884
0.199283
0.195957
0.194733
0.19549
0.198158
0.202715
0.209176
0.217586
0.227998
0.240454
0.254942
0.271328
0.289125
0.306406
0.316635
0.321408
0.323281
0.322262
0.314685
0.3027
0.290992
0.280573
0.271796
0.264795
0.259589
0.25611
0.25421
0.253645
0.254071
0.255037
0.256004
0.256445
0.256157
0.255439
0.254861
0.254992
0.256312
0.259198
0.263939
0.270741
0.279731
0.290964
0.30439
0.319792
0.336518
0.351618
0.358583
0.361228
0.313605
0.305849
0.296926
0.288515
0.281368
0.275902
0.272352
0.270842
0.271412
0.274026
0.278567
0.284817
0.292425
0.300776
0.308272
0.30894
0.302129
0.289175
0.276411
0.26502
0.255427
0.247872
0.242524
0.239527
0.239021
0.241158
0.246108
0.254065
0.265248
0.279903
0.298302
0.320729
0.347466
0.37875
0.414653
0.45453
0.49216
0.517269
0.536462
0.553694
0.568967
0.582314
0.593776
0.6034
0.61123
0.617303
0.621651
0.624298
0.625261
0.624546
0.622154
0.618076
0.612295
0.604788
0.595522
0.584457
0.571549
0.55675
0.540011
0.521294
0.500386
0.470957
0.429491
0.389289
0.35333
0.322038
0.295256
0.272682
0.25398
0.23882
0.226894
0.217924
0.211663
0.207908
0.206499
0.207325
0.210324
0.215478
0.222809
0.232366
0.244205
0.258367
0.274832
0.293412
0.313334
0.330052
0.338157
0.342968
0.345383
0.345531
0.342055
0.330953
0.318098
0.306406
0.29658
0.288844
0.283261
0.27979
0.278287
0.278481
0.27996
0.282124
0.284152
0.285002
0.284205
0.282404
0.280641
0.279766
0.280385
0.282944
0.287761
0.295039
0.304884
0.317318
0.332202
0.3491
0.366514
0.377065
0.381228
0.383315
0.350364
0.344753
0.333123
0.322027
0.312727
0.305707
0.301187
0.299285
0.300027
0.303372
0.309182
0.317187
0.32689
0.337068
0.341703
0.340028
0.335882
0.32283
0.307378
0.293405
0.281652
0.272393
0.265782
0.261939
0.260985
0.26305
0.268285
0.276862
0.288982
0.304874
0.324793
0.348997
0.37771
0.411029
0.448598
0.488042
0.516189
0.535708
0.553314
0.569221
0.583401
0.59585
0.606584
0.615622
0.62299
0.62871
0.632801
0.63528
0.636157
0.635437
0.63312
0.629197
0.623659
0.616486
0.607656
0.597144
0.584922
0.570962
0.555243
0.537753
0.518496
0.495848
0.46176
0.420123
0.381907
0.348359
0.319466
0.294974
0.274568
0.257932
0.244764
0.234796
0.227793
0.223566
0.221968
0.222898
0.226304
0.232174
0.240532
0.251428
0.264916
0.281024
0.29968
0.320498
0.341782
0.355189
0.362122
0.366925
0.369751
0.370731
0.370071
0.36432
0.351332
0.33846
0.327539
0.319016
0.313048
0.309665
0.308769
0.31007
0.313113
0.317176
0.321131
0.322789
0.320956
0.31723
0.313579
0.311204
0.310781
0.312809
0.317628
0.325408
0.336191
0.349949
0.366312
0.384127
0.397101
0.402645
0.405847
0.407488
0.383732
0.382348
0.374631
0.361825
0.350441
0.341802
0.336237
0.333912
0.334849
0.338997
0.346179
0.355915
0.366987
0.374106
0.374276
0.372378
0.369401
0.360855
0.343966
0.327564
0.313549
0.302428
0.294397
0.289584
0.288099
0.290065
0.295615
0.304899
0.318093
0.335405
0.357067
0.383296
0.41421
0.449642
0.488088
0.518188
0.53828
0.555777
0.571866
0.586477
0.599564
0.611103
0.621086
0.629515
0.636398
0.641744
0.645564
0.647864
0.648651
0.647927
0.64569
0.641936
0.636656
0.62984
0.621473
0.611541
0.600031
0.586934
0.572246
0.555978
0.53816
0.518849
0.493755
0.455948
0.416086
0.380218
0.34899
0.322323
0.299975
0.281658
0.267085
0.255997
0.248174
0.243436
0.241649
0.242726
0.246619
0.25332
0.262857
0.275273
0.290612
0.308866
0.329858
0.352765
0.372194
0.381676
0.388122
0.392859
0.395965
0.397565
0.39784
0.396804
0.390017
0.376774
0.364924
0.355635
0.349275
0.346047
0.345977
0.34873
0.353838
0.360519
0.367522
0.370596
0.366923
0.360285
0.35397
0.349644
0.347827
0.349108
0.35386
0.362174
0.37389
0.388921
0.405946
0.419457
0.426004
0.429545
0.432026
0.433303
0.417019
0.41676
0.414688
0.406766
0.394289
0.384255
0.377671
0.374938
0.376071
0.381013
0.389515
0.400221
0.407735
0.409094
0.407741
0.40578
0.403054
0.39884
0.385957
0.367715
0.351474
0.338408
0.328839
0.322945
0.320859
0.322709
0.328617
0.338708
0.353117
0.372022
0.395616
0.42403
0.457069
0.493436
0.523944
0.544473
0.56141
0.577254
0.591897
0.605256
0.617274
0.627911
0.637142
0.644954
0.651343
0.656306
0.659845
0.661962
0.662656
0.661929
0.659778
0.6562
0.651191
0.644744
0.636854
0.627516
0.616729
0.604496
0.590829
0.575754
0.559314
0.541575
0.5225
0.495321
0.455958
0.41805
0.384345
0.355267
0.330741
0.310537
0.29439
0.282054
0.273321
0.268028
0.266053
0.267316
0.271777
0.279428
0.290292
0.3044
0.321765
0.342286
0.365434
0.388807
0.402386
0.409836
0.415832
0.420425
0.423684
0.425722
0.426703
0.426846
0.425843
0.419773
0.408352
0.398723
0.391999
0.38893
0.389897
0.394263
0.401368
0.410001
0.414492
0.415881
0.414537
0.409857
0.401159
0.395033
0.391563
0.391907
0.396559
0.405467
0.417786
0.433294
0.445153
0.45149
0.454801
0.457503
0.45941
0.460395
0.450566
0.450495
0.450433
0.448731
0.442611
0.432476
0.425278
0.42229
0.423542
0.428886
0.437908
0.443452
0.444652
0.443321
0.441813
0.439946
0.437603
0.434742
0.428682
0.413275
0.395611
0.380744
0.369583
0.362526
0.359773
0.361502
0.367831
0.378847
0.394608
0.415228
0.440837
0.471343
0.505277
0.534436
0.554471
0.57043
0.585632
0.599931
0.61321
0.625378
0.636366
0.646124
0.654616
0.661818
0.667713
0.672293
0.67555
0.677481
0.678083
0.677354
0.675292
0.671896
0.667162
0.661091
0.653683
0.644941
0.634872
0.623491
0.61082
0.596895
0.581766
0.5655
0.548178
0.529211
0.500927
0.462187
0.426032
0.394356
0.367438
0.34515
0.327254
0.31353
0.303787
0.297882
0.295709
0.297199
0.302311
0.31103
0.323364
0.339314
0.358831
0.38165
0.406388
0.424121
0.432688
0.439409
0.444942
0.449326
0.452624
0.454937
0.456406
0.457221
0.457624
0.457442
0.45351
0.447027
0.440335
0.437374
0.439495
0.44489
0.449868
0.452894
0.453361
0.453335
0.454151
0.453971
0.451202
0.446174
0.441215
0.44065
0.445143
0.454585
0.465798
0.474269
0.479016
0.481717
0.484204
0.486258
0.487716
0.488472
0.484184
0.484222
0.484362
0.484734
0.484447
0.481298
0.477174
0.474541
0.475616
0.478668
0.481002
0.480737
0.479154
0.477723
0.476246
0.474587
0.472671
0.470484
0.468075
0.461098
0.445598
0.429717
0.417048
0.408798
0.405317
0.406934
0.413768
0.425854
0.443065
0.465366
0.492713
0.524053
0.549957
0.568284
0.582926
0.597142
0.610758
0.623629
0.635634
0.64668
0.656689
0.665604
0.673381
0.679987
0.685399
0.689601
0.69258
0.694328
0.69484
0.694112
0.692142
0.688928
0.684472
0.678776
0.671846
0.663692
0.654327
0.643775
0.632066
0.619241
0.605356
0.590481
0.574698
0.558101
0.539329
0.511311
0.474186
0.440029
0.410615
0.3861
0.366293
0.351034
0.340166
0.333576
0.331188
0.332941
0.338786
0.348685
0.362615
0.380478
0.402041
0.426342
0.446931
0.457287
0.464194
0.470169
0.475203
0.479313
0.48255
0.484995
0.486763
0.488008
0.488918
0.489721
0.490644
0.489614
0.487662
0.486577
0.487186
0.48857
0.489086
0.488158
0.487801
0.487993
0.488809
0.490231
0.492136
0.492178
0.491803
0.492711
0.49612
0.501081
0.505737
0.508176
0.510126
0.512155
0.51404
0.515607
0.516725
0.517305
0.517763
0.517848
0.518057
0.518468
0.519183
0.520268
0.519976
0.519203
0.519013
0.518643
0.516704
0.514968
0.513503
0.512172
0.510859
0.509485
0.508011
0.506446
0.504852
0.503313
0.49715
0.484724
0.471285
0.462047
0.457791
0.459347
0.466769
0.480091
0.498684
0.521967
0.549183
0.570393
0.585809
0.598856
0.611805
0.624453
0.636629
0.648191
0.65902
0.669017
0.678106
0.686221
0.693316
0.69935
0.704296
0.708132
0.710841
0.712412
0.712838
0.712113
0.710234
0.707203
0.703021
0.697695
0.691234
0.683653
0.674971
0.665217
0.654426
0.642646
0.629937
0.61637
0.602032
0.587025
0.57147
0.553624
0.52733
0.49229
0.460662
0.433969
0.412129
0.395205
0.383079
0.375712
0.373079
0.375132
0.381793
0.392961
0.408568
0.428221
0.451014
0.472605
0.484135
0.490696
0.496631
0.501872
0.506385
0.510174
0.513268
0.515729
0.517644
0.519128
0.520318
0.521366
0.522417
0.523575
0.524666
0.524982
0.524419
0.523283
0.52235
0.521804
0.52169
0.522029
0.522858
0.524191
0.526063
0.52857
0.531377
0.533628
0.535701
0.537122
0.538201
0.539596
0.541155
0.542736
0.544195
0.545406
0.54627
0.546719
0.551257
0.551349
0.551551
0.551895
0.552403
0.553045
0.553643
0.553811
0.553024
0.551683
0.550263
0.548927
0.547718
0.546602
0.545535
0.544482
0.54344
0.542437
0.541549
0.540897
0.540653
0.537203
0.530429
0.521607
0.516845
0.518593
0.526508
0.540938
0.559987
0.578997
0.594932
0.606782
0.61805
0.629527
0.640986
0.652236
0.663115
0.673487
0.683235
0.692264
0.700495
0.707861
0.714311
0.719802
0.724304
0.727789
0.73024
0.731642
0.731987
0.731267
0.72948
0.726628
0.722715
0.717749
0.711742
0.704714
0.696687
0.687694
0.677776
0.666982
0.655375
0.643029
0.630035
0.616498
0.602542
0.588316
0.572358
0.549167
0.517284
0.489154
0.465275
0.446646
0.433126
0.424864
0.421945
0.424335
0.431891
0.444316
0.46156
0.482162
0.502143
0.513469
0.519264
0.524726
0.529764
0.534301
0.538293
0.541728
0.54462
0.547009
0.548956
0.550543
0.551861
0.553007
0.554054
0.555021
0.555803
0.556167
0.556028
0.555603
0.555208
0.55502
0.555127
0.555577
0.556401
0.557613
0.559214
0.561173
0.563317
0.565376
0.567015
0.568356
0.569578
0.570851
0.572162
0.57344
0.574599
0.575552
0.57623
0.576581
0.58466
0.584739
0.584904
0.585159
0.58549
0.585844
0.586095
0.586052
0.585549
0.58471
0.583738
0.582761
0.581839
0.580985
0.580195
0.57947
0.578829
0.578315
0.578009
0.578033
0.578565
0.579866
0.580332
0.579338
0.579422
0.582512
0.589809
0.600158
0.611494
0.621924
0.630713
0.640173
0.650083
0.660216
0.670375
0.680389
0.690108
0.699405
0.708171
0.716311
0.723748
0.730416
0.736263
0.741245
0.745327
0.748481
0.750688
0.75193
0.752199
0.751487
0.749791
0.747114
0.743461
0.738842
0.733273
0.726773
0.71937
0.711098
0.702
0.69213
0.68155
0.670338
0.658582
0.64639
0.633886
0.621216
0.608554
0.595262
0.576179
0.55095
0.525668
0.505741
0.490705
0.481428
0.478172
0.480913
0.489436
0.502647
0.520694
0.536102
0.545469
0.550095
0.554707
0.55918
0.563397
0.567274
0.570758
0.573826
0.576476
0.57873
0.580629
0.582224
0.583578
0.584747
0.58577
0.586653
0.587345
0.58777
0.587916
0.587892
0.587858
0.58794
0.58822
0.588749
0.589555
0.590647
0.592008
0.593591
0.595283
0.596933
0.598404
0.599706
0.600906
0.602069
0.6032
0.604264
0.605207
0.605974
0.606516
0.606796
0.617982
0.618045
0.618168
0.618345
0.618553
0.618745
0.618843
0.618751
0.618412
0.617868
0.617217
0.616541
0.615892
0.615302
0.61479
0.614375
0.614089
0.613985
0.614139
0.61466
0.615691
0.617417
0.620044
0.623796
0.627679
0.632054
0.637662
0.643704
0.649868
0.656915
0.664726
0.673114
0.681891
0.690879
0.699911
0.708837
0.717524
0.725856
0.733731
0.74106
0.747769
0.753793
0.759081
0.763587
0.767277
0.770121
0.772099
0.773193
0.773392
0.77269
0.771084
0.768576
0.765173
0.760887
0.755733
0.749735
0.742921
0.735327
0.726998
0.717987
0.708359
0.698189
0.687566
0.676595
0.665394
0.654107
0.642895
0.631952
0.62139
0.607396
0.590365
0.571577
0.555279
0.545165
0.541554
0.544367
0.553648
0.565247
0.574433
0.580191
0.58325
0.586689
0.590291
0.593891
0.59737
0.600639
0.603641
0.606341
0.608727
0.610808
0.612604
0.614149
0.615479
0.616631
0.617628
0.618475
0.619156
0.619651
0.619975
0.620191
0.620392
0.620662
0.621065
0.621645
0.622425
0.62341
0.624582
0.625899
0.627291
0.628669
0.629963
0.631158
0.63227
0.633319
0.634306
0.635208
0.635993
0.636622
0.637063
0.63729
0.651243
0.651289
0.651378
0.651499
0.651632
0.651741
0.651779
0.651699
0.651478
0.651136
0.650722
0.650292
0.649887
0.649543
0.649287
0.649149
0.649169
0.649397
0.649903
0.650776
0.652123
0.654066
0.656714
0.660125
0.664164
0.668689
0.673501
0.678794
0.684643
0.691117
0.698162
0.705665
0.71349
0.721498
0.729551
0.737523
0.745295
0.752764
0.759837
0.76643
0.772474
0.777908
0.78268
0.786746
0.790072
0.792628
0.794393
0.79535
0.795487
0.794797
0.793278
0.790933
0.787769
0.783798
0.779038
0.773513
0.767252
0.760292
0.752677
0.744462
0.735709
0.726493
0.716899
0.707027
0.696991
0.686921
0.676968
0.667304
0.658124
0.64967
0.640985
0.630752
0.620863
0.61323
0.609463
0.609686
0.612431
0.615731
0.617209
0.61856
0.620617
0.623122
0.625875
0.628724
0.631552
0.634273
0.636824
0.639169
0.641285
0.643169
0.644831
0.646287
0.64756
0.648671
0.649636
0.650463
0.651151
0.651704
0.652141
0.652506
0.652857
0.65325
0.653734
0.654341
0.655091
0.655985
0.657009
0.658134
0.659311
0.660489
0.661623
0.662693
0.663695
0.664632
0.665495
0.66627
0.666933
0.667459
0.667824
0.668011
0.684456
0.684491
0.684557
0.684643
0.684735
0.684807
0.684833
0.684789
0.684665
0.684474
0.684245
0.684016
0.683822
0.683695
0.683666
0.683767
0.68404
0.684531
0.6853
0.686417
0.687961
0.690008
0.692621
0.695818
0.699546
0.703732
0.708309
0.713319
0.718794
0.724747
0.731139
0.737893
0.744907
0.752071
0.759274
0.766407
0.77337
0.780069
0.786421
0.79235
0.79779
0.802684
0.806983
0.810645
0.813636
0.815927
0.817496
0.818327
0.818408
0.817732
0.816298
0.814109
0.811171
0.807499
0.803109
0.798027
0.792282
0.78591
0.778957
0.771474
0.763523
0.755175
0.746511
0.737624
0.72862
0.719619
0.710753
0.702172
0.69404
0.686533
0.679821
0.674202
0.669346
0.664792
0.661303
0.659024
0.657024
0.655704
0.655541
0.656219
0.657537
0.659306
0.661364
0.663577
0.665842
0.668074
0.670216
0.672224
0.674074
0.675754
0.677263
0.678608
0.679802
0.680856
0.681782
0.682589
0.683282
0.683873
0.68438
0.684835
0.685278
0.685748
0.686279
0.686895
0.687611
0.688429
0.689337
0.690315
0.691332
0.692352
0.693346
0.694295
0.695188
0.696017
0.696774
0.697444
0.698011
0.698456
0.698763
0.69892
0.717634
0.717662
0.717714
0.717783
0.717856
0.71792
0.717958
0.717958
0.717919
0.717849
0.717769
0.717707
0.71769
0.717749
0.717913
0.718215
0.718692
0.719387
0.720349
0.721633
0.723294
0.725385
0.727944
0.73098
0.734472
0.738384
0.742686
0.747379
0.752466
0.757937
0.763756
0.769861
0.776173
0.782606
0.789066
0.795463
0.801709
0.807722
0.813428
0.818758
0.823652
0.828056
0.831924
0.835216
0.8379
0.839948
0.841338
0.842055
0.842086
0.841427
0.840074
0.838032
0.835308
0.831916
0.827873
0.823204
0.817938
0.812111
0.805766
0.798955
0.791734
0.784173
0.776345
0.768338
0.760248
0.75218
0.744253
0.736591
0.729329
0.722602
0.716538
0.711248
0.706694
0.70285
0.699586
0.696857
0.69482
0.693522
0.69303
0.693236
0.694006
0.695201
0.696696
0.69838
0.700162
0.701968
0.70374
0.705438
0.707033
0.708509
0.709858
0.711081
0.712183
0.713169
0.714048
0.714828
0.715516
0.716124
0.71667
0.717177
0.717673
0.718185
0.718738
0.71935
0.72003
0.720782
0.721596
0.722459
0.723348
0.72424
0.725114
0.725953
0.726743
0.727476
0.728139
0.728721
0.72921
0.72959
0.729852
0.729985
0.750784
0.750809
0.750855
0.750917
0.750988
0.751058
0.75112
0.751168
0.751203
0.751233
0.751276
0.751351
0.751483
0.751697
0.752022
0.752488
0.753127
0.753976
0.755076
0.75647
0.758197
0.760295
0.762789
0.765686
0.768977
0.772645
0.776671
0.781045
0.785754
0.79078
0.796086
0.80162
0.80732
0.813113
0.818921
0.824669
0.83028
0.835683
0.840811
0.845603
0.850003
0.853963
0.85744
0.860396
0.8628
0.864626
0.865853
0.866467
0.866456
0.865814
0.86454
0.862637
0.860114
0.856983
0.853263
0.848977
0.844154
0.838829
0.833043
0.826844
0.820287
0.813436
0.806359
0.799135
0.791852
0.784602
0.777486
0.770611
0.764084
0.758009
0.752479
0.747559
0.743257
0.739561
0.736429
0.733852
0.731878
0.730532
0.729823
0.729691
0.730049
0.730797
0.731839
0.733086
0.734459
0.735894
0.73734
0.738755
0.740112
0.74139
0.74258
0.743676
0.744678
0.745589
0.746414
0.747158
0.747829
0.748438
0.749
0.749531
0.750051
0.750581
0.751138
0.751735
0.752379
0.753072
0.753807
0.754576
0.755361
0.756148
0.756919
0.757659
0.758357
0.759003
0.759585
0.760093
0.760516
0.760845
0.761069
0.761183
0.78391
0.783934
0.783979
0.784042
0.78412
0.784206
0.784296
0.78439
0.784491
0.784606
0.78475
0.784938
0.785193
0.785535
0.785991
0.786586
0.787351
0.788315
0.789511
0.790972
0.79273
0.79481
0.79723
0.799997
0.803107
0.806549
0.81031
0.814374
0.818727
0.823342
0.828187
0.833215
0.838375
0.843604
0.848838
0.854011
0.859059
0.863918
0.868529
0.872838
0.876795
0.880354
0.883477
0.886127
0.888277
0.889902
0.890982
0.891504
0.891455
0.890833
0.889634
0.887863
0.885527
0.88264
0.87922
0.875288
0.870873
0.866008
0.860732
0.855091
0.849135
0.842923
0.836519
0.829993
0.823423
0.816889
0.81048
0.804283
0.798386
0.792871
0.78781
0.78325
0.779215
0.775707
0.772717
0.770246
0.768307
0.766907
0.766037
0.765655
0.7657
0.7661
0.766778
0.767665
0.768694
0.769811
0.770969
0.77213
0.773268
0.774361
0.775396
0.776365
0.777265
0.778096
0.77886
0.779561
0.780205
0.7808
0.781359
0.781894
0.78242
0.782951
0.783498
0.784073
0.784679
0.785318
0.785986
0.786675
0.787374
0.788071
0.788753
0.789408
0.790024
0.790593
0.791105
0.791549
0.791918
0.792203
0.792397
0.792496
0.817012
0.817037
0.817085
0.817154
0.817243
0.817348
0.817469
0.817606
0.817765
0.817951
0.818178
0.81846
0.818814
0.81926
0.81982
0.820517
0.821375
0.822421
0.82368
0.825179
0.826941
0.828985
0.831324
0.833964
0.836904
0.840134
0.843643
0.847417
0.851436
0.855675
0.860103
0.86468
0.86936
0.874089
0.878815
0.883479
0.888026
0.892401
0.89655
0.900427
0.903984
0.907182
0.909985
0.91236
0.91428
0.915723
0.916671
0.91711
0.91703
0.916427
0.9153
0.913652
0.911492
0.908831
0.905687
0.902082
0.898042
0.893598
0.888787
0.883652
0.87824
0.872603
0.866801
0.860896
0.854956
0.849053
0.843261
0.837654
0.832305
0.827281
0.822638
0.818418
0.814646
0.811335
0.808488
0.806107
0.804196
0.802753
0.801763
0.801193
0.800998
0.801123
0.801509
0.8021
0.802841
0.803686
0.804594
0.80553
0.806469
0.807389
0.808277
0.809123
0.809922
0.81067
0.811369
0.81202
0.812628
0.8132
0.813743
0.814268
0.814784
0.815303
0.815832
0.816379
0.816946
0.817536
0.818143
0.818764
0.819389
0.820009
0.820614
0.821194
0.821739
0.822241
0.822691
0.823081
0.823404
0.823652
0.823821
0.823907
0.85009
0.850117
0.85017
0.850247
0.85035
0.850475
0.850625
0.850801
0.851009
0.851256
0.851552
0.851909
0.852344
0.852872
0.853513
0.854286
0.855212
0.856313
0.857609
0.859122
0.860869
0.862864
0.865118
0.867633
0.87041
0.87344
0.876713
0.880214
0.883924
0.88782
0.891871
0.896043
0.900294
0.90458
0.908853
0.913065
0.917166
0.921108
0.924845
0.928333
0.931533
0.934406
0.93692
0.939046
0.94076
0.942039
0.942869
0.943234
0.943128
0.942546
0.941487
0.939954
0.937957
0.935505
0.932617
0.929311
0.925613
0.921554
0.917167
0.91249
0.907568
0.902449
0.897185
0.891833
0.886452
0.881105
0.875856
0.870768
0.8659
0.86131
0.857043
0.853137
0.849617
0.8465
0.843792
0.841497
0.839618
0.838146
0.837067
0.836356
0.835976
0.835884
0.836036
0.836384
0.836885
0.837499
0.83819
0.838927
0.839687
0.84045
0.841201
0.841929
0.842628
0.843294
0.843925
0.844522
0.845088
0.845627
0.846145
0.846649
0.847146
0.847644
0.848148
0.848663
0.849192
0.849735
0.850288
0.850848
0.851409
0.851962
0.852501
0.853015
0.853498
0.853941
0.854338
0.85468
0.854963
0.855181
0.855328
0.855403
0.883141
0.88317
0.883229
0.883316
0.883432
0.883578
0.883755
0.883965
0.884216
0.884512
0.884864
0.885282
0.885779
0.886371
0.887073
0.887901
0.888874
0.890009
0.891323
0.892831
0.894549
0.896486
0.898649
0.901042
0.903662
0.906503
0.909554
0.912802
0.916228
0.919809
0.923519
0.927325
0.931193
0.935082
0.938953
0.942761
0.946465
0.950021
0.953388
0.956529
0.959407
0.961988
0.964244
0.966146
0.967674
0.968806
0.969529
0.969831
0.969703
0.969142
0.968147
0.966722
0.964875
0.962617
0.959962
0.956932
0.953548
0.949838
0.945835
0.941574
0.937094
0.93244
0.927658
0.922798
0.917915
0.91306
0.908291
0.90366
0.899219
0.895014
0.891087
0.88747
0.884187
0.881254
0.878681
0.876474
0.874631
0.873146
0.872005
0.871187
0.870665
0.870403
0.870366
0.870516
0.870817
0.871235
0.871739
0.872302
0.872903
0.873523
0.874147
0.874765
0.875368
0.875953
0.876515
0.877056
0.877575
0.878075
0.878561
0.879037
0.879508
0.879979
0.880453
0.880935
0.881424
0.881922
0.882426
0.882933
0.883436
0.883931
0.884411
0.884868
0.885296
0.885688
0.886038
0.88634
0.886588
0.886779
0.886909
0.886974
0.916163
0.916195
0.916259
0.916356
0.916485
0.916649
0.91685
0.91709
0.917376
0.917713
0.918109
0.918574
0.91912
0.91976
0.920506
0.921373
0.922375
0.923526
0.924841
0.926332
0.928009
0.92988
0.931951
0.934223
0.936693
0.939355
0.942199
0.945211
0.948375
0.951669
0.955069
0.958547
0.96207
0.965605
0.969115
0.972563
0.97591
0.979121
0.982159
0.984988
0.987578
0.989897
0.99192
0.993621
0.994982
0.995983
0.996611
0.996856
0.996711
0.996171
0.995237
0.993912
0.992204
0.990124
0.987685
0.984905
0.981807
0.978416
0.974762
0.970876
0.966795
0.962558
0.958208
0.953789
0.949347
0.944931
0.940587
0.936362
0.9323
0.928442
0.924822
0.921469
0.918405
0.915648
0.913206
0.911086
0.909286
0.907801
0.90662
0.905724
0.905093
0.904697
0.904509
0.904497
0.904632
0.904884
0.905228
0.90564
0.9061
0.906591
0.907099
0.907614
0.908127
0.908633
0.909128
0.90961
0.91008
0.910539
0.910988
0.91143
0.91187
0.912309
0.912751
0.913197
0.913649
0.914104
0.914562
0.91502
0.915473
0.915915
0.916343
0.91675
0.917129
0.917477
0.917786
0.918052
0.918271
0.918439
0.918553
0.91861
0.949152
0.949187
0.949257
0.949362
0.949504
0.949684
0.949905
0.95017
0.950484
0.950853
0.951284
0.951786
0.952369
0.953042
0.953818
0.954709
0.955725
0.95688
0.958183
0.959645
0.961274
0.963076
0.965053
0.967206
0.969532
0.972025
0.974675
0.97747
0.980392
0.983424
0.986543
0.989723
0.992936
0.996152
0.999339
1.00246
1.00549
1.0084
1.01114
1.01369
1.01602
1.0181
1.01992
1.02144
1.02265
1.02353
1.02408
1.02427
1.02411
1.02359
1.02272
1.02149
1.01991
1.01799
1.01575
1.0132
1.01036
1.00726
1.00392
1.00037
0.996651
0.99279
0.988827
0.984801
0.980755
0.976729
0.972764
0.968901
0.965179
0.961631
0.958289
0.955178
0.952318
0.949726
0.94741
0.945377
0.943626
0.942153
0.940948
0.939998
0.939284
0.938784
0.938475
0.938331
0.938328
0.938442
0.938649
0.93893
0.939266
0.939642
0.940045
0.940465
0.940893
0.941324
0.941753
0.942178
0.942597
0.943011
0.94342
0.943827
0.944232
0.944637
0.945045
0.945455
0.945868
0.946283
0.946699
0.947112
0.947518
0.947915
0.948296
0.948658
0.948995
0.949303
0.949577
0.949812
0.950005
0.950153
0.950253
0.950304
0.982107
0.982144
0.982219
0.982332
0.982485
0.982679
0.982916
0.983202
0.983538
0.983932
0.984389
0.984918
0.985526
0.986222
0.987016
0.987919
0.988938
0.990085
0.991367
0.992792
0.994367
0.996095
0.997979
1.00002
1.0022
1.00454
1.00701
1.0096
1.0123
1.01509
1.01796
1.02087
1.0238
1.02673
1.02962
1.03246
1.0352
1.03783
1.04031
1.04261
1.04471
1.04658
1.04821
1.04957
1.05064
1.05142
1.05189
1.05204
1.05187
1.05138
1.05055
1.04941
1.04795
1.04618
1.04412
1.04178
1.03918
1.03634
1.03328
1.03004
1.02665
1.02312
1.01951
1.01584
1.01214
1.00846
1.00484
1.0013
0.997882
0.994615
0.991525
0.988635
0.985964
0.983527
0.981332
0.979386
0.977688
0.976236
0.975022
0.974035
0.973261
0.97268
0.972276
0.972025
0.971909
0.971906
0.971997
0.972164
0.972392
0.972666
0.972974
0.973307
0.973657
0.974017
0.974382
0.97475
0.975119
0.975488
0.975856
0.976224
0.976593
0.976963
0.977336
0.97771
0.978086
0.978463
0.978838
0.97921
0.979575
0.979929
0.98027
0.980592
0.980891
0.981164
0.981406
0.981614
0.981785
0.981915
0.982003
0.982048
1.01502
1.01506
1.01514
1.01526
1.01542
1.01563
1.01588
1.01618
1.01653
1.01695
1.01742
1.01797
1.01859
1.0193
1.02011
1.02101
1.02202
1.02315
1.02441
1.02579
1.02731
1.02896
1.03075
1.03268
1.03473
1.03692
1.03922
1.04162
1.04412
1.04669
1.04932
1.05199
1.05467
1.05734
1.05997
1.06255
1.06504
1.06741
1.06965
1.07173
1.07362
1.0753
1.07676
1.07798
1.07893
1.07962
1.08002
1.08014
1.07996
1.07948
1.07871
1.07765
1.07629
1.07466
1.07277
1.07062
1.06823
1.06563
1.06284
1.05987
1.05677
1.05355
1.05025
1.04689
1.04351
1.04015
1.03683
1.03358
1.03044
1.02742
1.02456
1.02187
1.01938
1.01709
1.01501
1.01315
1.0115
1.01008
1.00887
1.00786
1.00704
1.0064
1.00592
1.00559
1.00538
1.00528
1.00527
1.00534
1.00547
1.00566
1.00588
1.00613
1.00641
1.0067
1.00701
1.00732
1.00764
1.00797
1.00829
1.00862
1.00895
1.00929
1.00962
1.00996
1.0103
1.01064
1.01098
1.01131
1.01164
1.01196
1.01226
1.01255
1.01281
1.01306
1.01327
1.01345
1.0136
1.01372
1.0138
1.01384
1.0479
1.04794
1.04803
1.04815
1.04832
1.04853
1.04879
1.04911
1.04947
1.0499
1.05039
1.05094
1.05158
1.05229
1.0531
1.05399
1.05499
1.0561
1.05732
1.05865
1.06011
1.06169
1.06339
1.0652
1.06714
1.06918
1.07132
1.07355
1.07586
1.07823
1.08065
1.08309
1.08554
1.08798
1.09038
1.09272
1.09498
1.09713
1.09916
1.10103
1.10274
1.10425
1.10556
1.10665
1.1075
1.1081
1.10844
1.10853
1.10834
1.10789
1.10716
1.10617
1.10492
1.10341
1.10167
1.09969
1.0975
1.09512
1.09256
1.08985
1.087
1.08406
1.08104
1.07797