/*--------------------------------*- C++ -*----------------------------------*\
| =========                 |                                                 |
| \\      /  F ield         | OpenFOAM: The Open Source CFD Toolbox           |
|  \\    /   O peration     | Version:  2406                                  |
|   \\  /    A nd           | Website:  www.openfoam.com                      |
|    \\/     M anipulation  |                                                 |
\*---------------------------------------------------------------------------*/
FoamFile
{
    version     2.0;
    format      ascii;
    arch        "LSB;label=32;scalar=64";
    class       volScalarField;
    location    "9";
    object      C_0_0;
}
// * * * * * * * * * * * * * * * * * * * * * * * * * * * * * * * * * * * * * //

dimensions      [1 -3 0 0 0 0 0];

internalField   nonuniform List<scalar> 
14400
(
0.216427
0.215616
0.214184
0.212421
0.210635
0.209096
0.208006
0.20749
0.207594
0.208286
0.209451
0.210888
0.212308
0.213346
0.213602
0.212736
0.210623
0.207489
0.203748
0.199858
0.196233
0.193225
0.191128
0.190197
0.190668
0.19278
0.196788
0.202961
0.211587
0.222964
0.237399
0.255207
0.276717
0.30226
0.332154
0.366648
0.405738
0.448274
0.485293
0.510934
0.53003
0.546351
0.560138
0.571577
0.580807
0.587935
0.593042
0.596184
0.597398
0.596702
0.594099
0.589573
0.583091
0.574601
0.56403
0.55128
0.53622
0.518683
0.498445
0.47054
0.431355
0.388791
0.349905
0.31568
0.286086
0.260854
0.239652
0.222138
0.207968
0.196797
0.188282
0.18209
0.17792
0.175525
0.17472
0.175375
0.177413
0.180796
0.185515
0.191584
0.199025
0.207847
0.218008
0.229372
0.241615
0.254037
0.26491
0.27088
0.269919
0.264033
0.256013
0.247627
0.239611
0.23235
0.226051
0.220806
0.216622
0.213442
0.211164
0.209646
0.208727
0.208244
0.208055
0.208067
0.208259
0.208692
0.209499
0.210862
0.212987
0.216079
0.220329
0.225898
0.232906
0.241415
0.251413
0.262773
0.275205
0.288114
0.300223
0.307781
0.221801
0.220788
0.219038
0.21693
0.214836
0.213057
0.211812
0.211234
0.211373
0.212196
0.213586
0.215336
0.217137
0.218577
0.219159
0.218389
0.21602
0.212426
0.208176
0.203817
0.199802
0.196492
0.194181
0.193119
0.193537
0.195668
0.199759
0.206073
0.214891
0.226505
0.241219
0.25935
0.281224
0.307171
0.337503
0.372439
0.411917
0.454643
0.490035
0.51403
0.532805
0.548884
0.562487
0.573785
0.582908
0.589957
0.595007
0.598112
0.599307
0.59861
0.596022
0.591529
0.585099
0.576682
0.56621
0.553589
0.538698
0.52138
0.501437
0.475212
0.437497
0.394498
0.355123
0.320426
0.290381
0.264728
0.243138
0.225268
0.210775
0.199316
0.190554
0.184163
0.179846
0.177357
0.17651
0.177175
0.179274
0.18277
0.18766
0.193962
0.201704
0.210899
0.221517
0.233431
0.246338
0.259538
0.270909
0.276673
0.276373
0.27035
0.261836
0.25297
0.244532
0.236921
0.230348
0.224904
0.220595
0.217361
0.215091
0.213633
0.212805
0.21242
0.212306
0.212346
0.212511
0.212873
0.213592
0.214879
0.216962
0.220066
0.224393
0.230111
0.237342
0.246153
0.256534
0.26837
0.281374
0.294915
0.307347
0.314151
0.233066
0.231575
0.22911
0.226261
0.223518
0.221243
0.219682
0.218977
0.219183
0.220267
0.222111
0.2245
0.227096
0.229412
0.230763
0.230282
0.227268
0.222625
0.217282
0.211949
0.207137
0.203217
0.200475
0.199148
0.199455
0.201614
0.20586
0.212443
0.221631
0.233708
0.248973
0.267742
0.290338
0.317092
0.348296
0.38411
0.424233
0.466515
0.498467
0.520105
0.538275
0.553893
0.567142
0.578168
0.587084
0.593977
0.598917
0.60195
0.603108
0.602408
0.59985
0.595421
0.589092
0.580819
0.570539
0.558168
0.543601
0.526704
0.507308
0.483678
0.44894
0.405739
0.365593
0.329997
0.299063
0.272574
0.250215
0.231643
0.216514
0.204491
0.195243
0.188456
0.183844
0.181165
0.180232
0.180916
0.183138
0.186866
0.192101
0.198872
0.207215
0.217155
0.228669
0.241642
0.255773
0.270302
0.28224
0.287613
0.288164
0.282752
0.273541
0.263795
0.254548
0.24626
0.239157
0.233333
0.228791
0.225466
0.223233
0.221917
0.221299
0.221136
0.221194
0.221298
0.221399
0.221596
0.222109
0.223212
0.225187
0.228292
0.232752
0.238747
0.246405
0.255795
0.266912
0.279644
0.293705
0.308371
0.320735
0.325852
0.251225
0.24878
0.245037
0.240948
0.237166
0.234117
0.232067
0.231165
0.231467
0.23294
0.235469
0.238835
0.242686
0.246472
0.249295
0.249618
0.24517
0.23862
0.231476
0.224619
0.218591
0.21375
0.210355
0.208621
0.208745
0.210927
0.21538
0.222339
0.232056
0.244806
0.26088
0.280588
0.304254
0.332199
0.364702
0.401868
0.443037
0.482323
0.509196
0.528984
0.546299
0.56127
0.57402
0.584661
0.593281
0.599953
0.604733
0.607662
0.608768
0.608063
0.605549
0.601214
0.595031
0.586964
0.576957
0.564943
0.550835
0.534527
0.515895
0.494668
0.464628
0.42262
0.381494
0.34457
0.312312
0.284582
0.261085
0.24148
0.225422
0.212576
0.202621
0.195255
0.190206
0.187242
0.18618
0.186891
0.189302
0.193383
0.199144
0.206621
0.215862
0.226901
0.239722
0.254204
0.269989
0.286017
0.29784
0.302822
0.304095
0.300833
0.291273
0.280345
0.269955
0.260704
0.25285
0.246494
0.241641
0.23822
0.236094
0.235051
0.23482
0.235069
0.235451
0.235675
0.235645
0.235521
0.235642
0.236393
0.238137
0.241189
0.245802
0.25217
0.260426
0.270637
0.282788
0.296741
0.312116
0.327743
0.338318
0.341887
0.27772
0.273376
0.267524
0.261581
0.256324
0.252205
0.249488
0.248317
0.248741
0.250728
0.254164
0.258837
0.264405
0.270316
0.275571
0.277684
0.270429
0.260867
0.251156
0.242232
0.234586
0.22852
0.224253
0.221962
0.221818
0.223998
0.228693
0.236116
0.246505
0.260122
0.277248
0.298185
0.323244
0.352724
0.386843
0.425511
0.467103
0.499789
0.521779
0.540333
0.556667
0.570866
0.583009
0.593174
0.601426
0.60782
0.6124
0.615199
0.616238
0.615528
0.61307
0.608852
0.602855
0.595047
0.585384
0.573812
0.560267
0.544675
0.526958
0.507052
0.48241
0.445487
0.40303
0.36436
0.330373
0.301019
0.276033
0.255081
0.237821
0.223918
0.21306
0.204955
0.199346
0.196013
0.194785
0.19554
0.198208
0.202766
0.209229
0.217643
0.228061
0.240523
0.255019
0.271413
0.289218
0.306505
0.316732
0.321505
0.323379
0.322361
0.314785
0.302793
0.291079
0.280653
0.271871
0.264866
0.259656
0.256176
0.254275
0.25371
0.254136
0.255103
0.256071
0.256512
0.256225
0.255507
0.254927
0.255059
0.256379
0.259267
0.264011
0.270816
0.279811
0.29105
0.304482
0.319892
0.336625
0.351725
0.358686
0.36133
0.313706
0.305944
0.297015
0.288599
0.281448
0.275979
0.272428
0.270918
0.271489
0.274106
0.27865
0.284906
0.292521
0.30088
0.308382
0.30905
0.302242
0.289283
0.276514
0.265118
0.255522
0.247966
0.242618
0.239622
0.239119
0.241261
0.246219
0.254185
0.26538
0.280049
0.298462
0.320907
0.347665
0.37897
0.414897
0.454799
0.4924
0.517479
0.53667
0.5539
0.569172
0.582517
0.593977
0.6036
0.611429
0.617501
0.621848
0.624495
0.625457
0.624742
0.622349
0.618271
0.612491
0.604984
0.595719
0.584654
0.571747
0.556948
0.540211
0.521494
0.500593
0.471193
0.429733
0.389511
0.353529
0.322214
0.295412
0.27282
0.254101
0.238928
0.22699
0.21801
0.211741
0.20798
0.206567
0.20739
0.210388
0.215544
0.222878
0.232439
0.244283
0.258452
0.274924
0.293512
0.313441
0.330158
0.33826
0.343071
0.345485
0.345633
0.342161
0.331059
0.318198
0.3065
0.296669
0.28893
0.283344
0.27987
0.278367
0.278562
0.280042
0.282208
0.284238
0.285089
0.284291
0.282489
0.280725
0.279849
0.280468
0.283028
0.287847
0.295128
0.304977
0.317417
0.332307
0.349212
0.366629
0.377171
0.381332
0.383418
0.350471
0.344865
0.33323
0.322128
0.312824
0.305801
0.30128
0.299377
0.300121
0.303469
0.309283
0.317295
0.327005
0.337189
0.34182
0.340145
0.336005
0.322958
0.307501
0.293524
0.281768
0.272507
0.265894
0.262053
0.261102
0.263173
0.268415
0.277002
0.289133
0.305039
0.324973
0.349196
0.377929
0.411269
0.448856
0.488297
0.516408
0.535916
0.553521
0.569426
0.583603
0.596051
0.606783
0.615821
0.623188
0.628906
0.632997
0.635476
0.636353
0.635632
0.633314
0.629392
0.623854
0.616681
0.607852
0.59734
0.585118
0.571159
0.555441
0.537952
0.518696
0.496067
0.462015
0.420366
0.382127
0.348555
0.319641
0.29513
0.274708
0.258058
0.244878
0.2349
0.227889
0.223656
0.222054
0.222982
0.226387
0.232258
0.240619
0.251519
0.265012
0.281127
0.299789
0.320614
0.341901
0.3553
0.362231
0.367033
0.369858
0.370838
0.370179
0.364433
0.351445
0.338569
0.327644
0.319118
0.313147
0.309762
0.308866
0.310169
0.313214
0.31728
0.321239
0.322898
0.321066
0.317335
0.313681
0.311304
0.31088
0.312909
0.317729
0.325512
0.3363
0.350063
0.366433
0.384253
0.397214
0.402751
0.405952
0.407593
0.383838
0.382461
0.374754
0.361943
0.350555
0.341914
0.336347
0.334021
0.33496
0.339113
0.346299
0.356042
0.367121
0.374232
0.374397
0.372501
0.369528
0.360997
0.344111
0.327706
0.313688
0.302564
0.294532
0.289719
0.288238
0.29021
0.295767
0.30506
0.318266
0.335593
0.357271
0.383519
0.414454
0.449906
0.488363
0.518421
0.538488
0.555983
0.57207
0.586679
0.599764
0.611302
0.621284
0.629712
0.636594
0.64194
0.645759
0.648058
0.648845
0.64812
0.645884
0.64213
0.63685
0.630034
0.621667
0.611736
0.600227
0.58713
0.572443
0.556176
0.538359
0.519048
0.493984
0.456211
0.416326
0.380436
0.349186
0.3225
0.300136
0.281804
0.26722
0.256122
0.24829
0.243546
0.241756
0.24283
0.246722
0.253424
0.262963
0.275384
0.290729
0.308989
0.329988
0.352899
0.372318
0.381792
0.388236
0.392972
0.396076
0.397675
0.39795
0.396917
0.390139
0.376896
0.365046
0.355753
0.349392
0.346163
0.346093
0.348847
0.353959
0.360642
0.367655
0.370727
0.367057
0.36041
0.354092
0.349763
0.347945
0.349226
0.353979
0.362295
0.374013
0.389051
0.406081
0.419575
0.426111
0.429651
0.432132
0.433408
0.417128
0.41687
0.414808
0.406899
0.394419
0.384386
0.377799
0.375065
0.376201
0.381148
0.389653
0.400366
0.407866
0.409218
0.407866
0.405907
0.403186
0.398983
0.386124
0.367883
0.351639
0.33857
0.328998
0.323105
0.321022
0.322878
0.328794
0.338894
0.353316
0.372235
0.395846
0.42428
0.457342
0.493724
0.524182
0.54468
0.561615
0.577457
0.592098
0.605457
0.617473
0.628108
0.637338
0.64515
0.651538
0.6565
0.660039
0.662154
0.662849
0.662121
0.65997
0.656392
0.651383
0.644937
0.637047
0.62771
0.616923
0.604691
0.591025
0.575951
0.559512
0.541774
0.522706
0.495564
0.456213
0.418288
0.384563
0.355467
0.330925
0.310707
0.294548
0.282202
0.273461
0.268161
0.266181
0.267442
0.271903
0.279555
0.290422
0.304535
0.321906
0.342432
0.365583
0.38895
0.402512
0.409957
0.41595
0.420541
0.423799
0.425836
0.426816
0.426958
0.425962
0.419901
0.408492
0.398858
0.392135
0.389065
0.390032
0.394397
0.401508
0.410132
0.414615
0.416001
0.414661
0.409992
0.401299
0.39517
0.391701
0.392042
0.396695
0.405605
0.417923
0.433435
0.445275
0.451598
0.454907
0.457609
0.459516
0.460501
0.450677
0.450607
0.450546
0.448856
0.442749
0.432628
0.425423
0.422434
0.423688
0.42904
0.438056
0.443587
0.444777
0.443447
0.441942
0.440077
0.437738
0.434881
0.428841
0.413468
0.395805
0.380933
0.36977
0.362712
0.359962
0.361696
0.368035
0.379062
0.394837
0.415471
0.441094
0.47162
0.505572
0.534677
0.554676
0.570633
0.585834
0.600132
0.613409
0.625576
0.636563
0.64632
0.654811
0.662011
0.667906
0.672485
0.675741
0.677672
0.678274
0.677545
0.675483
0.672087
0.667354
0.661283
0.653875
0.645133
0.635065
0.623684
0.611015
0.597091
0.581963
0.565699
0.548379
0.529433
0.501191
0.462446
0.426274
0.394583
0.36765
0.345347
0.327439
0.313704
0.303953
0.298041
0.295864
0.297351
0.302462
0.311182
0.32352
0.339475
0.358998
0.38182
0.406556
0.424262
0.432818
0.439534
0.445064
0.449446
0.452742
0.455053
0.456521
0.457335
0.457737
0.45756
0.453638
0.44717
0.440486
0.437526
0.439645
0.44503
0.449993
0.45301
0.453468
0.453442
0.45426
0.45409
0.451332
0.446321
0.441369
0.440798
0.445294
0.454738
0.465936
0.474392
0.479125
0.481824
0.48431
0.486364
0.487822
0.488578
0.484297
0.484335
0.484475
0.484848
0.484572
0.481433
0.477323
0.474697
0.475769
0.47881
0.481135
0.480862
0.47928
0.477852
0.476376
0.47472
0.472808
0.470626
0.468221
0.461272
0.445816
0.429934
0.417261
0.409013
0.405535
0.407158
0.414002
0.426101
0.443325
0.465641
0.492993
0.524347
0.550199
0.568487
0.583127
0.597342
0.610957
0.623826
0.635831
0.646875
0.656883
0.665797
0.673573
0.680179
0.685591
0.689792
0.69277
0.694518
0.69503
0.694302
0.692331
0.689118
0.684662
0.678966
0.672037
0.663883
0.654519
0.643967
0.632259
0.619435
0.605552
0.590679
0.574898
0.558304
0.539562
0.511591
0.474454
0.440282
0.410857
0.386329
0.366508
0.351239
0.340361
0.333764
0.33137
0.333121
0.338964
0.348865
0.3628
0.380669
0.402238
0.426538
0.44709
0.457424
0.464326
0.470298
0.475327
0.479435
0.48267
0.485113
0.486879
0.488123
0.489032
0.489834
0.490756
0.489736
0.487789
0.486705
0.48731
0.488688
0.489194
0.488264
0.487908
0.488101
0.488916
0.490338
0.492247
0.4923
0.491932
0.492845
0.496253
0.501207
0.505854
0.508283
0.510233
0.512261
0.514147
0.515713
0.516831
0.517411
0.517877
0.517963
0.518172
0.518582
0.519298
0.520385
0.520105
0.519336
0.519145
0.518768
0.516826
0.515093
0.51363
0.512302
0.510992
0.50962
0.508149
0.506589
0.505
0.503468
0.497338
0.484963
0.471521
0.462292
0.458037
0.459598
0.467033
0.480372
0.498974
0.522275
0.549461
0.570631
0.586009
0.599055
0.612003
0.62465
0.636825
0.648386
0.659213
0.66921
0.678297
0.686413
0.693506
0.69954
0.704486
0.708321
0.711029
0.7126
0.713026
0.7123
0.710422
0.707391
0.703209
0.697883
0.691423
0.683842
0.675161
0.665407
0.654618
0.642839
0.630131
0.616566
0.60223
0.587226
0.571674
0.553864
0.527617
0.492569
0.460938
0.434232
0.412377
0.395441
0.383307
0.375932
0.373293
0.375343
0.382002
0.393172
0.408784
0.428445
0.451238
0.47278
0.48428
0.490835
0.496766
0.502002
0.506513
0.510298
0.51339
0.515849
0.517762
0.519244
0.520433
0.521479
0.522528
0.523683
0.524772
0.525087
0.524523
0.523388
0.522456
0.521911
0.521797
0.522136
0.522964
0.524298
0.526169
0.528674
0.531483
0.533739
0.535809
0.537226
0.538306
0.539702
0.541261
0.542842
0.544301
0.545512
0.546376
0.546825
0.551373
0.551465
0.551667
0.552011
0.55252
0.553162
0.553758
0.553927
0.553141
0.551804
0.550387
0.549054
0.547846
0.546733
0.545668
0.544619
0.54358
0.542582
0.541698
0.541051
0.540816
0.537399
0.530665
0.521881
0.51711
0.518861
0.526794
0.541252
0.560281
0.579247
0.595152
0.606978
0.618246
0.629722
0.64118
0.652429
0.663308
0.673678
0.683426
0.692455
0.700684
0.708049
0.714499
0.71999
0.724491
0.727976
0.730426
0.731828
0.732172
0.731452
0.729666
0.726814
0.722901
0.717935
0.711929
0.704901
0.696876
0.687883
0.677966
0.667173
0.655567
0.643223
0.630232
0.616697
0.602743
0.588519
0.572597
0.549449
0.517594
0.489455
0.465558
0.446918
0.433389
0.425118
0.422192
0.424579
0.432132
0.444555
0.461806
0.482412
0.502333
0.513622
0.519411
0.524867
0.5299
0.534433
0.538422
0.541854
0.544744
0.54713
0.549075
0.55066
0.551977
0.553121
0.554166
0.555131
0.555911
0.556273
0.556134
0.555709
0.555314
0.555127
0.555234
0.555684
0.556507
0.557719
0.55932
0.561278
0.563421
0.565478
0.567118
0.568459
0.569683
0.570957
0.572267
0.573546
0.574705
0.575658
0.576336
0.576687
0.584777
0.584856
0.585022
0.585276
0.585607
0.585961
0.586213
0.58617
0.585669
0.584832
0.583863
0.582888
0.581969
0.581117
0.580329
0.579608
0.578969
0.57846
0.578158
0.578187
0.578725
0.58003
0.580524
0.579555
0.579663
0.58277
0.590067
0.600399
0.611713
0.622117
0.630903
0.640364
0.650274
0.660407
0.670566
0.680579
0.690298
0.699594
0.708359
0.716498
0.723935
0.730603
0.736449
0.74143
0.745512
0.748666
0.750872
0.752115
0.752383
0.751671
0.749975
0.747298
0.743646
0.739027
0.733458
0.726959
0.719556
0.711285
0.702188
0.692319
0.681741
0.67053
0.658776
0.646586
0.634083
0.621415
0.608756
0.595489
0.576444
0.55128
0.525976
0.506047
0.491007
0.481715
0.478452
0.481193
0.489708
0.502907
0.520958
0.536305
0.545631
0.550248
0.554855
0.559323
0.563535
0.567408
0.570889
0.573953
0.576601
0.578853
0.580749
0.582343
0.583694
0.584861
0.585883
0.586764
0.587455
0.587878
0.588024
0.587999
0.587965
0.588047
0.588327
0.588856
0.589662
0.590753
0.592114
0.593696
0.595387
0.597037
0.598508
0.59981
0.60101
0.602174
0.603305
0.604369
0.605313
0.60608
0.606621
0.606901
0.6181
0.618163
0.618286
0.618463
0.618671
0.618864
0.618962
0.618872
0.618534
0.617992
0.617343
0.616669
0.616023
0.615435
0.614925
0.614513
0.61423
0.61413
0.614288
0.614813
0.615849
0.617578
0.620208
0.623966
0.627872
0.632257
0.637859
0.643884
0.650048
0.657099
0.664911
0.6733
0.682078
0.691066
0.700097
0.709023
0.71771
0.726042
0.733916
0.741245
0.747953
0.753977
0.759264
0.76377
0.767459
0.770304
0.772281
0.773375
0.773574
0.772872
0.771266
0.768758
0.765356
0.76107
0.755917
0.749919
0.743105
0.735512
0.727184
0.718174
0.708547
0.698378
0.687757
0.676787
0.665588
0.654302
0.643093
0.632151
0.621597
0.607645
0.59066
0.571906
0.555617
0.545474
0.541854
0.544678
0.553947
0.5655
0.574643
0.580359
0.58341
0.586843
0.590439
0.594035
0.597509
0.600774
0.603772
0.606469
0.608853
0.610931
0.612725
0.614268
0.615597
0.616747
0.617742
0.618587
0.619266
0.619761
0.620084
0.620299
0.6205
0.620769
0.621173
0.621752
0.622532
0.623516
0.624687
0.626004
0.627395
0.628773
0.630068
0.631262
0.632374
0.633424
0.634411
0.635313
0.636098
0.636728
0.637168
0.637395
0.651361
0.651408
0.651497
0.651619
0.651752
0.651861
0.6519
0.651821
0.651601
0.651261
0.650849
0.650421
0.650018
0.649676
0.649422
0.649288
0.64931
0.649542
0.650051
0.650928
0.652279
0.654224
0.656875
0.66029
0.664331
0.668858
0.673673
0.678969
0.68482
0.691296
0.698342
0.705846
0.713673
0.721681
0.729734
0.737706
0.745478
0.752947
0.760019
0.766612
0.772656
0.778089
0.782861
0.786927
0.790252
0.792809
0.794574
0.79553
0.795667
0.794977
0.793458
0.791113
0.78795
0.783979
0.77922
0.773695
0.767434
0.760474
0.752861
0.744647
0.735895
0.72668
0.717087
0.707216
0.697181
0.687112
0.677161
0.667497
0.658317
0.649864
0.641207
0.630997
0.621126
0.613507
0.609734
0.609935
0.612658
0.615932
0.617379
0.618725
0.620776
0.623275
0.626023
0.628867
0.631691
0.634408
0.636957
0.639298
0.641411
0.643293
0.644952
0.646406
0.647677
0.648787
0.64975
0.650576
0.651263
0.651814
0.652251
0.652615
0.652965
0.653358
0.653841
0.654448
0.655197
0.656091
0.657115
0.658239
0.659416
0.660593
0.661727
0.662797
0.6638
0.664737
0.6656
0.666375
0.667038
0.667564
0.667929
0.668116
0.684575
0.68461
0.684677
0.684764
0.684855
0.684928
0.684955
0.684912
0.684789
0.6846
0.684373
0.684146
0.683953
0.683828
0.683801
0.683906
0.684181
0.684675
0.685447
0.686568
0.688114
0.690164
0.69278
0.69598
0.699711
0.703899
0.708479
0.713491
0.718967
0.724922
0.731316
0.738071
0.745086
0.75225
0.759454
0.766587
0.77355
0.780249
0.786601
0.792529
0.797969
0.802863
0.807162
0.810824
0.813814
0.816105
0.817675
0.818505
0.818586
0.817911
0.816477
0.814287
0.81135
0.807678
0.803289
0.798207
0.792462
0.786091
0.779138
0.771656
0.763706
0.755359
0.746696
0.73781
0.728807
0.719806
0.710941
0.70236
0.694228
0.686721
0.680008
0.674386
0.669536
0.664999
0.66151
0.659211
0.657196
0.655874
0.655706
0.65638
0.657693
0.659458
0.661511
0.663721
0.665981
0.66821
0.670348
0.672354
0.674201
0.675878
0.677385
0.678728
0.67992
0.680973
0.681897
0.682702
0.683394
0.683984
0.68449
0.684945
0.685387
0.685856
0.686387
0.687003
0.687718
0.688535
0.689444
0.690421
0.691437
0.692457
0.693451
0.6944
0.695293
0.696122
0.696879
0.697549
0.698116
0.698561
0.698868
0.699025
0.717754
0.717782
0.717835
0.717904
0.717978
0.718042
0.718081
0.718082
0.718044
0.717975
0.717897
0.717837
0.717822
0.717882
0.718048
0.718353
0.718833
0.71953
0.720495
0.721781
0.723446
0.72554
0.728101
0.731139
0.734634
0.738548
0.742852
0.747547
0.752636
0.758109
0.763929
0.770035
0.776349
0.782782
0.789242
0.795639
0.801886
0.807899
0.813605
0.818935
0.823828
0.828232
0.8321
0.835392
0.838076
0.840124
0.841514
0.842231
0.842262
0.841603
0.84025
0.838208
0.835485
0.832093
0.82805
0.823381
0.818116
0.812289
0.805945
0.799134
0.791915
0.784353
0.776527
0.76852
0.76043
0.752363
0.744436
0.736775
0.729513
0.722785
0.716719
0.711428
0.706872
0.703024
0.699758
0.697028
0.694989
0.693687
0.693193
0.693395
0.69416
0.695352
0.696842
0.698523
0.700301
0.702103
0.703873
0.705568
0.70716
0.708634
0.709981
0.711202
0.712301
0.713286
0.714164
0.714942
0.715628
0.716236
0.716781
0.717287
0.717782
0.718294
0.718846
0.719457
0.720138
0.720889
0.721703
0.722565
0.723454
0.724346
0.72522
0.726058
0.726848
0.72758
0.728244
0.728826
0.729315
0.729695
0.729957
0.73009
0.750905
0.75093
0.750976
0.751039
0.75111
0.751181
0.751244
0.751292
0.751328
0.75136
0.751404
0.751481
0.751614
0.751831
0.752158
0.752625
0.753267
0.754119
0.755221
0.756617
0.758347
0.760448
0.762944
0.765843
0.769137
0.772807
0.776835
0.78121
0.785922
0.790949
0.796256
0.801792
0.807492
0.813286
0.819095
0.824842
0.830454
0.835857
0.840985
0.845777
0.850177
0.854137
0.857614
0.86057
0.862973
0.864799
0.866027
0.866641
0.866629
0.865987
0.864714
0.862811
0.860288
0.857158
0.853438
0.849153
0.84433
0.839005
0.833219
0.827021
0.820465
0.813613
0.806537
0.799314
0.792031
0.784781
0.777666
0.770791
0.764263
0.758187
0.752656
0.747734
0.743431
0.739732
0.736598
0.73402
0.732043
0.730695
0.729982
0.729846
0.730201
0.730946
0.731984
0.733227
0.734597
0.736029
0.737472
0.738885
0.740239
0.741515
0.742703
0.743797
0.744798
0.745707
0.74653
0.747272
0.747942
0.74855
0.749111
0.749641
0.750161
0.75069
0.751246
0.751843
0.752486
0.753178
0.753914
0.754682
0.755467
0.756253
0.757024
0.757764
0.758462
0.759108
0.75969
0.760198
0.760621
0.76095
0.761174
0.761288
0.784031
0.784055
0.784101
0.784165
0.784243
0.784329
0.78442
0.784515
0.784617
0.784734
0.784878
0.785068
0.785324
0.785669
0.786126
0.786724
0.78749
0.788456
0.789655
0.791118
0.792878
0.794961
0.797383
0.800152
0.803264
0.806708
0.810471
0.814537
0.818891
0.823508
0.828354
0.833384
0.838544
0.843773
0.849008
0.854182
0.85923
0.864089
0.868701
0.87301
0.876966
0.880526
0.883648
0.886299
0.888449
0.890074
0.891154
0.891675
0.891627
0.891004
0.889805
0.888034
0.885699
0.882813
0.879393
0.875461
0.871046
0.866181
0.860906
0.855265
0.84931
0.843098
0.836694
0.830169
0.823598
0.817065
0.810656
0.804458
0.798561
0.793045
0.787982
0.783422
0.779385
0.775875
0.772884
0.77041
0.768468
0.767066
0.766193
0.765808
0.76585
0.766246
0.766922
0.767805
0.768831
0.769945
0.7711
0.77226
0.773395
0.774486
0.775519
0.776486
0.777385
0.778214
0.778976
0.779675
0.780318
0.780913
0.781471
0.782005
0.78253
0.78306
0.783607
0.784181
0.784787
0.785425
0.786093
0.786781
0.78748
0.788177
0.788858
0.789513
0.790129
0.790698
0.791209
0.791654
0.792023
0.792308
0.792502
0.7926
0.817134
0.817159
0.817207
0.817277
0.817366
0.817472
0.817593
0.817732
0.817891
0.818079
0.818307
0.81859
0.818946
0.819393
0.819955
0.820653
0.821514
0.822561
0.823822
0.825323
0.827087
0.829134
0.831475
0.834118
0.837059
0.840291
0.843802
0.847577
0.851597
0.855838
0.860267
0.864845
0.869526
0.874256
0.878982
0.883647
0.888194
0.892569
0.896719
0.900595
0.904153
0.907351
0.910154
0.912529
0.914449
0.915892
0.91684
0.917279
0.9172
0.916597
0.915469
0.913822
0.911662
0.909001
0.905858
0.902253
0.898212
0.893769
0.888959
0.883824
0.878412
0.872775
0.866973
0.861068
0.855128
0.849225
0.843433
0.837826
0.832477
0.827451
0.822807
0.818586
0.814813
0.8115
0.808651
0.806268
0.804355
0.802909
0.801916
0.801344
0.801146
0.801268
0.801651
0.802239
0.802978
0.80382
0.804725
0.805659
0.806595
0.807514
0.8084
0.809245
0.810041
0.810788
0.811485
0.812135
0.812742
0.813312
0.813855
0.814378
0.814894
0.815412
0.815941
0.816487
0.817054
0.817643
0.81825
0.81887
0.819495
0.820115
0.82072
0.821299
0.821844
0.822346
0.822796
0.823186
0.823508
0.823757
0.823926
0.824011
0.850212
0.850239
0.850292
0.85037
0.850473
0.850599
0.85075
0.850927
0.851136
0.851384
0.85168
0.852039
0.852475
0.853005
0.853647
0.854422
0.85535
0.856452
0.857751
0.859265
0.861014
0.863012
0.865267
0.867785
0.870563
0.873594
0.876869
0.880371
0.884083
0.88798
0.892033
0.896205
0.900457
0.904744
0.909018
0.91323
0.917332
0.921274
0.925011
0.9285
0.931699
0.934572
0.937087
0.939213
0.940927
0.942206
0.943036
0.943401
0.943295
0.942713
0.941654
0.940122
0.938124
0.935673
0.932784
0.929479
0.925782
0.921723
0.917335
0.912659
0.907737
0.902618
0.897354
0.892002
0.886622
0.881275
0.876025
0.870936
0.866068
0.861477
0.857209
0.853302
0.849781
0.846661
0.843951
0.841655
0.839773
0.838299
0.837218
0.836505
0.836122
0.836028
0.836177
0.836522
0.837021
0.837632
0.83832
0.839056
0.839814
0.840575
0.841324
0.84205
0.842748
0.843412
0.844041
0.844637
0.845202
0.84574
0.846257
0.84676
0.847256
0.847753
0.848257
0.848772
0.8493
0.849842
0.850395
0.850955
0.851515
0.852068
0.852606
0.85312
0.853603
0.854046
0.854442
0.854785
0.855068
0.855285
0.855433
0.855507
0.883263
0.883292
0.883351
0.883439
0.883555
0.883702
0.883879
0.884091
0.884342
0.884639
0.884992
0.885411
0.88591
0.886503
0.887206
0.888037
0.889011
0.890147
0.891463
0.892973
0.894692
0.896631
0.898797
0.901191
0.903813
0.906655
0.909708
0.912957
0.916384
0.919967
0.923677
0.927485
0.931354
0.935244
0.939115
0.942924
0.946628
0.950184
0.953552
0.956693
0.959571
0.962152
0.964408
0.966311
0.967838
0.968971
0.969694
0.969995
0.969868
0.969307
0.968312
0.966888
0.96504
0.962782
0.960128
0.957097
0.953714
0.950004
0.946001
0.94174
0.937261
0.932606
0.927824
0.922965
0.918081
0.913226
0.908456
0.903825
0.899383
0.895178
0.89125
0.887631
0.884347
0.881412
0.878838
0.876629
0.874784
0.873297
0.872154
0.871334
0.870809
0.870545
0.870505
0.870653
0.870951
0.871367
0.871868
0.87243
0.873029
0.873647
0.874269
0.874885
0.875487
0.87607
0.876632
0.877171
0.877689
0.878188
0.878673
0.879148
0.879618
0.880088
0.880562
0.881043
0.881532
0.88203
0.882533
0.883039
0.883542
0.884037
0.884516
0.884973
0.8854
0.885792
0.886142
0.886444
0.886692
0.886883
0.887013
0.887078
0.916285
0.916317
0.916381
0.916478
0.916609
0.916773
0.916974
0.917216
0.917502
0.91784
0.918237
0.918704
0.919251
0.919892
0.920639
0.921507
0.922511
0.923664
0.92498
0.926472
0.928151
0.930025
0.932097
0.93437
0.936842
0.939505
0.94235
0.945364
0.948529
0.951825
0.955226
0.958704
0.962228
0.965764
0.969274
0.972723
0.976071
0.979282
0.98232
0.98515
0.987739
0.990059
0.992082
0.993783
0.995144
0.996145
0.996774
0.997019
0.996873
0.996334
0.9954
0.994075
0.992368
0.990287
0.987848
0.985069
0.981971
0.97858
0.974925
0.97104
0.966959
0.962722
0.958372
0.953952
0.949511
0.945094
0.940749
0.936524
0.932462
0.928602
0.924981
0.921627
0.918562
0.915804
0.91336
0.911238
0.909436
0.90795
0.906766
0.905869
0.905235
0.904837
0.904646
0.904632
0.904765
0.905015
0.905357
0.905767
0.906225
0.906715
0.907221
0.907734
0.908246
0.90875
0.909244
0.909725
0.910194
0.910651
0.911099
0.911541
0.91198
0.912418
0.91286
0.913305
0.913756
0.914211
0.914669
0.915126
0.915578
0.916021
0.916448
0.916854
0.917234
0.917581
0.91789
0.918156
0.918375
0.918543
0.918657
0.918714
0.949274
0.949309
0.949379
0.949485
0.949627
0.949808
0.95003
0.950296
0.950611
0.95098
0.951412
0.951915
0.952499
0.953173
0.953951
0.954842
0.95586
0.957016
0.958321
0.959785
0.961415
0.963218
0.965197
0.967352
0.969679
0.972173
0.974825
0.97762
0.980544
0.983577
0.986697
0.989878
0.993092
0.996308
0.999496
1.00262
1.00565
1.00855
1.0113
1.01385
1.01618
1.01826
1.02008
1.0216
1.02281
1.02369
1.02424
1.02443
1.02427
1.02375
1.02288
1.02165
1.02007
1.01815
1.01591
1.01336
1.01052
1.00742
1.00408
1.00053
0.996812
0.992951
0.988988
0.984962
0.980915
0.976889
0.972924
0.96906
0.965337
0.961789
0.958445
0.955333
0.952473
0.949879
0.947562
0.945527
0.943774
0.942299
0.941092
0.94014
0.939424
0.938922
0.938611
0.938465
0.93846
0.938572
0.938777
0.939056
0.93939
0.939765
0.940166
0.940585
0.941011
0.941441
0.941869
0.942292
0.94271
0.943123
0.943532
0.943937
0.944342
0.944746
0.945153
0.945563
0.945976
0.94639
0.946805
0.947218
0.947624
0.94802
0.948402
0.948763
0.9491
0.949407
0.949681
0.949916
0.950109
0.950257
0.950357
0.950407
0.982229
0.982266
0.982341
0.982455
0.982608
0.982802
0.983041
0.983326
0.983664
0.984059
0.984517
0.985046
0.985655
0.986353
0.987148
0.988051
0.989072
0.99022
0.991504
0.99293
0.994507
0.996236
0.998121
1.00016
1.00235
1.00468
1.00715
1.00975
1.01245
1.01524
1.01811
1.02102
1.02395
1.02688
1.02978
1.03262
1.03536
1.03799
1.04046
1.04276
1.04486
1.04674
1.04836
1.04972
1.0508
1.05158
1.05205
1.0522
1.05203
1.05153
1.05071
1.04957
1.04811
1.04634
1.04428
1.04194
1.03934
1.0365
1.03344
1.0302
1.02681
1.02328
1.01967
1.01599
1.0123
1.00862
1.005
1.00146
0.998038
0.99477
0.991679
0.988788
0.986116
0.983677
0.981481
0.979533
0.977834
0.97638
0.975164
0.974176
0.973399
0.972817
0.97241
0.972158
0.97204
0.972035
0.972124
0.97229
0.972516
0.972788
0.973095
0.973426
0.973775
0.974133
0.974498
0.974865
0.975233
0.9756
0.975967
0.976335
0.976703
0.977072
0.977444
0.977818
0.978193
0.978569
0.978944
0.979316
0.97968
0.980034
0.980375
0.980696
0.980995
0.981268
0.98151
0.981718
0.981888
0.982018
0.982106
0.982151
1.01515
1.01519
1.01527
1.01538
1.01555
1.01575
1.016
1.01631
1.01666
1.01707
1.01755
1.0181
1.01872
1.01943
1.02024
1.02114
1.02216
1.02329
1.02454
1.02593
1.02745
1.0291
1.03089
1.03282
1.03488
1.03706
1.03936
1.04177
1.04427
1.04684
1.04947
1.05214
1.05482
1.05749
1.06012
1.0627
1.06519
1.06757
1.0698
1.07188
1.07377
1.07546
1.07692
1.07813
1.07909
1.07977
1.08018
1.08029
1.08011
1.07964
1.07887
1.0778
1.07645
1.07482
1.07292
1.07077
1.06839
1.06579
1.06299
1.06003
1.05692
1.05371
1.0504
1.04705
1.04367
1.0403
1.03698
1.03373
1.03059
1.02757
1.02471
1.02202
1.01953
1.01723
1.01515
1.01329
1.01165
1.01022
1.00901
1.008
1.00718
1.00654
1.00605
1.00572
1.00551
1.0054
1.00539
1.00546
1.00559
1.00578
1.006
1.00625
1.00653
1.00682
1.00712
1.00744
1.00775
1.00808
1.0084
1.00873
1.00906
1.0094
1.00973
1.01007
1.01041
1.01075
1.01109
1.01142
1.01175
1.01206
1.01237
1.01265
1.01292
1.01316
1.01337
1.01356
1.01371
1.01382
1.0139
1.01394
1.04802
1.04807
1.04815
1.04827
1.04844
1.04866
1.04892
1.04923
1.0496
1.05002
1.05051
1.05107
1.05171
1.05242
1.05323
1.05413
1.05513
1.05623
1.05745
1.05879
1.06025
1.06183
1.06352
1.06534
1.06728
1.06932
1.07146
1.07369
1.076
1.07838
1.08079
1.08324
1.08569
1.08813
1.09053
1.09287
1.09513
1.09728
1.09931
1.10118
1.10289
1.1044
1.10571
1.1068
1.10765
1.10825
1.1086
1.10868
1.1085
1.10804
1.10732
1.10632
1.10507
1.10357
1.10182
1.09984
1.09766
1.09527
1.09271
1.09
1.08716
1.08421
1.08119
1.07812
1.07503