/*--------------------------------*- C++ -*----------------------------------*\
| =========                 |                                                 |
| \\      /  F ield         | OpenFOAM: The Open Source CFD Toolbox           |
|  \\    /   O peration     | Version:  2406                                  |
|   \\  /    A nd           | Website:  www.openfoam.com                      |
|    \\/     M anipulation  |                                                 |
\*---------------------------------------------------------------------------*/
FoamFile
{
    version     2.0;
    format      ascii;
    arch        "LSB;label=32;scalar=64";
    class       volScalarField;
    location    "9";
    object      D;
}
// * * * * * * * * * * * * * * * * * * * * * * * * * * * * * * * * * * * * * //

dimensions      [0 2 -1 0 0 0 0];

internalField   nonuniform List<scalar> 
14400
(
7.607e-05
7.60566e-05
7.6052e-05
7.60729e-05
7.61185e-05
7.61745e-05
7.62232e-05
7.62511e-05
7.62549e-05
7.62434e-05
7.62362e-05
7.62584e-05
7.63305e-05
7.64516e-05
7.65815e-05
7.66407e-05
7.65689e-05
7.64177e-05
7.62341e-05
7.60117e-05
7.57023e-05
7.5241e-05
7.45659e-05
7.36361e-05
7.24472e-05
7.10437e-05
6.9518e-05
6.79883e-05
6.65634e-05
6.53173e-05
6.42855e-05
6.34777e-05
6.28958e-05
6.25518e-05
6.24907e-05
6.28468e-05
6.40716e-05
6.8544e-05
0.000100623
0.000138234
0.00013824
0.00013824
0.00013824
0.00013824
0.00013824
0.00013824
0.00013824
0.00013824
0.00013824
0.00013824
0.00013824
0.00013824
0.00013824
0.00013824
0.00013824
0.00013824
0.00013824
0.00013824
0.000138192
9.15371e-05
6.82189e-05
6.44592e-05
6.34672e-05
6.33172e-05
6.36269e-05
6.42965e-05
6.5315e-05
6.67054e-05
6.84886e-05
7.06351e-05
7.30172e-05
7.5413e-05
7.75843e-05
7.93552e-05
8.063e-05
8.13759e-05
8.1601e-05
8.1341e-05
8.06558e-05
7.9635e-05
7.84059e-05
7.71362e-05
7.60343e-05
7.53655e-05
7.55738e-05
7.79684e-05
8.99055e-05
0.000137342
9.88091e-05
7.75036e-05
7.33084e-05
7.20209e-05
7.16789e-05
7.17951e-05
7.21708e-05
7.26934e-05
7.32843e-05
7.38831e-05
7.44427e-05
7.49269e-05
7.53077e-05
7.55619e-05
7.56689e-05
7.56124e-05
7.53847e-05
7.49907e-05
7.44447e-05
7.3768e-05
7.29882e-05
7.21414e-05
7.12736e-05
7.04393e-05
6.97e-05
6.91226e-05
6.87874e-05
6.88148e-05
6.94508e-05
7.14121e-05
7.82732e-05
0.000130239
7.52561e-05
7.51731e-05
7.50697e-05
7.4994e-05
7.49599e-05
7.49586e-05
7.49735e-05
7.49915e-05
7.50093e-05
7.50357e-05
7.50912e-05
7.52036e-05
7.53967e-05
7.56685e-05
7.59544e-05
7.60972e-05
7.594e-05
7.56485e-05
7.53423e-05
7.50327e-05
7.46708e-05
7.41883e-05
7.3523e-05
7.26361e-05
7.15254e-05
7.02335e-05
6.88424e-05
6.74529e-05
6.61575e-05
6.50208e-05
6.40764e-05
6.33376e-05
6.28121e-05
6.25187e-05
6.25111e-05
6.29398e-05
6.43088e-05
6.94146e-05
0.000112018
0.00013824
0.00013824
0.00013824
0.00013824
0.00013824
0.00013824
0.00013824
0.00013824
0.00013824
0.00013824
0.00013824
0.00013824
0.00013824
0.00013824
0.00013824
0.00013824
0.00013824
0.00013824
0.00013824
0.000138235
0.000101988
6.90779e-05
6.4648e-05
6.3521e-05
6.33024e-05
6.35545e-05
6.41608e-05
6.50993e-05
6.63836e-05
6.80283e-05
7.00094e-05
7.22228e-05
7.44777e-05
7.65514e-05
7.82635e-05
7.95071e-05
8.02399e-05
8.04641e-05
8.02141e-05
7.95531e-05
7.85766e-05
7.74172e-05
7.62445e-05
7.52639e-05
7.47413e-05
7.51657e-05
7.82624e-05
9.61594e-05
0.000138063
0.000110165
7.82201e-05
7.31472e-05
7.1626e-05
7.11371e-05
7.11282e-05
7.13877e-05
7.18033e-05
7.23013e-05
7.28273e-05
7.33389e-05
7.38011e-05
7.41826e-05
7.44521e-05
7.45773e-05
7.45307e-05
7.43012e-05
7.39008e-05
7.33575e-05
7.27037e-05
7.19732e-05
7.12019e-05
7.04306e-05
6.97062e-05
6.9082e-05
6.86205e-05
6.84034e-05
6.85677e-05
6.94229e-05
7.19901e-05
8.17421e-05
0.000136324
7.39729e-05
7.37277e-05
7.34176e-05
7.31581e-05
7.29822e-05
7.28818e-05
7.28385e-05
7.28378e-05
7.28761e-05
7.29628e-05
7.31214e-05
7.33881e-05
7.38029e-05
7.43822e-05
7.50393e-05
7.54254e-05
7.49925e-05
7.43531e-05
7.37851e-05
7.33044e-05
7.28443e-05
7.23268e-05
7.16875e-05
7.08889e-05
6.9928e-05
6.88375e-05
6.76787e-05
6.65258e-05
6.5448e-05
6.44966e-05
6.37034e-05
6.30874e-05
6.26661e-05
6.24714e-05
6.25783e-05
6.31849e-05
6.49536e-05
7.14053e-05
0.000129474
0.00013824
0.00013824
0.00013824
0.00013824
0.00013824
0.00013824
0.00013824
0.00013824
0.00013824
0.00013824
0.00013824
0.00013824
0.00013824
0.00013824
0.00013824
0.00013824
0.00013824
0.00013824
0.00013824
0.00013824
0.000120176
7.06395e-05
6.50838e-05
6.36643e-05
6.3296e-05
6.34315e-05
6.39176e-05
6.47107e-05
6.58067e-05
6.72082e-05
6.88946e-05
7.0792e-05
7.27596e-05
7.46139e-05
7.61815e-05
7.7342e-05
7.80368e-05
7.82583e-05
7.80388e-05
7.7446e-05
7.65829e-05
7.55867e-05
7.46238e-05
7.38896e-05
7.36489e-05
7.4457e-05
7.87394e-05
0.000109026
0.000138233
0.000127246
7.96909e-05
7.30768e-05
7.10384e-05
7.02572e-05
7.00231e-05
7.00844e-05
7.03204e-05
7.06615e-05
7.10612e-05
7.14846e-05
7.1901e-05
7.22767e-05
7.25692e-05
7.27267e-05
7.26999e-05
7.24706e-05
7.20652e-05
7.15355e-05
7.09315e-05
7.0293e-05
6.96525e-05
6.90415e-05
6.84955e-05
6.8058e-05
6.77867e-05
6.77699e-05
6.81786e-05
6.94702e-05
7.37305e-05
0.000100134
0.000138215
7.28094e-05
7.22351e-05
7.15918e-05
7.10845e-05
7.07383e-05
7.05263e-05
7.04182e-05
7.0395e-05
7.0452e-05
7.05997e-05
7.08673e-05
7.1308e-05
7.20041e-05
7.306e-05
7.44974e-05
7.56888e-05
7.43009e-05
7.29343e-05
7.19508e-05
7.12359e-05
7.06548e-05
7.01026e-05
6.95072e-05
6.88274e-05
6.80525e-05
6.71992e-05
6.63052e-05
6.54185e-05
6.4587e-05
6.38503e-05
6.32386e-05
6.27769e-05
6.24948e-05
6.2444e-05
6.27427e-05
6.37365e-05
6.70308e-05
8.72462e-05
0.000138159
0.00013824
0.00013824
0.00013824
0.00013824
0.00013824
0.00013824
0.00013824
0.00013824
0.00013824
0.00013824
0.00013824
0.00013824
0.00013824
0.00013824
0.00013824
0.00013824
0.00013824
0.00013824
0.00013824
0.00013824
0.000136565
7.54005e-05
6.61868e-05
6.40014e-05
6.33446e-05
6.32962e-05
6.36141e-05
6.42181e-05
6.50803e-05
6.61871e-05
6.75148e-05
6.90103e-05
7.05788e-05
7.20897e-05
7.34027e-05
7.44022e-05
7.50195e-05
7.52365e-05
7.50814e-05
7.46224e-05
7.39628e-05
7.32335e-05
7.2587e-05
7.22075e-05
7.23751e-05
7.37603e-05
7.95072e-05
0.000125102
0.00013824
0.000137978
9.05464e-05
7.40872e-05
7.06137e-05
6.93405e-05
6.88067e-05
6.86334e-05
6.86687e-05
6.88379e-05
6.90979e-05
6.94203e-05
6.97799e-05
7.01448e-05
7.04644e-05
7.06652e-05
7.06668e-05
7.04392e-05
7.00285e-05
6.95191e-05
6.89774e-05
6.84451e-05
6.79484e-05
6.75093e-05
6.7154e-05
6.69198e-05
6.68651e-05
6.70946e-05
6.78396e-05
6.97889e-05
7.63016e-05
0.000125855
0.00013824
7.26837e-05
7.12732e-05
7.0074e-05
6.92533e-05
6.87252e-05
6.84045e-05
6.82354e-05
6.81901e-05
6.82617e-05
6.84623e-05
6.88292e-05
6.94423e-05
7.04635e-05
7.22545e-05
7.56974e-05
8.21422e-05
7.48323e-05
7.18423e-05
7.02517e-05
6.92621e-05
6.8557e-05
6.79752e-05
6.74263e-05
6.68606e-05
6.62576e-05
6.5619e-05
6.49631e-05
6.43179e-05
6.37153e-05
6.31858e-05
6.27586e-05
6.24645e-05
6.23465e-05
6.24846e-05
6.30697e-05
6.47199e-05
7.07445e-05
0.000123786
0.00013824
0.00013824
0.00013824
0.00013824
0.00013824
0.00013824
0.00013824
0.00013824
0.00013824
0.00013824
0.00013824
0.00013824
0.00013824
0.00013824
0.00013824
0.00013824
0.00013824
0.00013824
0.00013824
0.00013824
0.00013824
0.000138239
0.000108517
6.93113e-05
6.4705e-05
6.35134e-05
6.31986e-05
6.33065e-05
6.36969e-05
6.43129e-05
6.51227e-05
6.60957e-05
6.7188e-05
6.83345e-05
6.94493e-05
7.04367e-05
7.12099e-05
7.17101e-05
7.1918e-05
7.18556e-05
7.15822e-05
7.11871e-05
7.07826e-05
7.05043e-05
7.05391e-05
7.12484e-05
7.37868e-05
8.49192e-05
0.000137215
0.00013824
0.00013824
0.000124271
7.71655e-05
7.07433e-05
6.86776e-05
6.77635e-05
6.73422e-05
6.7188e-05
6.72051e-05
6.73462e-05
6.7585e-05
6.79019e-05
6.82701e-05
6.86363e-05
6.89067e-05
6.89478e-05
6.87087e-05
6.82666e-05
6.7755e-05
6.72558e-05
6.68079e-05
6.64299e-05
6.61369e-05
6.59497e-05
6.59057e-05
6.60747e-05
6.66005e-05
6.78733e-05
7.1621e-05
9.29677e-05
0.000138165
0.00013824
7.73136e-05
7.16867e-05
6.92607e-05
6.79651e-05
6.7211e-05
6.67709e-05
6.65382e-05
6.64699e-05
6.6555e-05
6.68086e-05
6.72809e-05
6.80953e-05
6.95595e-05
7.27616e-05
8.45658e-05
0.000130959
7.90868e-05
7.15958e-05
6.90051e-05
6.76732e-05
6.68322e-05
6.62124e-05
6.56922e-05
6.52102e-05
6.47366e-05
6.42623e-05
6.37922e-05
6.33412e-05
6.29301e-05
6.25837e-05
6.23313e-05
6.2211e-05
6.22845e-05
6.26804e-05
6.37654e-05
6.73103e-05
9.09405e-05
0.000138206
0.00013824
0.00013824
0.00013824
0.00013824
0.00013824
0.00013824
0.00013824
0.00013824
0.00013824
0.00013824
0.00013824
0.00013824
0.00013824
0.00013824
0.00013824
0.00013824
0.00013824
0.00013824
0.00013824
0.00013824
0.00013824
0.00013824
0.000135873
7.43415e-05
6.60066e-05
6.39148e-05
6.32079e-05
6.3055e-05
6.32156e-05
6.35918e-05
6.41317e-05
6.4796e-05
6.5544e-05
6.63278e-05
6.7091e-05
6.77739e-05
6.83223e-05
6.86991e-05
6.8893e-05
6.89219e-05
6.88314e-05
6.86917e-05
6.85955e-05
6.86705e-05
6.91308e-05
7.05083e-05
7.53867e-05
0.000111926
0.000138238
0.00013824
0.00013824
0.0001382
9.67433e-05
7.28137e-05
6.86178e-05
6.71098e-05
6.64018e-05
6.60633e-05
6.59507e-05
6.60018e-05
6.61888e-05
6.64974e-05
6.69122e-05
6.73852e-05
6.78075e-05
6.79205e-05
6.762e-05
6.70568e-05
6.6474e-05
6.59652e-05
6.5557e-05
6.52572e-05
6.5075e-05
6.50302e-05
6.51683e-05
6.55911e-05
6.65289e-05
6.87007e-05
7.59542e-05
0.000131876
0.00013824
0.00013824
0.000126815
7.67565e-05
6.97538e-05
6.74378e-05
6.63065e-05
6.56951e-05
6.53774e-05
6.52795e-05
6.53824e-05
6.57074e-05
6.63326e-05
6.74782e-05
6.98045e-05
7.67768e-05
0.000128354
0.000138237
0.000107812
7.35607e-05
6.84588e-05
6.66009e-05
6.55751e-05
6.48878e-05
6.43657e-05
6.39299e-05
6.35407e-05
6.31805e-05
6.28459e-05
6.25432e-05
6.2287e-05
6.20999e-05
6.20145e-05
6.2083e-05
6.24006e-05
6.31908e-05
6.51898e-05
7.25371e-05
0.000134148
0.00013824
0.00013824
0.00013824
0.00013824
0.00013824
0.00013824
0.00013824
0.00013824
0.00013824
0.00013824
0.00013824
0.00013824
0.00013824
0.00013824
0.00013824
0.00013824
0.00013824
0.00013824
0.00013824
0.00013824
0.00013824
0.00013824
0.00013824
0.00013824
0.000117408
7.03473e-05
6.4933e-05
6.34433e-05
6.29276e-05
6.28328e-05
6.29789e-05
6.32836e-05
6.36959e-05
6.41754e-05
6.46838e-05
6.51829e-05
6.5636e-05
6.60124e-05
6.62931e-05
6.64753e-05
6.65755e-05
6.663e-05
6.66954e-05
6.68565e-05
6.72524e-05
6.81694e-05
7.04368e-05
7.82487e-05
0.000134353
0.00013824
0.00013824
0.00013824
0.00013824
0.00013633
7.9087e-05
6.9703e-05
6.70831e-05
6.59595e-05
6.53966e-05
6.51532e-05
6.51333e-05
6.53035e-05
6.56576e-05
6.62107e-05
6.69473e-05
6.7825e-05
6.81475e-05
6.75944e-05
6.6613e-05
6.57955e-05
6.51842e-05
6.47543e-05
6.44886e-05
6.43907e-05
6.44813e-05
6.48292e-05
6.56364e-05
6.74724e-05
7.32801e-05
0.000116191
0.00013824
0.00013824
0.00013824
0.00013824
0.000119701
7.44702e-05
6.81952e-05
6.61594e-05
6.52287e-05
6.47638e-05
6.46181e-05
6.47513e-05
6.5202e-05
6.61221e-05
6.80799e-05
7.3816e-05
0.000112091
0.000138239
0.00013824
0.000135708
7.7732e-05
6.88518e-05
6.61396e-05
6.48079e-05
6.39925e-05
6.34268e-05
6.29995e-05
6.26561e-05
6.23706e-05
6.21333e-05
6.19454e-05
6.18187e-05
6.17781e-05
6.18682e-05
6.21744e-05
6.28839e-05
6.45774e-05
7.04199e-05
0.000120948
0.00013824
0.00013824
0.00013824
0.00013824
0.00013824
0.00013824
0.00013824
0.00013824
0.00013824
0.00013824
0.00013824
0.00013824
0.00013824
0.00013824
0.00013824
0.00013824
0.00013824
0.00013824
0.00013824
0.00013824
0.00013824
0.00013824
0.00013824
0.00013824
0.00013824
0.000138196
9.00764e-05
6.76134e-05
6.41047e-05
6.30104e-05
6.2606e-05
6.25196e-05
6.26149e-05
6.28225e-05
6.30975e-05
6.34059e-05
6.37198e-05
6.40157e-05
6.42766e-05
6.44943e-05
6.46723e-05
6.48276e-05
6.4993e-05
6.52223e-05
6.56072e-05
6.63326e-05
6.79087e-05
7.28427e-05
0.000109209
0.000138238
0.00013824
0.00013824
0.00013824
0.00013824
0.00013824
0.000131009
7.5539e-05
6.8419e-05
6.63232e-05
6.53414e-05
6.4908e-05
6.48139e-05
6.50134e-05
6.55135e-05
6.64447e-05
6.79545e-05
7.12569e-05
7.29404e-05
7.06134e-05
6.75004e-05
6.59407e-05
6.50263e-05
6.44708e-05
6.41834e-05
6.416e-05
6.44239e-05
6.50953e-05
6.67528e-05
7.18555e-05
0.000103464
0.000138235
0.00013824
0.00013824
0.00013824
0.00013824
0.000138239
0.000112451
7.31876e-05
6.73595e-05
6.56173e-05
6.48115e-05
6.45703e-05
6.47656e-05
6.54967e-05
6.71777e-05
7.23519e-05
0.000102126
0.000138232
0.00013824
0.00013824
0.00013824
0.000119193
7.2785e-05
6.66854e-05
6.461e-05
6.35277e-05
6.28525e-05
6.23917e-05
6.206e-05
6.18197e-05
6.16548e-05
6.15632e-05
6.15571e-05
6.16715e-05
6.19811e-05
6.26653e-05
6.42393e-05
6.93291e-05
0.000106914
0.000138239
0.00013824
0.00013824
0.00013824
0.00013824
0.00013824
0.00013824
0.00013824
0.00013824
0.00013824
0.00013824
0.00013824
0.00013824
0.00013824
0.00013824
0.00013824
0.00013824
0.00013824
0.00013824
0.00013824
0.00013824
0.00013824
0.00013824
0.00013824
0.00013824
0.00013824
0.00013824
0.000136252
7.41818e-05
6.56572e-05
6.34706e-05
6.26189e-05
6.22617e-05
6.21514e-05
6.2181e-05
6.22932e-05
6.2453e-05
6.2636e-05
6.28255e-05
6.30117e-05
6.31926e-05
6.33756e-05
6.35804e-05
6.38431e-05
6.42257e-05
6.48477e-05
6.59916e-05
6.86094e-05
7.83816e-05
0.000136671
0.00013824
0.00013824
0.00013824
0.00013824
0.00013824
0.00013824
0.00013824
0.000128817
7.52548e-05
6.88135e-05
6.64192e-05
6.55392e-05
6.53034e-05
6.56495e-05
6.65864e-05
6.89934e-05
7.39813e-05
0.000103182
0.000123733
9.65922e-05
7.29263e-05
6.78358e-05
6.59318e-05
6.49597e-05
6.4524e-05
6.46056e-05
6.52398e-05
6.6646e-05
7.18012e-05
0.00010221
0.00013823
0.00013824
0.00013824
0.00013824
0.00013824
0.00013824
0.00013824
0.000138239
0.000115667
7.35134e-05
6.81872e-05
6.60681e-05
6.55754e-05
6.59339e-05
6.76036e-05
7.27405e-05
0.000105554
0.00013823
0.00013824
0.00013824
0.00013824
0.00013824
0.000138224
9.6968e-05
6.98485e-05
6.52913e-05
6.35811e-05
6.2666e-05
6.21099e-05
6.17514e-05
6.15317e-05
6.14269e-05
6.14322e-05
6.15639e-05
6.18852e-05
6.25497e-05
6.40899e-05
6.89282e-05
0.000100324
0.000138235
0.00013824
0.00013824
0.00013824
0.00013824
0.00013824
0.00013824
0.00013824
0.00013824
0.00013824
0.00013824
0.00013824
0.00013824
0.00013824
0.00013824
0.00013824
0.00013824
0.00013824
0.00013824
0.00013824
0.00013824
0.00013824
0.00013824
0.00013824
0.00013824
0.00013824
0.00013824
0.00013824
0.00013824
0.000128918
7.13702e-05
6.49039e-05
6.30639e-05
6.22883e-05
6.19308e-05
6.17802e-05
6.17463e-05
6.17845e-05
6.18681e-05
6.1982e-05
6.21194e-05
6.22821e-05
6.24812e-05
6.27419e-05
6.31122e-05
6.36814e-05
6.46508e-05
6.66317e-05
7.28409e-05
0.000122827
0.00013824
0.00013824
0.00013824
0.00013824
0.00013824
0.00013824
0.00013824
0.00013824
0.00013824
0.000133747
8.41233e-05
7.15937e-05
6.8678e-05
6.77553e-05
6.90157e-05
7.19861e-05
8.60892e-05
0.000129953
0.000138235
0.00013824
0.00013822
0.000124199
7.78023e-05
7.05628e-05
6.7395e-05
6.61928e-05
6.66041e-05
6.9029e-05
7.33388e-05
0.000114251
0.000138235
0.00013824
0.00013824
0.00013824
0.00013824
0.00013824
0.00013824
0.00013824
0.00013824
0.00013824
0.000128999
8.43847e-05
7.17828e-05
7.03373e-05
7.13516e-05
7.88177e-05
0.000123059
0.000138237
0.00013824
0.00013824
0.00013824
0.00013824
0.00013824
0.00013824
0.00013806
8.50515e-05
6.82974e-05
6.45394e-05
6.30139e-05
6.22345e-05
6.17821e-05
6.15554e-05
6.15139e-05
6.16535e-05
6.19989e-05
6.27132e-05
6.42149e-05
6.93071e-05
0.000102316
0.000138234
0.00013824
0.00013824
0.00013824
0.00013824
0.00013824
0.00013824
0.00013824
0.00013824
0.00013824
0.00013824
0.00013824
0.00013824
0.00013824
0.00013824
0.00013824
0.00013824
0.00013824
0.00013824
0.00013824
0.00013824
0.00013824
0.00013824
0.00013824
0.00013824
0.00013824
0.00013824
0.00013824
0.00013824
0.00013824
0.00013824
0.000120446
7.04942e-05
6.45386e-05
6.27945e-05
6.20398e-05
6.16575e-05
6.1462e-05
6.1382e-05
6.13785e-05
6.14317e-05
6.15363e-05
6.16961e-05
6.19268e-05
6.22646e-05
6.27865e-05
6.36533e-05
6.53311e-05
7.00999e-05
0.000101434
0.000138234
0.00013824
0.00013824
0.00013824
0.00013824
0.00013824
0.00013824
0.00013824
0.00013824
0.00013824
0.00013824
0.000137981
0.000117084
8.83907e-05
7.95002e-05
9.20099e-05
0.000120661
0.000138072
0.00013824
0.00013824
0.00013824
0.00013824
0.00013824
0.000137067
0.000111517
8.03457e-05
7.288e-05
7.5303e-05
9.85943e-05
0.00013158
0.00013824
0.00013824
0.00013824
0.00013824
0.00013824
0.00013824
0.00013824
0.00013824
0.00013824
0.00013824
0.00013824
0.00013824
0.000138031
0.000124621
0.00011152
0.000121529
0.000137442
0.00013824
0.00013824
0.00013824
0.00013824
0.00013824
0.00013824
0.00013824
0.00013824
0.00013824
0.000137941
8.51094e-05
6.85676e-05
6.44844e-05
6.30831e-05
6.23386e-05
6.20516e-05
6.21116e-05
6.25512e-05
6.34035e-05
6.54517e-05
7.05924e-05
0.000113444
0.000138237
0.00013824
0.00013824
0.00013824
0.00013824
0.00013824
0.00013824
0.00013824
0.00013824
0.00013824
0.00013824
0.00013824
0.00013824
0.00013824
0.00013824
0.00013824
0.00013824
0.00013824
0.00013824
0.00013824
0.00013824
0.00013824
0.00013824
0.00013824
0.00013824
0.00013824
0.00013824
0.00013824
0.00013824
0.00013824
0.00013824
0.00013824
0.00013824
0.000117405
7.02732e-05
6.44232e-05
6.27259e-05
6.19323e-05
6.14948e-05
6.12677e-05
6.11677e-05
6.11612e-05
6.1242e-05
6.14166e-05
6.17063e-05
6.21701e-05
6.29631e-05
6.4462e-05
6.82544e-05
8.71068e-05
0.000138135
0.00013824
0.00013824
0.00013824
0.00013824
0.00013824
0.00013824
0.00013824
0.00013824
0.00013824
0.00013824
0.00013824
0.00013824
0.00013824
0.000138132
0.000137451
0.000138189
0.00013824
0.00013824
0.00013824
0.00013824
0.00013824
0.00013824
0.00013824
0.00013824
0.000138239
0.000137704
0.000132819
0.000136209
0.00013823
0.00013824
0.00013824
0.00013824
0.00013824
0.00013824
0.00013824
0.00013824
0.00013824
0.00013824
0.00013824
0.00013824
0.00013824
0.00013824
0.00013824
0.00013824
0.000138239
0.00013824
0.00013824
0.00013824
0.00013824
0.00013824
0.00013824
0.00013824
0.00013824
0.00013824
0.00013824
0.00013824
0.00013824
0.000138099
9.92558e-05
7.04727e-05
6.62972e-05
6.41102e-05
6.35894e-05
6.39193e-05
6.56962e-05
6.87957e-05
8.08872e-05
0.000129608
0.00013824
0.00013824
0.00013824
0.00013824
0.00013824
0.00013824
0.00013824
0.00013824
0.00013824
0.00013824
0.00013824
0.00013824
0.00013824
0.00013824
0.00013824
0.00013824
0.00013824
0.00013824
0.00013824
0.00013824
0.00013824
0.00013824
0.00013824
0.00013824
0.00013824
0.00013824
0.00013824
0.00013824
0.00013824
0.00013824
0.00013824
0.00013824
0.00013824
0.00013824
0.00013824
0.000121498
7.08437e-05
6.49889e-05
6.30173e-05
6.20273e-05
6.15515e-05
6.13047e-05
6.12151e-05
6.12762e-05
6.14974e-05
6.19099e-05
6.26216e-05
6.40867e-05
6.77855e-05
8.28707e-05
0.000137929
0.00013824
0.00013824
0.00013824
0.00013824
0.00013824
0.00013824
0.00013824
0.00013824
0.00013824
0.00013824
0.00013824
0.00013824
0.00013824
0.00013824
0.00013824
0.00013824
0.00013824
0.00013824
0.00013824
0.00013824
0.00013824
0.00013824
0.00013824
0.00013824
0.00013824
0.00013824
0.00013824
0.00013824
0.00013824
0.00013824
0.00013824
0.00013824
0.00013824
0.00013824
0.00013824
0.00013824
0.00013824
0.00013824
0.00013824
0.00013824
0.00013824
0.00013824
0.00013824
0.00013824
0.00013824
0.00013824
0.00013824
0.00013824
0.00013824
0.00013824
0.00013824
0.00013824
0.00013824
0.00013824
0.00013824
0.00013824
0.00013824
0.00013824
0.00013824
0.000138234
0.000124706
8.77252e-05
7.09117e-05
6.94597e-05
7.08001e-05
8.55235e-05
0.000118401
0.000138023
0.00013824
0.00013824
0.00013824
0.00013824
0.00013824
0.00013824
0.00013824
0.00013824
0.00013824
0.00013824
0.00013824
0.00013824
0.00013824
0.00013824
0.00013824
0.00013824
0.00013824
0.00013824
0.00013824
0.00013824
0.00013824
0.00013824
0.00013824
0.00013824
0.00013824
0.00013824
0.00013824
0.00013824
0.00013824
0.00013824
0.00013824
0.00013824
0.00013824
0.00013824
0.00013824
0.00013824
0.00013824
0.000130993
7.58653e-05
6.71905e-05
6.37185e-05
6.26393e-05
6.20427e-05
6.17683e-05
6.1806e-05
6.21666e-05
6.292e-05
6.42741e-05
6.87331e-05
8.89656e-05
0.000137979
0.00013824
0.00013824
0.00013824
0.00013824
0.00013824
0.00013824
0.00013824
0.00013824
0.00013824
0.00013824
0.00013824
0.00013824
0.00013824
0.00013824
0.00013824
0.00013824
0.00013824
0.00013824
0.00013824
0.00013824
0.00013824
0.00013824
0.00013824
0.00013824
0.00013824
0.00013824
0.00013824
0.00013824
0.00013824
0.00013824
0.00013824
0.00013824
0.00013824
0.00013824
0.00013824
0.00013824
0.00013824
0.00013824
0.00013824
0.00013824
0.00013824
0.00013824
0.00013824
0.00013824
0.00013824
0.00013824
0.00013824
0.00013824
0.00013824
0.00013824
0.00013824
0.00013824
0.00013824
0.00013824
0.00013824
0.00013824
0.00013824
0.00013824
0.00013824
0.00013824
0.00013824
0.00013824
0.000138182
0.000133396
0.000128139
0.000133834
0.000138156
0.00013824
0.00013824
0.00013824
0.00013824
0.00013824
0.00013824
0.00013824
0.00013824
0.00013824
0.00013824
0.00013824
0.00013824
0.00013824
0.00013824
0.00013824
0.00013824
0.00013824
0.00013824
0.00013824
0.00013824
0.00013824
0.00013824
0.00013824
0.00013824
0.00013824
0.00013824
0.00013824
0.00013824
0.00013824
0.00013824
0.00013824
0.00013824
0.00013824
0.00013824
0.00013824
0.00013824
0.00013824
0.00013824
0.00013824
0.00013824
0.000137509
0.000102411
7.02557e-05
6.68515e-05
6.44871e-05
6.3462e-05
6.34479e-05
6.43871e-05
6.69496e-05
7.08927e-05
0.000108604
0.000138191
0.00013824
0.00013824
0.00013824
0.00013824
0.00013824
0.00013824
0.00013824
0.00013824
0.00013824
0.00013824
0.00013824
0.00013824
0.00013824
0.00013824
0.00013824
0.00013824
0.00013824
0.00013824
0.00013824
0.00013824
0.00013824
0.00013824
0.00013824
0.00013824
0.00013824
0.00013824
0.00013824
0.00013824
0.00013824
0.00013824
0.00013824
0.00013824
0.00013824
0.00013824
0.00013824
0.00013824
0.00013824
0.00013824
0.00013824
0.00013824
0.00013824
0.00013824
0.00013824
0.00013824
0.00013824
0.00013824
0.00013824
0.00013824
0.00013824
0.00013824
0.00013824
0.00013824
0.00013824
0.00013824
0.00013824
0.00013824
0.00013824
0.00013824
0.00013824
0.00013824
0.00013824
0.00013824
0.00013824
0.00013824
0.00013824
0.00013824
0.00013824
0.00013824
0.00013824
0.00013824
0.00013824
0.00013824
0.00013824
0.00013824
0.00013824
0.00013824
0.00013824
0.00013824
0.00013824
0.00013824
0.00013824
0.00013824
0.00013824
0.00013824
0.00013824
0.00013824
0.00013824
0.00013824
0.00013824
0.00013824
0.00013824
0.00013824
0.00013824
0.00013824
0.00013824
0.00013824
0.00013824
0.00013824
0.00013824
0.00013824
0.00013824
0.00013824
0.00013824
0.00013824
0.00013824
0.00013824
0.00013824
0.00013824
0.00013824
0.000138238
0.000130721
0.000102028
7.64631e-05
6.98876e-05
6.96915e-05
7.43808e-05
9.9913e-05
0.000131152
0.000138239
0.00013824
0.00013824
0.00013824
0.00013824
0.00013824
0.00013824
0.00013824
0.00013824
0.00013824
0.00013824
0.00013824
0.00013824
0.00013824
0.00013824
0.00013824
0.00013824
0.00013824
0.00013824
0.00013824
0.00013824
0.00013824
0.00013824
0.00013824
0.00013824
0.00013824
0.00013824
0.00013824
0.00013824
0.00013824
0.00013824
0.00013824
0.00013824
0.00013824
0.00013824
0.00013824
0.00013824
0.00013824
0.00013824
0.00013824
0.00013824
0.00013824
0.00013824
0.00013824
0.00013824
0.00013824
0.00013824
0.00013824
0.00013824
0.00013824
0.00013824
0.00013824
0.00013824
0.00013824
0.00013824
0.00013824
0.00013824
0.00013824
0.00013824
0.00013824
0.00013824
0.00013824
0.00013824
0.00013824
0.00013824
0.00013824
0.00013824
0.00013824
0.00013824
0.00013824
0.00013824
0.00013824
0.00013824
0.00013824
0.00013824
0.00013824
0.00013824
0.00013824
0.00013824
0.00013824
0.00013824
0.00013824
0.00013824
0.00013824
0.00013824
0.00013824
0.00013824
0.00013824
0.00013824
0.00013824
0.00013824
0.00013824
0.00013824
0.00013824
0.00013824
0.00013824
0.00013824
0.00013824
0.00013824
0.00013824
0.00013824
0.00013824
0.00013824
0.00013824
0.00013824
0.00013824
0.00013824
0.00013824
0.00013824
0.00013824
0.00013824
0.00013824
0.00013824
0.000138238
0.000137641
0.000132456
0.000131454
0.000137125
0.000138236
0.00013824
0.00013824
0.00013824
0.00013824
0.00013824
0.00013824
0.00013824
0.00013824
0.00013824
0.00013824
0.00013824
0.00013824
0.00013824
0.00013824
0.00013824
0.00013824
0.00013824
0.00013824
0.00013824
0.00013824
0.00013824
0.00013824
0.00013824
0.00013824
0.00013824
0.00013824
0.00013824
0.00013824
0.00013824
0.00013824
0.00013824
0.00013824
0.00013824
0.00013824
0.00013824
0.00013824
0.00013824
0.00013824
0.00013824
0.00013824
0.00013824
0.00013824
0.00013824
0.00013824
0.00013824
0.00013824
0.00013824
0.00013824
0.00013824
0.00013824
0.00013824
0.00013824
0.00013824
0.00013824
0.00013824
0.00013824
0.00013824
0.00013824
0.00013824
0.00013824
0.00013824
0.00013824
0.00013824
0.00013824
0.00013824
0.00013824
0.00013824
0.00013824
0.00013824
0.00013824
0.00013824
0.00013824
0.00013824
0.00013824
0.00013824
0.00013824
0.00013824
0.00013824
0.00013824
0.00013824
0.00013824
0.00013824
0.00013824
0.00013824
0.00013824
0.00013824
0.00013824
0.00013824
0.00013824
0.00013824
0.00013824
0.00013824
0.00013824
0.00013824
0.00013824
0.00013824
0.00013824
0.00013824
0.00013824
0.00013824
0.00013824
0.00013824
0.00013824
0.00013824
0.00013824
0.00013824
0.00013824
0.00013824
0.00013824
0.00013824
0.00013824
0.00013824
0.00013824
0.00013824
0.00013824
0.00013824
0.00013824
0.00013824
0.00013824
0.00013824
0.00013824
0.00013824
0.00013824
0.00013824
0.00013824
0.00013824
0.00013824
0.00013824
0.00013824
0.00013824
0.00013824
0.00013824
0.00013824
0.00013824
0.00013824
0.00013824
0.00013824
0.00013824
0.00013824
0.00013824
0.00013824
0.00013824
0.00013824
0.00013824
0.00013824
0.00013824
0.00013824
0.00013824
0.00013824
0.00013824
0.00013824
0.00013824
0.00013824
0.00013824
0.00013824
0.00013824
0.00013824
0.00013824
0.00013824
0.00013824
0.00013824
0.00013824
0.00013824
0.00013824
0.00013824
0.00013824
0.00013824
0.00013824
0.00013824
0.00013824
0.00013824
0.00013824
0.00013824
0.00013824
0.00013824
0.00013824
0.00013824
0.00013824
0.00013824
0.00013824
0.00013824
0.00013824
0.00013824
0.00013824
0.00013824
0.00013824
0.00013824
0.00013824
0.00013824
0.00013824
0.00013824
0.00013824
0.00013824
0.00013824
0.00013824
0.00013824
0.00013824
0.00013824
0.00013824
0.00013824
0.00013824
0.00013824
0.00013824
0.00013824
0.00013824
0.00013824
0.00013824
0.00013824
0.00013824
0.00013824
0.00013824
0.00013824
0.00013824
0.00013824
0.00013824
0.00013824
0.00013824
0.00013824
0.00013824
0.00013824
0.00013824
0.00013824
0.00013824
0.00013824
0.00013824
0.00013824
0.00013824
0.00013824
0.00013824
0.00013824
0.00013824
0.00013824
0.00013824
0.00013824
0.00013824
0.00013824
0.00013824
0.00013824
0.00013824
0.00013824
0.00013824
0.00013824
0.00013824
0.00013824
0.00013824
0.00013824
0.00013824
0.00013824
0.00013824
0.00013824
0.00013824
0.00013824
0.00013824
0.00013824
0.00013824
0.00013824
0.00013824
0.00013824
0.00013824
0.00013824
0.00013824
0.00013824
0.00013824
0.00013824
0.00013824
0.00013824
0.00013824
0.00013824
0.00013824
0.00013824
0.00013824
0.00013824
0.00013824
0.00013824
0.00013824
0.00013824
0.00013824
0.00013824
0.00013824
0.00013824
0.00013824
0.00013824
0.00013824
0.00013824
0.00013824
0.00013824
0.00013824
0.00013824
0.00013824
0.00013824
0.00013824
0.00013824
0.00013824
0.00013824
0.00013824
0.00013824
0.00013824
0.00013824
0.00013824
0.00013824
0.00013824
0.00013824
0.00013824
0.00013824
0.00013824
0.00013824
0.00013824
0.00013824
0.00013824
0.00013824
0.00013824
0.00013824
0.00013824
0.00013824
0.00013824
0.00013824
0.00013824
0.00013824
0.00013824
0.00013824
0.00013824
0.00013824
0.00013824
0.00013824
0.00013824
0.00013824
0.00013824
0.00013824
0.00013824
0.00013824
0.00013824
0.00013824
0.00013824
0.00013824
0.00013824
0.00013824
0.00013824
0.00013824
0.00013824
0.00013824
0.00013824
0.00013824
0.00013824
0.00013824
0.00013824
0.00013824
0.00013824
0.00013824
0.00013824
0.00013824
0.00013824
0.00013824
0.00013824
0.00013824
0.00013824
0.00013824
0.00013824
0.00013824
0.00013824
0.00013824
0.00013824
0.00013824
0.00013824
0.00013824
0.00013824
0.00013824
0.00013824
0.00013824
0.00013824
0.00013824
0.00013824
0.00013824
0.00013824
0.00013824
0.00013824
0.00013824
0.00013824
0.00013824
0.00013824
0.00013824
0.00013824
0.00013824
0.00013824
0.00013824
0.00013824
0.00013824
0.00013824
0.00013824
0.00013824
0.00013824
0.00013824
0.00013824
0.00013824
0.00013824
0.00013824
0.00013824
0.00013824
0.00013824
0.00013824
0.00013824
0.00013824
0.00013824
0.00013824
0.00013824
0.00013824
0.00013824
0.00013824
0.00013824
0.00013824
0.00013824
0.00013824
0.00013824
0.00013824
0.00013824
0.00013824
0.00013824
0.00013824
0.00013824
0.00013824
0.00013824
0.00013824
0.00013824
0.00013824
0.00013824
0.00013824
0.00013824
0.00013824
0.00013824
0.00013824
0.00013824
0.00013824
0.00013824
0.00013824
0.00013824
0.00013824
0.00013824
0.00013824
0.00013824
0.00013824
0.00013824
0.00013824
0.00013824
0.00013824
0.00013824
0.00013824
0.00013824
0.00013824
0.00013824
0.00013824
0.00013824
0.00013824
0.00013824
0.00013824
0.00013824
0.00013824
0.00013824
0.00013824
0.00013824
0.00013824
0.00013824
0.00013824
0.00013824
0.00013824
0.00013824
0.00013824
0.00013824
0.00013824
0.00013824
0.00013824
0.00013824
0.00013824
0.00013824
0.00013824
0.00013824
0.00013824
0.00013824
0.00013824
0.00013824
0.00013824
0.00013824
0.00013824
0.00013824
0.00013824
0.00013824
0.00013824
0.00013824
0.00013824
0.00013824
0.00013824
0.00013824
0.00013824
0.00013824
0.00013824
0.00013824
0.00013824
0.00013824
0.00013824
0.00013824
0.00013824
0.00013824
0.00013824
0.00013824
0.00013824
0.00013824
0.00013824
0.00013824
0.00013824
0.00013824
0.00013824
0.00013824
0.00013824
0.00013824
0.00013824
0.00013824
0.00013824
0.00013824
0.00013824
0.00013824
0.00013824
0.00013824
0.00013824
0.00013824
0.00013824
0.00013824
0.00013824
0.00013824
0.00013824
0.00013824
0.00013824
0.00013824
0.00013824
0.00013824
0.00013824
0.00013824
0.00013824
0.00013824
0.00013824
0.00013824
0.00013824
0.00013824
0.00013824
0.00013824
0.00013824
0.00013824
0.00013824
0.00013824
0.00013824
0.00013824
0.00013824
0.00013824
0.00013824
0.00013824
0.00013824
0.00013824
0.00013824
0.00013824
0.00013824
0.00013824
0.00013824
0.00013824