/*--------------------------------*- C++ -*----------------------------------*\
| =========                 |                                                 |
| \\      /  F ield         | OpenFOAM: The Open Source CFD Toolbox           |
|  \\    /   O peration     | Version:  2406                                  |
|   \\  /    A nd           | Website:  www.openfoam.com                      |
|    \\/     M anipulation  |                                                 |
\*---------------------------------------------------------------------------*/
FoamFile
{
    version     2.0;
    format      ascii;
    arch        "LSB;label=32;scalar=64";
    class       volScalarField;
    location    "9";
    object      Da;
}
// * * * * * * * * * * * * * * * * * * * * * * * * * * * * * * * * * * * * * //

dimensions      [0 2 -1 0 0 0 0];

internalField   nonuniform List<scalar> 
14400
(
5.05343e-05
5.05285e-05
5.05267e-05
5.05362e-05
5.05565e-05
5.05815e-05
5.06032e-05
5.06156e-05
5.06173e-05
5.06121e-05
5.06088e-05
5.06184e-05
5.06501e-05
5.07036e-05
5.0761e-05
5.07873e-05
5.0756e-05
5.06896e-05
5.06091e-05
5.05114e-05
5.03753e-05
5.01718e-05
4.98737e-05
4.94628e-05
4.89368e-05
4.83156e-05
4.76398e-05
4.69619e-05
4.63302e-05
4.57776e-05
4.532e-05
4.49618e-05
4.47036e-05
4.45507e-05
4.4523e-05
4.46796e-05
4.52197e-05
4.71906e-05
6.12829e-05
7.79972e-05
7.8e-05
7.8e-05
7.8e-05
7.8e-05
7.8e-05
7.8e-05
7.8e-05
7.8e-05
7.8e-05
7.8e-05
7.8e-05
7.8e-05
7.8e-05
7.8e-05
7.8e-05
7.8e-05
7.8e-05
7.8e-05
7.7978e-05
5.72792e-05
4.70468e-05
4.53913e-05
4.49543e-05
4.48889e-05
4.50267e-05
4.53238e-05
4.57754e-05
4.63918e-05
4.71822e-05
4.81334e-05
4.91886e-05
5.02491e-05
5.12097e-05
5.19927e-05
5.25561e-05
5.28855e-05
5.29847e-05
5.28692e-05
5.25657e-05
5.21137e-05
5.15694e-05
5.10069e-05
5.05185e-05
5.02214e-05
5.03121e-05
5.13687e-05
5.66384e-05
7.76016e-05
6.05688e-05
5.11619e-05
4.9309e-05
4.87407e-05
4.85903e-05
4.86424e-05
4.88092e-05
4.90409e-05
4.93027e-05
4.95679e-05
4.98156e-05
5.003e-05
5.01985e-05
5.03109e-05
5.03583e-05
5.03333e-05
5.02326e-05
5.00583e-05
4.98168e-05
4.95173e-05
4.91722e-05
4.87973e-05
4.84129e-05
4.80433e-05
4.77155e-05
4.74594e-05
4.73103e-05
4.73216e-05
4.76019e-05
4.84676e-05
5.14977e-05
7.44514e-05
5.01737e-05
5.01371e-05
5.00916e-05
5.00583e-05
5.00435e-05
5.00431e-05
5.00499e-05
5.00579e-05
5.00658e-05
5.00774e-05
5.01018e-05
5.01513e-05
5.02365e-05
5.03566e-05
5.0483e-05
5.05463e-05
5.04772e-05
5.03489e-05
5.02141e-05
5.00779e-05
4.99185e-05
4.97057e-05
4.94119e-05
4.90197e-05
4.85283e-05
4.79564e-05
4.73401e-05
4.67243e-05
4.61501e-05
4.56461e-05
4.52273e-05
4.48996e-05
4.46664e-05
4.45359e-05
4.45319e-05
4.47206e-05
4.53243e-05
4.75757e-05
6.63217e-05
7.79998e-05
7.8e-05
7.8e-05
7.8e-05
7.8e-05
7.8e-05
7.8e-05
7.8e-05
7.8e-05
7.8e-05
7.8e-05
7.8e-05
7.8e-05
7.8e-05
7.8e-05
7.8e-05
7.8e-05
7.8e-05
7.8e-05
7.79977e-05
6.18956e-05
4.74271e-05
4.54746e-05
4.49779e-05
4.48822e-05
4.49945e-05
4.52636e-05
4.56797e-05
4.62491e-05
4.69781e-05
4.78561e-05
4.88366e-05
4.9835e-05
5.07527e-05
5.15098e-05
5.20596e-05
5.23833e-05
5.2482e-05
5.23709e-05
5.2078e-05
5.16455e-05
5.11319e-05
5.06123e-05
5.01774e-05
4.9945e-05
5.01312e-05
5.14981e-05
5.93993e-05
7.79216e-05
6.55852e-05
5.14781e-05
4.92372e-05
4.85656e-05
4.83501e-05
4.83468e-05
4.84622e-05
4.86465e-05
4.88672e-05
4.91002e-05
4.93267e-05
4.95313e-05
4.97002e-05
4.98194e-05
4.98748e-05
4.98542e-05
4.97527e-05
4.95756e-05
4.93352e-05
4.90458e-05
4.87225e-05
4.83809e-05
4.80393e-05
4.77183e-05
4.74416e-05
4.72367e-05
4.714e-05
4.72119e-05
4.75891e-05
4.8722e-05
5.30228e-05
7.71471e-05
4.96048e-05
4.94965e-05
4.93596e-05
4.92451e-05
4.91675e-05
4.91233e-05
4.91043e-05
4.91041e-05
4.9121e-05
4.91593e-05
4.92294e-05
4.93472e-05
4.95304e-05
4.97864e-05
5.00769e-05
5.02477e-05
5.00568e-05
4.97747e-05
4.95242e-05
4.93123e-05
4.91094e-05
4.8881e-05
4.85986e-05
4.82455e-05
4.78203e-05
4.73374e-05
4.6824e-05
4.63131e-05
4.58353e-05
4.54135e-05
4.50618e-05
4.47885e-05
4.46015e-05
4.45147e-05
4.45612e-05
4.48283e-05
4.56079e-05
4.84517e-05
7.40598e-05
7.8e-05
7.8e-05
7.8e-05
7.8e-05
7.8e-05
7.8e-05
7.8e-05
7.8e-05
7.8e-05
7.8e-05
7.8e-05
7.8e-05
7.8e-05
7.8e-05
7.8e-05
7.8e-05
7.8e-05
7.8e-05
7.8e-05
7.8e-05
6.99432e-05
4.81163e-05
4.56662e-05
4.50407e-05
4.4879e-05
4.49398e-05
4.51556e-05
4.55074e-05
4.59933e-05
4.66145e-05
4.73619e-05
4.82027e-05
4.90742e-05
4.9895e-05
5.05886e-05
5.11018e-05
5.14088e-05
5.15063e-05
5.14087e-05
5.11458e-05
5.07633e-05
5.03218e-05
4.98948e-05
4.95688e-05
4.94611e-05
4.9817e-05
5.1708e-05
6.50824e-05
7.79968e-05
7.3133e-05
5.21268e-05
4.9205e-05
4.83048e-05
4.796e-05
4.78571e-05
4.78846e-05
4.79895e-05
4.81407e-05
4.83177e-05
4.85052e-05
4.86895e-05
4.88558e-05
4.89853e-05
4.90549e-05
4.90431e-05
4.89417e-05
4.87623e-05
4.85279e-05
4.82606e-05
4.79779e-05
4.76943e-05
4.74236e-05
4.71816e-05
4.69876e-05
4.68671e-05
4.6859e-05
4.70391e-05
4.76092e-05
4.94901e-05
6.11363e-05
7.79887e-05
4.90882e-05
4.88346e-05
4.85504e-05
4.83263e-05
4.81734e-05
4.80798e-05
4.80321e-05
4.80219e-05
4.80472e-05
4.81125e-05
4.82307e-05
4.84255e-05
4.87332e-05
4.91999e-05
4.9835e-05
5.0361e-05
4.97488e-05
4.91455e-05
4.87113e-05
4.83958e-05
4.81392e-05
4.78954e-05
4.76323e-05
4.73317e-05
4.69887e-05
4.66109e-05
4.62148e-05
4.58219e-05
4.54534e-05
4.51268e-05
4.48555e-05
4.46507e-05
4.45253e-05
4.45021e-05
4.46333e-05
4.50709e-05
4.6519e-05
5.5352e-05
7.79623e-05
7.8e-05
7.8e-05
7.8e-05
7.8e-05
7.8e-05
7.8e-05
7.8e-05
7.8e-05
7.8e-05
7.8e-05
7.8e-05
7.8e-05
7.8e-05
7.8e-05
7.8e-05
7.8e-05
7.8e-05
7.8e-05
7.8e-05
7.8e-05
7.72338e-05
5.01825e-05
4.61493e-05
4.51886e-05
4.48999e-05
4.48795e-05
4.50209e-05
4.52888e-05
4.56712e-05
4.61618e-05
4.67503e-05
4.7413e-05
4.81079e-05
4.87771e-05
4.93583e-05
4.98006e-05
5.00734e-05
5.0169e-05
5.00998e-05
4.98961e-05
4.96034e-05
4.92798e-05
4.89928e-05
4.88238e-05
4.88967e-05
4.95077e-05
5.20459e-05
7.21851e-05
7.8e-05
7.7883e-05
5.69087e-05
4.96494e-05
4.81157e-05
4.75534e-05
4.73178e-05
4.72415e-05
4.72575e-05
4.73326e-05
4.74478e-05
4.75905e-05
4.77497e-05
4.79112e-05
4.80525e-05
4.81414e-05
4.81421e-05
4.80414e-05
4.78597e-05
4.76343e-05
4.73946e-05
4.7159e-05
4.6939e-05
4.67446e-05
4.65871e-05
4.64831e-05
4.64585e-05
4.65595e-05
4.68882e-05
4.77489e-05
5.0625e-05
7.25074e-05
7.8e-05
4.90296e-05
4.84069e-05
4.78773e-05
4.75147e-05
4.72814e-05
4.71398e-05
4.70651e-05
4.70451e-05
4.70768e-05
4.71656e-05
4.73278e-05
4.75988e-05
4.80501e-05
4.88414e-05
5.03613e-05
5.32019e-05
4.99804e-05
4.86604e-05
4.79579e-05
4.75209e-05
4.72095e-05
4.69526e-05
4.671e-05
4.64598e-05
4.6193e-05
4.59102e-05
4.56197e-05
4.53338e-05
4.50668e-05
4.48321e-05
4.46426e-05
4.4512e-05
4.44592e-05
4.45195e-05
4.47771e-05
4.55043e-05
4.81594e-05
7.15365e-05
7.8e-05
7.8e-05
7.8e-05
7.8e-05
7.8e-05
7.8e-05
7.8e-05
7.8e-05
7.8e-05
7.8e-05
7.8e-05
7.8e-05
7.8e-05
7.8e-05
7.8e-05
7.8e-05
7.8e-05
7.8e-05
7.8e-05
7.8e-05
7.8e-05
7.79996e-05
6.47633e-05
4.7527e-05
4.54985e-05
4.49738e-05
4.48357e-05
4.48842e-05
4.50576e-05
4.53308e-05
4.56899e-05
4.61212e-05
4.66053e-05
4.71133e-05
4.76071e-05
4.80444e-05
4.83866e-05
4.86078e-05
4.86995e-05
4.86713e-05
4.85497e-05
4.83741e-05
4.81943e-05
4.80702e-05
4.80846e-05
4.83971e-05
4.95172e-05
5.44265e-05
7.75438e-05
7.8e-05
7.8e-05
7.18104e-05
5.10081e-05
4.81714e-05
4.72589e-05
4.68552e-05
4.66692e-05
4.66013e-05
4.66091e-05
4.66717e-05
4.67774e-05
4.69176e-05
4.70804e-05
4.72423e-05
4.73619e-05
4.73801e-05
4.72743e-05
4.70788e-05
4.68525e-05
4.66317e-05
4.64335e-05
4.62662e-05
4.61363e-05
4.60534e-05
4.60336e-05
4.6108e-05
4.63401e-05
4.69019e-05
4.85553e-05
5.7956e-05
7.79661e-05
7.8e-05
5.10687e-05
4.85871e-05
4.7516e-05
4.69437e-05
4.66105e-05
4.6416e-05
4.63132e-05
4.62831e-05
4.63208e-05
4.64329e-05
4.66417e-05
4.70017e-05
4.76487e-05
4.90626e-05
5.42659e-05
7.47638e-05
5.18564e-05
4.85491e-05
4.74049e-05
4.68166e-05
4.64451e-05
4.61713e-05
4.59413e-05
4.57282e-05
4.55187e-05
4.53087e-05
4.51006e-05
4.49008e-05
4.47186e-05
4.45651e-05
4.4453e-05
4.43994e-05
4.44313e-05
4.46054e-05
4.50831e-05
4.66411e-05
5.69709e-05
7.79841e-05
7.8e-05
7.8e-05
7.8e-05
7.8e-05
7.8e-05
7.8e-05
7.8e-05
7.8e-05
7.8e-05
7.8e-05
7.8e-05
7.8e-05
7.8e-05
7.8e-05
7.8e-05
7.8e-05
7.8e-05
7.8e-05
7.8e-05
7.8e-05
7.8e-05
7.8e-05
7.69206e-05
4.97261e-05
4.60704e-05
4.51501e-05
4.4839e-05
4.47723e-05
4.4844e-05
4.5011e-05
4.52505e-05
4.5545e-05
4.58765e-05
4.62239e-05
4.6562e-05
4.68644e-05
4.71072e-05
4.72738e-05
4.73593e-05
4.73717e-05
4.73312e-05
4.72687e-05
4.72254e-05
4.72578e-05
4.74604e-05
4.80683e-05
5.02223e-05
6.63495e-05
7.79993e-05
7.8e-05
7.8e-05
7.79821e-05
5.96297e-05
4.90822e-05
4.72305e-05
4.65647e-05
4.62522e-05
4.61028e-05
4.60533e-05
4.6076e-05
4.61587e-05
4.62951e-05
4.64785e-05
4.66876e-05
4.68743e-05
4.69242e-05
4.67914e-05
4.65423e-05
4.62847e-05
4.60596e-05
4.58791e-05
4.57464e-05
4.56657e-05
4.56458e-05
4.57066e-05
4.58933e-05
4.63075e-05
4.72664e-05
5.04682e-05
7.51646e-05
7.8e-05
7.8e-05
7.29194e-05
5.08242e-05
4.77324e-05
4.67093e-05
4.62095e-05
4.59392e-05
4.57989e-05
4.57557e-05
4.58012e-05
4.59449e-05
4.62213e-05
4.67277e-05
4.77555e-05
5.0835e-05
7.36105e-05
7.79986e-05
6.45201e-05
4.94136e-05
4.71614e-05
4.6341e-05
4.58879e-05
4.55842e-05
4.53535e-05
4.51607e-05
4.49886e-05
4.48292e-05
4.4681e-05
4.4547e-05
4.44335e-05
4.43504e-05
4.43124e-05
4.43422e-05
4.4482e-05
4.48302e-05
4.57107e-05
4.8942e-05
7.61393e-05
7.8e-05
7.8e-05
7.8e-05
7.8e-05
7.8e-05
7.8e-05
7.8e-05
7.8e-05
7.8e-05
7.8e-05
7.8e-05
7.8e-05
7.8e-05
7.8e-05
7.8e-05
7.8e-05
7.8e-05
7.8e-05
7.8e-05
7.8e-05
7.8e-05
7.8e-05
7.8e-05
7.8e-05
6.86942e-05
4.79835e-05
4.55983e-05
4.4942e-05
4.47151e-05
4.46739e-05
4.47392e-05
4.48744e-05
4.50573e-05
4.52699e-05
4.54952e-05
4.57163e-05
4.5917e-05
4.60836e-05
4.62077e-05
4.62882e-05
4.63322e-05
4.63559e-05
4.63844e-05
4.6455e-05
4.66294e-05
4.70339e-05
4.80347e-05
5.14812e-05
7.62685e-05
7.8e-05
7.8e-05
7.8e-05
7.8e-05
7.71443e-05
5.18404e-05
4.77071e-05
4.65513e-05
4.60554e-05
4.5807e-05
4.56996e-05
4.56909e-05
4.57662e-05
4.59227e-05
4.6167e-05
4.64925e-05
4.68802e-05
4.70228e-05
4.67783e-05
4.63447e-05
4.59834e-05
4.57132e-05
4.55231e-05
4.54056e-05
4.53622e-05
4.54022e-05
4.55559e-05
4.59124e-05
4.67231e-05
4.92863e-05
6.82045e-05
7.79999e-05
7.8e-05
7.8e-05
7.8e-05
6.97648e-05
4.98132e-05
4.70427e-05
4.61433e-05
4.57321e-05
4.55267e-05
4.54624e-05
4.55213e-05
4.57204e-05
4.61272e-05
4.69921e-05
4.95242e-05
6.64029e-05
7.79996e-05
7.8e-05
7.68656e-05
5.1245e-05
4.73326e-05
4.61356e-05
4.55475e-05
4.51872e-05
4.49372e-05
4.47483e-05
4.45964e-05
4.44701e-05
4.43651e-05
4.42818e-05
4.42256e-05
4.42075e-05
4.42471e-05
4.4382e-05
4.46949e-05
4.54417e-05
4.8016e-05
7.02402e-05
7.8e-05
7.8e-05
7.8e-05
7.8e-05
7.8e-05
7.8e-05
7.8e-05
7.8e-05
7.8e-05
7.8e-05
7.8e-05
7.8e-05
7.8e-05
7.8e-05
7.8e-05
7.8e-05
7.8e-05
7.8e-05
7.8e-05
7.8e-05
7.8e-05
7.8e-05
7.8e-05
7.8e-05
7.8e-05
7.79796e-05
5.6596e-05
4.67734e-05
4.5232e-05
4.47506e-05
4.45728e-05
4.45352e-05
4.45779e-05
4.46701e-05
4.47921e-05
4.49289e-05
4.5068e-05
4.5199e-05
4.53145e-05
4.54108e-05
4.54894e-05
4.55579e-05
4.56307e-05
4.57318e-05
4.59015e-05
4.62215e-05
4.6917e-05
4.90941e-05
6.51281e-05
7.79992e-05
7.8e-05
7.8e-05
7.8e-05
7.8e-05
7.8e-05
7.47696e-05
5.02819e-05
4.71394e-05
4.62144e-05
4.57815e-05
4.55902e-05
4.55487e-05
4.56369e-05
4.58578e-05
4.62688e-05
4.69357e-05
4.83922e-05
4.91373e-05
4.81074e-05
4.6735e-05
4.60459e-05
4.56421e-05
4.53966e-05
4.52696e-05
4.52591e-05
4.53758e-05
4.56724e-05
4.64043e-05
4.86548e-05
6.25669e-05
7.79978e-05
7.8e-05
7.8e-05
7.8e-05
7.8e-05
7.79997e-05
6.65463e-05
4.92447e-05
4.66722e-05
4.59023e-05
4.55468e-05
4.54404e-05
4.55266e-05
4.58492e-05
4.65921e-05
4.8875e-05
6.19846e-05
7.79964e-05
7.8e-05
7.8e-05
7.8e-05
6.95306e-05
4.90668e-05
4.6375e-05
4.54587e-05
4.49807e-05
4.46824e-05
4.44787e-05
4.4332e-05
4.42257e-05
4.41527e-05
4.41121e-05
4.41093e-05
4.41597e-05
4.42963e-05
4.45981e-05
4.5292e-05
4.75327e-05
6.40186e-05
7.79996e-05
7.8e-05
7.8e-05
7.8e-05
7.8e-05
7.8e-05
7.8e-05
7.8e-05
7.8e-05
7.8e-05
7.8e-05
7.8e-05
7.8e-05
7.8e-05
7.8e-05
7.8e-05
7.8e-05
7.8e-05
7.8e-05
7.8e-05
7.8e-05
7.8e-05
7.8e-05
7.8e-05
7.8e-05
7.8e-05
7.8e-05
7.70854e-05
4.96437e-05
4.59138e-05
4.49527e-05
4.45777e-05
4.44205e-05
4.43722e-05
4.43857e-05
4.44356e-05
4.45066e-05
4.45877e-05
4.46717e-05
4.47541e-05
4.48341e-05
4.49149e-05
4.50054e-05
4.51213e-05
4.52902e-05
4.55647e-05
4.60695e-05
4.72236e-05
5.15204e-05
7.72932e-05
7.8e-05
7.8e-05
7.8e-05
7.8e-05
7.8e-05
7.8e-05
7.8e-05
7.37875e-05
5.01518e-05
4.73094e-05
4.62561e-05
4.58676e-05
4.57635e-05
4.59165e-05
4.63303e-05
4.73896e-05
4.95936e-05
6.24412e-05
7.15459e-05
5.95275e-05
4.91274e-05
4.68786e-05
4.60403e-05
4.56108e-05
4.54185e-05
4.54544e-05
4.57347e-05
4.63559e-05
4.86299e-05
6.20024e-05
7.79955e-05
7.8e-05
7.8e-05
7.8e-05
7.8e-05
7.8e-05
7.8e-05
7.79997e-05
6.79575e-05
4.93868e-05
4.7032e-05
4.61005e-05
4.58835e-05
4.60413e-05
4.6775e-05
4.90453e-05
6.34868e-05
7.79955e-05
7.8e-05
7.8e-05
7.8e-05
7.8e-05
7.79927e-05
5.96823e-05
4.77649e-05
4.57574e-05
4.5003e-05
4.4599e-05
4.43532e-05
4.41947e-05
4.40976e-05
4.40511e-05
4.40534e-05
4.41114e-05
4.42531e-05
4.45465e-05
4.52257e-05
4.73545e-05
6.10995e-05
7.79977e-05
7.8e-05
7.8e-05
7.8e-05
7.8e-05
7.8e-05
7.8e-05
7.8e-05
7.8e-05
7.8e-05
7.8e-05
7.8e-05
7.8e-05
7.8e-05
7.8e-05
7.8e-05
7.8e-05
7.8e-05
7.8e-05
7.8e-05
7.8e-05
7.8e-05
7.8e-05
7.8e-05
7.8e-05
7.8e-05
7.8e-05
7.8e-05
7.8e-05
7.37835e-05
4.84342e-05
4.55849e-05
4.47736e-05
4.44315e-05
4.42739e-05
4.42077e-05
4.41931e-05
4.42102e-05
4.42474e-05
4.42978e-05
4.43586e-05
4.44306e-05
4.45186e-05
4.46338e-05
4.47973e-05
4.50486e-05
4.54765e-05
4.63509e-05
4.90908e-05
7.11352e-05
7.8e-05
7.8e-05
7.8e-05
7.8e-05
7.8e-05
7.8e-05
7.8e-05
7.8e-05
7.8e-05
7.59838e-05
5.4018e-05
4.85376e-05
4.7249e-05
4.68414e-05
4.73985e-05
4.87115e-05
5.48839e-05
7.42994e-05
7.79978e-05
7.8e-05
7.79908e-05
7.17391e-05
5.12459e-05
4.80807e-05
4.66805e-05
4.61522e-05
4.63323e-05
4.74028e-05
4.93073e-05
6.73178e-05
7.79975e-05
7.8e-05
7.8e-05
7.8e-05
7.8e-05
7.8e-05
7.8e-05
7.8e-05
7.8e-05
7.79999e-05
7.38727e-05
5.41216e-05
4.86211e-05
4.79839e-05
4.84308e-05
5.16819e-05
7.12355e-05
7.79988e-05
7.8e-05
7.8e-05
7.8e-05
7.8e-05
7.8e-05
7.8e-05
7.79171e-05
5.44076e-05
4.7076e-05
4.54241e-05
4.47515e-05
4.44072e-05
4.42072e-05
4.4107e-05
4.40885e-05
4.415e-05
4.43024e-05
4.46169e-05
4.528e-05
4.75222e-05
6.19718e-05
7.79969e-05
7.8e-05
7.8e-05
7.8e-05
7.8e-05
7.8e-05
7.8e-05
7.8e-05
7.8e-05
7.8e-05
7.8e-05
7.8e-05
7.8e-05
7.8e-05
7.8e-05
7.8e-05
7.8e-05
7.8e-05
7.8e-05
7.8e-05
7.8e-05
7.8e-05
7.8e-05
7.8e-05
7.8e-05
7.8e-05
7.8e-05
7.8e-05
7.8e-05
7.8e-05
7.8e-05
7.0006e-05
4.80484e-05
4.54237e-05
4.46541e-05
4.4321e-05
4.41526e-05
4.40666e-05
4.40315e-05
4.40301e-05
4.40537e-05
4.41e-05
4.41707e-05
4.42727e-05
4.44219e-05
4.46524e-05
4.50348e-05
4.57748e-05
4.78758e-05
6.16497e-05
7.79975e-05
7.8e-05
7.8e-05
7.8e-05
7.8e-05
7.8e-05
7.8e-05
7.8e-05
7.8e-05
7.8e-05
7.8e-05
7.78818e-05
6.85911e-05
5.58983e-05
5.19859e-05
5.74957e-05
7.01759e-05
7.79234e-05
7.8e-05
7.8e-05
7.8e-05
7.8e-05
7.8e-05
7.74666e-05
6.61163e-05
5.23446e-05
4.90945e-05
5.01428e-05
6.03875e-05
7.5014e-05
7.79999e-05
7.8e-05
7.8e-05
7.8e-05
7.8e-05
7.8e-05
7.8e-05
7.8e-05
7.8e-05
7.8e-05
7.8e-05
7.8e-05
7.79039e-05
7.19214e-05
6.6117e-05
7.05502e-05
7.76353e-05
7.8e-05
7.8e-05
7.8e-05
7.8e-05
7.8e-05
7.8e-05
7.8e-05
7.8e-05
7.8e-05
7.78617e-05
5.44155e-05
4.71946e-05
4.53991e-05
4.478e-05
4.44514e-05
4.43247e-05
4.43507e-05
4.45442e-05
4.492e-05
4.58163e-05
4.80889e-05
6.68882e-05
7.79988e-05
7.8e-05
7.8e-05
7.8e-05
7.8e-05
7.8e-05
7.8e-05
7.8e-05
7.8e-05
7.8e-05
7.8e-05
7.8e-05
7.8e-05
7.8e-05
7.8e-05
7.8e-05
7.8e-05
7.8e-05
7.8e-05
7.8e-05
7.8e-05
7.8e-05
7.8e-05
7.8e-05
7.8e-05
7.8e-05
7.8e-05
7.8e-05
7.8e-05
7.8e-05
7.8e-05
7.8e-05
7.8e-05
6.8649e-05
4.79498e-05
4.53712e-05
4.4622e-05
4.42727e-05
4.40802e-05
4.39802e-05
4.39361e-05
4.39333e-05
4.3969e-05
4.40463e-05
4.41744e-05
4.43792e-05
4.47291e-05
4.53895e-05
4.70564e-05
5.53072e-05
7.79514e-05
7.8e-05
7.8e-05
7.8e-05
7.8e-05
7.8e-05
7.8e-05
7.8e-05
7.8e-05
7.8e-05
7.8e-05
7.8e-05
7.8e-05
7.79999e-05
7.79505e-05
7.76409e-05
7.79769e-05
7.8e-05
7.8e-05
7.8e-05
7.8e-05
7.8e-05
7.8e-05
7.8e-05
7.8e-05
7.79997e-05
7.77543e-05
7.55565e-05
7.70756e-05
7.79952e-05
7.8e-05
7.8e-05
7.8e-05
7.8e-05
7.8e-05
7.8e-05
7.8e-05
7.8e-05
7.8e-05
7.8e-05
7.8e-05
7.8e-05
7.8e-05
7.8e-05
7.8e-05
7.79998e-05
7.8e-05
7.8e-05
7.8e-05
7.8e-05
7.8e-05
7.8e-05
7.8e-05
7.8e-05
7.8e-05
7.8e-05
7.8e-05
7.8e-05
7.79346e-05
6.06386e-05
4.80375e-05
4.61899e-05
4.52295e-05
4.50008e-05
4.5144e-05
4.59223e-05
4.72924e-05
5.25086e-05
7.4096e-05
7.79999e-05
7.8e-05
7.8e-05
7.8e-05
7.8e-05
7.8e-05
7.8e-05
7.8e-05
7.8e-05
7.8e-05
7.8e-05
7.8e-05
7.8e-05
7.8e-05
7.8e-05
7.8e-05
7.8e-05
7.8e-05
7.8e-05
7.8e-05
7.8e-05
7.8e-05
7.8e-05
7.8e-05
7.8e-05
7.8e-05
7.8e-05
7.8e-05
7.8e-05
7.8e-05
7.8e-05
7.8e-05
7.8e-05
7.8e-05
7.8e-05
7.04554e-05
4.81971e-05
4.56121e-05
4.47491e-05
4.43141e-05
4.41044e-05
4.39954e-05
4.39559e-05
4.3983e-05
4.40808e-05
4.42632e-05
4.45775e-05
4.52232e-05
4.68471e-05
5.3427e-05
7.78556e-05
7.8e-05
7.8e-05
7.8e-05
7.8e-05
7.8e-05
7.8e-05
7.8e-05
7.8e-05
7.8e-05
7.8e-05
7.8e-05
7.8e-05
7.8e-05
7.8e-05
7.8e-05
7.8e-05
7.8e-05
7.8e-05
7.8e-05
7.8e-05
7.8e-05
7.8e-05
7.8e-05
7.8e-05
7.8e-05
7.8e-05
7.8e-05
7.8e-05
7.8e-05
7.8e-05
7.8e-05
7.8e-05
7.8e-05
7.8e-05
7.8e-05
7.8e-05
7.8e-05
7.8e-05
7.8e-05
7.8e-05
7.8e-05
7.8e-05
7.8e-05
7.8e-05
7.8e-05
7.8e-05
7.8e-05
7.8e-05
7.8e-05
7.8e-05
7.8e-05
7.8e-05
7.8e-05
7.8e-05
7.8e-05
7.8e-05
7.8e-05
7.8e-05
7.8e-05
7.79973e-05
7.19347e-05
5.55267e-05
4.82137e-05
4.75853e-05
4.81589e-05
5.45422e-05
6.9111e-05
7.78968e-05
7.8e-05
7.8e-05
7.8e-05
7.8e-05
7.8e-05
7.8e-05
7.8e-05
7.8e-05
7.8e-05
7.8e-05
7.8e-05
7.8e-05
7.8e-05
7.8e-05
7.8e-05
7.8e-05
7.8e-05
7.8e-05
7.8e-05
7.8e-05
7.8e-05
7.8e-05
7.8e-05
7.8e-05
7.8e-05
7.8e-05
7.8e-05
7.8e-05
7.8e-05
7.8e-05
7.8e-05
7.8e-05
7.8e-05
7.8e-05
7.8e-05
7.8e-05
7.8e-05
7.46985e-05
5.03232e-05
4.65808e-05
4.50587e-05
4.45828e-05
4.43189e-05
4.41983e-05
4.4215e-05
4.43739e-05
4.47072e-05
4.53052e-05
4.72666e-05
5.60908e-05
7.78785e-05
7.8e-05
7.8e-05
7.8e-05
7.8e-05
7.8e-05
7.8e-05
7.8e-05
7.8e-05
7.8e-05
7.8e-05
7.8e-05
7.8e-05
7.8e-05
7.8e-05
7.8e-05
7.8e-05
7.8e-05
7.8e-05
7.8e-05
7.8e-05
7.8e-05
7.8e-05
7.8e-05
7.8e-05
7.8e-05
7.8e-05
7.8e-05
7.8e-05
7.8e-05
7.8e-05
7.8e-05
7.8e-05
7.8e-05
7.8e-05
7.8e-05
7.8e-05
7.8e-05
7.8e-05
7.8e-05
7.8e-05
7.8e-05
7.8e-05
7.8e-05
7.8e-05
7.8e-05
7.8e-05
7.8e-05
7.8e-05
7.8e-05
7.8e-05
7.8e-05
7.8e-05
7.8e-05
7.8e-05
7.8e-05
7.8e-05
7.8e-05
7.8e-05
7.8e-05
7.8e-05
7.8e-05
7.8e-05
7.79725e-05
7.57809e-05
7.34258e-05
7.59721e-05
7.79602e-05
7.8e-05
7.8e-05
7.8e-05
7.8e-05
7.8e-05
7.8e-05
7.8e-05
7.8e-05
7.8e-05
7.8e-05
7.8e-05
7.8e-05
7.8e-05
7.8e-05
7.8e-05
7.8e-05
7.8e-05
7.8e-05
7.8e-05
7.8e-05
7.8e-05
7.8e-05
7.8e-05
7.8e-05
7.8e-05
7.8e-05
7.8e-05
7.8e-05
7.8e-05
7.8e-05
7.8e-05
7.8e-05
7.8e-05
7.8e-05
7.8e-05
7.8e-05
7.8e-05
7.8e-05
7.8e-05
7.8e-05
7.76536e-05
6.19766e-05
4.79371e-05
4.64336e-05
4.53869e-05
4.4941e-05
4.49354e-05
4.53446e-05
4.64773e-05
4.82206e-05
6.47508e-05
7.79768e-05
7.8e-05
7.8e-05
7.8e-05
7.8e-05
7.8e-05
7.8e-05
7.8e-05
7.8e-05
7.8e-05
7.8e-05
7.8e-05
7.8e-05
7.8e-05
7.8e-05
7.8e-05
7.8e-05
7.8e-05
7.8e-05
7.8e-05
7.8e-05
7.8e-05
7.8e-05
7.8e-05
7.8e-05
7.8e-05
7.8e-05
7.8e-05
7.8e-05
7.8e-05
7.8e-05
7.8e-05
7.8e-05
7.8e-05
7.8e-05
7.8e-05
7.8e-05
7.8e-05
7.8e-05
7.8e-05
7.8e-05
7.8e-05
7.8e-05
7.8e-05
7.8e-05
7.8e-05
7.8e-05
7.8e-05
7.8e-05
7.8e-05
7.8e-05
7.8e-05
7.8e-05
7.8e-05
7.8e-05
7.8e-05
7.8e-05
7.8e-05
7.8e-05
7.8e-05
7.8e-05
7.8e-05
7.8e-05
7.8e-05
7.8e-05
7.8e-05
7.8e-05
7.8e-05
7.8e-05
7.8e-05
7.8e-05
7.8e-05
7.8e-05
7.8e-05
7.8e-05
7.8e-05
7.8e-05
7.8e-05
7.8e-05
7.8e-05
7.8e-05
7.8e-05
7.8e-05
7.8e-05
7.8e-05
7.8e-05
7.8e-05
7.8e-05
7.8e-05
7.8e-05
7.8e-05
7.8e-05
7.8e-05
7.8e-05
7.8e-05
7.8e-05
7.8e-05
7.8e-05
7.8e-05
7.8e-05
7.8e-05
7.8e-05
7.8e-05
7.8e-05
7.8e-05
7.8e-05
7.8e-05
7.8e-05
7.8e-05
7.8e-05
7.79991e-05
7.45851e-05
6.18294e-05
5.05651e-05
4.77597e-05
4.76776e-05
4.96747e-05
6.09009e-05
7.47895e-05
7.79997e-05
7.8e-05
7.8e-05
7.8e-05
7.8e-05
7.8e-05
7.8e-05
7.8e-05
7.8e-05
7.8e-05
7.8e-05
7.8e-05
7.8e-05
7.8e-05
7.8e-05
7.8e-05
7.8e-05
7.8e-05
7.8e-05
7.8e-05
7.8e-05
7.8e-05
7.8e-05
7.8e-05
7.8e-05
7.8e-05
7.8e-05
7.8e-05
7.8e-05
7.8e-05
7.8e-05
7.8e-05
7.8e-05
7.8e-05
7.8e-05
7.8e-05
7.8e-05
7.8e-05
7.8e-05
7.8e-05
7.8e-05
7.8e-05
7.8e-05
7.8e-05
7.8e-05
7.8e-05
7.8e-05
7.8e-05
7.8e-05
7.8e-05
7.8e-05
7.8e-05
7.8e-05
7.8e-05
7.8e-05
7.8e-05
7.8e-05
7.8e-05
7.8e-05
7.8e-05
7.8e-05
7.8e-05
7.8e-05
7.8e-05
7.8e-05
7.8e-05
7.8e-05
7.8e-05
7.8e-05
7.8e-05
7.8e-05
7.8e-05
7.8e-05
7.8e-05
7.8e-05
7.8e-05
7.8e-05
7.8e-05
7.8e-05
7.8e-05
7.8e-05
7.8e-05
7.8e-05
7.8e-05
7.8e-05
7.8e-05
7.8e-05
7.8e-05
7.8e-05
7.8e-05
7.8e-05
7.8e-05
7.8e-05
7.8e-05
7.8e-05
7.8e-05
7.8e-05
7.8e-05
7.8e-05
7.8e-05
7.8e-05
7.8e-05
7.8e-05
7.8e-05
7.8e-05
7.8e-05
7.8e-05
7.8e-05
7.8e-05
7.8e-05
7.8e-05
7.8e-05
7.8e-05
7.79988e-05
7.77152e-05
7.53423e-05
7.48948e-05
7.74741e-05
7.7998e-05
7.8e-05
7.8e-05
7.8e-05
7.8e-05
7.8e-05
7.8e-05
7.8e-05
7.8e-05
7.8e-05
7.8e-05
7.8e-05
7.8e-05
7.8e-05
7.8e-05
7.8e-05
7.8e-05
7.8e-05
7.8e-05
7.8e-05
7.8e-05
7.8e-05
7.8e-05
7.8e-05
7.8e-05
7.8e-05
7.8e-05
7.8e-05
7.8e-05
7.8e-05
7.8e-05
7.8e-05
7.8e-05
7.8e-05
7.8e-05
7.8e-05
7.8e-05
7.8e-05
7.8e-05
7.8e-05
7.8e-05
7.8e-05
7.8e-05
7.8e-05
7.8e-05
7.8e-05
7.8e-05
7.8e-05
7.8e-05
7.8e-05
7.8e-05
7.8e-05
7.8e-05
7.8e-05
7.8e-05
7.8e-05
7.8e-05
7.8e-05
7.8e-05
7.8e-05
7.8e-05
7.8e-05
7.8e-05
7.8e-05
7.8e-05
7.8e-05
7.8e-05
7.8e-05
7.8e-05
7.8e-05
7.8e-05
7.8e-05
7.8e-05
7.8e-05
7.8e-05
7.8e-05
7.8e-05
7.8e-05
7.8e-05
7.8e-05
7.8e-05
7.8e-05
7.8e-05
7.8e-05
7.8e-05
7.8e-05
7.8e-05
7.8e-05
7.8e-05
7.8e-05
7.8e-05
7.8e-05
7.8e-05
7.8e-05
7.8e-05
7.8e-05
7.8e-05
7.8e-05
7.8e-05
7.8e-05
7.8e-05
7.8e-05
7.8e-05
7.8e-05
7.8e-05
7.8e-05
7.8e-05
7.8e-05
7.8e-05
7.8e-05
7.8e-05
7.8e-05
7.8e-05
7.8e-05
7.8e-05
7.8e-05
7.8e-05
7.8e-05
7.8e-05
7.8e-05
7.8e-05
7.8e-05
7.8e-05
7.8e-05
7.8e-05
7.8e-05
7.8e-05
7.8e-05
7.8e-05
7.8e-05
7.8e-05
7.8e-05
7.8e-05
7.8e-05
7.8e-05
7.8e-05
7.8e-05
7.8e-05
7.8e-05
7.8e-05
7.8e-05
7.8e-05
7.8e-05
7.8e-05
7.8e-05
7.8e-05
7.8e-05
7.8e-05
7.8e-05
7.8e-05
7.8e-05
7.8e-05
7.8e-05
7.8e-05
7.8e-05
7.8e-05
7.8e-05
7.8e-05
7.8e-05
7.8e-05
7.8e-05
7.8e-05
7.8e-05
7.8e-05
7.8e-05
7.8e-05
7.8e-05
7.8e-05
7.8e-05
7.8e-05
7.8e-05
7.8e-05
7.8e-05
7.8e-05
7.8e-05
7.8e-05
7.8e-05
7.8e-05
7.8e-05
7.8e-05
7.8e-05
7.8e-05
7.8e-05
7.8e-05
7.8e-05
7.8e-05
7.8e-05
7.8e-05
7.8e-05
7.8e-05
7.8e-05
7.8e-05
7.8e-05
7.8e-05
7.8e-05
7.8e-05
7.8e-05
7.8e-05
7.8e-05
7.8e-05
7.8e-05
7.8e-05
7.8e-05
7.8e-05
7.8e-05
7.8e-05
7.8e-05
7.8e-05
7.8e-05
7.8e-05
7.8e-05
7.8e-05
7.8e-05
7.8e-05
7.8e-05
7.8e-05
7.8e-05
7.8e-05
7.8e-05
7.8e-05
7.8e-05
7.8e-05
7.8e-05
7.8e-05
7.8e-05
7.8e-05
7.8e-05
7.8e-05
7.8e-05
7.8e-05
7.8e-05
7.8e-05
7.8e-05
7.8e-05
7.8e-05
7.8e-05
7.8e-05
7.8e-05
7.8e-05
7.8e-05
7.8e-05
7.8e-05
7.8e-05
7.8e-05
7.8e-05
7.8e-05
7.8e-05
7.8e-05
7.8e-05
7.8e-05
7.8e-05
7.8e-05
7.8e-05
7.8e-05
7.8e-05
7.8e-05
7.8e-05
7.8e-05
7.8e-05
7.8e-05
7.8e-05
7.8e-05
7.8e-05
7.8e-05
7.8e-05
7.8e-05
7.8e-05
7.8e-05
7.8e-05
7.8e-05
7.8e-05
7.8e-05
7.8e-05
7.8e-05
7.8e-05
7.8e-05
7.8e-05
7.8e-05
7.8e-05
7.8e-05
7.8e-05
7.8e-05
7.8e-05
7.8e-05
7.8e-05
7.8e-05
7.8e-05
7.8e-05
7.8e-05
7.8e-05
7.8e-05
7.8e-05
7.8e-05
7.8e-05
7.8e-05
7.8e-05
7.8e-05
7.8e-05
7.8e-05
7.8e-05
7.8e-05
7.8e-05
7.8e-05
7.8e-05
7.8e-05
7.8e-05
7.8e-05
7.8e-05
7.8e-05
7.8e-05
7.8e-05
7.8e-05
7.8e-05
7.8e-05
7.8e-05
7.8e-05
7.8e-05
7.8e-05
7.8e-05
7.8e-05
7.8e-05
7.8e-05
7.8e-05
7.8e-05
7.8e-05
7.8e-05
7.8e-05
7.8e-05
7.8e-05
7.8e-05
7.8e-05
7.8e-05
7.8e-05
7.8e-05
7.8e-05
7.8e-05
7.8e-05
7.8e-05
7.8e-05
7.8e-05
7.8e-05
7.8e-05
7.8e-05
7.8e-05
7.8e-05
7.8e-05
7.8e-05
7.8e-05
7.8e-05
7.8e-05
7.8e-05
7.8e-05
7.8e-05
7.8e-05
7.8e-05
7.8e-05
7.8e-05
7.8e-05
7.8e-05
7.8e-05
7.8e-05
7.8e-05
7.8e-05
7.8e-05
7.8e-05
7.8e-05
7.8e-05
7.8e-05
7.8e-05
7.8e-05
7.8e-05
7.8e-05
7.8e-05
7.8e-05
7.8e-05
7.8e-05
7.8e-05
7.8e-05
7.8e-05
7.8e-05
7.8e-05
7.8e-05
7.8e-05
7.8e-05
7.8e-05
7.8e-05
7.8e-05
7.8e-05
7.8e-05
7.8e-05
7.8e-05
7.8e-05
7.8e-05
7.8e-05
7.8e-05
7.8e-05
7.8e-05
7.8e-05
7.8e-05
7.8e-05
7.8e-05
7.8e-05
7.8e-05
7.8e-05
7.8e-05
7.8e-05
7.8e-05
7.8e-05
7.8e-05
7.8e-05
7.8e-05
7.8e-05
7.8e-05
7.8e-05
7.8e-05
7.8e-05
7.8e-05
7.8e-05
7.8e-05
7.8e-05
7.8e-05
7.8e-05
7.8e-05
7.8e-05
7.8e-05
7.8e-05
7.8e-05
7.8e-05
7.8e-05
7.8e-05
7.8e-05
7.8e-05
7.8e-05
7.8e-05
7.8e-05
7.8e-05
7.8e-05
7.8e-05
7.8e-05
7.8e-05
7.8e-05
7.8e-05
7.8e-05
7.8e-05
7.8e-05
7.8e-05
7.8e-05
7.8e-05
7.8e-05
7.8e-05
7.8e-05
7.8e-05
7.8e-05
7.8e-05
7.8e-05
7.8e-05
7.8e-05
7.8e-05
7.8e-05
7.8e-05
7.8e-05
7.8e-05
7.8e-05
7.8e-05
7.8e-05
7.8e-05
7.8e-05
7.8e-05
7.8e-05
7.8e-05
7.8e-05
7.8e-05
7.8e-05
7.8e-05
7.8e-05
7.8e-05
7.8e-05
7.8e-05
7.8e-05
7.8e-05
7.8e-05
7.8e-05
7.8e-05
7.8e-05
7.8e-05
7.8e-05
7.8e-05
7.8e-05
7.8e-05
7.8e-05
7.8e-05
7.8e-05
7.8e-05
7.8e-05
7.8e-05
7.8e-05
7.8e-05
7.8e-05
7.8e-05
7.8e-05
7.8e-05
7.8e-05
7.8e-05
7.8e-05
7.8e-05
7.8e-05
7.8e-05
7.8e-05
7.8e-05
7.8e-05
7.8e-05
7.8e-05
7.8e-05
7.8e-05
7.8e-05
7.8e-05
7.8e-05
7.8e-05
7.8e-05
7.8e-05
7.8e-05
7.8e-05
7.8e-05
7.8e-05
7.8e-05
7.8e-05
7.8e-05
7.8e-05
7.8e-05
7.8e-05
7.8e-05
7.8e-05
7.8e-05
7.8e-05
7.8e-05
7.8e-05
7.8e-05
7.8e-05
7.8e-05
7.8e-05
7.8e-05
7.8e-05
7.8e-05
7.8e-05
7.8e-05
7.8e-05
7.8e-05
7.8e-05
7.8e-05
7.8e-05
7.8e-05
7.8e-05
7.8e-05
7.8e-05
7.8e-05
7.8e-05
7.8e-05
7.8e-05
7.8e-05
7.8e-05
7.8e-05
7.8e-05
7.8e-05
7.8e-05
7.8e-05
7.8e-05
7.8e-05
7.8e-05
7.8e-05
7.8e-05
7.8e-05
7.8e-05
7.8e-05
7.8e-05
7.8e-05
7.8e-05
7.8e-05
7.8e-05
7.8e-05
7.8e-05
7.8e-05
7.8e-05
7.8e-05
7.8e-05
7.8e-05
7.8e-05
7.8e-05
7.8e-05
7.8e-05
7.8e-05
7.8e-05
7.8e-05
7.8e-05
7.8e-05
7.8e-05
7.8e-05
7.8e-05
7.8e-05
7.8e-05
7.8e-05
7.8e-05
7.8e-05
7.8e-05
7.8e-05
7.8e-05
7.8e-05
7.8e-05
7.8e-05
7.8e-05
7.8e-05
7.8e-05
7.8e-05
7.8e-05
7.8e-05
7.8e-05
7.8e-05
7.8e-05
7.8e-05
7.8e-05
7.8e-05
7.8e-05
7.8e-05
7.8e-05
7.8e-05
7.8e-05
7.8e-05
7.8e-05
7.8e-05
7.8e-05
7.8e-05
7.8e-05
7.8e-05
7.8e-05
7.8e-05
7.8e-05
7.8e-05
7.8e-05
7.8e-05
7.8e-05
7.8e-05
7.8e-05
7.8e-05
7.8e-05
7.8e-05
7.8e-05
7.8e-05
7.8e-05
7.8e-05
7.8e-05
7.8e-05
7.8e-05
7.8e-05
7.8e-05
7.8e-05
7.8e-05
7.8e-05
7.8e-05
7.8e-05
7.8e-05
7.8e-05
7.8e-05
7.8e-05
7.8e-05
7.8e-05
7.8e-05
7.8e-05
7.8e-05
7.8e-05
7.8e-05
7.8e-05
7.8e-05
7.8e-05
7.8e-05
7.8e-05
7.8e-05
7.8e-05
7.8e-05
7.8e-05
7.8e-05
7.8e-05
7.8e-05
7.8e-05
7.8e-05
7.8e-05
7.8e-05
7.8e-05
7.8e-05
7.8e-05
7.8e-05
7.8e-05
7.8e-05
7.8e-05
7.8e-05
7.8e-05
7.8e-05
7.8e-05
7.8e-05
7.8e-05
7.8e-05
7.8e-05
7.8e-05
7.8e-05
7.8e-05
7.8e-05
7.8e-05
7.8e-05
7.8e-05
7.8e-05
7.8e-05
7.8e-05
7.8e-05
7.8e-05
7.8e-05
7.8e-05
7.8e-05
7.8e-05
7.8e-05
7.8e-05
7.8e-05
7.8e-05
7.8e-05
7.8e-05
7.8e-05
7.8e-05
7.8e-05
7.8e-05
7.8e-05
7.8e-05
7.8e-05
7.8e-05
7.8e-05
7.8e-05
7.8e-05
7.8e-05
7.8e-05
7.8e-05
7.8e-05
7.8e-05
7.8e-05
7.8e-05
7.8e-05
7.8e-05
7.8e-05
7.8e-05
7.8e-05
7.8e-05
7.8e-05
7.8e-05
7.8e-05
7.8e-05
7.8e-05
7.8e-05
7.8e-05
7.8e-05
7.8e-05
7.8e-05
7.8e-05
7.8e-05
7.8e-05
7.8e-05
7.8e-05
7.8e-05
7.8e-05
7.8e-05
7.8e-05
7.8e-05
7.8e-05
7.8e-05
7.8e-05
7.8e-05
7.8e-05
7.8e-05
7.8e-05
7.8e-05
7.8e-05
7.8e-05
7.8e-05
7.8e-05
7.8e-05
7.8e-05
7.8e-05
7.8e-05
7.8e-05
7.8e-05
7.8e-05
7.8e-05
7.8e-05
7.8e-05
7.8e-05
7.8e-05
7.8e-05
7.8e-05
7.8e-05
7.8e-05
7.8e-05
7.8e-05
7.8e-05
7.8e-05
7.8e-05
7.8e-05
7.8e-05
7.8e-05
7.8e-05
7.8e-05
7.8e-05
7.8e-05
7.8e-05
7.8e-05
7.8e-05
7.8e-05
7.8e-05
7.8e-05
7.8e-05
7.8e-05
7.8e-05
7.8e-05
7.8e-05
7.8e-05
7.8e-05
7.8e-05
7.8e-05
7.8e-05
7.8e-05
7.8e-05
7.8e-05
7.8e-05
7.8e-05
7.8e-05
7.8e-05
7.8e-05
7.8e-05
7.8e-05
7.8e-05
7.8e-05
7.8e-05
7.8e-05
7.8e-05
7.8e-05
7.8e-05
7.8e-05
7.8e-05
7.8e-05
7.8e-05
7.8e-05
7.8e-05
7.8e-05
7.8e-05
7.8e-05
7.8e-05
7.8e-05
7.8e-05
7.8e-05
7.8e-05
7.8e-05
7.8e-05
7.8e-05
7.8e-05
7.8e-05
7.8e-05
7.8e-05
7.8e-05
7.8e-05
7.8e-05
7.8e-05
7.8e-05
7.8e-05
7.8e-05
7.8e-05
7.8e-05
7.8e-05
7.8e-05
7.8e-05
7.8e-05
7.8e-05
7.8e-05
7.8e-05
7.8e-05
7.8e-05
7.8e-05
7.8e-05
7.8e-05
7.8e-05
7.8e-05
7.8e-05
7.8e-05
7.8e-05
7.8e-05
7.8e-05
7.8e-05
7.8e-05
7.8e-05
7.8e-05
7.8e-05
7.8e-05
7.8e-05
7.8e-05
7.8e-05
7.8e-05
7.8e-05
7.8e-05
7.8e-05
7.8e-05
7.8e-05
7.8e-05
7.8e-05
7.8e-05
7.8e-05
7.8e-05
7.8e-05
7.8e-05
7.8e-05
7.8e-05
7.8e-05
7.8e-05
7.8e-05
7.8e-05
7.8e-05
7.8e-05
7.8e-05
7.8e-05
7.8e-05
7.8e-05
7.8e-05
7.8e-05
7.8e-05
7.8e-05
7.8e-05
7.8e-05
7.8e-05
7.8e-05
7.8e-05
7.8e-05
7.8e-05
7.8e-05
7.8e-05
7.8e-05
7.8e-05
7.8e-05
7.8e-05
7.8e-05
7.8e-05
7.8e-05
7.8e-05
7.8e-05
7.8e-05
7.8e-05
7.8e-05
7.8e-05
7.8e-05
7.8e-05
7.8e-05
7.8e-05
7.8e-05
7.8e-05
7.8e-05
7.8e-05
7.8e-05
7.8e-05
7.8e-05
7.8e-05
7.8e-05
7.8e-05
7.8e-05
7.8e-05
7.8e-05
7.8e-05
7.8e-05
7.8e-05
7.8e-05
7.8e-05
7.8e-05
7.8e-05
7.8e-05
7.8e-05
7.8e-05
7.8e-05
7.8e-05
7.8e-05
7.8e-05
7.8e-05
7.8e-05
7.8e-05
7.8e-05
7.8e-05
7.8e-05
7.8e-05
7.8e-05
7.8e-05
7.8e-05
7.8e-05
7.8e-05
7.8e-05
7.8e-05
7.8e-05
7.8e-05
7.8e-05
7.8e-05
7.8e-05
7.8e-05
7.8e-05
7.8e-05
7.8e-05
7.8e-05
7.8e-05
7.8e-05
7.8e-05
7.8e-05
7.8e-05
7.8e-05
7.8e-05
7.8e-05
7.8e-05
7.8e-05
7.8e-05
7.8e-05
7.8e-05
7.8e-05
7.8e-05
7.8e-05
7.8e-05
7.8e-05
7.8e-05
7.8e-05
7.8e-05
7.8e-05
7.8e-05
7.8e-05
7.8e-05
7.8e-05
7.8e-05
7.8e-05
7.8e-05
7.8e-05
7.8e-05
7.8e-05
7.8e-05
7.8e-05
7.8e-05
7.8e-05
7.8e-05
7.8e-05
7.8e-05
7.8e-05
7.8e-05
7.8e-05
7.8e-05
7.8e-05
7.8e-05
7.8e-05
7.8e-05
7.8e-05
7.8e-05
7.8e-05
7.8e-05
7.8e-05
7.8e-05
7.8e-05
7.8e-05
7.8e-05
7.8e-05
7.8e-05
7.8e-05
7.8e-05
7.8e-05
7.8e-05
7.8e-05
7.8e-05
7.8e-05
7.8e-05
7.8e-05
7.8e-05
7.8e-05
7.8e-05
7.8e-05
7.8e-05
7.8e-05
7.8e-05
7.8e-05
7.8e-05
7.8e-05
7.8e-05
7.8e-05
7.8e-05
7.8e-05
7.8e-05
7.8e-05
7.8e-05
7.8e-05
7.8e-05
7.8e-05
7.8e-05
7.8e-05
7.8e-05
7.8e-05
7.8e-05
7.8e-05
7.8e-05
7.8e-05
7.8e-05
7.8e-05
7.8e-05
7.8e-05