/*--------------------------------*- C++ -*----------------------------------*\
| =========                 |                                                 |
| \\      /  F ield         | OpenFOAM: The Open Source CFD Toolbox           |
|  \\    /   O peration     | Version:  2406                                  |
|   \\  /    A nd           | Website:  www.openfoam.com                      |
|    \\/     M anipulation  |                                                 |
\*---------------------------------------------------------------------------*/
FoamFile
{
    version     2.0;
    format      ascii;
    arch        "LSB;label=32;scalar=64";
    class       volScalarField;
    location    "9.7";
    object      C;
}
// * * * * * * * * * * * * * * * * * * * * * * * * * * * * * * * * * * * * * //

dimensions      [1 -3 0 0 0 0 0];

internalField   nonuniform List<scalar> 
14400
(
0.212528
0.211799
0.210505
0.208906
0.207273
0.205845
0.204802
0.204257
0.204249
0.204749
0.205653
0.206778
0.207868
0.2086
0.208626
0.207654
0.205578
0.20259
0.199048
0.195349
0.191858
0.18888
0.18667
0.185446
0.185411
0.186776
0.189768
0.194649
0.201715
0.211279
0.223663
0.239187
0.258172
0.280931
0.307763
0.338903
0.374393
0.413647
0.453536
0.482755
0.502291
0.5189
0.532934
0.544582
0.55399
0.561267
0.566494
0.569732
0.571018
0.570373
0.567799
0.563281
0.556788
0.548268
0.537648
0.524831
0.509687
0.492048
0.471394
0.440564
0.399374
0.360016
0.324705
0.293831
0.267303
0.244871
0.226226
0.211036
0.19895
0.189599
0.182609
0.177635
0.17439
0.172657
0.172281
0.173162
0.175239
0.178482
0.182891
0.18848
0.195273
0.203284
0.212486
0.222765
0.233837
0.245078
0.255011
0.260615
0.259742
0.254514
0.247425
0.239987
0.232863
0.226407
0.22081
0.216153
0.212444
0.209628
0.207611
0.206266
0.205448
0.205013
0.204832
0.204826
0.204975
0.205335
0.206024
0.207206
0.209066
0.211792
0.215563
0.220532
0.226819
0.234492
0.243544
0.253863
0.265181
0.276961
0.288077
0.29521
0.217264
0.216356
0.214777
0.212866
0.210951
0.209302
0.208117
0.207513
0.207536
0.208154
0.20926
0.210665
0.212092
0.213174
0.213476
0.212577
0.210271
0.206871
0.202869
0.198742
0.194889
0.191629
0.189216
0.187865
0.187777
0.189156
0.192228
0.197252
0.204513
0.214319
0.226986
0.242832
0.262177
0.285339
0.312622
0.344272
0.380352
0.420181
0.45868
0.486002
0.505115
0.521475
0.535319
0.546823
0.556121
0.563315
0.568485
0.571684
0.57295
0.572302
0.569742
0.565257
0.558815
0.550368
0.539846
0.527157
0.512181
0.494759
0.474621
0.445452
0.405286
0.365438
0.329547
0.298149
0.271151
0.248292
0.229257
0.213709
0.201301
0.19167
0.184449
0.179298
0.175928
0.17412
0.173716
0.174614
0.176751
0.180103
0.184671
0.190477
0.197553
0.205921
0.215564
0.22638
0.238099
0.250099
0.260574
0.266063
0.265784
0.260336
0.252748
0.244837
0.237299
0.230499
0.224628
0.219771
0.215932
0.213054
0.211036
0.209738
0.208999
0.208647
0.208532
0.208549
0.208674
0.208972
0.209586
0.210704
0.212535
0.215285
0.219143
0.224271
0.23079
0.238771
0.248211
0.259005
0.270884
0.283278
0.294814
0.301488
0.227245
0.225915
0.223697
0.221112
0.218601
0.216494
0.215014
0.214291
0.214371
0.215224
0.216741
0.218721
0.220857
0.222704
0.223658
0.222979
0.220103
0.215765
0.210768
0.205744
0.201149
0.197316
0.194493
0.192888
0.19269
0.194096
0.197325
0.202622
0.210262
0.220539
0.233757
0.250233
0.270287
0.294238
0.322391
0.354982
0.392033
0.432602
0.46808
0.492209
0.510679
0.526564
0.540046
0.55127
0.560355
0.56739
0.572445
0.575569
0.576796
0.576142
0.573611
0.569188
0.562847
0.554542
0.544211
0.531772
0.51712
0.500123
0.480619
0.454532
0.416975
0.376181
0.339223
0.306834
0.278927
0.255232
0.235429
0.219179
0.206137
0.195949
0.188266
0.182755
0.17913
0.177167
0.176702
0.17763
0.179891
0.183463
0.188357
0.194605
0.202253
0.211337
0.221854
0.233711
0.246646
0.259987
0.271178
0.2764
0.276931
0.271796
0.263478
0.254704
0.246376
0.238908
0.232508
0.227264
0.223179
0.220193
0.218189
0.217006
0.216444
0.216285
0.216318
0.21639
0.216458
0.216614
0.217052
0.218019
0.219773
0.222552
0.226568
0.231993
0.238956
0.247529
0.257714
0.269408
0.282347
0.295889
0.307753
0.313006
0.243484
0.241315
0.237949
0.234231
0.230761
0.227932
0.225993
0.22508
0.225242
0.226448
0.228588
0.231455
0.234718
0.23786
0.240065
0.24002
0.235896
0.229844
0.223194
0.216751
0.211014
0.206308
0.202864
0.200871
0.200501
0.201937
0.205382
0.211065
0.219243
0.230193
0.24421
0.261606
0.282698
0.307806
0.337216
0.371095
0.409199
0.449542
0.480273
0.5012
0.518828
0.534057
0.547028
0.557858
0.566638
0.573445
0.578335
0.581351
0.582521
0.581861
0.57937
0.575039
0.568842
0.560741
0.550684
0.5386
0.524404
0.507992
0.489234
0.466531
0.433114
0.391914
0.353744
0.32001
0.290795
0.26588
0.244954
0.227678
0.213709
0.202706
0.194334
0.188278
0.184259
0.182051
0.181489
0.182462
0.184912
0.188824
0.19422
0.201146
0.209663
0.21982
0.231624
0.244979
0.259573
0.274497
0.285933
0.290866
0.292116
0.288768
0.279834
0.26989
0.260447
0.252031
0.244878
0.23909
0.234672
0.23156
0.229622
0.228666
0.228436
0.228633
0.228945
0.229121
0.229074
0.228954
0.229059
0.229735
0.231314
0.234087
0.238294
0.244122
0.251703
0.26111
0.272339
0.285273
0.29957
0.314258
0.325111
0.328778
0.267444
0.263612
0.258336
0.252911
0.248067
0.244233
0.241662
0.240486
0.24075
0.242423
0.245392
0.249456
0.254287
0.259346
0.263678
0.265247
0.25851
0.249687
0.240639
0.232241
0.224964
0.21909
0.214814
0.212293
0.211677
0.213126
0.216823
0.222977
0.231824
0.243626
0.258666
0.27725
0.299693
0.326304
0.35734
0.392872
0.432213
0.469104
0.493963
0.512782
0.529376
0.543807
0.556154
0.566494
0.574896
0.581416
0.586099
0.588979
0.590078
0.589409
0.586971
0.582756
0.576742
0.568898
0.559182
0.54754
0.533906
0.518206
0.500358
0.480229
0.452398
0.412774
0.373333
0.337909
0.307011
0.280513
0.258128
0.239525
0.224364
0.212311
0.203047
0.196273
0.191724
0.189182
0.188482
0.189515
0.192226
0.196606
0.202687
0.210529
0.220204
0.231773
0.245245
0.260512
0.277146
0.293592
0.303958
0.308745
0.310606
0.309484
0.301751
0.290671
0.279921
0.270341
0.262254
0.255796
0.250991
0.247778
0.246013
0.245465
0.245809
0.246631
0.247447
0.247811
0.247534
0.246906
0.246415
0.246567
0.247803
0.250476
0.254861
0.261154
0.269489
0.279927
0.292446
0.306877
0.32266
0.337672
0.345301
0.347972
0.300533
0.293579
0.285438
0.277694
0.271067
0.265954
0.262586
0.261078
0.261465
0.263707
0.267692
0.27322
0.279973
0.287388
0.294108
0.294737
0.287555
0.275416
0.263416
0.252633
0.243476
0.236169
0.230859
0.22767
0.226721
0.22815
0.232115
0.238803
0.248431
0.261244
0.277514
0.297537
0.321616
0.350035
0.382971
0.42019
0.459635
0.489047
0.509107
0.526587
0.542088
0.55564
0.567285
0.577069
0.585035
0.591224
0.595666
0.598388
0.599404
0.598725
0.59635
0.592271
0.586471
0.578927
0.569607
0.558471
0.545475
0.53057
0.513713
0.494872
0.472464
0.438878
0.398202
0.360805
0.327888
0.299471
0.275315
0.255105
0.238509
0.2252
0.214869
0.207233
0.202043
0.199093
0.198226
0.199341
0.202386
0.207361
0.214305
0.223286
0.234381
0.247657
0.263119
0.280622
0.299529
0.316134
0.324624
0.329509
0.331959
0.332099
0.328149
0.317162
0.305186
0.294316
0.285149
0.277924
0.272704
0.26945
0.268019
0.268146
0.269427
0.271305
0.273022
0.273754
0.273005
0.271457
0.269947
0.269224
0.269863
0.272286
0.276792
0.283582
0.292773
0.304391
0.31837
0.334426
0.351429
0.363181
0.367686
0.369831
0.336355
0.330113
0.319138
0.308792
0.300114
0.29351
0.289212
0.287318
0.28785
0.290753
0.2959
0.30305
0.311819
0.321219
0.326361
0.324753
0.319772
0.306437
0.291591
0.278232
0.266964
0.258009
0.251487
0.247495
0.246126
0.247493
0.251733
0.259012
0.269526
0.283504
0.301201
0.322895
0.348866
0.379339
0.414342
0.452936
0.486433
0.508406
0.526246
0.54237
0.556749
0.569381
0.580278
0.589461
0.596953
0.602777
0.606955
0.609501
0.610426
0.609737
0.607432
0.603505
0.597945
0.590733
0.581847
0.571262
0.558951
0.544887
0.529051
0.511442
0.492069
0.466136
0.42794
0.388904
0.353777
0.323148
0.296928
0.274849
0.256593
0.24184
0.230292
0.221677
0.215761
0.212354
0.211311
0.212538
0.215994
0.221682
0.229647
0.239961
0.252703
0.267931
0.285613
0.305447
0.32608
0.340451
0.347751
0.35271
0.355621
0.356605
0.35578
0.349147
0.336538
0.324367
0.31401
0.305944
0.300293
0.297081
0.29619
0.297337
0.300042
0.303631
0.306935
0.308458
0.306678
0.303532
0.30038
0.29831
0.298028
0.300008
0.304555
0.311853
0.321977
0.334856
0.350279
0.367522
0.382259
0.388862
0.392149
0.393835
0.369722
0.36746
0.358295
0.346058
0.335381
0.327187
0.321882
0.319571
0.320275
0.323914
0.330314
0.339049
0.349324
0.357548
0.35828
0.356137
0.352571
0.342141
0.32519
0.30931
0.295812
0.285047
0.277162
0.272245
0.270374
0.271644
0.27617
0.2841
0.29561
0.310907
0.330222
0.353801
0.381863
0.414454
0.450998
0.487106
0.511155
0.528827
0.545102
0.559896
0.573157
0.584857
0.594985
0.603543
0.610538
0.615978
0.619874
0.622234
0.623063
0.622364
0.620136
0.616374
0.61107
0.604212
0.595787
0.58578
0.574179
0.560975
0.546165
0.529761
0.511792
0.491703
0.462157
0.422451
0.385061
0.351974
0.323422
0.299226
0.279094
0.26272
0.249813
0.240115
0.233407
0.229509
0.228291
0.22967
0.233611
0.240123
0.249253
0.261073
0.275657
0.293041
0.313125
0.33528
0.355536
0.366244
0.372996
0.37796
0.381211
0.382873
0.383115
0.381414
0.373433
0.360655
0.349132
0.340221
0.334121
0.331034
0.330904
0.333458
0.338105
0.344236
0.349978
0.353188
0.349283
0.343736
0.338182
0.33424
0.332691
0.334032
0.338531
0.346336
0.357454
0.371533
0.3879
0.403893
0.412035
0.415666
0.418213
0.419524
0.402584
0.402228
0.398789
0.388744
0.376844
0.367117
0.360827
0.358093
0.359004
0.363413
0.371073
0.380872
0.39023
0.392644
0.391113
0.388833
0.385629
0.379748
0.364091
0.346135
0.330409
0.317725
0.308351
0.302403
0.299961
0.301107
0.305942
0.314595
0.327221
0.343998
0.365112
0.390758
0.421045
0.45559
0.492047
0.517367
0.534638
0.550634
0.565438
0.578957
0.591127
0.601904
0.611263
0.61919
0.625677
0.630724
0.63433
0.636498
0.637228
0.636521
0.634375
0.630785
0.625748
0.619258
0.611307
0.601893
0.591012
0.578668
0.564872
0.549648
0.533029
0.515063
0.493592
0.460975
0.421977
0.386347
0.355265
0.328737
0.306528
0.288354
0.273945
0.263059
0.25549
0.251073
0.249686
0.251256
0.255756
0.2632
0.273633
0.287119
0.303709
0.32338
0.345831
0.369524
0.38543
0.393635
0.400031
0.404921
0.40839
0.410559
0.411596
0.411727
0.409706
0.402252
0.390378
0.380914
0.37434
0.37145
0.372253
0.376558
0.383278
0.39223
0.398043
0.399719
0.397855
0.391381
0.383178
0.377069
0.37401
0.374585
0.378954
0.387215
0.399353
0.414086
0.428957
0.437305
0.440767
0.443551
0.445512
0.446524
0.435802
0.435661
0.435456
0.432023
0.423631
0.413006
0.406038
0.402885
0.40405
0.409083
0.417581
0.425274
0.427913
0.426455
0.424692
0.422454
0.419614
0.416122
0.407191
0.388828
0.371144
0.356496
0.345539
0.338473
0.335405
0.336415
0.341595
0.351053
0.364922
0.38334
0.406391
0.434172
0.466586
0.501739
0.527004
0.543819
0.559184
0.573633
0.587058
0.599367
0.610488
0.62037
0.628974
0.636275
0.642257
0.646909
0.650225
0.6522
0.652831
0.652117
0.650056
0.646644
0.64188
0.635763
0.628293
0.619472
0.609307
0.597812
0.585008
0.570927
0.555614
0.539128
0.52155
0.49866
0.463858
0.426468
0.392896
0.363908
0.339448
0.3193
0.303238
0.291046
0.282538
0.277563
0.276009
0.277811
0.282946
0.29143
0.303302
0.318604
0.337331
0.359316
0.383727
0.404847
0.415332
0.422596
0.428571
0.433303
0.436869
0.439378
0.440982
0.441883
0.442343
0.441117
0.43593
0.427451
0.420553
0.418005
0.419657
0.425694
0.432744
0.437091
0.438828
0.438881
0.439421
0.437687
0.433206
0.42594
0.421645
0.421551
0.42569
0.434037
0.446746
0.457766
0.464681
0.467561
0.470139
0.472258
0.47376
0.474537
0.46916
0.469152
0.469205
0.469461
0.46749
0.46266
0.45645
0.452891
0.454352
0.458997
0.462749
0.463963
0.462218
0.460544
0.458748
0.456675
0.454233
0.451383
0.44782
0.436922
0.418277
0.401746
0.389187
0.380955
0.377231
0.378109
0.383682
0.394028
0.409255
0.429457
0.454421
0.483934
0.516867
0.540571
0.556469
0.570871
0.584644
0.597657
0.609795
0.620965
0.63109
0.640112
0.647987
0.654679
0.660167
0.664431
0.667459
0.669244
0.66978
0.669061
0.667087
0.663854
0.659365
0.653622
0.646628
0.638394
0.628933
0.618266
0.606421
0.593439
0.579371
0.564284
0.548263
0.531389
0.507738
0.472134
0.436667
0.405271
0.378445
0.356155
0.338277
0.32465
0.315115
0.309534
0.307808
0.309877
0.315722
0.325355
0.338799
0.356055
0.376966
0.400923
0.425166
0.438742
0.446309
0.452845
0.458352
0.462853
0.466406
0.469102
0.471071
0.47248
0.473539
0.474509
0.474932
0.472847
0.470188
0.468803
0.470032
0.472324
0.474113
0.473821
0.473381
0.473552
0.474332
0.475785
0.47645
0.47515
0.473496
0.473429
0.477152
0.483601
0.4898
0.493943
0.495941
0.498029
0.499971
0.501583
0.502731
0.503328
0.502527
0.502583
0.502743
0.5031
0.503797
0.503954
0.50234
0.500917
0.500821
0.501241
0.50021
0.49815
0.496396
0.494756
0.49308
0.491267
0.48926
0.487051
0.484679
0.481074
0.470599
0.4534
0.439579
0.430258
0.425909
0.426678
0.432707
0.443991
0.460583
0.482632
0.508807
0.537615
0.558454
0.572607
0.585741
0.59855
0.610866
0.622555
0.6335
0.643606
0.652795
0.661003
0.668181
0.67429
0.679299
0.683188
0.685938
0.687539
0.687982
0.687261
0.685375
0.682322
0.678105
0.67273
0.666204
0.658543
0.649765
0.639897
0.628972
0.617037
0.604147
0.590374
0.575802
0.56053
0.544579
0.521186
0.486479
0.45324
0.424101
0.399536
0.379684
0.364484
0.353824
0.347581
0.345669
0.348035
0.354657
0.365537
0.380663
0.399977
0.423003
0.447893
0.463872
0.471645
0.478289
0.484124
0.489139
0.49335
0.496798
0.499554
0.50172
0.503425
0.504826
0.506099
0.507427
0.508992
0.509835
0.509916
0.509969
0.509184
0.508055
0.507447
0.50729
0.507615
0.508447
0.509821
0.511771
0.514362
0.516051
0.517618
0.520107
0.522827
0.52419
0.525494
0.527041
0.528643
0.530132
0.531371
0.532255
0.532715
0.535838
0.535911
0.536083
0.536395
0.536889
0.53755
0.538298
0.538384
0.537328
0.535496
0.533681
0.532
0.530462
0.529002
0.527549
0.526052
0.524489
0.52288
0.52129
0.519842
0.517291
0.509437
0.496215
0.486393
0.481623
0.482318
0.488903
0.501061
0.518495
0.541756
0.563422
0.580273
0.592098
0.603736
0.61534
0.62672
0.637716
0.648196
0.658044
0.667165
0.67548
0.682925
0.689445
0.694999
0.699553
0.703082
0.705567
0.706992
0.707348
0.706628
0.704829
0.701953
0.698003
0.692987
0.686917
0.679809
0.671688
0.662583
0.652534
0.641589
0.629808
0.617263
0.60404
0.590238
0.575969
0.561213
0.539299
0.507481
0.4768
0.449971
0.428045
0.411158
0.399286
0.39232
0.390201
0.392884
0.400327
0.412512
0.429301
0.450545
0.474427
0.490889
0.49901
0.505325
0.511078
0.516221
0.520732
0.52461
0.527882
0.530597
0.53283
0.534675
0.536239
0.537635
0.538953
0.540222
0.541275
0.541875
0.541735
0.541296
0.540843
0.540623
0.540716
0.541171
0.54202
0.543281
0.544961
0.547031
0.549345
0.55159
0.553212
0.554397
0.555566
0.556792
0.558086
0.559369
0.560543
0.561513
0.562204
0.562563
0.569075
0.569141
0.569282
0.569507
0.569814
0.570151
0.570389
0.570233
0.569498
0.568327
0.567016
0.565707
0.56445
0.563242
0.562063
0.560902
0.559766
0.558692
0.557757
0.557087
0.556868
0.556537
0.552769
0.547488
0.543189
0.543889
0.551147
0.563726
0.578995
0.593294
0.605101
0.614653
0.624663
0.6349
0.645162
0.655273
0.665084
0.674468
0.683314
0.69153
0.699037
0.70577
0.711675
0.716707
0.720832
0.724022
0.726254
0.727514
0.727788
0.727072
0.725362
0.722659
0.718968
0.714299
0.708666
0.702089
0.694594
0.686215
0.676992
0.666977
0.656232
0.64483
0.632857
0.620413
0.607612
0.594587
0.581392
0.562256
0.535719
0.507539
0.483737
0.465167
0.452071
0.444322
0.441962
0.444967
0.453203
0.466638
0.484602
0.506413
0.521175
0.528765
0.534293
0.539566
0.544476
0.548952
0.552957
0.556477
0.559521
0.562122
0.564329
0.566205
0.567822
0.569247
0.570527
0.571663
0.572581
0.573182
0.573409
0.573422
0.573396
0.573486
0.57378
0.574334
0.575178
0.576324
0.577759
0.579434
0.581233
0.582976
0.584461
0.585718
0.586884
0.588022
0.589142
0.590206
0.591157
0.591934
0.592484
0.592769
0.602247
0.602296
0.602396
0.602539
0.602707
0.602849
0.602873
0.602649
0.602105
0.601296
0.60035
0.599363
0.598389
0.597452
0.59656
0.595727
0.594979
0.594364
0.593959
0.59388
0.594286
0.595385
0.597433
0.598298
0.599132
0.60213
0.608118
0.616248
0.624839
0.632083
0.639808
0.648188
0.656999
0.66604
0.675134
0.684126
0.69288
0.701277
0.709214
0.716603
0.723368
0.729443
0.734777
0.739324
0.743047
0.745919
0.747915
0.74902
0.749221
0.748511
0.746887
0.744352
0.740911
0.736575
0.73136
0.725287
0.718385
0.710689
0.702242
0.693095
0.683313
0.672968
0.662145
0.650944
0.63948
0.627886
0.616319
0.604952
0.589909
0.5701
0.54615
0.526517
0.512461
0.503867
0.501215
0.504536
0.513272
0.527399
0.544145
0.555323
0.561056
0.565405
0.569832
0.574172
0.578306
0.582155
0.585667
0.588819
0.591605
0.594041
0.596158
0.597994
0.599596
0.601005
0.602247
0.603323
0.604205
0.604862
0.605296
0.605585
0.605835
0.606144
0.606585
0.607207
0.608036
0.609078
0.610318
0.611711
0.613179
0.614618
0.615938
0.617129
0.61823
0.61927
0.620252
0.621156
0.621947
0.622583
0.623029
0.623259
0.635368
0.635402
0.635465
0.635547
0.635627
0.635666
0.635606
0.635386
0.634976
0.634401
0.633724
0.633006
0.632292
0.631615
0.630999
0.630468
0.63006
0.629825
0.629836
0.63019
0.631009
0.632438
0.634624
0.637659
0.641557
0.645806
0.650286
0.655125
0.660621
0.666913
0.673845
0.681294
0.689106
0.697127
0.705208
0.713217
0.721032
0.728546
0.735663
0.742301
0.748387
0.753859
0.758666
0.762763
0.766114
0.76869
0.770468
0.77143
0.771564
0.770863
0.769325
0.766951
0.763748
0.759729
0.75491
0.749314
0.74297
0.735914
0.72819
0.71985
0.710957
0.701582
0.69181
0.681738
0.671477
0.661158
0.650932
0.640981
0.63153
0.621187
0.607833
0.592959
0.579236
0.569845
0.566834
0.57036
0.578167
0.586366
0.592831
0.595764
0.598666
0.601966
0.605458
0.608982
0.612422
0.615693
0.618739
0.621525
0.624039
0.626281
0.628266
0.630018
0.631564
0.63293
0.634132
0.635175
0.636054
0.636767
0.637328
0.637789
0.638214
0.638669
0.63921
0.639873
0.640679
0.641634
0.642724
0.643914
0.645153
0.646381
0.647546
0.648629
0.649637
0.650575
0.651442
0.652221
0.652889
0.653421
0.653791
0.65398
0.668457
0.668478
0.668515
0.668558
0.668589
0.66858
0.668499
0.668314
0.668012
0.667609
0.667139
0.666643
0.666159
0.665718
0.665351
0.665087
0.664967
0.66504
0.66537
0.666034
0.667123
0.668734
0.670949
0.673809
0.677279
0.681189
0.685462
0.690146
0.695344
0.701103
0.707364
0.714035
0.721005
0.728152
0.735356
0.742502
0.749486
0.756211
0.762592
0.76855
0.774019
0.778941
0.783265
0.786948
0.789956
0.79226
0.793836
0.794667
0.794742
0.794053
0.792597
0.790378
0.787403
0.783684
0.779238
0.774089
0.768267
0.761808
0.754754
0.747159
0.739083
0.730595
0.721776
0.71272
0.703533
0.694336
0.685269
0.676494
0.6682
0.660599
0.653919
0.646275
0.638432
0.632244
0.629061
0.629012
0.630744
0.632026
0.632466
0.633846
0.635876
0.638337
0.641051
0.643878
0.646707
0.649457
0.65207
0.654506
0.656744
0.658776
0.660607
0.662248
0.663713
0.665018
0.666175
0.667191
0.668071
0.668821
0.669462
0.670028
0.670562
0.67111
0.671712
0.672394
0.673175
0.674056
0.675028
0.676067
0.677139
0.678206
0.679234
0.680206
0.681113
0.681953
0.682718
0.683396
0.683969
0.684421
0.684732
0.684891
0.701525
0.701537
0.701559
0.70158
0.701589
0.701567
0.701495
0.701357
0.70115
0.700883
0.70058
0.70027
0.699983
0.699749
0.699598
0.699563
0.699681
0.699999
0.700568
0.701452
0.702717
0.704425
0.706629
0.709347
0.712558
0.716198
0.720227
0.724653
0.729506
0.734792
0.740472
0.746479
0.752727
0.75912
0.76556
0.77195
0.778199
0.784222
0.789942
0.795288
0.800199
0.80462
0.808504
0.811809
0.814503
0.816557
0.817948
0.818661
0.818684
0.818008
0.816633
0.814562
0.811801
0.808364
0.804269
0.799538
0.794201
0.788295
0.781861
0.774949
0.767619
0.759937
0.75198
0.743834
0.735599
0.727384
0.719314
0.711527
0.704176
0.697419
0.691409
0.686243
0.682053
0.678548
0.675578
0.673099
0.67126
0.670446
0.670488
0.67128
0.672656
0.674454
0.676532
0.67877
0.681071
0.683359
0.685577
0.687684
0.689654
0.691474
0.693139
0.694653
0.696022
0.697255
0.698359
0.699344
0.700216
0.700985
0.701671
0.702297
0.702896
0.703498
0.704132
0.704818
0.705569
0.706387
0.707266
0.708188
0.70913
0.710069
0.710979
0.711846
0.712657
0.713406
0.714082
0.714675
0.715172
0.71556
0.715826
0.715961
0.73458
0.734588
0.734603
0.734616
0.73462
0.734604
0.734557
0.734471
0.734347
0.734193
0.734028
0.733873
0.733753
0.733696
0.73373
0.733885
0.734197
0.734705
0.735453
0.736491
0.737866
0.739622
0.741794
0.744393
0.74741
0.750818
0.754595
0.758734
0.763235
0.768086
0.773253
0.778682
0.784304
0.790041
0.795813
0.801538
0.807137
0.812536
0.817665
0.822462
0.826869
0.830837
0.83432
0.837282
0.839689
0.841516
0.84274
0.843346
0.843323
0.842664
0.841366
0.839435
0.836876
0.833704
0.829935
0.825592
0.820705
0.815309
0.809444
0.803158
0.796508
0.789555
0.782372
0.775038
0.767644
0.760286
0.753075
0.746125
0.739558
0.733493
0.728038
0.723266
0.719213
0.715794
0.712937
0.710632
0.708952
0.708007
0.707758
0.70813
0.709013
0.710291
0.711852
0.7136
0.715449
0.717331
0.719195
0.720998
0.722715
0.724326
0.725823
0.727203
0.728467
0.729619
0.730664
0.73161
0.732463
0.733234
0.733938
0.734595
0.735227
0.735855
0.7365
0.737178
0.737897
0.738659
0.739459
0.740287
0.741126
0.741959
0.742769
0.743541
0.744265
0.74493
0.745529
0.74605
0.746484
0.74682
0.74705
0.747167
0.767626
0.767634
0.767647
0.767661
0.767672
0.767672
0.767656
0.767623
0.767573
0.767516
0.767466
0.76744
0.767461
0.767553
0.76774
0.76805
0.768516
0.76917
0.770049
0.771191
0.772633
0.774405
0.776531
0.779021
0.781871
0.785069
0.7886
0.792452
0.796613
0.801065
0.805773
0.810692
0.815765
0.820928
0.826114
0.831253
0.836276
0.841119
0.845721
0.850025
0.853979
0.857537
0.860659
0.863309
0.865456
0.867077
0.86815
0.868661
0.868598
0.867956
0.866734
0.864935
0.862566
0.85964
0.856174
0.852191
0.84772
0.842792
0.837448
0.831732
0.825698
0.819404
0.812914
0.806303
0.799651
0.793043
0.786574
0.780339
0.774437
0.768959
0.763985
0.75957
0.755738
0.752468
0.749736
0.74754
0.745908
0.744871
0.744409
0.744469
0.744976
0.745844
0.746988
0.748327
0.749792
0.751323
0.752872
0.7544
0.755881
0.757293
0.758624
0.759869
0.761023
0.762089
0.763069
0.763968
0.764792
0.76555
0.766254
0.766919
0.76756
0.768194
0.768836
0.769496
0.77018
0.770892
0.771626
0.772375
0.773129
0.773873
0.774596
0.775285
0.77593
0.776522
0.777053
0.777513
0.777893
0.778187
0.778388
0.778489
0.800665
0.800674
0.80069
0.800711
0.800734
0.800756
0.800774
0.80079
0.800807
0.800832
0.800878
0.800961
0.801099
0.801313
0.801625
0.802061
0.802647
0.803411
0.804383
0.805593
0.807069
0.808833
0.810904
0.813288
0.815985
0.818987
0.822284
0.825861
0.829702
0.833786
0.838081
0.842547
0.847136
0.851793
0.856462
0.861082
0.865595
0.869944
0.874075
0.877937
0.881484
0.884674
0.88747
0.889838
0.891751
0.893185
0.894123
0.894548
0.894452
0.89383
0.892679
0.891004
0.888812
0.886115
0.88293
0.879279
0.875189
0.870691
0.865822
0.860625
0.855149
0.849446
0.843578
0.83761
0.831613
0.825663
0.819839
0.814222
0.808891
0.80392
0.799372
0.795291
0.791701
0.788604
0.785998
0.783884
0.78227
0.78116
0.780537
0.780362
0.780578
0.781122
0.781927
0.782929
0.784069
0.785297
0.78657
0.787851
0.789114
0.79034
0.791512
0.792624
0.793669
0.794646
0.795555
0.7964
0.797186
0.797919
0.798608
0.799265
0.799901
0.800527
0.801153
0.801789
0.802438
0.803101
0.803777
0.804459
0.80514
0.805809
0.806456
0.807072
0.807648
0.808176
0.808647
0.809054
0.80939
0.809648
0.809824
0.809913
0.833695
0.833706
0.833728
0.833758
0.833797
0.833843
0.833895
0.833957
0.834031
0.834127
0.834254
0.834427
0.834662
0.834975
0.835388
0.835922
0.836599
0.837443
0.838479
0.839729
0.841216
0.842956
0.844963
0.847242
0.849794
0.852612
0.855686
0.859005
0.862549
0.866297
0.870219
0.87428
0.878438
0.882647
0.886857
0.891018
0.895078
0.898987
0.902698
0.906165
0.909347
0.912206
0.914708
0.916822
0.918524
0.919791
0.920606
0.920957
0.920833
0.920231
0.919149
0.91759
0.915563
0.913078
0.910153
0.906807
0.903067
0.898961
0.894525
0.889798
0.884825
0.879655
0.874343
0.868946
0.863529
0.858156
0.852896
0.847817
0.842985
0.83846
0.834292
0.83052
0.827169
0.824251
0.821769
0.819728
0.818127
0.816963
0.816218
0.815862
0.815852
0.816138
0.816668
0.817392
0.818259
0.819227
0.820258
0.82132
0.822387
0.823439
0.824462
0.825445
0.826382
0.827269
0.828106
0.828893
0.829633
0.830332
0.830996
0.831633
0.832251
0.832858
0.833462
0.834069
0.834681
0.835299
0.835922
0.836545
0.837162
0.837766
0.838347
0.8389
0.839415
0.839886
0.840305
0.840667
0.840964
0.841192
0.841347
0.841425
0.866714
0.866728
0.866756
0.866798
0.866854
0.866923
0.867008
0.86711
0.867235
0.86739
0.867585
0.867832
0.868145
0.868538
0.86903
0.869639
0.870383
0.871284
0.87236
0.873629
0.875109
0.876813
0.878749
0.880924
0.883335
0.885979
0.888846
0.891923
0.895192
0.898633
0.902218
0.905916
0.90969
0.9135
0.917303
0.921055
0.924711
0.928228
0.931564
0.934678
0.937533
0.940095
0.942333
0.944219
0.945731
0.946848
0.947555
0.94784
0.947693
0.947112
0.946094
0.944645
0.94277
0.940482
0.937795
0.93473
0.931309
0.927561
0.923519
0.919217
0.914698
0.910006
0.905191
0.900303
0.895399
0.890536
0.885773
0.881167
0.876773
0.872642
0.868816
0.865329
0.862206
0.85946
0.857101
0.85513
0.853548
0.852347
0.851511
0.851016
0.850828
0.850909
0.851218
0.851711
0.852349
0.853095
0.853916
0.854783
0.855673
0.856567
0.857451
0.858313
0.859145
0.859944
0.860706
0.861431
0.862122
0.86278
0.863411
0.864019
0.864611
0.865193
0.865768
0.866343
0.866917
0.867493
0.868067
0.868637
0.869198
0.869744
0.870268
0.870765
0.871227
0.871648
0.872022
0.872343
0.872607
0.87281
0.872946
0.873016
0.899718
0.899736
0.899771
0.899825
0.899897
0.899989
0.900102
0.90024
0.900408
0.900613
0.900864
0.901171
0.901546
0.902003
0.902555
0.90322
0.904013
0.90495
0.906047
0.907319
0.908779
0.910436
0.912298
0.914368
0.916645
0.919124
0.921796
0.924648
0.927664
0.930825
0.934104
0.937475
0.940905
0.944359
0.947799
0.951187
0.954484
0.957651
0.960652
0.96345
0.966012
0.968308
0.970309
0.971991
0.973333
0.974316
0.974927
0.975153
0.974989
0.974428
0.973472
0.972124
0.970391
0.968284
0.965817
0.963008
0.959879
0.956457
0.952771
0.948854
0.944744
0.940482
0.93611
0.931676
0.927228
0.922817
0.918492
0.914304
0.910298
0.906518
0.903001
0.899775
0.896865
0.894284
0.892042
0.890144
0.888587
0.887364
0.886463
0.885863
0.885537
0.885454
0.885582
0.885885
0.886331
0.886887
0.887527
0.888223
0.888956
0.889707
0.890462
0.89121
0.891943
0.892655
0.893343
0.894005
0.894642
0.895256
0.895848
0.896422
0.896982
0.897533
0.898077
0.898616
0.899153
0.899687
0.900216
0.900738
0.901249
0.901744
0.902217
0.902664
0.903079
0.903456
0.90379
0.904077
0.904312
0.904492
0.904614
0.904675
0.932705
0.932726
0.932768
0.932833
0.93292
0.933032
0.933171
0.93334
0.933545
0.933791
0.934087
0.934442
0.934866
0.935371
0.935969
0.936673
0.937498
0.938456
0.939559
0.940821
0.94225
0.943855
0.94564
0.947606
0.949753
0.952076
0.954565
0.957209
0.959992
0.962897
0.9659
0.968976
0.972097
0.975231
0.978347
0.98141
0.984386
0.987241
0.989942
0.992457
0.994758
0.996815
0.998604
1.0001
1.00129
1.00216
1.00268
1.00286
1.00268
1.00214
1.00124
0.999989
0.998387
0.996446
0.99418
0.991605
0.988742
0.985616
0.982253
0.978684
0.974943
0.971066
0.967092
0.963063
0.959021
0.955011
0.951076
0.947258
0.943598
0.940132
0.936893
0.933907
0.931194
0.928769
0.926641
0.924816
0.923291
0.922061
0.921115
0.920435
0.920002
0.919789
0.91977
0.919917
0.920202
0.920597
0.92108
0.921627
0.92222
0.922842
0.923479
0.924122
0.924761
0.92539
0.926005
0.926605
0.927187
0.927752
0.928302
0.928838
0.929363
0.92988
0.930389
0.930893
0.931392
0.931886
0.932373
0.93285
0.933316
0.933765
0.934193
0.934596
0.934969
0.935307
0.935607
0.935863
0.936073
0.936233
0.936341
0.936396
0.96567
0.965695
0.965744
0.965818
0.965919
0.966049
0.966209
0.966405
0.96664
0.96692
0.967252
0.967644
0.968105
0.968646
0.969276
0.970007
0.97085
0.971815
0.972914
0.974155
0.975546
0.977093
0.978799
0.980664
0.982686
0.984861
0.987179
0.98963
0.992199
0.99487
0.997622
1.00043
1.00327
1.00612
1.00895
1.01172
1.01441
1.01698
1.01942
1.02168
1.02375
1.02559
1.02719
1.02853
1.02958
1.03034
1.03079
1.03092
1.03073
1.03021
1.02937
1.0282
1.02672
1.02493
1.02285
1.02049
1.01787
1.01501
1.01194
1.00869
1.00528
1.00175
0.998129
0.994462
0.990783
0.98713
0.983542
0.980054
0.976703
0.97352
0.970532
0.967764
0.965234
0.962956
0.960939
0.959187
0.9577
0.956474
0.955499
0.954762
0.954246
0.95393
0.953793
0.953811
0.953961
0.954221
0.954569
0.954986
0.955455
0.955961
0.956492
0.957037
0.957588
0.958139
0.958684
0.959221
0.959748
0.960264
0.96077
0.961266
0.961753
0.962233
0.962707
0.963174
0.963636
0.964091
0.964538
0.964975
0.965399
0.965806
0.966194
0.966558
0.966893
0.967197
0.967466
0.967695
0.967883
0.968026
0.968123
0.968171
0.998611
0.998639
0.998693
0.998777
0.99889
0.999035
0.999213
0.99943
0.999689
0.999996
1.00036
1.00078
1.00126
1.00183
1.00248
1.00323
1.00408
1.00504
1.00613
1.00734
1.00869
1.01017
1.0118
1.01356
1.01547
1.0175
1.01966
1.02193
1.02431
1.02676
1.02929
1.03185
1.03445
1.03704
1.0396
1.04211
1.04455
1.04687
1.04906
1.0511
1.05296
1.05461
1.05604
1.05723
1.05816
1.05883
1.05921
1.0593
1.0591
1.05861
1.05782
1.05673
1.05536
1.05371
1.0518
1.04963
1.04723
1.04462
1.04181
1.03884
1.03573
1.03251
1.02922
1.02587
1.02252
1.01918
1.01591
1.01271
1.00964
1.00671
1.00395
1.00138
0.999023
0.996882
0.994971
0.993293
0.991849
0.990636
0.989646
0.988868
0.988289
0.987893
0.98766
0.987573
0.987611
0.987755
0.987988
0.988293
0.988653
0.989057
0.989491
0.989947
0.990416
0.990893
0.991371
0.991848
0.99232
0.992787
0.993248
0.993703
0.994151
0.994593
0.99503
0.995461
0.995886
0.996304
0.996714
0.997113
0.997498
0.997868
0.998219
0.998547
0.99885
0.999123
0.999364
0.99957
0.999738
0.999866
0.999952
0.999995
1.03153
1.03155
1.03161
1.03171
1.03183
1.03199
1.03218
1.03241
1.03269
1.03302
1.0334
1.03384
1.03435
1.03493
1.03559
1.03635
1.03719
1.03815
1.03921
1.04039
1.04169
1.04311
1.04466
1.04633
1.04812
1.05002
1.05203
1.05414
1.05633
1.05859
1.0609
1.06325
1.06562
1.06798
1.07031
1.07259
1.07479
1.07689
1.07887
1.0807
1.08237
1.08385
1.08513
1.08619
1.08701
1.08759
1.08792
1.08798
1.08778
1.0873