/*--------------------------------*- C++ -*----------------------------------*\
| =========                 |                                                 |
| \\      /  F ield         | OpenFOAM: The Open Source CFD Toolbox           |
|  \\    /   O peration     | Version:  2406                                  |
|   \\  /    A nd           | Website:  www.openfoam.com                      |
|    \\/     M anipulation  |                                                 |
\*---------------------------------------------------------------------------*/
FoamFile
{
    version     2.0;
    format      ascii;
    arch        "LSB;label=32;scalar=64";
    class       volScalarField;
    location    "9.7";
    object      C_0_0;
}
// * * * * * * * * * * * * * * * * * * * * * * * * * * * * * * * * * * * * * //

dimensions      [1 -3 0 0 0 0 0];

internalField   nonuniform List<scalar> 
14400
(
0.212574
0.211843
0.210548
0.208947
0.207312
0.205883
0.204839
0.204294
0.204288
0.204791
0.205697
0.206826
0.20792
0.208656
0.208685
0.207713
0.205637
0.202646
0.199101
0.1954
0.191906
0.188927
0.186718
0.185497
0.185469
0.186842
0.189847
0.194745
0.201831
0.211419
0.22383
0.239385
0.258404
0.2812
0.308074
0.339259
0.374797
0.414092
0.453954
0.48313
0.502656
0.519261
0.533293
0.544939
0.554344
0.561619
0.566845
0.570081
0.571367
0.57072
0.568146
0.563628
0.557134
0.548615
0.537996
0.525179
0.510035
0.492398
0.471758
0.440959
0.399774
0.36038
0.325025
0.294108
0.267541
0.245072
0.226393
0.211172
0.199059
0.189684
0.182675
0.177686
0.174429
0.172688
0.172307
0.173185
0.175261
0.178507
0.18292
0.188515
0.195316
0.203338
0.212553
0.222846
0.233933
0.24519
0.255136
0.260745
0.259871
0.254633
0.247532
0.240082
0.232946
0.226479
0.220872
0.216209
0.212492
0.209672
0.207651
0.206304
0.205486
0.205049
0.204869
0.204863
0.205012
0.205373
0.206064
0.207249
0.209112
0.211843
0.21562
0.220597
0.226894
0.234577
0.243641
0.253975
0.265307
0.277101
0.288231
0.29537
0.217318
0.216409
0.214828
0.212914
0.210997
0.209347
0.20816
0.207557
0.207581
0.208201
0.209311
0.210721
0.212153
0.213239
0.213544
0.212645
0.210339
0.206936
0.20293
0.1988
0.194944
0.191683
0.189271
0.187923
0.187841
0.189229
0.192314
0.197354
0.204636
0.214466
0.22716
0.243037
0.262415
0.285614
0.312938
0.344633
0.380761
0.420633
0.459095
0.486372
0.50548
0.521836
0.535678
0.547179
0.556475
0.563667
0.568835
0.572033
0.573298
0.572649
0.570089
0.565603
0.559161
0.550714
0.540193
0.527505
0.512529
0.495109
0.474977
0.445845
0.4057
0.365811
0.329874
0.298432
0.271395
0.248499
0.22943
0.213851
0.201416
0.191761
0.18452
0.179353
0.175972
0.174156
0.173747
0.174641
0.176778
0.180132
0.184704
0.190516
0.197601
0.20598
0.215636
0.226466
0.238202
0.250217
0.260704
0.266198
0.265918
0.260463
0.252862
0.244938
0.237389
0.230577
0.224697
0.219832
0.215987
0.213105
0.211083
0.209784
0.209043
0.208691
0.208576
0.208593
0.208718
0.209018
0.209633
0.210753
0.212588
0.215342
0.219206
0.224342
0.230871
0.238863
0.248315
0.259123
0.271016
0.283425
0.294973
0.30165
0.227316
0.225984
0.223763
0.221174
0.218661
0.216552
0.215071
0.214348
0.214429
0.215285
0.216806
0.218792
0.220933
0.222785
0.223744
0.223067
0.220189
0.215846
0.210845
0.205816
0.201218
0.197383
0.194561
0.192959
0.192767
0.194182
0.197424
0.202738
0.210398
0.220699
0.233944
0.250451
0.270538
0.294526
0.32272
0.355353
0.392448
0.43305
0.468485
0.492576
0.511043
0.526925
0.540403
0.551626
0.560708
0.567741
0.572794
0.575917
0.577143
0.576489
0.573957
0.569534
0.563193
0.554888
0.544557
0.532119
0.517468
0.500472
0.480969
0.454917
0.417395
0.376564
0.339561
0.30713
0.279182
0.255451
0.235614
0.219334
0.206264
0.196053
0.188349
0.182821
0.179184
0.177212
0.176742
0.177667
0.179927
0.183501
0.188399
0.194654
0.202312
0.211408
0.221938
0.233809
0.24676
0.260117
0.27132
0.276544
0.277075
0.271936
0.263605
0.254819
0.246478
0.238999
0.23259
0.227338
0.223247
0.220256
0.218249
0.217065
0.216503
0.216343
0.216377
0.216449
0.216518
0.216674
0.217113
0.218082
0.219839
0.222622
0.226644
0.232077
0.239049
0.247633
0.25783
0.269538
0.282492
0.296048
0.30792
0.313171
0.24358
0.241408
0.238037
0.234315
0.230841
0.228009
0.226068
0.225155
0.225319
0.226529
0.228673
0.231547
0.234817
0.237967
0.240179
0.240138
0.23601
0.229951
0.223294
0.216846
0.211104
0.206395
0.202952
0.200961
0.200598
0.202043
0.205501
0.211201
0.219399
0.230372
0.244417
0.261843
0.282969
0.308114
0.337564
0.371485
0.409628
0.449984
0.480663
0.501566
0.519191
0.534416
0.547385
0.558212
0.56699
0.573795
0.578684
0.581699
0.582868
0.582207
0.579716
0.575384
0.569188
0.561087
0.551029
0.538946
0.524752
0.50834
0.489582
0.466903
0.43353
0.39231
0.354101
0.320324
0.29107
0.266118
0.245158
0.227851
0.213854
0.202827
0.194435
0.188361
0.184329
0.182112
0.181543
0.182512
0.184962
0.188877
0.194277
0.201211
0.209737
0.219907
0.231725
0.245095
0.259705
0.274644
0.286087
0.291021
0.292271
0.288923
0.279981
0.270023
0.260568
0.25214
0.244978
0.239181
0.234758
0.231641
0.229702
0.228744
0.228514
0.228712
0.229026
0.229202
0.229155
0.229035
0.229141
0.229818
0.231399
0.234176
0.238388
0.244224
0.251814
0.261231
0.272473
0.285419
0.29973
0.314431
0.325282
0.328947
0.267574
0.263736
0.258453
0.253021
0.248172
0.244335
0.241761
0.240585
0.240852
0.242528
0.245503
0.249575
0.254415
0.259484
0.263827
0.265404
0.258659
0.249826
0.240769
0.232364
0.225081
0.219204
0.214928
0.212409
0.211799
0.213258
0.216968
0.223138
0.232005
0.24383
0.258898
0.277512
0.29999
0.326639
0.357715
0.393291
0.432673
0.469522
0.494331
0.513146
0.529737
0.544164
0.556509
0.566847
0.575247
0.581765
0.586447
0.589326
0.590424
0.589754
0.587316
0.5831
0.577086
0.569243
0.559527
0.547885
0.534253
0.518554
0.500706
0.480584
0.452797
0.413198
0.373716
0.338249
0.30731
0.280775
0.258357
0.239723
0.224533
0.212456
0.203171
0.196379
0.191816
0.189264
0.188557
0.189587
0.192297
0.196679
0.202766
0.210616
0.220301
0.231882
0.245368
0.26065
0.2773
0.293759
0.304124
0.308911
0.310773
0.309652
0.301919
0.290827
0.280064
0.270473
0.262376
0.255911
0.2511
0.247883
0.246116
0.245568
0.245913
0.246738
0.247556
0.247921
0.247644
0.247015
0.246523
0.246675
0.247911
0.250588
0.254977
0.261278
0.269622
0.28007
0.292602
0.307045
0.322841
0.337855
0.345475
0.348145
0.300704
0.293739
0.285588
0.277835
0.271201
0.266083
0.262712
0.261205
0.261594
0.263841
0.267833
0.273371
0.280135
0.287561
0.294292
0.294922
0.287743
0.275591
0.263581
0.252788
0.243625
0.236314
0.231004
0.227817
0.226874
0.228312
0.23229
0.238994
0.248642
0.261479
0.277777
0.29783
0.321945
0.350403
0.38338
0.420634
0.460085
0.489434
0.509472
0.526948
0.542447
0.555996
0.567639
0.57742
0.585385
0.591571
0.596013
0.598733
0.599749
0.599069
0.596693
0.592614
0.586814
0.579271
0.569951
0.558815
0.54582
0.530916
0.51406
0.49522
0.472838
0.43931
0.398611
0.361175
0.328218
0.299764
0.275574
0.255333
0.238709
0.225375
0.215022
0.207367
0.202163
0.199202
0.198328
0.199439
0.202484
0.207461
0.214411
0.223399
0.234505
0.247793
0.263269
0.280788
0.299709
0.316317
0.324803
0.329688
0.332137
0.332277
0.328333
0.317342
0.305354
0.294473
0.285296
0.278064
0.272839
0.269582
0.26815
0.268278
0.269562
0.271445
0.273167
0.2739
0.27315
0.271599
0.270085
0.26936
0.269999
0.272424
0.276935
0.283732
0.292932
0.304562
0.318552
0.33462
0.351629
0.363364
0.367864
0.370008
0.33654
0.330306
0.319323
0.308967
0.300281
0.293671
0.28937
0.287476
0.28801
0.290919
0.296075
0.303237
0.312017
0.321427
0.326564
0.324954
0.319984
0.30665
0.291794
0.278425
0.26715
0.25819
0.251667
0.247677
0.246314
0.24769
0.251943
0.259238
0.269773
0.283775
0.301499
0.323225
0.349231
0.379746
0.414793
0.45342
0.486843
0.50877
0.526608
0.542728
0.557105
0.569735
0.58063
0.58981
0.5973
0.603123
0.607299
0.609844
0.610769
0.610079
0.607774
0.603847
0.598287
0.591075
0.58219
0.571605
0.559295
0.545232
0.529398
0.511789
0.492419
0.466538
0.428381
0.389309
0.354144
0.323478
0.297224
0.275113
0.256828
0.24205
0.230479
0.221845
0.215915
0.212496
0.211445
0.212668
0.216123
0.221814
0.229784
0.240106
0.252859
0.268099
0.285796
0.305643
0.326288
0.340648
0.347942
0.3529
0.35581
0.356793
0.355972
0.34935
0.336734
0.324552
0.314186
0.306113
0.300457
0.297243
0.296352
0.297501
0.300212
0.303808
0.307121
0.308647
0.306865
0.303712
0.300553
0.298479
0.298194
0.300175
0.304726
0.312031
0.322165
0.335056
0.350492
0.367741
0.382456
0.389044
0.392329
0.394014
0.369908
0.367658
0.358513
0.346269
0.335582
0.32738
0.322073
0.319762
0.320469
0.324114
0.330525
0.339273
0.349558
0.357768
0.358493
0.356353
0.352796
0.342389
0.325433
0.309543
0.296037
0.285267
0.277381
0.272466
0.270601
0.27188
0.27642
0.284367
0.295898
0.31122
0.330561
0.354171
0.382268
0.414899
0.451481
0.487532
0.511519
0.529188
0.545461
0.560253
0.573511
0.585208
0.595335
0.603891
0.610883
0.616322
0.620217
0.622576
0.623405
0.622705
0.620477
0.616714
0.61141
0.604552
0.596128
0.586122
0.574522
0.561318
0.54651
0.530108
0.512141
0.492074
0.462593
0.422887
0.38547
0.352349
0.323762
0.299533
0.279371
0.262969
0.250039
0.240322
0.233598
0.229688
0.228462
0.229837
0.233776
0.240291
0.249427
0.261255
0.275849
0.293246
0.313344
0.33551
0.35576
0.366451
0.373199
0.37816
0.381409
0.38307
0.383313
0.381622
0.373658
0.36087
0.349338
0.340421
0.334316
0.331227
0.331098
0.333657
0.33831
0.344453
0.35021
0.353421
0.349514
0.343956
0.338391
0.334443
0.332889
0.33423
0.338733
0.346546
0.357674
0.371767
0.388139
0.4041
0.41222
0.41585
0.418395
0.419706
0.402776
0.402421
0.399001
0.388987
0.37708
0.367343
0.361052
0.358319
0.359233
0.363648
0.371322
0.381131
0.390465
0.392864
0.391335
0.38906
0.385863
0.380006
0.364375
0.346411
0.330677
0.317988
0.308613
0.302667
0.300231
0.301387
0.306237
0.314907
0.327556
0.344358
0.365498
0.391171
0.421487
0.456058
0.492499
0.517748
0.535
0.550993
0.565794
0.57931
0.591478
0.602253
0.61161
0.619534
0.62602
0.631065
0.634671
0.636838
0.637568
0.63686
0.634713
0.631124
0.626087
0.619596
0.611647
0.602233
0.591353
0.57901
0.565216
0.549993
0.533376
0.515413
0.493989
0.461453
0.422439
0.386776
0.355657
0.329094
0.306852
0.28865
0.274216
0.263309
0.255723
0.251293
0.249898
0.251463
0.255962
0.263408
0.273846
0.28734
0.303942
0.323626
0.34609
0.369785
0.38566
0.393854
0.400244
0.40513
0.408596
0.410764
0.4118
0.411932
0.409926
0.402493
0.390612
0.381148
0.374568
0.371674
0.37248
0.376791
0.383512
0.392474
0.398265
0.399938
0.398082
0.391634
0.383418
0.377309
0.374241
0.374814
0.379186
0.387456
0.399604
0.414347
0.429175
0.437495
0.440953
0.443736
0.445696
0.446708
0.435998
0.435858
0.435656
0.432248
0.423894
0.413261
0.406297
0.403149
0.404316
0.409348
0.41786
0.42552
0.428139
0.426682
0.424923
0.42269
0.419858
0.416376
0.407488
0.389143
0.371454
0.356804
0.345848
0.338785
0.335724
0.336744
0.341939
0.351416
0.365309
0.383753
0.406831
0.434632
0.467062
0.50222
0.527411
0.544184
0.559543
0.573989
0.587411
0.599717
0.610836
0.620715
0.629317
0.636617
0.642598
0.647248
0.650563
0.652537
0.653168
0.652454
0.650392
0.64698
0.642217
0.6361
0.62863
0.61981
0.609646
0.598153
0.58535
0.571271
0.555959
0.539475
0.521899
0.49907
0.464365
0.426954
0.393346
0.364322
0.339827
0.319647
0.303558
0.291344
0.282819
0.27783
0.276266
0.278063
0.283197
0.291682
0.303559
0.31887
0.337608
0.359607
0.384029
0.405111
0.415568
0.422824
0.428793
0.433521
0.437083
0.439589
0.441191
0.442091
0.442551
0.441342
0.436175
0.42772
0.420807
0.418254
0.419912
0.425959
0.432983
0.437308
0.439027
0.439077
0.439624
0.437911
0.433457
0.426217
0.421904
0.421808
0.425949
0.434303
0.447013
0.45799
0.464875
0.46775
0.470327
0.472445
0.473945
0.474723
0.469361
0.469354
0.469408
0.469667
0.467723
0.46292
0.456738
0.453191
0.454648
0.459271
0.462999
0.464191
0.462446
0.460776
0.458984
0.456918
0.454484
0.451644
0.448109
0.437267
0.41863
0.4021
0.389548
0.381321
0.377604
0.378494
0.384082
0.394448
0.409699
0.42993
0.454922
0.484435
0.517359
0.54099
0.556835
0.571231
0.585
0.598009
0.610144
0.621311
0.631435
0.640455
0.648328
0.655019
0.660505
0.664768
0.667795
0.66958
0.670115
0.669396
0.667421
0.664189
0.6597
0.653956
0.646964
0.63873
0.62927
0.618604
0.606761
0.593781
0.579714
0.564629
0.54861
0.53174
0.508162
0.472658
0.437176
0.405747
0.378884
0.356559
0.338652
0.325001
0.315447
0.309852
0.308116
0.31018
0.316022
0.325656
0.339104
0.356367
0.377288
0.401254
0.425472
0.438999
0.446554
0.453082
0.458582
0.463077
0.466625
0.469319
0.471285
0.472691
0.473749
0.474716
0.475153
0.473082
0.470436
0.469056
0.470274
0.472551
0.474324
0.474016
0.473577
0.473748
0.474528
0.475981
0.476668
0.475387
0.473758
0.473705
0.477423
0.483847
0.490021
0.494136
0.496131
0.498218
0.500159
0.50177
0.502918
0.503514
0.502731
0.502788
0.502948
0.503306
0.504004
0.504182
0.502582
0.501167
0.501071
0.501481
0.500433
0.498377
0.496627
0.494991
0.493321
0.491514
0.489516
0.487316
0.484957
0.481397
0.470987
0.453797
0.44
0.43068
0.426341
0.427123
0.433167
0.444469
0.461088
0.483166
0.50937
0.538093
0.558868
0.57297
0.5861
0.598904
0.611217
0.622903
0.633845
0.643949
0.653136
0.661343
0.668519
0.674626
0.679634
0.683522
0.686272
0.687872
0.688314
0.687593
0.685707
0.682654
0.678437
0.673062
0.666538
0.658877
0.6501
0.640233
0.62931
0.617376
0.604488
0.590717
0.576147
0.560879
0.54494
0.521627
0.487027
0.453779
0.424604
0.400001
0.380119
0.364894
0.354214
0.347957
0.346034
0.348394
0.355013
0.365893
0.38102
0.400339
0.423371
0.448252
0.464165
0.471909
0.478542
0.484367
0.489376
0.49358
0.497023
0.499775
0.501937
0.503639
0.505037
0.506308
0.507632
0.509194
0.510049
0.510134
0.510178
0.509378
0.50825
0.507643
0.507486
0.507811
0.508643
0.510016
0.511965
0.514559
0.51627
0.517845
0.520329
0.523032
0.524379
0.525684
0.527231
0.528832
0.53032
0.531558
0.532443
0.532903
0.536044
0.536118
0.53629
0.536603
0.537097
0.537757
0.538502
0.53859
0.537538
0.535713
0.533904
0.532228
0.530695
0.52924
0.527793
0.526302
0.524748
0.523148
0.521568
0.520133
0.517633
0.509842
0.496699
0.486867
0.482116
0.482831
0.489426
0.501589
0.519045
0.542314
0.563875
0.580661
0.592455
0.604091
0.615691
0.627068
0.638062
0.648539
0.658385
0.667504
0.675818
0.68326
0.689779
0.695332
0.699885
0.703414
0.705897
0.707322
0.707677
0.706957
0.705159
0.702283
0.698333
0.693317
0.687247
0.680141
0.67202
0.662917
0.652869
0.641926
0.630146
0.617604
0.604383
0.590585
0.57632
0.561584
0.539752
0.508071
0.477367
0.450498
0.428546
0.411632
0.399741
0.392761
0.39063
0.393305
0.400743
0.412928
0.429713
0.450959
0.474841
0.491224
0.499293
0.505594
0.511336
0.51647
0.520973
0.524845
0.528111
0.530821
0.533051
0.534892
0.536453
0.537845
0.539159
0.540424
0.541474
0.54207
0.54193
0.541492
0.541038
0.540819
0.540912
0.541367
0.542215
0.543476
0.545154
0.547223
0.549534
0.551776
0.553398
0.554586
0.555755
0.556981
0.558275
0.559558
0.560731
0.561701
0.562392
0.56275
0.569284
0.56935
0.569491
0.569717
0.570024
0.570361
0.570599
0.570445
0.569714
0.568546
0.567241
0.565937
0.564685
0.563482
0.562309
0.561155
0.560025
0.55896
0.558035
0.557375
0.557167
0.55688
0.553167
0.547965
0.543728
0.54446
0.55172
0.564269
0.579477
0.593714
0.605453
0.615002
0.625011
0.635247
0.645507
0.655616
0.665425
0.674806
0.683651
0.691865
0.69937
0.706102
0.712006
0.717037
0.721161
0.72435
0.726582
0.727841
0.728115
0.727399
0.725688
0.722985
0.719295
0.714626
0.708994
0.702418
0.694924
0.686546
0.677324
0.667311
0.656568
0.645168
0.633197
0.620757
0.60796
0.59494
0.581761
0.562717
0.536327
0.508115
0.484307
0.465707
0.452594
0.444834
0.442462
0.445455
0.453684
0.467122
0.485062
0.506863
0.521538
0.529064
0.534578
0.539839
0.544737
0.549205
0.553202
0.556715
0.559754
0.562349
0.564552
0.566424
0.568037
0.569459
0.570736
0.571868
0.572783
0.573381
0.573607
0.573619
0.573593
0.573683
0.573977
0.57453
0.575374
0.576519
0.577953
0.579626
0.581424
0.583164
0.584649
0.585907
0.587073
0.588211
0.589331
0.590395
0.591346
0.592123
0.592672
0.592957
0.602458
0.602508
0.602607
0.602752
0.60292
0.603062
0.603088
0.602865
0.602324
0.601518
0.600577
0.599595
0.598626
0.597693
0.596808
0.595981
0.595239
0.594632
0.594235
0.594165
0.594579
0.595687
0.597748
0.59867
0.599541
0.602557
0.608545
0.616654
0.625207
0.632421
0.640148
0.648529
0.657339
0.666379
0.675472
0.684463
0.693215
0.701611
0.709546
0.716934
0.723697
0.729772
0.735104
0.73965
0.743373
0.746243
0.748239
0.749344
0.749544
0.748834
0.747211
0.744676
0.741235
0.736899
0.731685
0.725613
0.718712
0.711017
0.702571
0.693426
0.683646
0.673302
0.662482
0.651284
0.639824
0.628234
0.616673
0.605315
0.590367
0.570665
0.546791
0.527114
0.513053
0.504458
0.501795
0.505093
0.513809
0.527956
0.5446
0.555701
0.561369
0.565703
0.570117
0.574446
0.57857
0.58241
0.585915
0.589059
0.59184
0.594271
0.596383
0.598215
0.599814
0.601219
0.602457
0.60353
0.604409
0.605064
0.605497
0.605785
0.606033
0.606342
0.606782
0.607403
0.608231
0.609273
0.610512
0.611904
0.61337
0.614809
0.616128
0.617318
0.618419
0.619459
0.620442
0.621346
0.622136
0.622772
0.623218
0.623448
0.635582
0.635615
0.635679
0.635762
0.635842
0.635882
0.635823
0.635605
0.635198
0.634626
0.633953
0.633239
0.63253
0.631858
0.631247
0.630722
0.63032
0.630092
0.63011
0.630471
0.631297
0.632733
0.634925
0.637961
0.64186
0.646114
0.650598
0.655442
0.660947
0.667242
0.674175
0.681626
0.689438
0.697459
0.70554
0.713548
0.721362
0.728874
0.73599
0.742627
0.748712
0.754183
0.758989
0.763086
0.766436
0.769011
0.770789
0.77175
0.771884
0.771183
0.769645
0.767271
0.764069
0.760051
0.755232
0.749637
0.743294
0.736239
0.728516
0.720178
0.711287
0.701914
0.692144
0.682075
0.671817
0.661501
0.65128
0.641334
0.631889
0.621611
0.608329
0.593544
0.579874
0.570504
0.567482
0.570964
0.578695
0.586805
0.593203
0.596084
0.598973
0.602262
0.605742
0.609256
0.612687
0.61595
0.618988
0.621768
0.624275
0.626512
0.628493
0.630241
0.631783
0.633145
0.634344
0.635384
0.63626
0.63697
0.63753
0.637989
0.638413
0.638868
0.639407
0.640069
0.640875
0.641829
0.642917
0.644107
0.645345
0.646572
0.647736
0.648819
0.649827
0.650765
0.651631
0.65241
0.653079
0.65361
0.65398
0.654169
0.668672
0.668693
0.66873
0.668774
0.668806
0.668798
0.668718
0.668535
0.668236
0.667836
0.66737
0.666878
0.666398
0.665962
0.665599
0.665341
0.665226
0.665305
0.665641
0.666311
0.667407
0.669023
0.671243
0.674105
0.677578
0.681492
0.68577
0.690458
0.695661
0.701424
0.707687
0.71436
0.72133
0.728477
0.735681
0.742827
0.74981
0.756535
0.762914
0.768872
0.77434
0.779261
0.783584
0.787267
0.790275
0.792578
0.794153
0.794985
0.795059
0.79437
0.792914
0.790696
0.787721
0.784002
0.779557
0.774409
0.768588
0.762129
0.755077
0.747483
0.739408
0.730922
0.722106
0.713053
0.703868
0.694674
0.68561
0.676839
0.668549
0.660951
0.65428
0.646699
0.638893
0.632719
0.629531
0.629457
0.631144
0.632359
0.632788
0.634159
0.636178
0.638629
0.641333
0.64415
0.646972
0.649714
0.652319
0.654749
0.656982
0.659009
0.660836
0.662472
0.663933
0.665235
0.666388
0.667401
0.668278
0.669027
0.669666
0.670229
0.670762
0.67131
0.67191
0.672592
0.673371
0.674251
0.675222
0.67626
0.677331
0.678397
0.679425
0.680396
0.681303
0.682143
0.682908
0.683585
0.684159
0.68461
0.684921
0.68508
0.701741
0.701754
0.701776
0.701798
0.701808
0.701787
0.701716
0.701581
0.701376
0.701112
0.700812
0.700505
0.700222
0.699992
0.699846
0.699816
0.69994
0.700262
0.700837
0.701727
0.702996
0.70471
0.706918
0.70964
0.712854
0.716497
0.72053
0.72496
0.729817
0.735105
0.740788
0.746797
0.753046
0.759439
0.765879
0.772269
0.778518
0.78454
0.79026
0.795605
0.800516
0.804936
0.808819
0.812124
0.814817
0.816871
0.818263
0.818975
0.818998
0.818322
0.816947
0.814876
0.812116
0.808679
0.804584
0.799854
0.794518
0.788613
0.78218
0.77527
0.767941
0.760261
0.752305
0.744162
0.735928
0.727716
0.719648
0.711864
0.704515
0.69776
0.69175
0.686579
0.682384
0.678876
0.675903
0.67342
0.671581
0.670765
0.6708
0.671585
0.672952
0.674741
0.676811
0.679041
0.681335
0.683616
0.685827
0.687928
0.689892
0.691707
0.693368
0.694878
0.696243
0.697472
0.698574
0.699555
0.700425
0.701192
0.701875
0.7025
0.703097
0.703698
0.704331
0.705016
0.705766
0.706583
0.70746
0.708381
0.709323
0.710261
0.711171
0.712037
0.712848
0.713596
0.714272
0.714865
0.715361
0.715749
0.716015
0.71615
0.734798
0.734807
0.734821
0.734836
0.734841
0.734825
0.73478
0.734696
0.734574
0.734423
0.734261
0.734109
0.733993
0.73394
0.733977
0.734137
0.734454
0.734966
0.73572
0.736762
0.738141
0.739903
0.742078
0.744681
0.747702
0.751113
0.754893
0.759035
0.763539
0.768394
0.773563
0.778993
0.784616
0.790354
0.796127
0.801852
0.807451
0.812849
0.817978
0.822775
0.827181
0.831149
0.834632
0.837593
0.84
0.841826
0.843051
0.843657
0.843633
0.842974
0.841677
0.839746
0.837188
0.834015
0.830247
0.825905
0.821019
0.815623
0.809759
0.803475
0.796826
0.789874
0.782693
0.775361
0.767968
0.760612
0.753403
0.746454
0.739889
0.733825
0.728369
0.723594
0.719537
0.716114
0.713255
0.710947
0.709264
0.708316
0.708062
0.708428
0.709304
0.710574
0.712128
0.713868
0.71571
0.717587
0.719444
0.721242
0.722953
0.72456
0.726053
0.727428
0.728688
0.729837
0.730879
0.731822
0.732672
0.733441
0.734144
0.734799
0.735429
0.736055
0.736699
0.737376
0.738093
0.738855
0.739654
0.740481
0.741319
0.742151
0.74296
0.743732
0.744455
0.745121
0.745719
0.74624
0.746673
0.74701
0.747239
0.747356
0.767845
0.767853
0.767867
0.767882
0.767893
0.767895
0.767881
0.767849
0.767801
0.767747
0.767699
0.767677
0.767701
0.767796
0.767987
0.768302
0.768771
0.76943
0.770313
0.77146
0.772905
0.774681
0.776811
0.779305
0.782159
0.785359
0.788893
0.792748
0.796913
0.801366
0.806076
0.810997
0.816072
0.821236
0.826422
0.831561
0.836585
0.841428
0.846029
0.850333
0.854287
0.857845
0.860967
0.863616
0.865763
0.867384
0.868457
0.868967
0.868905
0.868263
0.867041
0.865242
0.862873
0.859948
0.856482
0.8525
0.848029
0.843102
0.837759
0.832045
0.826012
0.819718
0.81323
0.806621
0.79997
0.793364
0.786895
0.780662
0.77476
0.769282
0.764307
0.75989
0.756055
0.752782
0.750047
0.747848
0.746213
0.745173
0.744706
0.744761
0.745261
0.746123
0.74726
0.748593
0.750052
0.751577
0.753121
0.754644
0.756119
0.757526
0.758854
0.760094
0.761245
0.762308
0.763285
0.764181
0.765002
0.765758
0.76646
0.767123
0.767762
0.768395
0.769035
0.769694
0.770378
0.771088
0.771821
0.772569
0.773322
0.774065
0.774787
0.775476
0.776121
0.776713
0.777243
0.777702
0.778083
0.778377
0.778577
0.778678
0.800885
0.800894
0.80091
0.800932
0.800956
0.800979
0.800999
0.801017
0.801035
0.801063
0.801112
0.801198
0.801339
0.801556
0.801872
0.802311
0.8029
0.803668
0.804645
0.805859
0.807338
0.809106
0.81118
0.813568
0.816268
0.819273
0.822572
0.826152
0.829996
0.834083
0.83838
0.842847
0.847437
0.852095
0.856764
0.861385
0.865898
0.870248
0.874379
0.878241
0.881788
0.884978
0.887773
0.890141
0.892054
0.893488
0.894426
0.894851
0.894755
0.894133
0.892983
0.891308
0.889116
0.886419
0.883235
0.879585
0.875495
0.870998
0.86613
0.860934
0.855458
0.849757
0.84389
0.837923
0.831926
0.825977
0.820154
0.814537
0.809207
0.804236
0.799686
0.795603
0.792011
0.788912
0.786303
0.784186
0.782569
0.781455
0.780828
0.780647
0.780858
0.781397
0.782196
0.783192
0.784327
0.78555
0.786817
0.788093
0.789352
0.790573
0.791742
0.792849
0.793891
0.794865
0.795771
0.796614
0.797397
0.798128
0.798815
0.79947
0.800103
0.800728
0.801353
0.801987
0.802635
0.803298
0.803972
0.804654
0.805333
0.806001
0.806648
0.807264
0.807839
0.808366
0.808837
0.809244
0.809579
0.809838
0.810013
0.810102
0.833916
0.833927
0.833949
0.833981
0.83402
0.834067
0.834121
0.834184
0.83426
0.834358
0.834488
0.834664
0.834901
0.835217
0.835633
0.83617
0.836851
0.837699
0.838738
0.839992
0.841482
0.843226
0.845236
0.847518
0.850072
0.852893
0.855971
0.859292
0.862838
0.866588
0.870512
0.874575
0.878734
0.882944
0.887155
0.891316
0.895376
0.899286
0.902997
0.906464
0.909647
0.912505
0.915007
0.917122
0.918823
0.92009
0.920906
0.921256
0.921133
0.92053
0.919448
0.91789
0.915863
0.913379
0.910454
0.907109
0.903369
0.899264
0.894828
0.890102
0.88513
0.879961
0.874649
0.869253
0.863837
0.858465
0.853205
0.848127
0.843294
0.838768
0.834599
0.830826
0.827473
0.824552
0.822068
0.820023
0.81842
0.817252
0.816503
0.816143
0.816127
0.816409
0.816934
0.817652
0.818515
0.819478
0.820504
0.821561
0.822623
0.823672
0.824691
0.82567
0.826604
0.827488
0.828322
0.829106
0.829844
0.830541
0.831202
0.831837
0.832453
0.833059
0.833662
0.834267
0.834878
0.835495
0.836117
0.836739
0.837355
0.837958
0.838539
0.839091
0.839606
0.840076
0.840495
0.840856
0.841153
0.841381
0.841536
0.841614
0.866935
0.86695
0.866978
0.867021
0.867077
0.867148
0.867233
0.867337
0.867464
0.867621
0.867819
0.868068
0.868383
0.868779
0.869274
0.869886
0.870634
0.871537
0.872616
0.873889
0.875372
0.877079
0.879019
0.881196
0.88361
0.886257
0.889126
0.892205
0.895477
0.898919
0.902506
0.906206
0.909981
0.913792
0.917596
0.921348
0.925005
0.928523
0.931859
0.934973
0.937828
0.94039
0.942628
0.944515
0.946027
0.947144
0.947851
0.948135
0.947989
0.947408
0.94639
0.944941
0.943067
0.940779
0.938093
0.935028
0.931607
0.92786
0.923818
0.919517
0.914999
0.910308
0.905492
0.900605
0.895702
0.890839
0.886076
0.88147
0.877076
0.872944
0.869117
0.865629
0.862504
0.859756
0.857393
0.85542
0.853835
0.85263
0.851791
0.851292
0.8511
0.851176
0.85148
0.851969
0.852602
0.853343
0.85416
0.855023
0.855909
0.856799
0.857679
0.858538
0.859367
0.860163
0.860922
0.861645
0.862333
0.862989
0.863617
0.864224
0.864814
0.865394
0.865968
0.866541
0.867115
0.867689
0.868262
0.868831
0.869391
0.869936
0.87046
0.870956
0.871417
0.871838
0.872211
0.872533
0.872797
0.872999
0.873135
0.873204
0.89994
0.899958
0.899994
0.900048
0.900121
0.900213
0.900328
0.900467
0.900637
0.900844
0.901097
0.901406
0.901784
0.902243
0.902798
0.903466
0.904261
0.905201
0.906301
0.907576
0.909039
0.910699
0.912564
0.914637
0.916917
0.919398
0.922072
0.924926
0.927944
0.931107
0.934388
0.937761
0.941192
0.944646
0.948087
0.951476
0.954773
0.957941
0.960942
0.96374
0.966303
0.968599
0.9706
0.972283
0.973625
0.974608
0.975219
0.975445
0.975281
0.97472
0.973765
0.972417
0.970684
0.968577
0.96611
0.963301
0.960173
0.956751
0.953066
0.94915
0.94504
0.940778
0.936407
0.931973
0.927526
0.923115
0.91879
0.914601
0.910595
0.906814
0.903296
0.900069
0.897156
0.894574
0.89233
0.890428
0.888868
0.887643
0.886738
0.886134
0.885804
0.885718
0.885841
0.88614
0.886581
0.887134
0.887769
0.888461
0.88919
0.889938
0.890689
0.891434
0.892164
0.892873
0.893558
0.894218
0.894853
0.895464
0.896054
0.896626
0.897185
0.897734
0.898276
0.898815
0.89935
0.899883
0.900411
0.900932
0.901442
0.901936
0.902409
0.902855
0.903269
0.903646
0.90398
0.904267
0.904501
0.904681
0.904802
0.904864
0.932926
0.932948
0.932991
0.933056
0.933144
0.933257
0.933397
0.933567
0.933773
0.934022
0.93432
0.934677
0.935103
0.93561
0.93621
0.936917
0.937744
0.938705
0.939811
0.941076
0.942508
0.944115
0.945902
0.947871
0.950021
0.952346
0.954837
0.957483
0.960268
0.963174
0.966179
0.969257
0.972379
0.975514
0.978631
0.981695
0.984671
0.987527
0.990228
0.992744
0.995044
0.997102
0.998892
1.00039
1.00158
1.00245
1.00297
1.00315
1.00297
1.00243
1.00153
1.00028
0.998676
0.996735
0.994469
0.991895
0.989033
0.985907
0.982544
0.978975
0.975235
0.971358
0.967384
0.963355
0.959314
0.955304
0.951368
0.94755
0.943889
0.940423
0.937182
0.934194
0.93148
0.929053
0.926923
0.925095
0.923567
0.922334
0.921385
0.920702
0.920265
0.920049
0.920026
0.920169
0.920449
0.920841
0.92132
0.921864
0.922453
0.923071
0.923706
0.924345
0.924981
0.925607
0.92622
0.926817
0.927397
0.92796
0.928508
0.929043
0.929566
0.93008
0.930588
0.931091
0.931589
0.932081
0.932567
0.933044
0.933509
0.933957
0.934384
0.934787
0.935159
0.935497
0.935796
0.936052
0.936262
0.936422
0.93653
0.936584
0.965892
0.965916
0.965966
0.966041
0.966143
0.966273
0.966435
0.966632
0.966868
0.967149
0.967483
0.967877
0.96834
0.968883
0.969516
0.970249
0.971094
0.972063
0.973164
0.974408
0.975801
0.97735
0.979058
0.980925
0.98295
0.985127
0.987447
0.9899
0.992471
0.995144
0.997897
1.00071
1.00355
1.0064
1.00923
1.012
1.01469
1.01727
1.0197
1.02196
1.02403
1.02587
1.02747
1.02881
1.02986
1.03062
1.03107
1.0312
1.03101
1.0305
1.02965
1.02849
1.02701
1.02522
1.02314
1.02078
1.01816
1.0153
1.01223
1.00897
1.00556
1.00203
0.998417
0.99475
0.991071
0.987418
0.983829
0.980341
0.976989
0.973805
0.970816
0.968047
0.965515
0.963235
0.961215
0.959461
0.957972
0.956743
0.955765
0.955025
0.954505
0.954186
0.954045
0.95406
0.954206
0.954462
0.954807
0.955221
0.955687
0.95619
0.956717
0.95726
0.957808
0.958355
0.958898
0.959433
0.959958
0.960472
0.960976
0.96147
0.961955
0.962434
0.962906
0.963372
0.963832
0.964286
0.964732
0.965168
0.965591
0.965998
0.966385
0.966748
0.967083
0.967387
0.967655
0.967884
0.968071
0.968214
0.968311
0.968359
0.998833
0.99886
0.998915
0.998999
0.999113
0.999259
0.999438
0.999656
0.999917
1.00022
1.00059
1.00101
1.0015
1.00207
1.00272
1.00347
1.00432
1.00529
1.00637
1.00759
1.00894
1.01043
1.01205
1.01382
1.01573
1.01776
1.01992
1.0222
1.02457
1.02703
1.02956
1.03213
1.03472
1.03731
1.03988
1.04239
1.04482
1.04715
1.04934
1.05138
1.05323
1.05489
1.05632
1.05751
1.05844
1.05911
1.05949
1.05958
1.05938
1.05889
1.0581
1.05701
1.05564
1.054
1.05208
1.04992
1.04752
1.0449
1.0421
1.03913
1.03602
1.0328
1.0295
1.02616
1.0228
1.01947
1.01619
1.013
1.00992
1.00699
1.00423
1.00166
0.999298
0.997156
0.995242
0.993562
0.992116
0.9909
0.989907
0.989127
0.988545
0.988145
0.98791
0.987819
0.987853
0.987995
0.988224
0.988525
0.988883
0.989283
0.989715
0.990168
0.990635
0.991108
0.991584
0.992058
0.992529
0.992994
0.993453
0.993906
0.994352
0.994793
0.995229
0.995659
0.996082
0.996499
0.996908
0.997305
0.99769
0.998059
0.998409
0.998737
0.999039
0.999312
0.999552
0.999758
0.999926
1.00005
1.00014
1.00018
1.03175
1.03178
1.03184
1.03193
1.03205
1.03221
1.0324
1.03264
1.03292
1.03325
1.03363
1.03407
1.03458
1.03516
1.03583
1.03658
1.03744
1.03839
1.03946
1.04064
1.04194
1.04336
1.04491
1.04658
1.04837
1.05028
1.05229
1.0544
1.05659
1.05885
1.06117
1.06352
1.06589
1.06825
1.07058
1.07286
1.07506
1.07716
1.07914
1.08098
1.08264
1.08413
1.08541
1.08646
1.08729
1.08787
1.08819
1.08826
1.08805
1.08758
1.08684