/*--------------------------------*- C++ -*----------------------------------*\
| =========                 |                                                 |
| \\      /  F ield         | OpenFOAM: The Open Source CFD Toolbox           |
|  \\    /   O peration     | Version:  2406                                  |
|   \\  /    A nd           | Website:  www.openfoam.com                      |
|    \\/     M anipulation  |                                                 |
\*---------------------------------------------------------------------------*/
FoamFile
{
    version     2.0;
    format      ascii;
    arch        "LSB;label=32;scalar=64";
    class       volScalarField;
    location    "9.7";
    object      D;
}
// * * * * * * * * * * * * * * * * * * * * * * * * * * * * * * * * * * * * * //

dimensions      [0 2 -1 0 0 0 0];

internalField   nonuniform List<scalar> 
14400
(
7.99067e-05
7.99264e-05
7.99806e-05
8.0075e-05
8.01964e-05
8.03197e-05
8.04182e-05
8.04729e-05
8.04783e-05
8.04446e-05
8.03966e-05
8.0368e-05
8.03913e-05
8.04809e-05
8.06136e-05
8.07266e-05
8.07671e-05
8.0775e-05
8.07788e-05
8.0753e-05
8.06319e-05
8.0333e-05
7.97756e-05
7.88934e-05
7.76477e-05
7.60411e-05
7.41347e-05
7.20596e-05
6.99976e-05
6.81202e-05
6.65317e-05
6.52654e-05
6.43159e-05
6.3673e-05
6.33504e-05
6.34257e-05
6.4157e-05
6.6546e-05
7.64732e-05
0.000136774
0.00013824
0.00013824
0.00013824
0.00013824
0.00013824
0.00013824
0.00013824
0.00013824
0.00013824
0.00013824
0.00013824
0.00013824
0.00013824
0.00013824
0.00013824
0.00013824
0.00013824
0.00013824
0.000134146
7.37457e-05
6.64321e-05
6.46048e-05
6.41511e-05
6.43403e-05
6.49901e-05
6.60724e-05
6.76212e-05
6.96816e-05
7.22444e-05
7.51679e-05
7.81709e-05
8.09455e-05
8.32799e-05
8.5074e-05
8.62963e-05
8.69499e-05
8.70572e-05
8.66538e-05
8.57905e-05
8.45423e-05
8.30218e-05
8.13923e-05
7.98754e-05
7.87665e-05
7.85314e-05
8.03871e-05
9.06946e-05
0.000136967
9.82593e-05
7.95208e-05
7.57168e-05
7.46639e-05
7.45578e-05
7.49192e-05
7.55372e-05
7.62838e-05
7.70674e-05
7.78201e-05
7.84936e-05
7.90554e-05
7.94844e-05
7.97651e-05
7.98837e-05
7.98281e-05
7.95908e-05
7.9172e-05
7.85772e-05
7.78165e-05
7.6906e-05
7.58732e-05
7.47631e-05
7.36405e-05
7.25858e-05
7.16894e-05
7.10507e-05
7.07986e-05
7.1169e-05
7.28201e-05
7.90872e-05
0.000126817
7.88283e-05
7.8778e-05
7.87325e-05
7.87296e-05
7.87717e-05
7.8839e-05
7.89057e-05
7.89526e-05
7.8974e-05
7.89803e-05
7.89974e-05
7.90619e-05
7.92094e-05
7.94517e-05
7.97403e-05
7.99371e-05
7.99004e-05
7.97772e-05
7.96656e-05
7.95576e-05
7.93852e-05
7.90605e-05
7.84999e-05
7.76383e-05
7.64416e-05
7.4919e-05
7.31374e-05
7.12242e-05
6.93418e-05
6.76336e-05
6.61855e-05
6.50275e-05
6.41603e-05
6.3583e-05
6.3321e-05
6.34729e-05
6.43719e-05
6.75577e-05
8.51725e-05
0.000138057
0.00013824
0.00013824
0.00013824
0.00013824
0.00013824
0.00013824
0.00013824
0.00013824
0.00013824
0.00013824
0.00013824
0.00013824
0.00013824
0.00013824
0.00013824
0.00013824
0.00013824
0.00013824
0.000137391
7.88613e-05
6.72466e-05
6.47964e-05
6.4177e-05
6.42797e-05
6.48537e-05
6.58474e-05
6.72798e-05
6.9188e-05
7.1569e-05
7.43109e-05
7.71713e-05
7.98599e-05
8.21529e-05
8.39293e-05
8.5144e-05
8.57935e-05
8.58976e-05
8.54921e-05
8.4632e-05
8.33993e-05
8.1916e-05
8.03541e-05
7.89401e-05
7.7974e-05
7.79634e-05
8.05014e-05
9.60246e-05
0.000137957
0.000108727
8.00735e-05
7.53791e-05
7.40698e-05
7.37894e-05
7.3998e-05
7.44761e-05
7.50989e-05
7.57806e-05
7.64592e-05
7.7089e-05
7.76364e-05
7.80746e-05
7.83774e-05
7.85176e-05
7.84705e-05
7.82247e-05
7.7788e-05
7.71808e-05
7.64273e-05
7.55535e-05
7.45919e-05
7.35867e-05
7.25963e-05
7.16908e-05
7.09499e-05
7.04684e-05
7.03853e-05
7.09843e-05
7.31129e-05
8.09249e-05
0.000134134
7.70197e-05
7.68031e-05
7.65416e-05
7.63427e-05
7.62314e-05
7.61914e-05
7.61961e-05
7.62256e-05
7.6274e-05
7.6352e-05
7.64875e-05
7.67239e-05
7.71102e-05
7.76723e-05
7.83323e-05
7.87628e-05
7.84738e-05
7.80144e-05
7.76401e-05
7.73535e-05
7.7071e-05
7.66933e-05
7.61324e-05
7.53252e-05
7.42437e-05
7.29047e-05
7.13757e-05
6.97665e-05
6.82013e-05
6.67829e-05
6.55745e-05
6.46046e-05
6.38842e-05
6.34283e-05
6.32822e-05
6.35808e-05
6.47805e-05
6.93737e-05
0.000105352
0.000138238
0.00013824
0.00013824
0.00013824
0.00013824
0.00013824
0.00013824
0.00013824
0.00013824
0.00013824
0.00013824
0.00013824
0.00013824
0.00013824
0.00013824
0.00013824
0.00013824
0.00013824
0.00013824
0.000138221
9.63675e-05
6.90408e-05
6.51685e-05
6.42356e-05
6.41764e-05
6.46095e-05
6.54414e-05
6.66653e-05
6.83012e-05
7.03496e-05
7.27391e-05
7.52935e-05
7.77682e-05
7.99377e-05
8.16518e-05
8.28365e-05
8.34719e-05
8.35715e-05
8.3173e-05
8.23397e-05
8.11681e-05
7.97965e-05
7.84073e-05
7.7227e-05
7.65537e-05
7.69519e-05
8.06905e-05
0.00010772
0.000138226
0.000125167
8.11475e-05
7.49616e-05
7.31251e-05
7.25087e-05
7.24414e-05
7.26734e-05
7.30765e-05
7.35718e-05
7.41058e-05
7.46401e-05
7.51433e-05
7.55831e-05
7.59184e-05
7.60975e-05
7.60696e-05
7.58148e-05
7.53572e-05
7.47466e-05
7.40308e-05
7.32482e-05
7.24334e-05
7.16244e-05
7.08659e-05
7.02115e-05
6.97276e-05
6.95073e-05
6.97174e-05
7.07749e-05
7.44076e-05
9.44016e-05
0.000138125
7.51355e-05
7.45993e-05
7.39989e-05
7.35339e-05
7.32295e-05
7.30575e-05
7.29849e-05
7.29897e-05
7.30654e-05
7.32232e-05
7.3494e-05
7.3933e-05
7.46235e-05
7.5666e-05
7.70601e-05
7.81759e-05
7.70814e-05
7.59312e-05
7.51244e-05
7.45734e-05
7.41362e-05
7.36899e-05
7.31405e-05
7.24272e-05
7.1526e-05
7.04529e-05
6.9261e-05
6.80279e-05
6.68352e-05
6.57511e-05
6.48226e-05
6.40796e-05
6.35457e-05
6.32552e-05
6.32829e-05
6.38267e-05
6.55547e-05
7.20185e-05
0.000128872
0.00013824
0.00013824
0.00013824
0.00013824
0.00013824
0.00013824
0.00013824
0.00013824
0.00013824
0.00013824
0.00013824
0.00013824
0.00013824
0.00013824
0.00013824
0.00013824
0.00013824
0.00013824
0.00013824
0.00013824
0.000120775
7.13487e-05
6.5761e-05
6.43728e-05
6.40732e-05
6.4309e-05
6.49282e-05
6.58891e-05
6.71871e-05
6.88157e-05
7.07316e-05
7.28249e-05
7.49202e-05
7.68228e-05
7.83724e-05
7.94678e-05
8.00646e-05
8.01646e-05
7.98069e-05
7.90662e-05
7.80547e-05
7.69219e-05
7.58489e-05
7.50503e-05
7.48247e-05
7.58206e-05
8.10143e-05
0.000122936
0.00013824
0.000137544
8.80141e-05
7.53067e-05
7.22384e-05
7.11031e-05
7.06854e-05
7.06295e-05
7.07821e-05
7.10617e-05
7.14208e-05
7.18289e-05
7.22605e-05
7.26841e-05
7.30495e-05
7.32782e-05
7.32811e-05
7.30227e-05
7.25529e-05
7.19598e-05
7.13151e-05
7.06632e-05
7.00345e-05
6.9456e-05
6.89578e-05
6.858e-05
6.83817e-05
6.84643e-05
6.90417e-05
7.0729e-05
7.6547e-05
0.000120261
0.00013824
7.41577e-05
7.29008e-05
7.17825e-05
7.10003e-05
7.04954e-05
7.01951e-05
7.00481e-05
7.00257e-05
7.01195e-05
7.03424e-05
7.07319e-05
7.13626e-05
7.23818e-05
7.40946e-05
7.71295e-05
8.20296e-05
7.66911e-05
7.40982e-05
7.26736e-05
7.181e-05
7.12066e-05
7.06923e-05
7.01637e-05
6.95605e-05
6.88579e-05
6.80616e-05
6.7202e-05
6.63242e-05
6.54775e-05
6.47068e-05
6.40495e-05
6.35386e-05
6.32108e-05
6.3124e-05
6.34036e-05
6.4418e-05
6.79902e-05
9.23699e-05
0.00013821
0.00013824
0.00013824
0.00013824
0.00013824
0.00013824
0.00013824
0.00013824
0.00013824
0.00013824
0.00013824
0.00013824
0.00013824
0.00013824
0.00013824
0.00013824
0.00013824
0.00013824
0.00013824
0.00013824
0.00013824
0.000137583
7.93031e-05
6.72249e-05
6.47392e-05
6.40422e-05
6.40175e-05
6.43905e-05
6.50696e-05
6.60199e-05
6.72196e-05
6.86337e-05
7.01938e-05
7.17893e-05
7.32814e-05
7.45344e-05
7.54458e-05
7.596e-05
7.6069e-05
7.581e-05
7.52604e-05
7.45324e-05
7.37652e-05
7.31215e-05
7.28074e-05
7.31742e-05
7.52006e-05
8.38277e-05
0.000136037
0.00013824
0.00013824
0.000119774
7.77422e-05
7.18452e-05
6.99368e-05
6.91213e-05
6.87844e-05
6.87101e-05
6.88001e-05
6.9006e-05
6.93022e-05
6.9669e-05
7.00809e-05
7.04877e-05
7.07872e-05
7.08341e-05
7.05618e-05
7.00645e-05
6.94804e-05
6.89007e-05
6.8368e-05
6.79046e-05
6.75275e-05
6.72575e-05
6.71293e-05
6.72066e-05
6.76197e-05
6.86959e-05
7.16378e-05
8.44783e-05
0.000137586
0.00013824
7.718e-05
7.26119e-05
7.04073e-05
6.91675e-05
6.8429e-05
6.79971e-05
6.77788e-05
6.77285e-05
6.78332e-05
6.81094e-05
6.8609e-05
6.94436e-05
7.08837e-05
7.37792e-05
8.26431e-05
0.00012534
7.97916e-05
7.31291e-05
7.0739e-05
6.95141e-05
6.87429e-05
6.81637e-05
6.76521e-05
6.71427e-05
6.66051e-05
6.6033e-05
6.54375e-05
6.48415e-05
6.42733e-05
6.37639e-05
6.33454e-05
6.30548e-05
6.29443e-05
6.31065e-05
6.37539e-05
6.55629e-05
7.22345e-05
0.000130207
0.00013824
0.00013824
0.00013824
0.00013824
0.00013824
0.00013824
0.00013824
0.00013824
0.00013824
0.00013824
0.00013824
0.00013824
0.00013824
0.00013824
0.00013824
0.00013824
0.00013824
0.00013824
0.00013824
0.00013824
0.00013824
0.00013824
0.000118422
7.09542e-05
6.55618e-05
6.41735e-05
6.3805e-05
6.39056e-05
6.43055e-05
6.49345e-05
6.57524e-05
6.67217e-05
6.77924e-05
6.88946e-05
6.99407e-05
7.0839e-05
7.15131e-05
7.19171e-05
7.20431e-05
7.19218e-05
7.16181e-05
7.1224e-05
7.08545e-05
7.0654e-05
7.08432e-05
7.19261e-05
7.61741e-05
0.00010635
0.000138232
0.00013824
0.00013824
0.000137963
8.89574e-05
7.27983e-05
6.93448e-05
6.80109e-05
6.73851e-05
6.71103e-05
6.70476e-05
6.71401e-05
6.73633e-05
6.77025e-05
6.81419e-05
6.86445e-05
6.90842e-05
6.92088e-05
6.8866e-05
6.82674e-05
6.76323e-05
6.70688e-05
6.66065e-05
6.62572e-05
6.60297e-05
6.59419e-05
6.60331e-05
6.63898e-05
6.72187e-05
6.91543e-05
7.54613e-05
0.0001242
0.00013824
0.00013824
0.000117408
7.66153e-05
7.04071e-05
6.8224e-05
6.71205e-05
6.65145e-05
6.62124e-05
6.61312e-05
6.62474e-05
6.65851e-05
6.72272e-05
6.83687e-05
7.06105e-05
7.6997e-05
0.00012211
0.000138211
9.94452e-05
7.39702e-05
6.95631e-05
6.78577e-05
6.68958e-05
6.62423e-05
6.57314e-05
6.52836e-05
6.48597e-05
6.44439e-05
6.40354e-05
6.36436e-05
6.32857e-05
6.29844e-05
6.27702e-05
6.26881e-05
6.28156e-05
6.33183e-05
6.46836e-05
6.94011e-05
0.000106701
0.000138239
0.00013824
0.00013824
0.00013824
0.00013824
0.00013824
0.00013824
0.00013824
0.00013824
0.00013824
0.00013824
0.00013824
0.00013824
0.00013824
0.00013824
0.00013824
0.00013824
0.00013824
0.00013824
0.00013824
0.00013824
0.00013824
0.00013824
0.000138062
8.44226e-05
6.75833e-05
6.46376e-05
6.3761e-05
6.35456e-05
6.3669e-05
6.40118e-05
6.45128e-05
6.5128e-05
6.58149e-05
6.65253e-05
6.72048e-05
6.77987e-05
6.82614e-05
6.85656e-05
6.87085e-05
6.87133e-05
6.86282e-05
6.85243e-05
6.84984e-05
6.86933e-05
6.93781e-05
7.12903e-05
7.79079e-05
0.000129918
0.00013824
0.00013824
0.00013824
0.00013824
0.000131365
7.71027e-05
6.98465e-05
6.75808e-05
6.65561e-05
6.6063e-05
6.58593e-05
6.58672e-05
6.60594e-05
6.64265e-05
6.6971e-05
6.77105e-05
6.85199e-05
6.88747e-05
6.82381e-05
6.73251e-05
6.65008e-05
6.58682e-05
6.54111e-05
6.51222e-05
6.50014e-05
6.50688e-05
6.53833e-05
6.60952e-05
6.76539e-05
7.22274e-05
0.000100949
0.000138229
0.00013824
0.00013824
0.000138237
0.000107291
7.38408e-05
6.85134e-05
6.66255e-05
6.57163e-05
6.52897e-05
6.51677e-05
6.53044e-05
6.57399e-05
6.66349e-05
6.84217e-05
7.31738e-05
0.000100471
0.000138223
0.00013824
0.000129912
7.64076e-05
6.92863e-05
6.6874e-05
6.56457e-05
6.4886e-05
6.43495e-05
6.39291e-05
6.35736e-05
6.32591e-05
6.29773e-05
6.27312e-05
6.25322e-05
6.24005e-05
6.23693e-05
6.24987e-05
6.29142e-05
6.39436e-05
6.69481e-05
8.2974e-05
0.000138036
0.00013824
0.00013824
0.00013824
0.00013824
0.00013824
0.00013824
0.00013824
0.00013824
0.00013824
0.00013824
0.00013824
0.00013824
0.00013824
0.00013824
0.00013824
0.00013824
0.00013824
0.00013824
0.00013824
0.00013824
0.00013824
0.00013824
0.00013824
0.00013824
0.000130089
7.23743e-05
6.58083e-05
6.40357e-05
6.33923e-05
6.32153e-05
6.32933e-05
6.35315e-05
6.38742e-05
6.428e-05
6.47116e-05
6.51334e-05
6.5513e-05
6.58254e-05
6.60576e-05
6.62119e-05
6.63077e-05
6.63835e-05
6.65005e-05
6.6754e-05
6.73157e-05
6.86127e-05
7.25714e-05
9.74233e-05
0.000138208
0.00013824
0.00013824
0.00013824
0.00013824
0.00013824
0.000118884
7.45949e-05
6.84272e-05
6.64809e-05
6.56436e-05
6.52546e-05
6.51839e-05
6.5392e-05
6.58806e-05
6.66911e-05
6.81068e-05
7.04064e-05
7.23592e-05
6.96638e-05
6.7589e-05
6.619e-05
6.53266e-05
6.47804e-05
6.44987e-05
6.44595e-05
6.46936e-05
6.53172e-05
6.66656e-05
7.00784e-05
8.55242e-05
0.000137968
0.00013824
0.00013824
0.00013824
0.00013824
0.000138205
9.58934e-05
7.19266e-05
6.73321e-05
6.56956e-05
6.50374e-05
6.4847e-05
6.50273e-05
6.56563e-05
6.7154e-05
7.08965e-05
8.68919e-05
0.000137993
0.00013824
0.00013824
0.000138233
0.000102761
7.15053e-05
6.67138e-05
6.49659e-05
6.40259e-05
6.34245e-05
6.29971e-05
6.26737e-05
6.24212e-05
6.22264e-05
6.20888e-05
6.20195e-05
6.20415e-05
6.21983e-05
6.25825e-05
6.34316e-05
6.55218e-05
7.32342e-05
0.000135134
0.00013824
0.00013824
0.00013824
0.00013824
0.00013824
0.00013824
0.00013824
0.00013824
0.00013824
0.00013824
0.00013824
0.00013824
0.00013824
0.00013824
0.00013824
0.00013824
0.00013824
0.00013824
0.00013824
0.00013824
0.00013824
0.00013824
0.00013824
0.00013824
0.00013824
0.00013824
0.000111045
7.01575e-05
6.50632e-05
6.35826e-05
6.30043e-05
6.28055e-05
6.28098e-05
6.29351e-05
6.31334e-05
6.33704e-05
6.3619e-05
6.3858e-05
6.40734e-05
6.42601e-05
6.44242e-05
6.45849e-05
6.47789e-05
6.50699e-05
6.55733e-05
6.65349e-05
6.86612e-05
7.55541e-05
0.00013019
0.00013824
0.00013824
0.00013824
0.00013824
0.00013824
0.00013824
0.000138239
0.000112481
7.36164e-05
6.78094e-05
6.61671e-05
6.5377e-05
6.51912e-05
6.5501e-05
6.63745e-05
6.79244e-05
7.24491e-05
8.55253e-05
0.000109972
8.00269e-05
7.12018e-05
6.72365e-05
6.56794e-05
6.48256e-05
6.44759e-05
6.45154e-05
6.50127e-05
6.63159e-05
6.96954e-05
8.17079e-05
0.000137459
0.00013824
0.00013824
0.00013824
0.00013824
0.00013824
0.00013824
0.000138179
9.52191e-05
7.17904e-05
6.7054e-05
6.58165e-05
6.54584e-05
6.57603e-05
6.6894e-05
7.09004e-05
8.59952e-05
0.000137793
0.00013824
0.00013824
0.00013824
0.00013824
0.000136795
7.77261e-05
6.76873e-05
6.49203e-05
6.36481e-05
6.2914e-05
6.24365e-05
6.21121e-05
6.18936e-05
6.17611e-05
6.17142e-05
6.17695e-05
6.19638e-05
6.23693e-05
6.31671e-05
6.50275e-05
7.15713e-05
0.000129124
0.00013824
0.00013824
0.00013824
0.00013824
0.00013824
0.00013824
0.00013824
0.00013824
0.00013824
0.00013824
0.00013824
0.00013824
0.00013824
0.00013824
0.00013824
0.00013824
0.00013824
0.00013824
0.00013824
0.00013824
0.00013824
0.00013824
0.00013824
0.00013824
0.00013824
0.00013824
0.00013824
0.000138211
9.22211e-05
6.82547e-05
6.44026e-05
6.31361e-05
6.25876e-05
6.2351e-05
6.22829e-05
6.23156e-05
6.24091e-05
6.25373e-05
6.26831e-05
6.28371e-05
6.29984e-05
6.31761e-05
6.33921e-05
6.36876e-05
6.41432e-05
6.49306e-05
6.65334e-05
7.12807e-05
0.000104534
0.000138236
0.00013824
0.00013824
0.00013824
0.00013824
0.00013824
0.00013824
0.00013824
0.000138239
0.000118726
7.44323e-05
6.94906e-05
6.68935e-05
6.64098e-05
6.71119e-05
6.99832e-05
7.46788e-05
0.000113731
0.000137968
0.000138239
0.000137277
0.000102837
7.30808e-05
6.82895e-05
6.61035e-05
6.55008e-05
6.5663e-05
6.68369e-05
7.11516e-05
8.92556e-05
0.000137633
0.00013824
0.00013824
0.00013824
0.00013824
0.00013824
0.00013824
0.00013824
0.00013824
0.00013821
0.000109622
7.35273e-05
6.99587e-05
6.86719e-05
6.96696e-05
7.29276e-05
0.000100864
0.000138015
0.00013824
0.00013824
0.00013824
0.00013824
0.00013824
0.00013824
0.000128854
7.29186e-05
6.60463e-05
6.38949e-05
6.28652e-05
6.22584e-05
6.18913e-05
6.1682e-05
6.15996e-05
6.16452e-05
6.18557e-05
6.23157e-05
6.3198e-05
6.50085e-05
7.12936e-05
0.000125739
0.00013824
0.00013824
0.00013824
0.00013824
0.00013824
0.00013824
0.00013824
0.00013824
0.00013824
0.00013824
0.00013824
0.00013824
0.00013824
0.00013824
0.00013824
0.00013824
0.00013824
0.00013824
0.00013824
0.00013824
0.00013824
0.00013824
0.00013824
0.00013824
0.00013824
0.00013824
0.00013824
0.00013824
0.00013824
0.000137875
8.05168e-05
6.68189e-05
6.38689e-05
6.27396e-05
6.21898e-05
6.19123e-05
6.17902e-05
6.17635e-05
6.17994e-05
6.1879e-05
6.19936e-05
6.21448e-05
6.23452e-05
6.26227e-05
6.30314e-05
6.36895e-05
6.48863e-05
6.76641e-05
7.88082e-05
0.000137307
0.00013824
0.00013824
0.00013824
0.00013824
0.00013824
0.00013824
0.00013824
0.00013824
0.00013824
0.00013824
0.000132003
9.49783e-05
7.36682e-05
7.20469e-05
7.45674e-05
9.99742e-05
0.000133074
0.00013824
0.00013824
0.00013824
0.00013824
0.000138235
0.000126554
8.51388e-05
7.19266e-05
7.03174e-05
7.09034e-05
7.50861e-05
0.000113632
0.000138156
0.00013824
0.00013824
0.00013824
0.00013824
0.00013824
0.00013824
0.00013824
0.00013824
0.00013824
0.00013824
0.000138239
0.000130743
0.000103424
8.83064e-05
9.95146e-05
0.000126874
0.000138233
0.00013824
0.00013824
0.00013824
0.00013824
0.00013824
0.00013824
0.00013824
0.00013824
0.000120557
7.16661e-05
6.54208e-05
6.35546e-05
6.2601e-05
6.21102e-05
6.18786e-05
6.18469e-05
6.20197e-05
6.25002e-05
6.35967e-05
6.61197e-05
7.24526e-05
0.000128925
0.00013824
0.00013824
0.00013824
0.00013824
0.00013824
0.00013824
0.00013824
0.00013824
0.00013824
0.00013824
0.00013824
0.00013824
0.00013824
0.00013824
0.00013824
0.00013824
0.00013824
0.00013824
0.00013824
0.00013824
0.00013824
0.00013824
0.00013824
0.00013824
0.00013824
0.00013824
0.00013824
0.00013824
0.00013824
0.00013824
0.00013824
0.00013696
7.60706e-05
6.6199e-05
6.3577e-05
6.24492e-05
6.18668e-05
6.15604e-05
6.14095e-05
6.13612e-05
6.13873e-05
6.14763e-05
6.16312e-05
6.18711e-05
6.22374e-05
6.28136e-05
6.3821e-05
6.59297e-05
7.27667e-05
0.000129666
0.00013824
0.00013824
0.00013824
0.00013824
0.00013824
0.00013824
0.00013824
0.00013824
0.00013824
0.00013824
0.00013824
0.00013824
0.000138215
0.000133064
0.000126199
0.000134826
0.000138231
0.00013824
0.00013824
0.00013824
0.00013824
0.00013824
0.00013824
0.00013824
0.000138059
0.000125978
0.000112136
0.000119094
0.000135903
0.00013824
0.00013824
0.00013824
0.00013824
0.00013824
0.00013824
0.00013824
0.00013824
0.00013824
0.00013824
0.00013824
0.00013824
0.00013824
0.00013824
0.000138236
0.000138131
0.00013823
0.00013824
0.00013824
0.00013824
0.00013824
0.00013824
0.00013824
0.00013824
0.00013824
0.00013824
0.00013824
0.00013824
0.00012242
7.20688e-05
6.6405e-05
6.40245e-05
6.31657e-05
6.28342e-05
6.28937e-05
6.33348e-05
6.45312e-05
6.85846e-05
8.38944e-05
0.000135165
0.00013824
0.00013824
0.00013824
0.00013824
0.00013824
0.00013824
0.00013824
0.00013824
0.00013824
0.00013824
0.00013824
0.00013824
0.00013824
0.00013824
0.00013824
0.00013824
0.00013824
0.00013824
0.00013824
0.00013824
0.00013824
0.00013824
0.00013824
0.00013824
0.00013824
0.00013824
0.00013824
0.00013824
0.00013824
0.00013824
0.00013824
0.00013824
0.00013824
0.000136553
7.65731e-05
6.65453e-05
6.35609e-05
6.23101e-05
6.17035e-05
6.13799e-05
6.12325e-05
6.12052e-05
6.12772e-05
6.14535e-05
6.17666e-05
6.22942e-05
6.31921e-05
6.50961e-05
7.11754e-05
0.000118798
0.00013824
0.00013824
0.00013824
0.00013824
0.00013824
0.00013824
0.00013824
0.00013824
0.00013824
0.00013824
0.00013824
0.00013824
0.00013824
0.00013824
0.00013824
0.00013824
0.00013824
0.00013824
0.00013824
0.00013824
0.00013824
0.00013824
0.00013824
0.00013824
0.00013824
0.00013824
0.00013824
0.00013824
0.00013824
0.00013824
0.00013824
0.00013824
0.00013824
0.00013824
0.00013824
0.00013824
0.00013824
0.00013824
0.00013824
0.00013824
0.00013824
0.00013824
0.00013824
0.00013824
0.00013824
0.00013824
0.00013824
0.00013824
0.00013824
0.00013824
0.00013824
0.00013824
0.00013824
0.00013824
0.00013824
0.00013824
0.00013824
0.00013824
0.00013824
0.000132214
8.42802e-05
6.9706e-05
6.7212e-05
6.62876e-05
6.68267e-05
6.84657e-05
7.29071e-05
0.000113829
0.00013812
0.00013824
0.00013824
0.00013824
0.00013824
0.00013824
0.00013824
0.00013824
0.00013824
0.00013824
0.00013824
0.00013824
0.00013824
0.00013824
0.00013824
0.00013824
0.00013824
0.00013824
0.00013824
0.00013824
0.00013824
0.00013824
0.00013824
0.00013824
0.00013824
0.00013824
0.00013824
0.00013824
0.00013824
0.00013824
0.00013824
0.00013824
0.00013824
0.00013824
0.00013824
0.00013824
0.00013737
8.38559e-05
6.78488e-05
6.38412e-05
6.25097e-05
6.18289e-05
6.15213e-05
6.14204e-05
6.14808e-05
6.17115e-05
6.21797e-05
6.31013e-05
6.48388e-05
7.07305e-05
0.000115192
0.00013824
0.00013824
0.00013824
0.00013824
0.00013824
0.00013824
0.00013824
0.00013824
0.00013824
0.00013824
0.00013824
0.00013824
0.00013824
0.00013824
0.00013824
0.00013824
0.00013824
0.00013824
0.00013824
0.00013824
0.00013824
0.00013824
0.00013824
0.00013824
0.00013824
0.00013824
0.00013824
0.00013824
0.00013824
0.00013824
0.00013824
0.00013824
0.00013824
0.00013824
0.00013824
0.00013824
0.00013824
0.00013824
0.00013824
0.00013824
0.00013824
0.00013824
0.00013824
0.00013824
0.00013824
0.00013824
0.00013824
0.00013824
0.00013824
0.00013824
0.00013824
0.00013824
0.00013824
0.00013824
0.00013824
0.00013824
0.00013824
0.00013824
0.00013824
0.00013824
0.00013824
0.000138117
0.000121735
9.68394e-05
8.71557e-05
9.47504e-05
0.000115507
0.000136207
0.00013824
0.00013824
0.00013824
0.00013824
0.00013824
0.00013824
0.00013824
0.00013824
0.00013824
0.00013824
0.00013824
0.00013824
0.00013824
0.00013824
0.00013824
0.00013824
0.00013824
0.00013824
0.00013824
0.00013824
0.00013824
0.00013824
0.00013824
0.00013824
0.00013824
0.00013824
0.00013824
0.00013824
0.00013824
0.00013824
0.00013824
0.00013824
0.00013824
0.00013824
0.00013824
0.00013824
0.00013824
0.00013824
0.000138115
0.00010234
6.98984e-05
6.53931e-05
6.33362e-05
6.26468e-05
6.23807e-05
6.24301e-05
6.28188e-05
6.37091e-05
6.63592e-05
7.17607e-05
0.000122244
0.00013824
0.00013824
0.00013824
0.00013824
0.00013824
0.00013824
0.00013824
0.00013824
0.00013824
0.00013824
0.00013824
0.00013824
0.00013824
0.00013824
0.00013824
0.00013824
0.00013824
0.00013824
0.00013824
0.00013824
0.00013824
0.00013824
0.00013824
0.00013824
0.00013824
0.00013824
0.00013824
0.00013824
0.00013824
0.00013824
0.00013824
0.00013824
0.00013824
0.00013824
0.00013824
0.00013824
0.00013824
0.00013824
0.00013824
0.00013824
0.00013824
0.00013824
0.00013824
0.00013824
0.00013824
0.00013824
0.00013824
0.00013824
0.00013824
0.00013824
0.00013824
0.00013824
0.00013824
0.00013824
0.00013824
0.00013824
0.00013824
0.00013824
0.00013824
0.00013824
0.00013824
0.00013824
0.00013824
0.00013824
0.00013823
0.000138167
0.000138226
0.00013824
0.00013824
0.00013824
0.00013824
0.00013824
0.00013824
0.00013824
0.00013824
0.00013824
0.00013824
0.00013824
0.00013824
0.00013824
0.00013824
0.00013824
0.00013824
0.00013824
0.00013824
0.00013824
0.00013824
0.00013824
0.00013824
0.00013824
0.00013824
0.00013824
0.00013824
0.00013824
0.00013824
0.00013824
0.00013824
0.00013824
0.00013824
0.00013824
0.00013824
0.00013824
0.00013824
0.00013824
0.00013824
0.00013824
0.00013824
0.00013824
0.000138238
0.000126541
8.3087e-05
6.91533e-05
6.69693e-05
6.58416e-05
6.58467e-05
6.71069e-05
6.97259e-05
8.96305e-05
0.000133558
0.00013824
0.00013824
0.00013824
0.00013824
0.00013824
0.00013824
0.00013824
0.00013824
0.00013824
0.00013824
0.00013824
0.00013824
0.00013824
0.00013824
0.00013824
0.00013824
0.00013824
0.00013824
0.00013824
0.00013824
0.00013824
0.00013824
0.00013824
0.00013824
0.00013824
0.00013824
0.00013824
0.00013824
0.00013824
0.00013824
0.00013824
0.00013824
0.00013824
0.00013824
0.00013824
0.00013824
0.00013824
0.00013824
0.00013824
0.00013824
0.00013824
0.00013824
0.00013824
0.00013824
0.00013824
0.00013824
0.00013824
0.00013824
0.00013824
0.00013824
0.00013824
0.00013824
0.00013824
0.00013824
0.00013824
0.00013824
0.00013824
0.00013824
0.00013824
0.00013824
0.00013824
0.00013824
0.00013824
0.00013824
0.00013824
0.00013824
0.00013824
0.00013824
0.00013824
0.00013824
0.00013824
0.00013824
0.00013824
0.00013824
0.00013824
0.00013824
0.00013824
0.00013824
0.00013824
0.00013824
0.00013824
0.00013824
0.00013824
0.00013824
0.00013824
0.00013824
0.00013824
0.00013824
0.00013824
0.00013824
0.00013824
0.00013824
0.00013824
0.00013824
0.00013824
0.00013824
0.00013824
0.00013824
0.00013824
0.00013824
0.00013824
0.00013824
0.00013824
0.00013824
0.00013824
0.00013824
0.00013824
0.00013824
0.00013824
0.00013824
0.00013824
0.000138118
0.000124625
0.00010163
8.73299e-05
8.6685e-05
0.000101154
0.000125959
0.000138207
0.00013824
0.00013824
0.00013824
0.00013824
0.00013824
0.00013824
0.00013824
0.00013824
0.00013824
0.00013824
0.00013824
0.00013824
0.00013824
0.00013824
0.00013824
0.00013824
0.00013824
0.00013824
0.00013824
0.00013824
0.00013824
0.00013824
0.00013824
0.00013824
0.00013824
0.00013824
0.00013824
0.00013824
0.00013824
0.00013824
0.00013824
0.00013824
0.00013824
0.00013824
0.00013824
0.00013824
0.00013824
0.00013824
0.00013824
0.00013824
0.00013824
0.00013824
0.00013824
0.00013824
0.00013824
0.00013824
0.00013824
0.00013824
0.00013824
0.00013824
0.00013824
0.00013824
0.00013824
0.00013824
0.00013824
0.00013824
0.00013824
0.00013824
0.00013824
0.00013824
0.00013824
0.00013824
0.00013824
0.00013824
0.00013824
0.00013824
0.00013824
0.00013824
0.00013824
0.00013824
0.00013824
0.00013824
0.00013824
0.00013824
0.00013824
0.00013824
0.00013824
0.00013824
0.00013824
0.00013824
0.00013824
0.00013824
0.00013824
0.00013824
0.00013824
0.00013824
0.00013824
0.00013824
0.00013824
0.00013824
0.00013824
0.00013824
0.00013824
0.00013824
0.00013824
0.00013824
0.00013824
0.00013824
0.00013824
0.00013824
0.00013824
0.00013824
0.00013824
0.00013824
0.00013824
0.00013824
0.00013824
0.00013824
0.00013824
0.00013824
0.00013824
0.00013824
0.00013824
0.00013824
0.000138237
0.000138179
0.000138169
0.000138237
0.00013824
0.00013824
0.00013824
0.00013824
0.00013824
0.00013824
0.00013824
0.00013824
0.00013824
0.00013824
0.00013824
0.00013824
0.00013824
0.00013824
0.00013824
0.00013824
0.00013824
0.00013824
0.00013824
0.00013824
0.00013824
0.00013824
0.00013824
0.00013824
0.00013824
0.00013824
0.00013824
0.00013824
0.00013824
0.00013824
0.00013824
0.00013824
0.00013824
0.00013824
0.00013824
0.00013824
0.00013824
0.00013824
0.00013824
0.00013824
0.00013824
0.00013824
0.00013824
0.00013824
0.00013824
0.00013824
0.00013824
0.00013824
0.00013824
0.00013824
0.00013824
0.00013824
0.00013824
0.00013824
0.00013824
0.00013824
0.00013824
0.00013824
0.00013824
0.00013824
0.00013824
0.00013824
0.00013824
0.00013824
0.00013824
0.00013824
0.00013824
0.00013824
0.00013824
0.00013824
0.00013824
0.00013824
0.00013824
0.00013824
0.00013824
0.00013824
0.00013824
0.00013824
0.00013824
0.00013824
0.00013824
0.00013824
0.00013824
0.00013824
0.00013824
0.00013824
0.00013824
0.00013824
0.00013824
0.00013824
0.00013824
0.00013824
0.00013824
0.00013824
0.00013824
0.00013824
0.00013824
0.00013824
0.00013824
0.00013824
0.00013824
0.00013824
0.00013824
0.00013824
0.00013824
0.00013824
0.00013824
0.00013824
0.00013824
0.00013824
0.00013824
0.00013824
0.00013824
0.00013824
0.00013824
0.00013824
0.00013824
0.00013824
0.00013824
0.00013824
0.00013824
0.00013824
0.00013824
0.00013824
0.00013824
0.00013824
0.00013824
0.00013824
0.00013824
0.00013824
0.00013824
0.00013824
0.00013824
0.00013824
0.00013824
0.00013824
0.00013824
0.00013824
0.00013824
0.00013824
0.00013824
0.00013824
0.00013824
0.00013824
0.00013824
0.00013824
0.00013824
0.00013824
0.00013824
0.00013824
0.00013824
0.00013824
0.00013824
0.00013824
0.00013824
0.00013824
0.00013824
0.00013824
0.00013824
0.00013824
0.00013824
0.00013824
0.00013824
0.00013824
0.00013824
0.00013824
0.00013824
0.00013824
0.00013824
0.00013824
0.00013824
0.00013824
0.00013824
0.00013824
0.00013824
0.00013824
0.00013824
0.00013824
0.00013824
0.00013824
0.00013824
0.00013824
0.00013824
0.00013824
0.00013824
0.00013824
0.00013824
0.00013824
0.00013824
0.00013824
0.00013824
0.00013824
0.00013824
0.00013824
0.00013824
0.00013824
0.00013824
0.00013824
0.00013824
0.00013824
0.00013824
0.00013824
0.00013824
0.00013824
0.00013824
0.00013824
0.00013824
0.00013824
0.00013824
0.00013824
0.00013824
0.00013824
0.00013824
0.00013824
0.00013824
0.00013824
0.00013824
0.00013824
0.00013824
0.00013824
0.00013824
0.00013824
0.00013824
0.00013824
0.00013824
0.00013824
0.00013824
0.00013824
0.00013824
0.00013824
0.00013824
0.00013824
0.00013824
0.00013824
0.00013824
0.00013824
0.00013824
0.00013824
0.00013824
0.00013824
0.00013824
0.00013824
0.00013824
0.00013824
0.00013824
0.00013824
0.00013824
0.00013824
0.00013824
0.00013824
0.00013824
0.00013824
0.00013824
0.00013824
0.00013824
0.00013824
0.00013824
0.00013824
0.00013824
0.00013824
0.00013824
0.00013824
0.00013824
0.00013824
0.00013824
0.00013824
0.00013824
0.00013824
0.00013824
0.00013824
0.00013824
0.00013824
0.00013824
0.00013824
0.00013824
0.00013824
0.00013824
0.00013824
0.00013824
0.00013824
0.00013824
0.00013824
0.00013824
0.00013824
0.00013824
0.00013824
0.00013824
0.00013824
0.00013824
0.00013824
0.00013824
0.00013824
0.00013824
0.00013824
0.00013824
0.00013824
0.00013824
0.00013824
0.00013824
0.00013824
0.00013824
0.00013824
0.00013824
0.00013824
0.00013824
0.00013824
0.00013824
0.00013824
0.00013824
0.00013824
0.00013824
0.00013824
0.00013824
0.00013824
0.00013824
0.00013824
0.00013824
0.00013824
0.00013824
0.00013824
0.00013824
0.00013824
0.00013824
0.00013824
0.00013824
0.00013824
0.00013824
0.00013824
0.00013824
0.00013824
0.00013824
0.00013824
0.00013824
0.00013824
0.00013824
0.00013824
0.00013824
0.00013824
0.00013824
0.00013824
0.00013824
0.00013824
0.00013824
0.00013824
0.00013824
0.00013824
0.00013824
0.00013824
0.00013824
0.00013824
0.00013824
0.00013824
0.00013824
0.00013824
0.00013824
0.00013824
0.00013824
0.00013824
0.00013824
0.00013824
0.00013824
0.00013824
0.00013824
0.00013824
0.00013824
0.00013824
0.00013824
0.00013824
0.00013824
0.00013824
0.00013824
0.00013824
0.00013824
0.00013824
0.00013824
0.00013824
0.00013824
0.00013824
0.00013824
0.00013824
0.00013824
0.00013824
0.00013824
0.00013824
0.00013824
0.00013824
0.00013824
0.00013824
0.00013824
0.00013824
0.00013824
0.00013824
0.00013824
0.00013824
0.00013824
0.00013824
0.00013824
0.00013824
0.00013824
0.00013824
0.00013824
0.00013824
0.00013824
0.00013824
0.00013824
0.00013824
0.00013824
0.00013824
0.00013824
0.00013824
0.00013824
0.00013824
0.00013824
0.00013824
0.00013824
0.00013824
0.00013824
0.00013824
0.00013824
0.00013824
0.00013824
0.00013824
0.00013824
0.00013824
0.00013824
0.00013824
0.00013824
0.00013824
0.00013824
0.00013824
0.00013824
0.00013824
0.00013824
0.00013824
0.00013824
0.00013824
0.00013824