/*--------------------------------*- C++ -*----------------------------------*\
| =========                 |                                                 |
| \\      /  F ield         | OpenFOAM: The Open Source CFD Toolbox           |
|  \\    /   O peration     | Version:  2406                                  |
|   \\  /    A nd           | Website:  www.openfoam.com                      |
|    \\/     M anipulation  |                                                 |
\*---------------------------------------------------------------------------*/
FoamFile
{
    version     2.0;
    format      ascii;
    arch        "LSB;label=32;scalar=64";
    class       volScalarField;
    location    "9.7";
    object      Da;
}
// * * * * * * * * * * * * * * * * * * * * * * * * * * * * * * * * * * * * * //

dimensions      [0 2 -1 0 0 0 0];

internalField   nonuniform List<scalar> 
14400
(
5.22302e-05
5.2239e-05
5.22632e-05
5.23051e-05
5.2359e-05
5.24137e-05
5.24574e-05
5.24816e-05
5.2484e-05
5.24691e-05
5.24477e-05
5.2435e-05
5.24451e-05
5.24846e-05
5.25433e-05
5.25934e-05
5.26116e-05
5.26156e-05
5.26178e-05
5.2607e-05
5.25541e-05
5.24225e-05
5.21766e-05
5.1787e-05
5.12364e-05
5.0526e-05
4.96826e-05
4.8764e-05
4.78506e-05
4.70187e-05
4.63146e-05
4.57533e-05
4.53323e-05
4.5047e-05
4.49034e-05
4.49357e-05
4.52571e-05
4.63067e-05
5.06529e-05
7.73318e-05
7.8e-05
7.8e-05
7.8e-05
7.8e-05
7.8e-05
7.8e-05
7.8e-05
7.8e-05
7.8e-05
7.8e-05
7.8e-05
7.8e-05
7.8e-05
7.8e-05
7.8e-05
7.8e-05
7.8e-05
7.8e-05
7.61522e-05
4.94736e-05
4.62588e-05
4.54555e-05
4.52567e-05
4.53415e-05
4.56299e-05
4.61098e-05
4.67962e-05
4.77093e-05
4.88445e-05
5.01389e-05
5.14677e-05
5.26947e-05
5.37266e-05
5.45194e-05
5.50594e-05
5.53479e-05
5.5395e-05
5.52163e-05
5.48343e-05
5.4282e-05
5.36093e-05
5.28881e-05
5.22164e-05
5.1725e-05
5.16198e-05
5.24383e-05
5.69897e-05
7.74362e-05
6.03294e-05
5.20542e-05
5.03741e-05
4.99095e-05
4.98634e-05
5.00239e-05
5.02978e-05
5.06285e-05
5.09754e-05
5.13085e-05
5.16064e-05
5.18549e-05
5.20447e-05
5.21688e-05
5.22212e-05
5.21966e-05
5.20918e-05
5.19066e-05
5.16437e-05
5.13073e-05
5.09045e-05
5.04475e-05
4.99562e-05
4.94591e-05
4.8992e-05
4.85948e-05
4.83115e-05
4.81991e-05
4.8362e-05
4.90908e-05
5.18592e-05
7.29419e-05
5.17528e-05
5.17307e-05
5.17108e-05
5.17097e-05
5.17286e-05
5.17586e-05
5.17882e-05
5.1809e-05
5.18185e-05
5.18212e-05
5.18287e-05
5.1857e-05
5.19221e-05
5.20291e-05
5.21566e-05
5.22437e-05
5.22279e-05
5.2174e-05
5.21253e-05
5.20782e-05
5.20026e-05
5.18596e-05
5.16123e-05
5.12317e-05
5.07027e-05
5.00293e-05
4.92409e-05
4.83938e-05
4.75599e-05
4.6803e-05
4.61611e-05
4.56478e-05
4.52633e-05
4.50071e-05
4.48903e-05
4.49565e-05
4.53521e-05
4.67531e-05
5.4469e-05
7.79161e-05
7.8e-05
7.8e-05
7.8e-05
7.8e-05
7.8e-05
7.8e-05
7.8e-05
7.8e-05
7.8e-05
7.8e-05
7.8e-05
7.8e-05
7.8e-05
7.8e-05
7.8e-05
7.8e-05
7.8e-05
7.8e-05
7.76129e-05
5.17017e-05
4.66168e-05
4.554e-05
4.5268e-05
4.53146e-05
4.55695e-05
4.601e-05
4.66449e-05
4.74905e-05
4.85453e-05
4.97595e-05
5.10254e-05
5.22146e-05
5.32284e-05
5.40135e-05
5.45501e-05
5.48369e-05
5.48825e-05
5.47029e-05
5.43222e-05
5.37767e-05
5.31203e-05
5.24289e-05
5.18026e-05
5.13743e-05
5.13682e-05
5.24883e-05
5.93428e-05
7.78744e-05
6.49531e-05
5.22979e-05
5.02243e-05
4.96463e-05
4.95231e-05
4.9616e-05
4.9828e-05
5.01039e-05
5.04058e-05
5.07061e-05
5.09848e-05
5.1227e-05
5.14208e-05
5.15547e-05
5.16167e-05
5.15959e-05
5.14872e-05
5.12941e-05
5.10256e-05
5.06923e-05
5.03058e-05
4.98802e-05
4.94352e-05
4.89967e-05
4.85955e-05
4.82672e-05
4.80534e-05
4.80159e-05
4.82798e-05
4.92195e-05
5.26684e-05
7.61782e-05
5.09519e-05
5.08563e-05
5.07409e-05
5.06532e-05
5.06042e-05
5.05867e-05
5.0589e-05
5.06022e-05
5.06236e-05
5.0658e-05
5.07178e-05
5.08222e-05
5.09928e-05
5.12412e-05
5.15329e-05
5.17233e-05
5.1596e-05
5.13935e-05
5.12287e-05
5.11027e-05
5.09785e-05
5.08121e-05
5.05645e-05
5.02079e-05
4.97297e-05
4.91373e-05
4.84604e-05
4.77478e-05
4.70543e-05
4.64258e-05
4.58902e-05
4.54602e-05
4.51408e-05
4.49384e-05
4.4873e-05
4.5004e-05
4.55328e-05
4.75573e-05
6.33834e-05
7.79989e-05
7.8e-05
7.8e-05
7.8e-05
7.8e-05
7.8e-05
7.8e-05
7.8e-05
7.8e-05
7.8e-05
7.8e-05
7.8e-05
7.8e-05
7.8e-05
7.8e-05
7.8e-05
7.8e-05
7.8e-05
7.8e-05
7.79913e-05
5.9418e-05
4.74101e-05
4.57045e-05
4.52938e-05
4.52687e-05
4.54611e-05
4.583e-05
4.63725e-05
4.70975e-05
4.8005e-05
4.90634e-05
5.01943e-05
5.12893e-05
5.22489e-05
5.30066e-05
5.35302e-05
5.38107e-05
5.38544e-05
5.36777e-05
5.33088e-05
5.27901e-05
5.21828e-05
5.15676e-05
5.10445e-05
5.07456e-05
5.09202e-05
5.25709e-05
6.45084e-05
7.79936e-05
7.22169e-05
5.27715e-05
5.00387e-05
4.92276e-05
4.89557e-05
4.89265e-05
4.90296e-05
4.92084e-05
4.94278e-05
4.96642e-05
4.99007e-05
5.01234e-05
5.03179e-05
5.04662e-05
5.05454e-05
5.05331e-05
5.04204e-05
5.02181e-05
4.9948e-05
4.96312e-05
4.92849e-05
4.89243e-05
4.85661e-05
4.82301e-05
4.79402e-05
4.77256e-05
4.76276e-05
4.77197e-05
4.81864e-05
4.97901e-05
5.861e-05
7.79486e-05
5.0117e-05
4.98801e-05
4.96149e-05
4.94095e-05
4.92751e-05
4.91992e-05
4.91673e-05
4.91695e-05
4.9203e-05
4.92728e-05
4.93925e-05
4.95865e-05
4.98916e-05
5.03523e-05
5.09684e-05
5.14615e-05
5.09785e-05
5.04708e-05
5.01149e-05
4.98719e-05
4.96793e-05
4.94824e-05
4.92398e-05
4.89246e-05
4.8526e-05
4.8051e-05
4.75233e-05
4.69771e-05
4.64487e-05
4.59683e-05
4.55568e-05
4.52273e-05
4.49905e-05
4.48614e-05
4.48728e-05
4.51122e-05
4.58741e-05
4.87244e-05
7.38034e-05
7.8e-05
7.8e-05
7.8e-05
7.8e-05
7.8e-05
7.8e-05
7.8e-05
7.8e-05
7.8e-05
7.8e-05
7.8e-05
7.8e-05
7.8e-05
7.8e-05
7.8e-05
7.8e-05
7.8e-05
7.8e-05
7.8e-05
7.8e-05
7.02194e-05
4.84299e-05
4.59656e-05
4.5354e-05
4.52227e-05
4.53278e-05
4.56025e-05
4.60285e-05
4.66037e-05
4.73253e-05
4.81741e-05
4.91012e-05
5.00289e-05
5.08708e-05
5.15562e-05
5.20405e-05
5.23041e-05
5.23479e-05
5.21892e-05
5.1861e-05
5.14129e-05
5.09109e-05
5.04353e-05
5.0081e-05
4.998e-05
5.04189e-05
5.27127e-05
7.12307e-05
7.8e-05
7.76905e-05
5.57967e-05
5.01893e-05
4.88342e-05
4.83329e-05
4.81487e-05
4.81244e-05
4.81922e-05
4.83161e-05
4.84751e-05
4.86558e-05
4.88468e-05
4.90342e-05
4.91959e-05
4.92971e-05
4.92983e-05
4.91841e-05
4.89762e-05
4.87138e-05
4.84285e-05
4.814e-05
4.78617e-05
4.76055e-05
4.73849e-05
4.72174e-05
4.71293e-05
4.71653e-05
4.742e-05
4.81649e-05
5.07343e-05
7.00373e-05
7.79999e-05
4.96824e-05
4.91272e-05
4.86331e-05
4.82874e-05
4.80644e-05
4.79317e-05
4.78668e-05
4.7857e-05
4.78985e-05
4.79971e-05
4.81693e-05
4.84481e-05
4.88986e-05
4.96555e-05
5.09959e-05
5.31588e-05
5.08034e-05
4.96584e-05
4.90293e-05
4.86481e-05
4.83817e-05
4.81547e-05
4.79212e-05
4.76546e-05
4.73437e-05
4.69913e-05
4.66107e-05
4.6222e-05
4.58468e-05
4.55053e-05
4.52139e-05
4.49874e-05
4.48418e-05
4.48027e-05
4.49255e-05
4.53725e-05
4.69443e-05
5.76232e-05
7.79858e-05
7.8e-05
7.8e-05
7.8e-05
7.8e-05
7.8e-05
7.8e-05
7.8e-05
7.8e-05
7.8e-05
7.8e-05
7.8e-05
7.8e-05
7.8e-05
7.8e-05
7.8e-05
7.8e-05
7.8e-05
7.8e-05
7.8e-05
7.8e-05
7.76988e-05
5.18911e-05
4.66077e-05
4.55149e-05
4.52083e-05
4.51984e-05
4.53641e-05
4.56653e-05
4.60865e-05
4.66181e-05
4.72446e-05
4.79357e-05
4.86424e-05
4.9303e-05
4.98576e-05
5.02608e-05
5.0488e-05
5.05358e-05
5.04206e-05
5.01768e-05
4.98539e-05
4.95136e-05
4.92279e-05
4.90879e-05
4.92488e-05
5.0143e-05
5.39504e-05
7.70226e-05
7.8e-05
7.79999e-05
6.98256e-05
5.12635e-05
4.86588e-05
4.78158e-05
4.74557e-05
4.7307e-05
4.72744e-05
4.73144e-05
4.74056e-05
4.75367e-05
4.7699e-05
4.78813e-05
4.80612e-05
4.81937e-05
4.82144e-05
4.8094e-05
4.7874e-05
4.76155e-05
4.73591e-05
4.71233e-05
4.69183e-05
4.67513e-05
4.66317e-05
4.65748e-05
4.66086e-05
4.67909e-05
4.72659e-05
4.85641e-05
5.422e-05
7.77075e-05
7.8e-05
5.10143e-05
4.89975e-05
4.80235e-05
4.74756e-05
4.71493e-05
4.69584e-05
4.68619e-05
4.68398e-05
4.68861e-05
4.70083e-05
4.72292e-05
4.75981e-05
4.82345e-05
4.95137e-05
5.34256e-05
7.22824e-05
5.21704e-05
4.92278e-05
4.8172e-05
4.76309e-05
4.72903e-05
4.70344e-05
4.68084e-05
4.65833e-05
4.63455e-05
4.60923e-05
4.58287e-05
4.55647e-05
4.53131e-05
4.50873e-05
4.49016e-05
4.47726e-05
4.47231e-05
4.47942e-05
4.50794e-05
4.58772e-05
4.88191e-05
7.43947e-05
7.8e-05
7.8e-05
7.8e-05
7.8e-05
7.8e-05
7.8e-05
7.8e-05
7.8e-05
7.8e-05
7.8e-05
7.8e-05
7.8e-05
7.8e-05
7.8e-05
7.8e-05
7.8e-05
7.8e-05
7.8e-05
7.8e-05
7.8e-05
7.8e-05
7.8e-05
6.9168e-05
4.82538e-05
4.58773e-05
4.52657e-05
4.51038e-05
4.51491e-05
4.53266e-05
4.56055e-05
4.59679e-05
4.63974e-05
4.68717e-05
4.736e-05
4.78233e-05
4.8221e-05
4.85193e-05
4.86979e-05
4.87533e-05
4.86992e-05
4.85642e-05
4.83891e-05
4.82248e-05
4.81352e-05
4.82179e-05
4.86956e-05
5.05713e-05
6.38905e-05
7.79963e-05
7.8e-05
7.8e-05
7.78761e-05
5.61992e-05
4.90771e-05
4.75527e-05
4.69635e-05
4.66871e-05
4.65658e-05
4.65382e-05
4.65792e-05
4.66779e-05
4.6828e-05
4.70223e-05
4.72446e-05
4.7439e-05
4.74941e-05
4.73424e-05
4.70777e-05
4.67969e-05
4.65476e-05
4.63431e-05
4.61886e-05
4.60879e-05
4.60489e-05
4.6089e-05
4.62464e-05
4.66124e-05
4.74672e-05
5.02522e-05
7.1769e-05
7.8e-05
7.8e-05
6.87656e-05
5.07635e-05
4.80218e-05
4.70572e-05
4.65696e-05
4.63018e-05
4.61683e-05
4.61325e-05
4.61839e-05
4.63332e-05
4.6617e-05
4.71214e-05
4.8112e-05
5.0933e-05
7.08522e-05
7.79872e-05
6.08322e-05
4.95963e-05
4.76502e-05
4.68968e-05
4.64718e-05
4.61831e-05
4.59574e-05
4.57595e-05
4.55721e-05
4.53882e-05
4.52074e-05
4.50339e-05
4.48753e-05
4.47416e-05
4.46464e-05
4.46096e-05
4.46653e-05
4.48865e-05
4.54878e-05
4.75647e-05
6.39486e-05
7.79994e-05
7.8e-05
7.8e-05
7.8e-05
7.8e-05
7.8e-05
7.8e-05
7.8e-05
7.8e-05
7.8e-05
7.8e-05
7.8e-05
7.8e-05
7.8e-05
7.8e-05
7.8e-05
7.8e-05
7.8e-05
7.8e-05
7.8e-05
7.8e-05
7.8e-05
7.8e-05
7.79179e-05
5.41277e-05
4.67647e-05
4.54696e-05
4.50837e-05
4.49892e-05
4.50444e-05
4.51966e-05
4.54187e-05
4.56913e-05
4.59956e-05
4.63102e-05
4.66112e-05
4.68741e-05
4.70789e-05
4.72134e-05
4.72763e-05
4.72781e-05
4.72399e-05
4.71934e-05
4.71813e-05
4.72668e-05
4.75688e-05
4.8413e-05
5.13353e-05
7.43081e-05
7.8e-05
7.8e-05
7.8e-05
7.8e-05
7.49432e-05
5.09773e-05
4.77731e-05
4.67723e-05
4.63195e-05
4.61016e-05
4.60117e-05
4.60152e-05
4.61002e-05
4.62625e-05
4.65033e-05
4.68301e-05
4.71876e-05
4.73445e-05
4.70629e-05
4.66596e-05
4.62953e-05
4.60156e-05
4.58136e-05
4.56858e-05
4.56323e-05
4.56619e-05
4.58008e-05
4.6115e-05
4.68029e-05
4.88203e-05
6.14733e-05
7.79949e-05
7.8e-05
7.8e-05
7.79985e-05
6.42846e-05
4.9535e-05
4.71835e-05
4.63497e-05
4.5948e-05
4.57595e-05
4.57056e-05
4.57661e-05
4.59585e-05
4.63539e-05
4.71429e-05
4.92401e-05
6.1274e-05
7.79926e-05
7.8e-05
7.42999e-05
5.06707e-05
4.75259e-05
4.64603e-05
4.59177e-05
4.55821e-05
4.53452e-05
4.51595e-05
4.50024e-05
4.48633e-05
4.47386e-05
4.46295e-05
4.45413e-05
4.44826e-05
4.44683e-05
4.45249e-05
4.47076e-05
4.51605e-05
4.64795e-05
5.34712e-05
7.79049e-05
7.8e-05
7.8e-05
7.8e-05
7.8e-05
7.8e-05
7.8e-05
7.8e-05
7.8e-05
7.8e-05
7.8e-05
7.8e-05
7.8e-05
7.8e-05
7.8e-05
7.8e-05
7.8e-05
7.8e-05
7.8e-05
7.8e-05
7.8e-05
7.8e-05
7.8e-05
7.8e-05
7.8e-05
7.43422e-05
4.88813e-05
4.5986e-05
4.52042e-05
4.49207e-05
4.4843e-05
4.48781e-05
4.49838e-05
4.51358e-05
4.53156e-05
4.55068e-05
4.56936e-05
4.58616e-05
4.59998e-05
4.61024e-05
4.61704e-05
4.62125e-05
4.62457e-05
4.6297e-05
4.64086e-05
4.66564e-05
4.7229e-05
4.8976e-05
5.99277e-05
7.79855e-05
7.8e-05
7.8e-05
7.8e-05
7.8e-05
7.8e-05
6.94061e-05
4.98684e-05
4.71451e-05
4.62852e-05
4.59152e-05
4.57433e-05
4.57121e-05
4.5804e-05
4.602e-05
4.63781e-05
4.70033e-05
4.80166e-05
4.88801e-05
4.76886e-05
4.67743e-05
4.61567e-05
4.57752e-05
4.55339e-05
4.54094e-05
4.53919e-05
4.54951e-05
4.57704e-05
4.6365e-05
4.7868e-05
5.46534e-05
7.78768e-05
7.8e-05
7.8e-05
7.8e-05
7.8e-05
7.79843e-05
5.92356e-05
4.86865e-05
4.66604e-05
4.59379e-05
4.56472e-05
4.55631e-05
4.56428e-05
4.59206e-05
4.65815e-05
4.82308e-05
5.52648e-05
7.78887e-05
7.8e-05
7.8e-05
7.79969e-05
6.22688e-05
4.8501e-05
4.63873e-05
4.56159e-05
4.52009e-05
4.49353e-05
4.47465e-05
4.46036e-05
4.4492e-05
4.44058e-05
4.43448e-05
4.43138e-05
4.43231e-05
4.43918e-05
4.45608e-05
4.49348e-05
4.58545e-05
4.92392e-05
7.65793e-05
7.8e-05
7.8e-05
7.8e-05
7.8e-05
7.8e-05
7.8e-05
7.8e-05
7.8e-05
7.8e-05
7.8e-05
7.8e-05
7.8e-05
7.8e-05
7.8e-05
7.8e-05
7.8e-05
7.8e-05
7.8e-05
7.8e-05
7.8e-05
7.8e-05
7.8e-05
7.8e-05
7.8e-05
7.8e-05
7.79998e-05
6.58743e-05
4.79004e-05
4.56562e-05
4.50035e-05
4.47488e-05
4.46616e-05
4.46639e-05
4.47197e-05
4.48077e-05
4.49127e-05
4.50227e-05
4.51285e-05
4.52238e-05
4.53063e-05
4.53787e-05
4.54495e-05
4.55349e-05
4.56632e-05
4.58854e-05
4.63098e-05
4.72487e-05
5.02918e-05
7.44176e-05
7.8e-05
7.8e-05
7.8e-05
7.8e-05
7.8e-05
7.8e-05
7.79997e-05
6.65633e-05
4.94344e-05
4.68706e-05
4.6145e-05
4.57961e-05
4.57141e-05
4.58507e-05
4.62366e-05
4.6921e-05
4.89173e-05
5.46563e-05
6.54598e-05
5.22368e-05
4.83653e-05
4.66175e-05
4.59296e-05
4.55528e-05
4.53984e-05
4.54156e-05
4.56348e-05
4.62099e-05
4.76971e-05
5.29649e-05
7.76454e-05
7.8e-05
7.8e-05
7.8e-05
7.8e-05
7.8e-05
7.8e-05
7.79723e-05
5.89248e-05
4.86253e-05
4.65367e-05
4.59902e-05
4.5832e-05
4.59655e-05
4.64662e-05
4.82314e-05
5.48564e-05
7.77975e-05
7.8e-05
7.8e-05
7.8e-05
7.8e-05
7.73462e-05
5.12227e-05
4.68139e-05
4.55944e-05
4.50329e-05
4.47088e-05
4.44979e-05
4.43547e-05
4.42581e-05
4.41994e-05
4.41785e-05
4.42025e-05
4.42878e-05
4.44662e-05
4.48176e-05
4.56378e-05
4.85211e-05
7.38698e-05
7.8e-05
7.8e-05
7.8e-05
7.8e-05
7.8e-05
7.8e-05
7.8e-05
7.8e-05
7.8e-05
7.8e-05
7.8e-05
7.8e-05
7.8e-05
7.8e-05
7.8e-05
7.8e-05
7.8e-05
7.8e-05
7.8e-05
7.8e-05
7.8e-05
7.8e-05
7.8e-05
7.8e-05
7.8e-05
7.8e-05
7.8e-05
7.79864e-05
5.75462e-05
4.70557e-05
4.53629e-05
4.48054e-05
4.45642e-05
4.44602e-05
4.44306e-05
4.44453e-05
4.44868e-05
4.45436e-05
4.46081e-05
4.46762e-05
4.47475e-05
4.48259e-05
4.49211e-05
4.50515e-05
4.52526e-05
4.56e-05
4.63071e-05
4.84005e-05
6.30439e-05
7.79982e-05
7.8e-05
7.8e-05
7.8e-05
7.8e-05
7.8e-05
7.8e-05
7.8e-05
7.79997e-05
6.9316e-05
4.97917e-05
4.76081e-05
4.64636e-05
4.62507e-05
4.65592e-05
4.78258e-05
4.98983e-05
6.71048e-05
7.7877e-05
7.79994e-05
7.75648e-05
6.22822e-05
4.91953e-05
4.70771e-05
4.61159e-05
4.58502e-05
4.59213e-05
4.64371e-05
4.83406e-05
5.62766e-05
7.77241e-05
7.8e-05
7.8e-05
7.8e-05
7.8e-05
7.8e-05
7.8e-05
7.8e-05
7.8e-05
7.79862e-05
6.52785e-05
4.93922e-05
4.7816e-05
4.72466e-05
4.76882e-05
4.91283e-05
6.14066e-05
7.78978e-05
7.8e-05
7.8e-05
7.8e-05
7.8e-05
7.8e-05
7.8e-05
7.37939e-05
4.91227e-05
4.60907e-05
4.51409e-05
4.46863e-05
4.44185e-05
4.42564e-05
4.41639e-05
4.41274e-05
4.41472e-05
4.42397e-05
4.44421e-05
4.48299e-05
4.56266e-05
4.83975e-05
7.23532e-05
7.8e-05
7.8e-05
7.8e-05
7.8e-05
7.8e-05
7.8e-05
7.8e-05
7.8e-05
7.8e-05
7.8e-05
7.8e-05
7.8e-05
7.8e-05
7.8e-05
7.8e-05
7.8e-05
7.8e-05
7.8e-05
7.8e-05
7.8e-05
7.8e-05
7.8e-05
7.8e-05
7.8e-05
7.8e-05
7.8e-05
7.8e-05
7.8e-05
7.8e-05
7.78299e-05
5.23871e-05
4.6419e-05
4.51259e-05
4.46298e-05
4.4388e-05
4.4266e-05
4.42124e-05
4.42008e-05
4.42168e-05
4.4252e-05
4.43027e-05
4.43694e-05
4.44578e-05
4.45803e-05
4.47607e-05
4.50512e-05
4.55792e-05
4.68024e-05
5.1688e-05
7.75754e-05
7.8e-05
7.8e-05
7.8e-05
7.8e-05
7.8e-05
7.8e-05
7.8e-05
7.8e-05
7.8e-05
7.8e-05
7.52102e-05
5.88009e-05
4.94468e-05
4.87372e-05
4.98366e-05
6.10102e-05
7.56857e-05
7.79998e-05
7.8e-05
7.8e-05
7.8e-05
7.79978e-05
7.2789e-05
5.44546e-05
4.86843e-05
4.79749e-05
4.82327e-05
5.0057e-05
6.70459e-05
7.79617e-05
7.8e-05
7.8e-05
7.8e-05
7.8e-05
7.8e-05
7.8e-05
7.8e-05
7.8e-05
7.8e-05
7.8e-05
7.79996e-05
7.46459e-05
6.25403e-05
5.58612e-05
6.08126e-05
7.29305e-05
7.79967e-05
7.8e-05
7.8e-05
7.8e-05
7.8e-05
7.8e-05
7.8e-05
7.8e-05
7.8e-05
7.00922e-05
4.85683e-05
4.5813e-05
4.49891e-05
4.45688e-05
4.43523e-05
4.425e-05
4.42358e-05
4.43116e-05
4.45227e-05
4.50053e-05
4.61095e-05
4.88891e-05
7.37688e-05
7.8e-05
7.8e-05
7.8e-05
7.8e-05
7.8e-05
7.8e-05
7.8e-05
7.8e-05
7.8e-05
7.8e-05
7.8e-05
7.8e-05
7.8e-05
7.8e-05
7.8e-05
7.8e-05
7.8e-05
7.8e-05
7.8e-05
7.8e-05
7.8e-05
7.8e-05
7.8e-05
7.8e-05
7.8e-05
7.8e-05
7.8e-05
7.8e-05
7.8e-05
7.8e-05
7.8e-05
7.7404e-05
5.04434e-05
4.6144e-05
4.49966e-05
4.45013e-05
4.42451e-05
4.41101e-05
4.40437e-05
4.40224e-05
4.4034e-05
4.40734e-05
4.41417e-05
4.42476e-05
4.44092e-05
4.46636e-05
4.51085e-05
4.60392e-05
4.90549e-05
7.41534e-05
7.8e-05
7.8e-05
7.8e-05
7.8e-05
7.8e-05
7.8e-05
7.8e-05
7.8e-05
7.8e-05
7.8e-05
7.8e-05
7.8e-05
7.79884e-05
7.56727e-05
7.26223e-05
7.64593e-05
7.79959e-05
7.8e-05
7.8e-05
7.8e-05
7.8e-05
7.8e-05
7.8e-05
7.8e-05
7.79169e-05
7.25228e-05
6.63883e-05
6.94682e-05
7.69388e-05
7.79999e-05
7.8e-05
7.8e-05
7.8e-05
7.8e-05
7.8e-05
7.8e-05
7.8e-05
7.8e-05
7.8e-05
7.8e-05
7.8e-05
7.8e-05
7.8e-05
7.79981e-05
7.795e-05
7.79953e-05
7.8e-05
7.8e-05
7.8e-05
7.8e-05
7.8e-05
7.8e-05
7.8e-05
7.8e-05
7.8e-05
7.8e-05
7.8e-05
7.09032e-05
4.87411e-05
4.62394e-05
4.51956e-05
4.4817e-05
4.46704e-05
4.46966e-05
4.48905e-05
4.54138e-05
4.71983e-05
5.38341e-05
7.65844e-05
7.8e-05
7.8e-05
7.8e-05
7.8e-05
7.8e-05
7.8e-05
7.8e-05
7.8e-05
7.8e-05
7.8e-05
7.8e-05
7.8e-05
7.8e-05
7.8e-05
7.8e-05
7.8e-05
7.8e-05
7.8e-05
7.8e-05
7.8e-05
7.8e-05
7.8e-05
7.8e-05
7.8e-05
7.8e-05
7.8e-05
7.8e-05
7.8e-05
7.8e-05
7.8e-05
7.8e-05
7.8e-05
7.8e-05
7.7213e-05
5.06508e-05
4.62954e-05
4.49898e-05
4.44398e-05
4.41724e-05
4.40299e-05
4.39649e-05
4.3953e-05
4.39848e-05
4.40626e-05
4.42007e-05
4.44334e-05
4.48298e-05
4.56703e-05
4.83513e-05
6.93085e-05
7.8e-05
7.8e-05
7.8e-05
7.8e-05
7.8e-05
7.8e-05
7.8e-05
7.8e-05
7.8e-05
7.8e-05
7.8e-05
7.8e-05
7.8e-05
7.8e-05
7.8e-05
7.8e-05
7.8e-05
7.8e-05
7.8e-05
7.8e-05
7.8e-05
7.8e-05
7.8e-05
7.8e-05
7.8e-05
7.8e-05
7.8e-05
7.79998e-05
7.8e-05
7.8e-05
7.8e-05
7.8e-05
7.8e-05
7.8e-05
7.8e-05
7.8e-05
7.8e-05
7.8e-05
7.8e-05
7.8e-05
7.8e-05
7.8e-05
7.8e-05
7.8e-05
7.8e-05
7.8e-05
7.8e-05
7.8e-05
7.8e-05
7.8e-05
7.8e-05
7.8e-05
7.8e-05
7.8e-05
7.8e-05
7.8e-05
7.8e-05
7.8e-05
7.8e-05
7.52756e-05
5.40213e-05
4.76984e-05
4.6597e-05
4.61872e-05
4.64257e-05
4.71498e-05
4.90678e-05
6.70631e-05
7.79432e-05
7.8e-05
7.8e-05
7.8e-05
7.8e-05
7.8e-05
7.8e-05
7.8e-05
7.8e-05
7.8e-05
7.8e-05
7.8e-05
7.8e-05
7.8e-05
7.8e-05
7.8e-05
7.8e-05
7.8e-05
7.8e-05
7.8e-05
7.8e-05
7.8e-05
7.8e-05
7.8e-05
7.8e-05
7.8e-05
7.8e-05
7.8e-05
7.8e-05
7.8e-05
7.8e-05
7.8e-05
7.8e-05
7.8e-05
7.8e-05
7.8e-05
7.75917e-05
5.38193e-05
4.68732e-05
4.5114e-05
4.45267e-05
4.42272e-05
4.40917e-05
4.40472e-05
4.40739e-05
4.41758e-05
4.43822e-05
4.47881e-05
4.55544e-05
4.81527e-05
6.76949e-05
7.79999e-05
7.8e-05
7.8e-05
7.8e-05
7.8e-05
7.8e-05
7.8e-05
7.8e-05
7.8e-05
7.8e-05
7.8e-05
7.8e-05
7.8e-05
7.8e-05
7.8e-05
7.8e-05
7.8e-05
7.8e-05
7.8e-05
7.8e-05
7.8e-05
7.8e-05
7.8e-05
7.8e-05
7.8e-05
7.8e-05
7.8e-05
7.8e-05
7.8e-05
7.8e-05
7.8e-05
7.8e-05
7.8e-05
7.8e-05
7.8e-05
7.8e-05
7.8e-05
7.8e-05
7.8e-05
7.8e-05
7.8e-05
7.8e-05
7.8e-05
7.8e-05
7.8e-05
7.8e-05
7.8e-05
7.8e-05
7.8e-05
7.8e-05
7.8e-05
7.8e-05
7.8e-05
7.8e-05
7.8e-05
7.8e-05
7.8e-05
7.8e-05
7.8e-05
7.8e-05
7.8e-05
7.79417e-05
7.06075e-05
5.95725e-05
5.52934e-05
5.86416e-05
6.78267e-05
7.70539e-05
7.79999e-05
7.8e-05
7.8e-05
7.8e-05
7.8e-05
7.8e-05
7.8e-05
7.8e-05
7.8e-05
7.8e-05
7.8e-05
7.8e-05
7.8e-05
7.8e-05
7.8e-05
7.8e-05
7.8e-05
7.8e-05
7.8e-05
7.8e-05
7.8e-05
7.8e-05
7.8e-05
7.8e-05
7.8e-05
7.8e-05
7.8e-05
7.8e-05
7.8e-05
7.8e-05
7.8e-05
7.8e-05
7.8e-05
7.8e-05
7.8e-05
7.8e-05
7.8e-05
7.8e-05
7.79408e-05
6.19628e-05
4.77813e-05
4.57894e-05
4.48906e-05
4.45872e-05
4.44695e-05
4.44914e-05
4.46633e-05
4.50557e-05
4.62171e-05
4.85987e-05
7.08062e-05
7.79999e-05
7.8e-05
7.8e-05
7.8e-05
7.8e-05
7.8e-05
7.8e-05
7.8e-05
7.8e-05
7.8e-05
7.8e-05
7.8e-05
7.8e-05
7.8e-05
7.8e-05
7.8e-05
7.8e-05
7.8e-05
7.8e-05
7.8e-05
7.8e-05
7.8e-05
7.8e-05
7.8e-05
7.8e-05
7.8e-05
7.8e-05
7.8e-05
7.8e-05
7.8e-05
7.8e-05
7.8e-05
7.8e-05
7.8e-05
7.8e-05
7.8e-05
7.8e-05
7.8e-05
7.8e-05
7.8e-05
7.8e-05
7.8e-05
7.8e-05
7.8e-05
7.8e-05
7.8e-05
7.8e-05
7.8e-05
7.8e-05
7.8e-05
7.8e-05
7.8e-05
7.8e-05
7.8e-05
7.8e-05
7.8e-05
7.8e-05
7.8e-05
7.8e-05
7.8e-05
7.8e-05
7.8e-05
7.8e-05
7.8e-05
7.79954e-05
7.79657e-05
7.79932e-05
7.8e-05
7.8e-05
7.8e-05
7.8e-05
7.8e-05
7.8e-05
7.8e-05
7.8e-05
7.8e-05
7.8e-05
7.8e-05
7.8e-05
7.8e-05
7.8e-05
7.8e-05
7.8e-05
7.8e-05
7.8e-05
7.8e-05
7.8e-05
7.8e-05
7.8e-05
7.8e-05
7.8e-05
7.8e-05
7.8e-05
7.8e-05
7.8e-05
7.8e-05
7.8e-05
7.8e-05
7.8e-05
7.8e-05
7.8e-05
7.8e-05
7.8e-05
7.8e-05
7.8e-05
7.8e-05
7.8e-05
7.8e-05
7.7999e-05
7.27286e-05
5.34591e-05
4.74519e-05
4.64884e-05
4.59882e-05
4.59905e-05
4.65496e-05
4.77059e-05
5.63511e-05
7.58665e-05
7.8e-05
7.8e-05
7.8e-05
7.8e-05
7.8e-05
7.8e-05
7.8e-05
7.8e-05
7.8e-05
7.8e-05
7.8e-05
7.8e-05
7.8e-05
7.8e-05
7.8e-05
7.8e-05
7.8e-05
7.8e-05
7.8e-05
7.8e-05
7.8e-05
7.8e-05
7.8e-05
7.8e-05
7.8e-05
7.8e-05
7.8e-05
7.8e-05
7.8e-05
7.8e-05
7.8e-05
7.8e-05
7.8e-05
7.8e-05
7.8e-05
7.8e-05
7.8e-05
7.8e-05
7.8e-05
7.8e-05
7.8e-05
7.8e-05
7.8e-05
7.8e-05
7.8e-05
7.8e-05
7.8e-05
7.8e-05
7.8e-05
7.8e-05
7.8e-05
7.8e-05
7.8e-05
7.8e-05
7.8e-05
7.8e-05
7.8e-05
7.8e-05
7.8e-05
7.8e-05
7.8e-05
7.8e-05
7.8e-05
7.8e-05
7.8e-05
7.8e-05
7.8e-05
7.8e-05
7.8e-05
7.8e-05
7.8e-05
7.8e-05
7.8e-05
7.8e-05
7.8e-05
7.8e-05
7.8e-05
7.8e-05
7.8e-05
7.8e-05
7.8e-05
7.8e-05
7.8e-05
7.8e-05
7.8e-05
7.8e-05
7.8e-05
7.8e-05
7.8e-05
7.8e-05
7.8e-05
7.8e-05
7.8e-05
7.8e-05
7.8e-05
7.8e-05
7.8e-05
7.8e-05
7.8e-05
7.8e-05
7.8e-05
7.8e-05
7.8e-05
7.8e-05
7.8e-05
7.8e-05
7.8e-05
7.8e-05
7.8e-05
7.8e-05
7.8e-05
7.79415e-05
7.1866e-05
6.16659e-05
5.53509e-05
5.50693e-05
6.14627e-05
7.24706e-05
7.7984e-05
7.8e-05
7.8e-05
7.8e-05
7.8e-05
7.8e-05
7.8e-05
7.8e-05
7.8e-05
7.8e-05
7.8e-05
7.8e-05
7.8e-05
7.8e-05
7.8e-05
7.8e-05
7.8e-05
7.8e-05
7.8e-05
7.8e-05
7.8e-05
7.8e-05
7.8e-05
7.8e-05
7.8e-05
7.8e-05
7.8e-05
7.8e-05
7.8e-05
7.8e-05
7.8e-05
7.8e-05
7.8e-05
7.8e-05
7.8e-05
7.8e-05
7.8e-05
7.8e-05
7.8e-05
7.8e-05
7.8e-05
7.8e-05
7.8e-05
7.8e-05
7.8e-05
7.8e-05
7.8e-05
7.8e-05
7.8e-05
7.8e-05
7.8e-05
7.8e-05
7.8e-05
7.8e-05
7.8e-05
7.8e-05
7.8e-05
7.8e-05
7.8e-05
7.8e-05
7.8e-05
7.8e-05
7.8e-05
7.8e-05
7.8e-05
7.8e-05
7.8e-05
7.8e-05
7.8e-05
7.8e-05
7.8e-05
7.8e-05
7.8e-05
7.8e-05
7.8e-05
7.8e-05
7.8e-05
7.8e-05
7.8e-05
7.8e-05
7.8e-05
7.8e-05
7.8e-05
7.8e-05
7.8e-05
7.8e-05
7.8e-05
7.8e-05
7.8e-05
7.8e-05
7.8e-05
7.8e-05
7.8e-05
7.8e-05
7.8e-05
7.8e-05
7.8e-05
7.8e-05
7.8e-05
7.8e-05
7.8e-05
7.8e-05
7.8e-05
7.8e-05
7.8e-05
7.8e-05
7.8e-05
7.8e-05
7.8e-05
7.8e-05
7.8e-05
7.8e-05
7.8e-05
7.8e-05
7.8e-05
7.79986e-05
7.79711e-05
7.79663e-05
7.79984e-05
7.8e-05
7.8e-05
7.8e-05
7.8e-05
7.8e-05
7.8e-05
7.8e-05
7.8e-05
7.8e-05
7.8e-05
7.8e-05
7.8e-05
7.8e-05
7.8e-05
7.8e-05
7.8e-05
7.8e-05
7.8e-05
7.8e-05
7.8e-05
7.8e-05
7.8e-05
7.8e-05
7.8e-05
7.8e-05
7.8e-05
7.8e-05
7.8e-05
7.8e-05
7.8e-05
7.8e-05
7.8e-05
7.8e-05
7.8e-05
7.8e-05
7.8e-05
7.8e-05
7.8e-05
7.8e-05
7.8e-05
7.8e-05
7.8e-05
7.8e-05
7.8e-05
7.8e-05
7.8e-05
7.8e-05
7.8e-05
7.8e-05
7.8e-05
7.8e-05
7.8e-05
7.8e-05
7.8e-05
7.8e-05
7.8e-05
7.8e-05
7.8e-05
7.8e-05
7.8e-05
7.8e-05
7.8e-05
7.8e-05
7.8e-05
7.8e-05
7.8e-05
7.8e-05
7.8e-05
7.8e-05
7.8e-05
7.8e-05
7.8e-05
7.8e-05
7.8e-05
7.8e-05
7.8e-05
7.8e-05
7.8e-05
7.8e-05
7.8e-05
7.8e-05
7.8e-05
7.8e-05
7.8e-05
7.8e-05
7.8e-05
7.8e-05
7.8e-05
7.8e-05
7.8e-05
7.8e-05
7.8e-05
7.8e-05
7.8e-05
7.8e-05
7.8e-05
7.8e-05
7.8e-05
7.8e-05
7.8e-05
7.8e-05
7.8e-05
7.8e-05
7.8e-05
7.8e-05
7.8e-05
7.8e-05
7.8e-05
7.8e-05
7.8e-05
7.8e-05
7.8e-05
7.8e-05
7.8e-05
7.8e-05
7.8e-05
7.8e-05
7.8e-05
7.8e-05
7.8e-05
7.8e-05
7.8e-05
7.8e-05
7.8e-05
7.8e-05
7.8e-05
7.8e-05
7.8e-05
7.8e-05
7.8e-05
7.8e-05
7.8e-05
7.8e-05
7.8e-05
7.8e-05
7.8e-05
7.8e-05
7.8e-05
7.8e-05
7.8e-05
7.8e-05
7.8e-05
7.8e-05
7.8e-05
7.8e-05
7.8e-05
7.8e-05
7.8e-05
7.8e-05
7.8e-05
7.8e-05
7.8e-05
7.8e-05
7.8e-05
7.8e-05
7.8e-05
7.8e-05
7.8e-05
7.8e-05
7.8e-05
7.8e-05
7.8e-05
7.8e-05
7.8e-05
7.8e-05
7.8e-05
7.8e-05
7.8e-05
7.8e-05
7.8e-05
7.8e-05
7.8e-05
7.8e-05
7.8e-05
7.8e-05
7.8e-05
7.8e-05
7.8e-05
7.8e-05
7.8e-05
7.8e-05
7.8e-05
7.8e-05
7.8e-05
7.8e-05
7.8e-05
7.8e-05
7.8e-05
7.8e-05
7.8e-05
7.8e-05
7.8e-05
7.8e-05
7.8e-05
7.8e-05
7.8e-05
7.8e-05
7.8e-05
7.8e-05
7.8e-05
7.8e-05
7.8e-05
7.8e-05
7.8e-05
7.8e-05
7.8e-05
7.8e-05
7.8e-05
7.8e-05
7.8e-05
7.8e-05
7.8e-05
7.8e-05
7.8e-05
7.8e-05
7.8e-05
7.8e-05
7.8e-05
7.8e-05
7.8e-05
7.8e-05
7.8e-05
7.8e-05
7.8e-05
7.8e-05
7.8e-05
7.8e-05
7.8e-05
7.8e-05
7.8e-05
7.8e-05
7.8e-05
7.8e-05
7.8e-05
7.8e-05
7.8e-05
7.8e-05
7.8e-05
7.8e-05
7.8e-05
7.8e-05
7.8e-05
7.8e-05
7.8e-05
7.8e-05
7.8e-05
7.8e-05
7.8e-05
7.8e-05
7.8e-05
7.8e-05
7.8e-05
7.8e-05
7.8e-05
7.8e-05
7.8e-05
7.8e-05
7.8e-05
7.8e-05
7.8e-05
7.8e-05
7.8e-05
7.8e-05
7.8e-05
7.8e-05
7.8e-05
7.8e-05
7.8e-05
7.8e-05
7.8e-05
7.8e-05
7.8e-05
7.8e-05
7.8e-05
7.8e-05
7.8e-05
7.8e-05
7.8e-05
7.8e-05
7.8e-05
7.8e-05
7.8e-05
7.8e-05
7.8e-05
7.8e-05
7.8e-05
7.8e-05
7.8e-05
7.8e-05
7.8e-05
7.8e-05
7.8e-05
7.8e-05
7.8e-05
7.8e-05
7.8e-05
7.8e-05
7.8e-05
7.8e-05
7.8e-05
7.8e-05
7.8e-05
7.8e-05
7.8e-05
7.8e-05
7.8e-05
7.8e-05
7.8e-05
7.8e-05
7.8e-05
7.8e-05
7.8e-05
7.8e-05
7.8e-05
7.8e-05
7.8e-05
7.8e-05
7.8e-05
7.8e-05
7.8e-05
7.8e-05
7.8e-05
7.8e-05
7.8e-05
7.8e-05
7.8e-05
7.8e-05
7.8e-05
7.8e-05
7.8e-05
7.8e-05
7.8e-05
7.8e-05
7.8e-05
7.8e-05
7.8e-05
7.8e-05
7.8e-05
7.8e-05
7.8e-05
7.8e-05
7.8e-05
7.8e-05
7.8e-05
7.8e-05
7.8e-05
7.8e-05
7.8e-05
7.8e-05
7.8e-05
7.8e-05
7.8e-05
7.8e-05
7.8e-05
7.8e-05
7.8e-05
7.8e-05
7.8e-05
7.8e-05
7.8e-05
7.8e-05
7.8e-05
7.8e-05
7.8e-05
7.8e-05
7.8e-05
7.8e-05
7.8e-05
7.8e-05
7.8e-05
7.8e-05
7.8e-05
7.8e-05
7.8e-05
7.8e-05
7.8e-05
7.8e-05
7.8e-05
7.8e-05
7.8e-05
7.8e-05
7.8e-05
7.8e-05
7.8e-05
7.8e-05
7.8e-05
7.8e-05
7.8e-05
7.8e-05
7.8e-05
7.8e-05
7.8e-05
7.8e-05
7.8e-05
7.8e-05
7.8e-05
7.8e-05
7.8e-05
7.8e-05
7.8e-05
7.8e-05
7.8e-05
7.8e-05
7.8e-05
7.8e-05
7.8e-05
7.8e-05
7.8e-05
7.8e-05
7.8e-05
7.8e-05
7.8e-05
7.8e-05
7.8e-05
7.8e-05
7.8e-05
7.8e-05
7.8e-05
7.8e-05
7.8e-05
7.8e-05
7.8e-05
7.8e-05
7.8e-05
7.8e-05
7.8e-05
7.8e-05
7.8e-05
7.8e-05
7.8e-05
7.8e-05
7.8e-05
7.8e-05
7.8e-05
7.8e-05
7.8e-05
7.8e-05
7.8e-05
7.8e-05
7.8e-05
7.8e-05
7.8e-05
7.8e-05
7.8e-05
7.8e-05
7.8e-05
7.8e-05
7.8e-05
7.8e-05
7.8e-05
7.8e-05
7.8e-05
7.8e-05
7.8e-05
7.8e-05
7.8e-05
7.8e-05
7.8e-05
7.8e-05
7.8e-05
7.8e-05
7.8e-05
7.8e-05
7.8e-05
7.8e-05
7.8e-05
7.8e-05
7.8e-05
7.8e-05
7.8e-05
7.8e-05
7.8e-05
7.8e-05
7.8e-05
7.8e-05
7.8e-05
7.8e-05
7.8e-05
7.8e-05
7.8e-05
7.8e-05
7.8e-05
7.8e-05
7.8e-05
7.8e-05
7.8e-05
7.8e-05
7.8e-05
7.8e-05
7.8e-05
7.8e-05
7.8e-05
7.8e-05
7.8e-05
7.8e-05
7.8e-05
7.8e-05
7.8e-05
7.8e-05
7.8e-05
7.8e-05
7.8e-05
7.8e-05
7.8e-05
7.8e-05
7.8e-05
7.8e-05
7.8e-05
7.8e-05
7.8e-05
7.8e-05
7.8e-05
7.8e-05
7.8e-05
7.8e-05
7.8e-05
7.8e-05
7.8e-05
7.8e-05
7.8e-05
7.8e-05
7.8e-05
7.8e-05
7.8e-05
7.8e-05
7.8e-05
7.8e-05
7.8e-05
7.8e-05
7.8e-05
7.8e-05
7.8e-05
7.8e-05
7.8e-05
7.8e-05
7.8e-05
7.8e-05
7.8e-05
7.8e-05
7.8e-05
7.8e-05
7.8e-05
7.8e-05
7.8e-05
7.8e-05
7.8e-05
7.8e-05
7.8e-05
7.8e-05
7.8e-05
7.8e-05
7.8e-05
7.8e-05
7.8e-05
7.8e-05
7.8e-05
7.8e-05
7.8e-05
7.8e-05
7.8e-05
7.8e-05
7.8e-05
7.8e-05
7.8e-05
7.8e-05
7.8e-05
7.8e-05
7.8e-05
7.8e-05
7.8e-05
7.8e-05
7.8e-05
7.8e-05
7.8e-05
7.8e-05
7.8e-05
7.8e-05
7.8e-05
7.8e-05
7.8e-05
7.8e-05
7.8e-05
7.8e-05
7.8e-05
7.8e-05
7.8e-05
7.8e-05
7.8e-05
7.8e-05
7.8e-05
7.8e-05
7.8e-05
7.8e-05
7.8e-05
7.8e-05
7.8e-05
7.8e-05
7.8e-05
7.8e-05
7.8e-05
7.8e-05
7.8e-05
7.8e-05
7.8e-05
7.8e-05
7.8e-05
7.8e-05
7.8e-05
7.8e-05
7.8e-05
7.8e-05
7.8e-05
7.8e-05
7.8e-05
7.8e-05
7.8e-05
7.8e-05
7.8e-05
7.8e-05
7.8e-05
7.8e-05
7.8e-05
7.8e-05
7.8e-05
7.8e-05
7.8e-05
7.8e-05
7.8e-05
7.8e-05
7.8e-05
7.8e-05
7.8e-05
7.8e-05
7.8e-05
7.8e-05
7.8e-05
7.8e-05
7.8e-05
7.8e-05
7.8e-05
7.8e-05
7.8e-05
7.8e-05
7.8e-05
7.8e-05
7.8e-05
7.8e-05
7.8e-05
7.8e-05
7.8e-05
7.8e-05
7.8e-05
7.8e-05
7.8e-05
7.8e-05
7.8e-05
7.8e-05
7.8e-05
7.8e-05
7.8e-05
7.8e-05
7.8e-05
7.8e-05
7.8e-05
7.8e-05
7.8e-05
7.8e-05
7.8e-05
7.8e-05
7.8e-05
7.8e-05
7.8e-05
7.8e-05
7.8e-05
7.8e-05
7.8e-05
7.8e-05
7.8e-05
7.8e-05
7.8e-05
7.8e-05
7.8e-05
7.8e-05
7.8e-05
7.8e-05
7.8e-05
7.8e-05
7.8e-05
7.8e-05
7.8e-05
7.8e-05
7.8e-05
7.8e-05
7.8e-05
7.8e-05
7.8e-05
7.8e-05
7.8e-05
7.8e-05
7.8e-05
7.8e-05
7.8e-05
7.8e-05
7.8e-05
7.8e-05
7.8e-05
7.8e-05
7.8e-05
7.8e-05
7.8e-05
7.8e-05
7.8e-05
7.8e-05
7.8e-05
7.8e-05
7.8e-05
7.8e-05
7.8e-05
7.8e-05
7.8e-05
7.8e-05
7.8e-05
7.8e-05
7.8e-05
7.8e-05
7.8e-05
7.8e-05
7.8e-05
7.8e-05
7.8e-05
7.8e-05
7.8e-05
7.8e-05
7.8e-05
7.8e-05
7.8e-05
7.8e-05
7.8e-05
7.8e-05
7.8e-05
7.8e-05
7.8e-05
7.8e-05
7.8e-05
7.8e-05
7.8e-05
7.8e-05
7.8e-05
7.8e-05
7.8e-05
7.8e-05
7.8e-05
7.8e-05
7.8e-05
7.8e-05
7.8e-05
7.8e-05
7.8e-05
7.8e-05
7.8e-05
7.8e-05
7.8e-05
7.8e-05
7.8e-05
7.8e-05
7.8e-05
7.8e-05
7.8e-05
7.8e-05
7.8e-05
7.8e-05
7.8e-05
7.8e-05
7.8e-05
7.8e-05
7.8e-05
7.8e-05
7.8e-05
7.8e-05
7.8e-05
7.8e-05
7.8e-05
7.8e-05
7.8e-05
7.8e-05
7.8e-05
7.8e-05
7.8e-05
7.8e-05
7.8e-05
7.8e-05
7.8e-05
7.8e-05
7.8e-05
7.8e-05
7.8e-05
7.8e-05
7.8e-05
7.8e-05
7.8e-05
7.8e-05
7.8e-05
7.8e-05
7.8e-05
7.8e-05
7.8e-05
7.8e-05
7.8e-05
7.8e-05
7.8e-05
7.8e-05
7.8e-05
7.8e-05
7.8e-05
7.8e-05
7.8e-05
7.8e-05
7.8e-05
7.8e-05
7.8e-05
7.8e-05
7.8e-05
7.8e-05
7.8e-05
7.8e-05
7.8e-05
7.8e-05
7.8e-05
7.8e-05
7.8e-05
7.8e-05
7.8e-05
7.8e-05
7.8e-05
7.8e-05
7.8e-05
7.8e-05
7.8e-05
7.8e-05
7.8e-05
7.8e-05
7.8e-05
7.8e-05
7.8e-05
7.8e-05
7.8e-05
7.8e-05
7.8e-05
7.8e-05
7.8e-05
7.8e-05
7.8e-05
7.8e-05
7.8e-05
7.8e-05
7.8e-05
7.8e-05
7.8e-05
7.8e-05
7.8e-05
7.8e-05
7.8e-05
7.8e-05
7.8e-05
7.8e-05
7.8e-05
7.8e-05
7.8e-05
7.8e-05
7.8e-05
7.8e-05
7.8e-05
7.8e-05
7.8e-05
7.8e-05
7.8e-05
7.8e-05
7.8e-05
7.8e-05
7.8e-05
7.8e-05
7.8e-05
7.8e-05
7.8e-05
7.8e-05
7.8e-05
7.8e-05
7.8e-05
7.8e-05
7.8e-05
7.8e-05
7.8e-05
7.8e-05
7.8e-05
7.8e-05
7.8e-05
7.8e-05
7.8e-05
7.8e-05
7.8e-05
7.8e-05
7.8e-05
7.8e-05
7.8e-05
7.8e-05
7.8e-05
7.8e-05
7.8e-05
7.8e-05
7.8e-05
7.8e-05
7.8e-05
7.8e-05
7.8e-05
7.8e-05
7.8e-05
7.8e-05
7.8e-05
7.8e-05
7.8e-05
7.8e-05
7.8e-05
7.8e-05
7.8e-05
7.8e-05
7.8e-05
7.8e-05
7.8e-05
7.8e-05
7.8e-05
7.8e-05
7.8e-05
7.8e-05
7.8e-05
7.8e-05
7.8e-05
7.8e-05
7.8e-05
7.8e-05
7.8e-05
7.8e-05
7.8e-05
7.8e-05
7.8e-05
7.8e-05
7.8e-05
7.8e-05
7.8e-05
7.8e-05
7.8e-05
7.8e-05
7.8e-05
7.8e-05
7.8e-05
7.8e-05
7.8e-05
7.8e-05
7.8e-05
7.8e-05
7.8e-05