/*--------------------------------*- C++ -*----------------------------------*\
| =========                 |                                                 |
| \\      /  F ield         | OpenFOAM: The Open Source CFD Toolbox           |
|  \\    /   O peration     | Version:  2406                                  |
|   \\  /    A nd           | Website:  www.openfoam.com                      |
|    \\/     M anipulation  |                                                 |
\*---------------------------------------------------------------------------*/
FoamFile
{
    version     2.0;
    format      ascii;
    arch        "LSB;label=32;scalar=64";
    class       volScalarField;
    location    "1.9";
    object      C_0_0;
}
// * * * * * * * * * * * * * * * * * * * * * * * * * * * * * * * * * * * * * //

dimensions      [1 -3 0 0 0 0 0];

internalField   nonuniform List<scalar> 
14400
(
1.76064
1.75512
1.74348
1.72193
1.68345
1.64316
1.61831
1.61237
1.62642
1.65944
1.7079
1.75304
1.78028
1.79788
1.81017
1.81787
1.82125
1.82024
1.81444
1.80289
1.78114
1.74311
1.70588
1.68578
1.68623
1.70823
1.75088
1.81057
1.86699
1.90409
1.93118
1.95424
1.97414
1.99145
2.00659
2.01985
2.03146
2.04159
2.05037
2.05791
2.06429
2.06957
2.07381
2.07705
2.07933
2.08067
2.08108
2.08058
2.07917
2.07686
2.07363
2.06948
2.06439
2.05834
2.05129
2.0432
2.03404
2.02373
2.01221
1.9994
1.98517
1.96942
1.95197
1.93261
1.9111
1.88708
1.86013
1.82962
1.79477
1.74531
1.67341
1.59812
1.53607
1.49075
1.46342
1.45456
1.46406
1.49122
1.53467
1.59107
1.64547
1.68072
1.70268
1.71905
1.73086
1.73874
1.74309
1.74415
1.74198
1.73653
1.72759
1.71472
1.69719
1.67161
1.62898
1.58084
1.54644
1.5296
1.53144
1.55059
1.58321
1.61296
1.62661
1.63039
1.62617
1.61211
1.58188
1.54857
1.52866
1.52605
1.54215
1.57584
1.62331
1.66542
1.69072
1.70814
1.72105
1.73022
1.73611
1.739
1.76616
1.76125
1.7511
1.735
1.70599
1.6672
1.64156
1.63506
1.64968
1.68344
1.73006
1.76529
1.78697
1.80319
1.81477
1.82218
1.82562
1.82505
1.82018
1.81045
1.79491
1.76638
1.73001
1.70902
1.70899
1.73157
1.77505
1.83316
1.8788
1.90941
1.9352
1.95741
1.97673
1.99363
2.00847
2.02151
2.03294
2.04294
2.05162
2.05907
2.06538
2.07061
2.07481
2.07802
2.08027
2.08159
2.08199
2.08148
2.08008
2.07777
2.07456
2.07042
2.06536
2.05933
2.05232
2.04429
2.03518
2.02494
2.01351
2.0008
1.98671
1.97111
1.95387
1.93477
1.9136
1.89003
1.86367
1.83397
1.80014
1.75907
1.69893
1.62396
1.56068
1.51433
1.48641
1.4775
1.48748
1.51553
1.56008
1.61607
1.66032
1.6879
1.70826
1.72362
1.73478
1.74226
1.74639
1.74736
1.74526
1.74003
1.73151
1.71939
1.70314
1.68198
1.64897
1.60424
1.56911
1.55163
1.55425
1.57441
1.60481
1.62576
1.63541
1.6384
1.63492
1.6248
1.60337
1.57233
1.5514
1.54799
1.5647
1.5991
1.64311
1.67564
1.69655
1.71266
1.72479
1.73349
1.73912
1.74188
1.77658
1.77262
1.76465
1.75267
1.73696
1.71182
1.68607
1.67835
1.69424
1.72807
1.75983
1.78132
1.7991
1.81313
1.82353
1.83047
1.83401
1.83415
1.83079
1.82376
1.81302
1.79871
1.77557
1.7536
1.7526
1.77641
1.82089
1.86247
1.8928
1.91936
1.9428
1.96347
1.98172
1.99786
2.01214
2.02476
2.03587
2.04561
2.05408
2.06137
2.06755
2.07268
2.07679
2.07994
2.08214
2.08343
2.0838
2.08329
2.08188
2.07959
2.0764
2.0723
2.06728
2.06132
2.05438
2.04644
2.03744
2.02735
2.01608
2.00358
1.98974
1.97446
1.95761
1.93902
1.91848
1.89577
1.87055
1.84245
1.81098
1.77553
1.73207
1.67294
1.60866
1.56071
1.53171
1.52272
1.53361
1.56302
1.60862
1.65063
1.67942
1.70131
1.71884
1.7324
1.74239
1.74913
1.75284
1.75366
1.75166
1.74681
1.73904
1.72817
1.71401
1.69638
1.67531
1.645
1.61206
1.59325
1.59749
1.61613
1.63435
1.64451
1.65088
1.65285
1.65032
1.6434
1.63267
1.61386
1.59448
1.58939
1.60739
1.63948
1.66917
1.68984
1.70718
1.72114
1.73195
1.73984
1.74499
1.74753
1.79096
1.788
1.78221
1.77391
1.76392
1.75367
1.74052
1.73561
1.74867
1.76866
1.78499
1.80084
1.81496
1.82668
1.83577
1.84215
1.84581
1.84676
1.84504
1.84079
1.83437
1.82665
1.81907
1.8094
1.81084
1.83235
1.86127
1.8858
1.90983
1.93244
1.95317
1.97194
1.98883
2.00396
2.01748
2.02951
2.04016
2.04954
2.05772
2.06478
2.07078
2.07575
2.07975
2.0828
2.08494
2.08617
2.08651
2.08598
2.08458
2.0823
2.07914
2.07509
2.07014
2.06427
2.05744
2.04964
2.04081
2.03092
2.0199
2.00769
1.99422
1.97939
1.96309
1.9452
1.92556
1.904
1.88032
1.85431
1.82578
1.79463
1.76109
1.72237
1.67486
1.62734
1.59735
1.58825
1.6
1.62874
1.65906
1.68252
1.70198
1.71909
1.73337
1.74473
1.75324
1.75903
1.76218
1.76279
1.7609
1.75653
1.74965
1.74025
1.72836
1.71416
1.69818
1.68166
1.66212
1.64713
1.64816
1.65587
1.66157
1.66705
1.67073
1.67182
1.6701
1.66578
1.65964
1.65327
1.64485
1.64294
1.65704
1.67585
1.69182
1.70734
1.72117
1.73279
1.74204
1.74892
1.75346
1.75572
1.80829
1.80622
1.80226
1.79685
1.7908
1.78546
1.78285
1.78348
1.78982
1.79888
1.81025
1.8221
1.83322
1.84288
1.85071
1.85654
1.8603
1.86203
1.86184
1.85999
1.85701
1.85383
1.85201
1.85386
1.86002
1.8736
1.88992
1.90873
1.92827
1.9474
1.9655
1.9823
1.99769
2.01167
2.0243
2.03563
2.04573
2.05467
2.06249
2.06926
2.07502
2.07981
2.08365
2.08659
2.08863
2.0898
2.0901
2.08955
2.08814
2.08589
2.08277
2.07879
2.07393
2.06817
2.06149
2.05386
2.04525
2.03561
2.0249
2.01307
2.00006
1.98578
1.97017
1.95312
1.93455
1.91434
1.89241
1.8687
1.84321
1.81612
1.7879
1.75952
1.73091
1.70036
1.67668
1.66736
1.67257
1.68628
1.69941
1.71304
1.72688
1.73971
1.75083
1.75992
1.76683
1.77154
1.77406
1.77442
1.77263
1.76874
1.76277
1.75482
1.74502
1.73372
1.72151
1.70948
1.6992
1.69139
1.68761
1.68707
1.68895
1.6914
1.69318
1.69361
1.69247
1.68998
1.6868
1.68417
1.68391
1.68687
1.69385
1.70344
1.71486
1.72652
1.73737
1.7468
1.7545
1.76033
1.76422
1.76618
1.82769
1.82632
1.82377
1.82044
1.81697
1.81429
1.81348
1.81533
1.81972
1.82655
1.83501
1.84409
1.85292
1.8609
1.86766
1.873
1.87684
1.87921
1.88028
1.88033
1.87986
1.87966
1.88079
1.88451
1.89175
1.90224
1.91561
1.93093
1.94713
1.96339
1.97914
1.99405
2.00795
2.02074
2.03242
2.04299
2.05247
2.0609
2.06831
2.07475
2.08023
2.0848
2.08847
2.09126
2.09319
2.09428
2.09454
2.09397
2.09256
2.09033
2.08727
2.08337
2.07861
2.07299
2.06648
2.05906
2.0507
2.04137
2.03103
2.01964
2.00715
1.99351
1.97867
1.96257
1.94516
1.92641
1.90629
1.88486
1.86224
1.83873
1.81485
1.79147
1.76986
1.75157
1.73715
1.72864
1.72623
1.72839
1.73471
1.74334
1.7528
1.76203
1.77032
1.77727
1.78262
1.78625
1.78811
1.78818
1.78647
1.78302
1.77789
1.77122
1.76319
1.75417
1.74468
1.73549
1.72751
1.72146
1.71749
1.7158
1.71576
1.71641
1.71697
1.71695
1.7162
1.71486
1.71342
1.71266
1.71352
1.71665
1.7219
1.72914
1.73765
1.74652
1.75499
1.76254
1.76883
1.77366
1.77693
1.77858
1.84845
1.8476
1.84607
1.84416
1.84235
1.84123
1.84145
1.84341
1.84717
1.85258
1.85917
1.86633
1.87347
1.88015
1.88604
1.89095
1.89483
1.89771
1.89973
1.90117
1.90245
1.90414
1.90697
1.91165
1.91865
1.92798
1.93936
1.95223
1.96593
1.97988
1.99361
2.00682
2.0193
2.03093
2.04165
2.05142
2.06025
2.06815
2.07512
2.08118
2.08637
2.09068
2.09415
2.09679
2.09861
2.09961
2.09981
2.09921
2.09781
2.09561
2.09261
2.0888
2.08417
2.0787
2.07238
2.0652
2.05713
2.04814
2.03821
2.0273
2.01539
2.00245
1.98843
1.97333
1.95713
1.93983
1.92149
1.90221
1.88217
1.8617
1.8413
1.82166
1.80367
1.78829
1.77627
1.76832
1.7646
1.7646
1.76769
1.77281
1.77895
1.78527
1.79117
1.79621
1.80013
1.80274
1.80395
1.80373
1.80206
1.79898
1.79457
1.78896
1.78236
1.77509
1.76756
1.7603
1.75388
1.74875
1.74508
1.7429
1.74188
1.74151
1.74134
1.74104
1.7405
1.73984
1.73936
1.73953
1.74085
1.74366
1.74796
1.75358
1.76008
1.76691
1.77353
1.77954
1.78462
1.78857
1.79126
1.79262
1.87005
1.86958
1.86874
1.86778
1.86702
1.86686
1.86766
1.86968
1.87297
1.87743
1.88276
1.88858
1.8945
1.90018
1.90538
1.90995
1.91383
1.91706
1.91977
1.92218
1.92461
1.9275
1.9313
1.93645
1.94323
1.95168
1.96161
1.97269
1.98449
1.99658
2.00862
2.02032
2.03151
2.04203
2.05182
2.06081
2.06898
2.07631
2.08282
2.0885
2.09337
2.09742
2.10067
2.10314
2.10483
2.10574
2.10588
2.10525
2.10386
2.10169
2.09876
2.09505
2.09055
2.08526
2.07916
2.07223
2.06447
2.05585
2.04635
2.03597
2.02467
2.01244
1.99928
1.98519
1.97018
1.9543
1.93763
1.9203
1.90253
1.88461
1.86698
1.85019
1.83486
1.82165
1.81109
1.80359
1.79923
1.79774
1.79864
1.80126
1.80491
1.80895
1.81287
1.81629
1.81893
1.82062
1.82123
1.82071
1.81905
1.81626
1.81243
1.80769
1.80221
1.79626
1.79016
1.78427
1.77898
1.77457
1.77118
1.76883
1.76734
1.76643
1.76583
1.76536
1.76494
1.76464
1.76465
1.76524
1.76669
1.76917
1.7727
1.77713
1.78219
1.7875
1.7927
1.79746
1.80153
1.80472
1.80692
1.80803
1.89213
1.89191
1.89154
1.8912
1.89111
1.89151
1.89265
1.89467
1.89762
1.90141
1.90587
1.91073
1.91575
1.92068
1.92535
1.92963
1.93348
1.93694
1.94011
1.94315
1.94633
1.94993
1.95427
1.95962
1.96615
1.97389
1.98272
1.99244
2.00274
2.01333
2.02395
2.03435
2.04437
2.05388
2.06278
2.07101
2.07853
2.08531
2.09135
2.09664
2.10117
2.10495
2.10798
2.11027
2.11182
2.11263
2.11271
2.11206
2.11067
2.10854
2.10568
2.10208
2.09773
2.09262
2.08675
2.0801
2.07266
2.06443
2.0554
2.04554
2.03487
2.02337
2.01107
1.99797
1.98411
1.96956
1.95443
1.93884
1.92302
1.90723
1.89184
1.87725
1.86394
1.85235
1.84287
1.83573
1.83099
1.82848
1.82786
1.8287
1.83048
1.83273
1.83506
1.83713
1.83869
1.83957
1.83964
1.83884
1.83715
1.83459
1.83122
1.82715
1.82254
1.81758
1.81253
1.80765
1.80319
1.79936
1.79625
1.7939
1.79221
1.79103
1.7902
1.78963
1.78925
1.78912
1.78935
1.79009
1.79149
1.79364
1.79653
1.80007
1.80404
1.8082
1.81229
1.81607
1.81932
1.82188
1.82365
1.82456
1.91443
1.91438
1.91432
1.91438
1.91469
1.91544
1.91675
1.91874
1.92141
1.92472
1.92855
1.93274
1.93709
1.94146
1.9457
1.94973
1.95353
1.95711
1.96056
1.964
1.96763
1.97163
1.97623
1.9816
1.98785
1.99499
2.00296
2.01159
2.0207
2.03007
2.03948
2.04876
2.05775
2.06633
2.07441
2.08192
2.08881
2.09506
2.10064
2.10553
2.10973
2.11323
2.11603
2.11814
2.11955
2.12026
2.12028
2.11959
2.11821
2.11613
2.11335
2.10986
2.10566
2.10075
2.09511
2.08875
2.08166
2.07382
2.06525
2.05594
2.04589
2.03512
2.02364
2.01149
1.99873
1.98542
1.97167
1.95762
1.94348
1.92947
1.91588
1.90304
1.89129
1.88095
1.87229
1.86547
1.86051
1.85731
1.85564
1.85518
1.85557
1.85645
1.85751
1.85848
1.85914
1.85932
1.85892
1.85786
1.85613
1.85372
1.8507
1.84715
1.8432
1.839
1.83474
1.8306
1.82678
1.82341
1.82058
1.81831
1.81656
1.81526
1.81433
1.81369
1.81332
1.81325
1.81354
1.81428
1.81554
1.81736
1.81973
1.82255
1.8257
1.82898
1.83221
1.8352
1.83778
1.83984
1.84126
1.84198
1.93679
1.93684
1.93698
1.93728
1.93785
1.93879
1.94019
1.94211
1.94456
1.94752
1.95089
1.95456
1.95842
1.96235
1.96626
1.97007
1.97379
1.97741
1.981
1.98467
1.98854
1.99274
1.99743
2.00271
2.00866
2.01528
2.02252
2.03028
2.03841
2.04676
2.05515
2.06345
2.07153
2.07928
2.0866
2.09344
2.09975
2.10547
2.1106
2.11511
2.11898
2.12221
2.12478
2.12671
2.12798
2.12859
2.12854
2.12783
2.12646
2.12442
2.12172
2.11835
2.11431
2.1096
2.1042
2.09813
2.09138
2.08395
2.07585
2.06707
2.05764
2.04757
2.03689
2.02564
2.01389
2.0017
1.9892
1.97651
1.9638
1.95127
1.93917
1.92773
1.91722
1.90788
1.89988
1.89334
1.88828
1.88462
1.88221
1.88081
1.88016
1.87999
1.88006
1.88015
1.88006
1.87966
1.87885
1.87757
1.87577
1.87347
1.87071
1.86756
1.86411
1.86048
1.85681
1.85325
1.84992
1.84692
1.84434
1.84219
1.84047
1.83914
1.83815
1.83747
1.83709
1.83702
1.83729
1.83795
1.83902
1.84054
1.84246
1.84472
1.84722
1.84981
1.85236
1.85473
1.85678
1.85842
1.85955
1.86013
1.9591
1.95921
1.95948
1.95993
1.96064
1.96168
1.9631
1.96495
1.96722
1.96989
1.97292
1.97621
1.97969
1.98327
1.9869
1.99052
1.99413
1.99773
2.00138
2.00514
2.0091
2.01337
2.01802
2.02315
2.02879
2.03494
2.04156
2.04859
2.0559
2.06339
2.07092
2.07837
2.08565
2.09264
2.09928
2.1055
2.11125
2.11649
2.12119
2.12532
2.12887
2.13183
2.13419
2.13593
2.13706
2.13757
2.13746
2.13673
2.13537
2.13338
2.13076
2.12751
2.12363
2.11912
2.11397
2.1082
2.10179
2.09476
2.08711
2.07886
2.07002
2.06062
2.0507
2.04029
2.02947
2.01831
2.00692
1.99541
1.98393
1.97266
1.96178
1.9515
1.942
1.93345
1.92601
1.91973
1.91465
1.9107
1.90776
1.90568
1.90426
1.9033
1.90259
1.90198
1.90129
1.90042
1.89926
1.89777
1.89591
1.89369
1.89112
1.88826
1.88519
1.882
1.87878
1.87566
1.87271
1.87003
1.86767
1.86565
1.86399
1.86267
1.86167
1.86096
1.86055
1.86044
1.86065
1.86119
1.86208
1.86331
1.86485
1.86666
1.86864
1.87069
1.8727
1.87458
1.8762
1.8775
1.8784
1.87887
1.98129
1.98144
1.98178
1.98231
1.9831
1.98418
1.98559
1.98735
1.98947
1.99192
1.99467
1.99766
2.00084
2.00415
2.00754
2.01099
2.01448
2.01802
2.02165
2.02541
2.02937
2.0336
2.03815
2.04307
2.0484
2.05412
2.06021
2.06661
2.07322
2.07997
2.08676
2.09347
2.10004
2.10636
2.11238
2.11803
2.12327
2.12805
2.13234
2.13612
2.13936
2.14206
2.1442
2.14577
2.14676
2.14717
2.147
2.14625
2.1449
2.14296
2.14043
2.13731
2.13359
2.12928
2.12438
2.11889
2.11282
2.10618
2.09898
2.09123
2.08296
2.0742
2.06498
2.05536
2.04539
2.03516
2.02475
2.01428
2.00386
1.99366
1.98381
1.97448
1.96581
1.95793
1.95096
1.94493
1.93988
1.93575
1.93246
1.92989
1.9279
1.92634
1.92504
1.92387
1.92271
1.92145
1.92001
1.91835
1.91642
1.91424
1.91181
1.90918
1.9064
1.90353
1.90067
1.89788
1.89524
1.89281
1.89064
1.88876
1.88717
1.88588
1.88488
1.88416
1.88371
1.88355
1.88367
1.88408
1.88478
1.88576
1.88699
1.88842
1.88998
1.8916
1.89319
1.89466
1.89595
1.89698
1.89769
1.89806
2.00332
2.0035
2.00387
2.00445
2.00527
2.00635
2.00773
2.00941
2.01139
2.01365
2.01618
2.01893
2.02187
2.02494
2.02813
2.03141
2.03477
2.03821
2.04177
2.04548
2.04937
2.0535
2.0579
2.0626
2.06762
2.07294
2.07855
2.0844
2.09041
2.09653
2.10266
2.10873
2.11466
2.12039
2.12585
2.13098
2.13574
2.14009
2.144
2.14744
2.1504
2.15284
2.15477
2.15618
2.15704
2.15736
2.15714
2.15636
2.15503
2.15314
2.15069
2.14769
2.14413
2.14002
2.13536
2.13016
2.12442
2.11816
2.11139
2.10412
2.0964
2.08823
2.07968
2.07077
2.06158
2.05218
2.04265
2.03308
2.02359
2.01429
2.00532
1.99679
1.98882
1.98152
1.97495
1.96917
1.96418
1.95996
1.95643
1.95353
1.95112
1.94911
1.94736
1.94577
1.94423
1.94265
1.94099
1.93917
1.93719
1.93503
1.93271
1.93024
1.92768
1.92507
1.92248
1.91995
1.91756
1.91534
1.91333
1.91156
1.91005
1.9088
1.90781
1.90708
1.9066
1.90637
1.9064
1.90668
1.90721
1.90797
1.90892
1.91004
1.91126
1.91253
1.91378
1.91494
1.91595
1.91676
1.91733
1.91762
2.02517
2.02536
2.02575
2.02634
2.02717
2.02824
2.02956
2.03116
2.03301
2.03512
2.03747
2.04002
2.04275
2.04562
2.04863
2.05174
2.05497
2.0583
2.06176
2.06536
2.06914
2.07313
2.07734
2.08181
2.08652
2.09148
2.09666
2.10202
2.1075
2.11306
2.11862
2.12412
2.1295
2.13469
2.13964
2.14429
2.14862
2.15257
2.15613
2.15925
2.16193
2.16415
2.16588
2.16712
2.16786
2.1681
2.16782
2.16702
2.16571
2.16387
2.16151
2.15863
2.15523
2.15132
2.14689
2.14197
2.13655
2.13065
2.12429
2.11748
2.11026
2.10266
2.09471
2.08647
2.07799
2.06933
2.06057
2.0518
2.04312
2.03461
2.02638
2.01854
2.01117
2.00436
1.99816
1.99261
1.98772
1.98346
1.9798
1.97666
1.97396
1.97161
1.96952
1.9676
1.96577
1.96396
1.9621
1.96017
1.95814
1.956
1.95374
1.95141
1.94901
1.9466
1.94421
1.9419
1.93969
1.93764
1.93578
1.93412
1.93268
1.93146
1.93049
1.92974
1.92922
1.92893
1.92887
1.92903
1.9294
1.92997
1.9307
1.93156
1.9325
1.93349
1.93446
1.93537
1.93616
1.93679
1.93724
1.93746
2.04683
2.04703
2.04742
2.04801
2.04882
2.04986
2.05113
2.05264
2.05439
2.05636
2.05855
2.06092
2.06347
2.06618
2.06901
2.07197
2.07505
2.07826
2.08159
2.08506
2.0887
2.09252
2.09654
2.10076
2.10518
2.1098
2.11458
2.11951
2.12452
2.12959
2.13464
2.13964
2.14452
2.14922
2.15371
2.15794
2.16187
2.16546
2.16868
2.17152
2.17394
2.17593
2.17748
2.17857
2.17919
2.17934
2.17902
2.1782
2.17691
2.17512
2.17285
2.17008
2.16684
2.16312
2.15892
2.15426
2.14915
2.1436
2.13763
2.13126
2.12451
2.11743
2.11005
2.10241
2.09456
2.08658
2.07851
2.07045
2.06246
2.05464
2.04706
2.03981
2.03297
2.02659
2.02072
2.01539
2.01062
2.00637
2.00263
1.99934
1.99644
1.99385
1.99151
1.98935
1.9873
1.98529
1.9833
1.98127
1.9792
1.97706
1.97487
1.97263
1.97036
1.9681
1.96588
1.96373
1.96168
1.95977
1.95802
1.95645
1.95507
1.95389
1.95293
1.95217
1.95162
1.95127
1.95113
1.95118
1.95141
1.9518
1.95234
1.95298
1.95371
1.95446
1.95521
1.95591
1.95652
1.95701
1.95736
1.95753
2.0683
2.06849
2.06888
2.06946
2.07025
2.07125
2.07246
2.07389
2.07553
2.07738
2.07943
2.08166
2.08405
2.08659
2.08927
2.09208
2.09502
2.09808
2.10127
2.10461
2.10809
2.11173
2.11553
2.11951
2.12365
2.12794
2.13237
2.1369
2.1415
2.14612
2.15073
2.15527
2.1597
2.16398
2.16805
2.17189
2.17545
2.1787
2.18163
2.18419
2.18637
2.18815
2.18953
2.19048
2.19099
2.19107
2.1907
2.18987
2.18859
2.18686
2.18467
2.18202
2.17893
2.17539
2.17142
2.16701
2.16219
2.15697
2.15137
2.1454
2.1391
2.1325
2.12564
2.11855
2.11128
2.1039
2.09645
2.08901
2.08164
2.07442
2.06741
2.06068
2.0543
2.0483
2.04274
2.03763
2.03298
2.02878
2.02502
2.02164
2.0186
2.01585
2.01333
2.01099
2.00877
2.00663
2.00452
2.00242
2.00031
1.99818
1.99603
1.99387
1.9917
1.98956
1.98747
1.98545
1.98353
1.98173
1.98007
1.97858
1.97726
1.97611
1.97516
1.97439
1.97381
1.97341
1.97319
1.97314
1.97325
1.9735
1.97387
1.97434
1.97487
1.97544
1.976
1.97654
1.97701
1.97738
1.97765
1.97778
2.08958
2.08977
2.09014
2.0907
2.09146
2.09242
2.09357
2.09492
2.09647
2.09821
2.10013
2.10222
2.10447
2.10687
2.1094
2.11207
2.11486
2.11778
2.12082
2.124
2.12731
2.13076
2.13435
2.13809
2.14196
2.14595
2.15005
2.15422
2.15844
2.16267
2.16688
2.17102
2.17505
2.17893
2.18263
2.18611
2.18934
2.19229
2.19493
2.19724
2.1992
2.20079
2.202
2.20282
2.20324
2.20324
2.20283
2.20199
2.20073
2.19905
2.19694
2.19441
2.19146
2.1881
2.18434
2.18018
2.17563
2.17072
2.16546
2.15988
2.15399
2.14784
2.14145
2.13486
2.12812
2.12128
2.11439
2.1075
2.10068
2.09399
2.08748
2.08121
2.07523
2.06959
2.0643
2.0594
2.05489
2.05077
2.04701
2.04359
2.04047
2.03761
2.03497
2.0325
2.03017
2.02792
2.02573
2.02358
2.02145
2.01933
2.01721
2.0151
2.01302
2.01098
2.00899
2.00707
2.00525
2.00355
2.00197
2.00054
1.99926
1.99815
1.9972
1.99642
1.99581
1.99536
1.99507
1.99494
1.99494
1.99507
1.9953
1.99562
1.996
1.99641
1.99683
1.99723
1.99758
1.99786
1.99806
1.99817
2.11067
2.11085
2.11121
2.11175
2.11248
2.11339
2.11448
2.11576
2.11722
2.11886
2.12066
2.12263
2.12475
2.12701
2.1294
2.13193
2.13457
2.13734
2.14023
2.14325
2.14639
2.14965
2.15303
2.15654
2.16015
2.16386
2.16765
2.1715
2.17537
2.17925
2.18309
2.18686
2.19053
2.19407
2.19743
2.20058
2.20351
2.20617
2.20856
2.21064
2.21239
2.21381
2.21487
2.21557
2.21589
2.21583
2.21538
2.21454
2.2133
2.21167
2.20964
2.20722
2.20441
2.20122
2.19765
2.19372
2.18944
2.18482
2.17989
2.17466
2.16915
2.16341
2.15745
2.15132
2.14506
2.13871
2.13231
2.12593
2.11959
2.11337
2.10731
2.10145
2.09584
2.0905
2.08548
2.08078
2.07642
2.07238
2.06866
2.06524
2.06208
2.05916
2.05644
2.05389
2.05147
2.04915
2.04691
2.04472
2.04258
2.04046
2.03838
2.03632
2.0343
2.03233
2.03043
2.0286
2.02686
2.02523
2.02372
2.02235
2.02111
2.02002
2.01908
2.01829
2.01765
2.01716
2.01681
2.0166
2.01651
2.01653
2.01665
2.01684
2.0171
2.01738
2.01768
2.01796
2.01822
2.01843
2.01858
2.01865
2.13158
2.13176
2.1321
2.13262
2.1333
2.13417
2.13521
2.13641
2.13779
2.13933
2.14103
2.14288
2.14488
2.14701
2.14927
2.15166
2.15416
2.15679
2.15953
2.16238
2.16534
2.16841
2.17159
2.17487
2.17824
2.18169
2.1852
2.18874
2.19231
2.19586
2.19937
2.20282
2.20616
2.20937
2.21242
2.21529
2.21794
2.22034
2.22249
2.22436
2.22593
2.22718
2.2281
2.22869
2.22892
2.2288
2.22832
2.22748
2.22626
2.22468
2.22273
2.22041
2.21774
2.21471
2.21133
2.20762
2.20358
2.19924
2.19461
2.1897
2.18456
2.17919
2.17363
2.16792
2.16209
2.15618
2.15023
2.14429
2.1384
2.13259
2.12693
2.12144
2.11616
2.11111
2.10633
2.10183
2.09761
2.09368
2.09002
2.08662
2.08345
2.0805
2.07774
2.07514
2.07267
2.07031
2.06803
2.06582
2.06367
2.06157
2.05951
2.0575
2.05553
2.05363
2.05179
2.05003
2.04836
2.0468
2.04534
2.04401
2.04281
2.04173
2.0408
2.04
2.03934
2.03881
2.03841
2.03813
2.03797
2.0379
2.03792
2.03801
2.03816
2.03834
2.03853
2.03873
2.03891
2.03905
2.03916
2.03921
2.15232
2.15249
2.15281
2.1533
2.15396
2.15478
2.15576
2.1569
2.1582
2.15965
2.16125
2.16299
2.16487
2.16688
2.16902
2.17127
2.17364
2.17612
2.1787
2.18139
2.18418
2.18707
2.19005
2.19312
2.19626
2.19946
2.2027
2.20597
2.20925
2.21251
2.21572
2.21887
2.22191
2.22484
2.22761
2.2302
2.2326
2.23478
2.23671
2.23838
2.23977
2.24087
2.24167
2.24215
2.24231
2.24214
2.24163
2.24078
2.23959
2.23806
2.23618
2.23397
2.23142
2.22854
2.22534
2.22183
2.21803
2.21394
2.20959
2.205
2.20017
2.19516
2.18997
2.18464
2.1792
2.17369
2.16815
2.1626
2.1571
2.15168
2.14637
2.14122
2.13624
2.13146
2.12691
2.1226
2.11853
2.1147
2.11112
2.10776
2.10461
2.10166
2.09888
2.09626
2.09376
2.09137
2.08908
2.08686
2.08472
2.08263
2.0806
2.07862
2.07671
2.07486
2.07308
2.07138
2.06976
2.06825
2.06684
2.06555
2.06437
2.06331
2.06238
2.06157
2.06089
2.06033
2.05989
2.05955
2.05932
2.05918
2.05912
2.05912
2.05918
2.05927
2.05939
2.05951
2.05962
2.05972
2.05979
2.05983
2.1729
2.17305
2.17336
2.17383
2.17445
2.17522
2.17615
2.17723
2.17845
2.17982
2.18132
2.18297
2.18474
2.18663
2.18864
2.19077
2.193
2.19534
2.19777
2.2003
2.20293
2.20564
2.20843
2.21129
2.21421
2.21718
2.22018
2.2232
2.22621
2.2292
2.23214
2.23502
2.23779
2.24045
2.24297
2.24532
2.24749
2.24945
2.25118
2.25267
2.25391
2.25487
2.25556
2.25595
2.25603
2.25581
2.25528
2.25443
2.25326
2.25178
2.24997
2.24785
2.24542
2.24269
2.23966
2.23635
2.23276
2.22891
2.22482
2.22051
2.21599
2.21129
2.20644
2.20146
2.19638
2.19123
2.18606
2.18088
2.17573
2.17065
2.16567
2.16081
2.15611
2.15158
2.14725
2.14311
2.13919
2.13548
2.13198
2.12868
2.12558
2.12264
2.11987
2.11724
2.11474
2.11235
2.11005
2.10784
2.1057
2.10363
2.10163
2.09969
2.09781
2.09601
2.09428
2.09263
2.09107
2.0896
2.08823
2.08696
2.08581
2.08476
2.08384
2.08302
2.08233
2.08174
2.08126
2.08087
2.08059
2.08038
2.08025
2.08018
2.08017
2.08019
2.08023
2.08029
2.08036
2.08041
2.08045
2.08047
2.19332
2.19346
2.19376
2.1942
2.19478
2.19551
2.19639
2.1974
2.19856
2.19984
2.20126
2.20281
2.20447
2.20626
2.20815
2.21015
2.21226
2.21445
2.21675
2.21913
2.22159
2.22412
2.22673
2.22939
2.23211
2.23486
2.23764
2.24042
2.24319
2.24594
2.24863
2.25126
2.25379
2.25621
2.25849
2.26062
2.26258
2.26434
2.2659
2.26723
2.26832
2.26916
2.26973
2.27004
2.27006
2.2698
2.26924
2.2684
2.26725
2.26581
2.26408
2.26205
2.25973
2.25714
2.25427
2.25114
2.24775
2.24413
2.24028
2.23623
2.23199
2.22758
2.22304
2.21838
2.21362
2.20881
2.20396
2.19911
2.19429
2.18952
2.18484
2.18026
2.17581
2.17151
2.16738
2.16342
2.15964
2.15605
2.15265
2.14942
2.14636
2.14347
2.14072
2.1381
2.13561
2.13322
2.13093
2.12873
2.12661
2.12457
2.12259
2.12069
2.11885
2.11709
2.1154
2.11379
2.11227
2.11084
2.1095
2.10827
2.10713
2.1061
2.10518
2.10436
2.10365
2.10304
2.10252
2.1021
2.10176
2.10151
2.10132
2.10119
2.10112
2.10108
2.10107
2.10108
2.1011
2.10112
2.10113
2.10114
2.21359
2.21373
2.214
2.21442
2.21497
2.21566
2.21649
2.21744
2.21853
2.21974
2.22107
2.22253
2.2241
2.22577
2.22756
2.22944
2.23141
2.23348
2.23563
2.23786
2.24017
2.24254
2.24497
2.24745
2.24997
2.25252
2.25509
2.25766
2.26021
2.26272
2.26519
2.26759
2.2699
2.2721
2.27417
2.2761
2.27786
2.27945
2.28084
2.28202
2.28298
2.2837
2.28418
2.28441
2.28437
2.28407
2.2835
2.28266
2.28154
2.28014
2.27847
2.27653
2.27432
2.27186
2.26914
2.26617
2.26298
2.25956
2.25594
2.25213
2.24815
2.24402
2.23975
2.23538
2.23093
2.22642
2.22188
2.21733
2.2128
2.20831
2.2039
2.19957
2.19536
2.19128
2.18733
2.18354
2.17991
2.17644
2.17313
2.16998
2.16699
2.16414
2.16143
2.15884
2.15637
2.154
2.15173
2.14955
2.14745
2.14543
2.14349
2.14161
2.13981
2.13809
2.13644
2.13487
2.13339
2.13199
2.13068
2.12947
2.12835
2.12733
2.12641
2.12559
2.12487
2.12423
2.12369
2.12324
2.12286
2.12256
2.12233
2.12215
2.12202
2.12194
2.12188
2.12185
2.12183
2.12183
2.12182
2.12182
2.23372
2.23385
2.23411
2.2345
2.23502
2.23567
2.23645
2.23735
2.23837
2.23951
2.24077
2.24213
2.24361
2.24518
2.24686
2.24862
2.25048
2.25242
2.25444
2.25653
2.25868
2.2609
2.26316
2.26547
2.26781
2.27017
2.27254
2.27491
2.27725
2.27956
2.28182
2.28401
2.28611
2.28811
2.28999
2.29174
2.29333
2.29475
2.29599
2.29703
2.29787
2.29849
2.29888
2.29904
2.29895
2.29862
2.29803
2.29719
2.29609
2.29474
2.29314
2.29128
2.28918
2.28683
2.28425
2.28144
2.27842
2.2752
2.27179
2.2682
2.26446
2.26058
2.25657
2.25247
2.24829
2.24406
2.23979
2.23552
2.23126
2.22703
2.22287
2.21878
2.21478
2.2109
2.20714
2.20351
2.20001
2.19667
2.19346
2.1904
2.18747
2.18468
2.18201
2.17946
2.17702
2.17468
2.17244
2.17028
2.16821
2.16622
2.16431
2.16247
2.1607
2.15901
2.1574
2.15587
2.15441
2.15305
2.15177
2.15057
2.14947
2.14846
2.14755
2.14672
2.14599
2.14534
2.14478
2.1443
2.14389
2.14355
2.14328
2.14306
2.14289
2.14276
2.14267
2.1426
2.14256
2.14253
2.14251
2.1425
2.25372
2.25384
2.25409
2.25446
2.25495
2.25556
2.25629
2.25713
2.2581
2.25917
2.26035
2.26163
2.26301
2.26449
2.26607
2.26772
2.26946
2.27128
2.27317
2.27512
2.27714
2.2792
2.28131
2.28345
2.28562
2.28781
2.28999
2.29217
2.29433
2.29645
2.29851
2.30051
2.30243
2.30425
2.30595
2.30752
2.30895
2.31023
2.31133
2.31225
2.31298
2.3135
2.31381
2.31391
2.31377
2.31341
2.31281
2.31198
2.31091
2.3096
2.30805
2.30627
2.30427
2.30203
2.29959
2.29693
2.29407
2.29103
2.28781
2.28443
2.28091
2.27726
2.27349
2.26964
2.26571
2.26173
2.25772
2.25369
2.24968
2.24569
2.24176
2.23788
2.23409
2.2304
2.22681
2.22333
2.21997
2.21674
2.21364
2.21067
2.20782
2.20509
2.20247
2.19997
2.19757
2.19526
2.19306
2.19093
2.18889
2.18694
2.18505
2.18325
2.18151
2.17986
2.17828
2.17678
2.17536
2.17402
2.17276
2.17159
2.1705
2.1695
2.16859
2.16776
2.16702
2.16636
2.16578
2.16528
2.16484
2.16448
2.16417
2.16392
2.16371
2.16355
2.16343
2.16333
2.16326
2.16322
2.16319
2.16317
2.27359
2.27371
2.27394
2.27429
2.27475
2.27532
2.27601
2.2768
2.27771
2.27871
2.27982
2.28103
2.28232
2.28371
2.28519
2.28674
2.28837
2.29007
2.29183
2.29366
2.29554
2.29746
2.29942
2.30141
2.30342
2.30544
2.30746
2.30946
2.31144
2.31339
2.31528
2.3171
2.31884
2.32049
2.32204
2.32346
2.32474
2.32588
2.32686
2.32766
2.32829
2.32873
2.32897
2.329
2.32883
2.32844
2.32783
2.32701
2.32596
2.32469
2.3232
2.3215
2.31958
2.31745
2.31513
2.31261
2.30991
2.30703
2.30399
2.30081
2.29749
2.29405
2.2905
2.28687
2.28318
2.27943
2.27565
2.27186
2.26807
2.26431
2.26058
2.25691
2.25331
2.24979
2.24636
2.24303
2.23981
2.2367
2.2337
2.23081
2.22804
2.22538
2.22282
2.22037
2.21802
2.21576
2.21358
2.2115
2.20949
2.20757
2.20572
2.20395
2.20225
2.20063
2.19908
2.19761
2.19622
2.1949
2.19367
2.19251
2.19144
2.19045
2.18955
2.18872
2.18797
2.1873
2.18671
2.18619
2.18573
2.18534
2.18501
2.18473
2.1845
2.18431
2.18416
2.18404
2.18395
2.18389
2.18385
2.18383
2.29335
2.29346
2.29368
2.294
2.29444
2.29498
2.29562
2.29637
2.29721
2.29816
2.2992
2.30033
2.30154
2.30285
2.30422
2.30568
2.3072
2.30879
2.31044
2.31214
2.31389
2.31568
2.3175
2.31934
2.3212
2.32307
2.32493
2.32678
2.3286
2.33038
2.3321
2.33377
2.33535
2.33685
2.33824
2.33952
2.34067
2.34169
2.34255
2.34325
2.34379
2.34415
2.34432
2.34431
2.3441
2.34369
2.34307
2.34225
2.34123
2.34
2.33857
2.33693
2.3351
2.33307
2.33086
2.32847
2.32591
2.32319
2.32032
2.31731
2.31418
2.31094
2.3076
2.30418
2.30069
2.29716
2.2936
2.29002
2.28644
2.28288
2.27935
2.27587
2.27244
2.26909
2.26581
2.26262
2.25953
2.25653
2.25364
2.25085
2.24815
2.24556
2.24307
2.24068
2.23837
2.23616
2.23403
2.23198
2.23002
2.22813
2.22631
2.22457
2.22291
2.22132
2.2198
2.21836
2.217
2.21571
2.21449
2.21336
2.2123
2.21132
2.21042
2.2096
2.20885
2.20817
2.20757
2.20703
2.20656
2.20614
2.20579
2.20549
2.20523
2.20502
2.20485
2.20472
2.20461
2.20454
2.20449
2.20446
2.313
2.3131
2.3133
2.31361
2.31402
2.31452
2.31513
2.31583
2.31662
2.31751
2.31848
2.31954
2.32068
2.3219
2.32319
2.32455
2.32597
2.32746
2.32899
2.33058
2.3322
2.33387
2.33555
2.33726
2.33898
2.34071
2.34242
2.34412
2.34579
2.34742
2.34899
2.35051
2.35195
2.35331
2.35457
2.35571
2.35674
2.35764
2.3584
2.35901
2.35946
2.35975
2.35987
2.35981
2.35956
2.35913
2.35851
2.35771
2.3567
2.35551
2.35413
2.35256
2.35081
2.34888
2.34678
2.34451
2.34208
2.3395
2.33679
2.33395
2.33099
2.32793
2.32477
2.32155
2.31826
2.31492
2.31156
2.30817
2.30479
2.30142
2.29807
2.29476
2.2915
2.28831
2.28518
2.28212
2.27915
2.27627
2.27348
2.27078
2.26817
2.26565
2.26322
2.26089
2.25864
2.25647
2.25439
2.25238
2.25046
2.24861
2.24683
2.24513
2.2435
2.24194
2.24045
2.23904
2.2377
2.23643
2.23524
2.23412
2.23308
2.23211
2.23122
2.2304
2.22965
2.22896
2.22835
2.2278
2.22732
2.22689
2.22652
2.2262
2.22593
2.2257
2.22551
2.22536
2.22524
2.22516
2.2251
2.22507
2.33254
2.33264
2.33283
2.33312
2.3335
2.33397
2.33454
2.3352
2.33594
2.33677
2.33768
2.33867
2.33974
2.34088
2.34208
2.34335
2.34468
2.34606
2.3475
2.34897
2.35048
2.35202
2.35359
2.35517
2.35676
2.35835
2.35993
2.36149
2.36302
2.36451
2.36595
2.36733
2.36863
2.36986
2.37099
2.37203
2.37294
2.37374
2.3744
2.37493
2.3753
2.37553
2.37559
2.37549
2.37522
2.37477
2.37415
2.37335
2.37237
2.37121
2.36988
2.36838
2.3667
2.36486
2.36286
2.3607
2.3584
2.35595
2.35338
2.35069
2.3479
2.345
2.34202
2.33897
2.33587
2.33271
2.32953
2.32633
2.32312
2.31993
2.31675
2.31361
2.3105
2.30745
2.30446
2.30154
2.29869
2.29592
2.29322
2.29061
2.28809
2.28564
2.28329
2.28101
2.27882
2.2767
2.27467
2.27271
2.27082
2.26901
2.26727
2.2656
2.26401
2.26248
2.26103
2.25964
2.25833
2.25708
2.25591
2.25481
2.25378
2.25283
2.25194
2.25112
2.25037
2.24969
2.24907
2.24852
2.24802
2.24758
2.2472
2.24686
2.24657
2.24633
2.24613
2.24597
2.24584
2.24575
2.24568
2.24565
2.35199
2.35208
2.35226
2.35253
2.35288
2.35333
2.35386
2.35447
2.35517
2.35595
2.3568
2.35773
2.35872
2.35978
2.36091
2.3621
2.36333
2.36462
2.36595
2.36732
2.36873
2.37016
2.37161
2.37307
2.37454
2.376
2.37745
2.37888
2.38028
2.38165
2.38296
2.38421
2.3854
2.38651
2.38753
2.38845
2.38926
2.38997
2.39054
2.39099
2.3913
2.39146
2.39148
2.39134
2.39104
2.39058
2.38996
2.38917
2.38821
2.38709
2.38581
2.38436
2.38276
2.381
2.37909
2.37704
2.37485
2.37253
2.37009
2.36755
2.3649
2.36216
2.35934
2.35646
2.35352
2.35054
2.34752
2.34449
2.34145
2.33842
2.3354
2.33241
2.32945
2.32654
2.32368
2.32088
2.31815
2.31548
2.31288
2.31036
2.30792
2.30555
2.30326
2.30105
2.29892
2.29686