/*--------------------------------*- C++ -*----------------------------------*\
| =========                 |                                                 |
| \\      /  F ield         | OpenFOAM: The Open Source CFD Toolbox           |
|  \\    /   O peration     | Version:  2406                                  |
|   \\  /    A nd           | Website:  www.openfoam.com                      |
|    \\/     M anipulation  |                                                 |
\*---------------------------------------------------------------------------*/
FoamFile
{
    version     2.0;
    format      ascii;
    arch        "LSB;label=32;scalar=64";
    class       volScalarField;
    location    "1.1";
    object      C_0;
}
// * * * * * * * * * * * * * * * * * * * * * * * * * * * * * * * * * * * * * //

dimensions      [1 -3 0 0 0 0 0];

internalField   nonuniform List<scalar> 
14400
(
3.22275
3.22097
3.21723
3.21112
3.20179
3.18659
3.16056
3.14603
3.16353
3.19182
3.20898
3.22035
3.22868
3.23481
3.23919
3.24206
3.24352
3.24358
3.24213
3.23893
3.23351
3.22498
3.21062
3.1858
3.17331
3.19325
3.22372
3.24291
3.25649
3.26731
3.27623
3.28375
3.29018
3.29572
3.30052
3.30467
3.30825
3.31133
3.31394
3.31612
3.3179
3.3193
3.32033
3.32102
3.32137
3.32138
3.32108
3.32044
3.31949
3.31821
3.31661
3.31468
3.3124
3.30978
3.30679
3.30343
3.29968
3.2955
3.29088
3.28579
3.28017
3.27397
3.26715
3.25961
3.25125
3.24194
3.2315
3.21968
3.20611
3.19023
3.17113
3.14567
3.10552
3.06754
3.05475
3.05152
3.05729
3.08793
3.12227
3.14267
3.15649
3.16677
3.17449
3.18022
3.18431
3.187
3.18841
3.18862
3.18767
3.18552
3.18209
3.17723
3.17067
3.16195
3.15023
3.13285
3.10419
3.08556
3.09842
3.12268
3.13616
3.14365
3.14761
3.14875
3.14726
3.14296
3.13514
3.12135
3.09675
3.08342
3.10158
3.12992
3.14703
3.15853
3.16705
3.17344
3.17819
3.18156
3.18373
3.18479
3.22453
3.22293
3.2196
3.21433
3.20674
3.1964
3.18226
3.17088
3.18501
3.20133
3.2137
3.22339
3.23088
3.23656
3.2407
3.24346
3.24492
3.24509
3.24388
3.24115
3.23662
3.2299
3.22055
3.20759
3.1981
3.21451
3.23291
3.24733
3.25925
3.2692
3.27763
3.28484
3.29106
3.29646
3.30116
3.30523
3.30876
3.31179
3.31437
3.31652
3.31828
3.31966
3.32068
3.32136
3.3217
3.32171
3.3214
3.32077
3.31981
3.31854
3.31694
3.31501
3.31275
3.31014
3.30717
3.30383
3.3001
3.29595
3.29136
3.2863
3.28074
3.27461
3.26786
3.26042
3.2522
3.24307
3.23289
3.22143
3.20842
3.19345
3.17597
3.1552
3.12863
3.09849
3.08978
3.08681
3.08857
3.11173
3.1326
3.14803
3.16004
3.16933
3.17648
3.18185
3.18572
3.18827
3.1896
3.18979
3.18886
3.18679
3.18352
3.17893
3.17283
3.16495
3.15486
3.14209
3.12536
3.11023
3.12008
3.13259
3.14136
3.14719
3.15044
3.15137
3.15008
3.14648
3.14031
3.13121
3.11834
3.10806
3.12275
3.13916
3.15166
3.1615
3.16917
3.17509
3.17956
3.18276
3.18483
3.18585
3.22792
3.2266
3.22392
3.21986
3.21444
3.20804
3.20193
3.19899
3.20433
3.21261
3.22111
3.22864
3.23489
3.23984
3.24358
3.24616
3.24762
3.24796
3.24716
3.24516
3.24192
3.23747
3.23217
3.22739
3.22611
3.23343
3.24368
3.25424
3.26397
3.27263
3.28024
3.28692
3.29278
3.29791
3.30242
3.30635
3.30976
3.31271
3.31522
3.31732
3.31903
3.32038
3.32137
3.32203
3.32236
3.32236
3.32204
3.32141
3.32046
3.31919
3.3176
3.31569
3.31344
3.31086
3.30792
3.30461
3.30092
3.29683
3.29231
3.28733
3.28186
3.27586
3.26926
3.26202
3.25405
3.24526
3.23554
3.22473
3.21268
3.19918
3.18409
3.16745
3.14999
3.13358
3.12443
3.12141
3.12417
3.13418
3.1458
3.15682
3.16628
3.17405
3.18023
3.18499
3.18846
3.19075
3.19194
3.19208
3.19119
3.18927
3.18627
3.18213
3.17679
3.17014
3.16218
3.15319
3.14428
3.13807
3.13976
3.14452
3.14948
3.1533
3.15557
3.15621
3.15521
3.15257
3.14839
3.14306
3.13793
3.13585
3.14167
3.15024
3.15894
3.16663
3.17304
3.1782
3.18219
3.18509
3.18699
3.18793
3.23263
3.23162
3.22963
3.22673
3.22314
3.21937
3.21641
3.21584
3.21859
3.22366
3.22951
3.23516
3.24018
3.24435
3.24763
3.24999
3.25144
3.25198
3.25164
3.25042
3.24843
3.24587
3.24328
3.24167
3.24268
3.2472
3.25415
3.26198
3.26977
3.27709
3.28378
3.28981
3.2952
3.3
3.30424
3.30798
3.31124
3.31406
3.31647
3.3185
3.32015
3.32145
3.32241
3.32303
3.32334
3.32332
3.323
3.32236
3.32141
3.32016
3.31858
3.31669
3.31448
3.31193
3.30903
3.30578
3.30216
3.29814
3.29372
3.28886
3.28353
3.27769
3.27132
3.26435
3.25673
3.24839
3.23927
3.22928
3.21837
3.20651
3.19377
3.18051
3.16753
3.15642
3.14885
3.14584
3.14735
3.15244
3.1596
3.16717
3.17422
3.18035
3.18542
3.18941
3.19236
3.19432
3.19533
3.1954
3.19456
3.19282
3.19015
3.18655
3.18203
3.17664
3.17055
3.16419
3.15847
3.15489
3.15444
3.15625
3.15875
3.16096
3.16234
3.1627
3.16196
3.1602
3.15762
3.15473
3.15254
3.15261
3.15581
3.16118
3.16723
3.17304
3.17818
3.18248
3.1859
3.18843
3.19011
3.19094
3.23836
3.23763
3.23623
3.23428
3.23203
3.22989
3.2285
3.22859
3.23054
3.23394
3.23808
3.24233
3.2463
3.24976
3.25258
3.25472
3.25616
3.2569
3.25697
3.25646
3.25549
3.25432
3.25339
3.25335
3.25495
3.25855
3.26373
3.26977
3.27604
3.28219
3.28799
3.29335
3.29823
3.30264
3.30658
3.31008
3.31315
3.31583
3.31812
3.32005
3.32162
3.32286
3.32377
3.32436
3.32463
3.3246
3.32426
3.32363
3.32268
3.32144
3.31988
3.31802
3.31584
3.31334
3.3105
3.30732
3.30378
3.29987
3.29556
3.29084
3.28569
3.28007
3.27396
3.26732
3.26011
3.2523
3.24386
3.23476
3.22502
3.2147
3.20399
3.19327
3.18319
3.17468
3.16868
3.16577
3.16592
3.16862
3.17298
3.17804
3.18309
3.18771
3.19167
3.19487
3.19727
3.19886
3.19964
3.19963
3.19884
3.19728
3.19496
3.1919
3.18815
3.18384
3.17917
3.17454
3.17052
3.16784
3.16687
3.16727
3.16833
3.16942
3.17014
3.17027
3.16975
3.16864
3.16715
3.1657
3.1649
3.16549
3.1678
3.17145
3.17576
3.18011
3.18414
3.18764
3.19048
3.19263
3.19407
3.19479
3.2448
3.24431
3.24338
3.24214
3.2408
3.23965
3.23909
3.2395
3.24102
3.24349
3.24654
3.24979
3.25294
3.25579
3.25822
3.26015
3.26157
3.26247
3.26291
3.26295
3.26275
3.26253
3.2626
3.26338
3.26523
3.26832
3.27247
3.2773
3.28245
3.28762
3.29263
3.29735
3.30173
3.30574
3.30936
3.3126
3.31547
3.31797
3.32013
3.32194
3.32343
3.3246
3.32545
3.32599
3.32624
3.32618
3.32583
3.32519
3.32426
3.32302
3.3215
3.31967
3.31753
3.31508
3.31231
3.30921
3.30577
3.30198
3.29782
3.29327
3.28832
3.28295
3.27713
3.27086
3.2641
3.25685
3.2491
3.24088
3.23223
3.22328
3.21422
3.20539
3.19727
3.19044
3.18544
3.18261
3.18195
3.18314
3.18566
3.18891
3.19239
3.19573
3.19869
3.20113
3.20298
3.20419
3.20475
3.20465
3.2039
3.2025
3.2005
3.19792
3.19484
3.19139
3.18777
3.18427
3.18124
3.17907
3.17792
3.17764
3.17788
3.17827
3.17853
3.1785
3.17812
3.17745
3.17665
3.17601
3.17588
3.17664
3.17843
3.18108
3.18423
3.18751
3.19065
3.19344
3.19576
3.19755
3.19875
3.19936
3.25174
3.25143
3.25085
3.25011
3.24936
3.24883
3.24873
3.24928
3.25055
3.25245
3.2548
3.25734
3.25988
3.26225
3.26435
3.2661
3.26749
3.26852
3.26923
3.26969
3.27003
3.27043
3.27112
3.27232
3.27427
3.27702
3.28051
3.28452
3.28883
3.29322
3.29755
3.3017
3.3056
3.30922
3.31252
3.31549
3.31814
3.32047
3.32248
3.32417
3.32556
3.32664
3.32743
3.32793
3.32814
3.32806
3.3277
3.32705
3.32612
3.32491
3.32341
3.32162
3.31953
3.31715
3.31445
3.31145
3.30812
3.30446
3.30045
3.29609
3.29137
3.28626
3.28077
3.27488
3.26858
3.26189
3.25482
3.24742
3.23976
3.23196
3.22422
3.21681
3.21006
3.20436
3.20004
3.19729
3.19612
3.19633
3.19761
3.19956
3.20183
3.20412
3.20622
3.20798
3.20932
3.21017
3.21051
3.21031
3.20959
3.20834
3.20661
3.20444
3.2019
3.19912
3.19625
3.19351
3.19112
3.18928
3.18809
3.18748
3.18727
3.18724
3.18721
3.18707
3.18679
3.18639
3.186
3.18579
3.18599
3.18676
3.1882
3.19019
3.19256
3.19507
3.1975
3.19971
3.20158
3.20303
3.20403
3.20453
3.25899
3.25881
3.25848
3.25808
3.25772
3.25756
3.25773
3.25834
3.25944
3.26098
3.26285
3.2649
3.26698
3.26898
3.27081
3.27242
3.27377
3.27488
3.27579
3.27655
3.27726
3.27806
3.2791
3.28054
3.28249
3.285
3.28803
3.29145
3.29512
3.29889
3.30265
3.3063
3.30977
3.31301
3.316
3.31871
3.32114
3.32329
3.32514
3.32671
3.32799
3.32899
3.32971
3.33015
3.33032
3.33022
3.32984
3.32919
3.32827
3.32708
3.32561
3.32386
3.32183
3.31951
3.31691
3.314
3.3108
3.30728
3.30344
3.29928
3.29479
3.28997
3.2848
3.27929
3.27346
3.26731
3.26088
3.25422
3.24742
3.24059
3.2339
3.22756
3.22181
3.2169
3.21305
3.21038
3.20889
3.20846
3.20888
3.20989
3.21124
3.21269
3.21408
3.21526
3.21615
3.21668
3.2168
3.21651
3.21579
3.21467
3.21316
3.21132
3.20921
3.20693
3.20461
3.2024
3.20043
3.19885
3.19769
3.19693
3.19647
3.1962
3.196
3.19579
3.19556
3.19532
3.19516
3.19518
3.1955
3.19623
3.1974
3.19895
3.20076
3.20268
3.20458
3.20632
3.20781
3.20899
3.20979
3.2102
3.26643
3.26633
3.26617
3.266
3.2659
3.26596
3.26627
3.26691
3.26789
3.26918
3.27073
3.27242
3.27417
3.27589
3.27751
3.27898
3.2803
3.28146
3.28249
3.28344
3.2844
3.28545
3.28669
3.28824
3.29015
3.29246
3.29514
3.29812
3.3013
3.30458
3.30786
3.31108
3.31416
3.31706
3.31975
3.32221
3.32443
3.32639
3.32809
3.32953
3.3307
3.33161
3.33226
3.33265
3.33278
3.33265
3.33226
3.33161
3.33069
3.32952
3.32809
3.32638
3.32442
3.32217
3.31966
3.31686
3.31378
3.31042
3.30676
3.30281
3.29856
3.29401
3.28917
3.28404
3.27865
3.27301
3.26716
3.26117
3.2551
3.24908
3.24323
3.23771
3.23271
3.22839
3.22489
3.2223
3.22061
3.21974
3.21956
3.21989
3.22054
3.22134
3.22215
3.22284
3.22334
3.22358
3.22351
3.22313
3.22241
3.22138
3.22005
3.21846
3.21668
3.21479
3.21287
3.21103
3.20937
3.20798
3.20688
3.20607
3.2055
3.20509
3.20479
3.20454
3.20433
3.20418
3.20413
3.20425
3.20461
3.20526
3.20621
3.20743
3.20884
3.21033
3.21181
3.21318
3.21436
3.2153
3.21595
3.21628
3.27396
3.27392
3.27387
3.27385
3.27391
3.2741
3.2745
3.27513
3.27602
3.27714
3.27845
3.27989
3.28139
3.28289
3.28434
3.28571
3.28698
3.28816
3.28927
3.29034
3.29144
3.29263
3.29399
3.29556
3.29742
3.29955
3.30196
3.3046
3.30738
3.31026
3.31314
3.31598
3.31872
3.32131
3.32373
3.32596
3.32797
3.32975
3.3313
3.33261
3.33367
3.3345
3.33508
3.33541
3.3355
3.33534
3.33493
3.33428
3.33338
3.33223
3.33083
3.32918
3.32727
3.32511
3.32269
3.32
3.31706
3.31385
3.31037
3.30662
3.30261
3.29834
3.29382
3.28906
3.28408
3.27891
3.27359
3.26818
3.26275
3.25739
3.25222
3.24735
3.24292
3.23905
3.23583
3.23331
3.2315
3.23034
3.22974
3.22956
3.22969
3.22998
3.23032
3.23062
3.23079
3.23078
3.23055
3.23007
3.22935
3.22838
3.22718
3.2258
3.22427
3.22266
3.22104
3.21948
3.21805
3.21681
3.21579
3.21498
3.21436
3.21388
3.21352
3.21325
3.21305
3.21294
3.21294
3.21309
3.21343
3.21399
3.21476
3.21573
3.21683
3.21799
3.21915
3.22023
3.22116
3.22191
3.22242
3.22269
3.28152
3.28152
3.28155
3.28162
3.28177
3.28205
3.28248
3.2831
3.28391
3.2849
3.28604
3.28729
3.2886
3.28994
3.29125
3.29253
3.29375
3.29493
3.29607
3.29722
3.29839
3.29966
3.30105
3.30262
3.30439
3.30638
3.30856
3.31091
3.31338
3.31592
3.31847
3.32099
3.32342
3.32574
3.32791
3.32992
3.33173
3.33334
3.33474
3.33593
3.33689
3.33763
3.33813
3.33841
3.33846
3.33827
3.33785
3.3372
3.33631
3.33518
3.33382
3.33222
3.33038
3.3283
3.32598
3.32341
3.3206
3.31754
3.31424
3.3107
3.30693
3.30293
3.29871
3.29429
3.2897
3.28496
3.28011
3.27521
3.27032
3.26552
3.2609
3.25655
3.25257
3.24905
3.24605
3.24361
3.24173
3.24038
3.23948
3.23894
3.23867
3.23857
3.23854
3.23851
3.23841
3.2382
3.23782
3.23727
3.23653
3.2356
3.23451
3.23328
3.23194
3.23055
3.22915
3.2278
3.22655
3.22543
3.22448
3.22369
3.22306
3.22256
3.22217
3.22188
3.22168
3.22158
3.22159
3.22174
3.22203
3.2225
3.22312
3.22389
3.22475
3.22566
3.22657
3.22741
3.22815
3.22874
3.22915
3.22936
3.28908
3.28911
3.28918
3.2893
3.28951
3.28983
3.29028
3.29088
3.29163
3.29252
3.29353
3.29463
3.2958
3.297
3.29821
3.2994
3.30058
3.30173
3.30288
3.30405
3.30526
3.30655
3.30794
3.30947
3.31115
3.313
3.31499
3.3171
3.31931
3.32157
3.32384
3.32608
3.32825
3.33032
3.33226
3.33406
3.33569
3.33715
3.33841
3.33947
3.34033
3.34098
3.34142
3.34164
3.34165
3.34144
3.34101
3.34035
3.33948
3.33838
3.33705
3.33551
3.33373
3.33173
3.32951
3.32705
3.32438
3.32148
3.31836
3.31502
3.31147
3.30773
3.3038
3.2997
3.29546
3.29111
3.28668
3.28223
3.2778
3.27347
3.26931
3.26538
3.26177
3.25853
3.25572
3.25336
3.25145
3.24996
3.24885
3.24805
3.24748
3.24708
3.24677
3.24648
3.24616
3.24577
3.24527
3.24465
3.24389
3.243
3.24198
3.24086
3.23967
3.23844
3.2372
3.23601
3.2349
3.23389
3.23301
3.23225
3.23163
3.23112
3.23072
3.23042
3.23022
3.23011
3.23011
3.23023
3.23047
3.23085
3.23134
3.23195
3.23262
3.23333
3.23404
3.23471
3.23528
3.23575
3.23607
3.23624
3.2966
3.29665
3.29675
3.29691
3.29715
3.29749
3.29793
3.2985
3.2992
3.3
3.30092
3.30191
3.30296
3.30406
3.30517
3.30629
3.30741
3.30854
3.30968
3.31084
3.31205
3.31333
3.31469
3.31617
3.31776
3.31947
3.32129
3.3232
3.32519
3.32721
3.32923
3.33123
3.33317
3.33502
3.33676
3.33837
3.33984
3.34114
3.34227
3.34322
3.34398
3.34455
3.34492
3.34509
3.34506
3.34482
3.34438
3.34373
3.34286
3.34179
3.34051
3.33901
3.33731
3.33539
3.33326
3.33093
3.32838
3.32563
3.32268
3.31954
3.31622
3.31272
3.30906
3.30526
3.30134
3.29734
3.29328
3.28922
3.28519
3.28126
3.27747
3.2739
3.27059
3.26759
3.26494
3.26265
3.26074
3.25917
3.25791
3.25692
3.25613
3.2555
3.25497
3.25447
3.25398
3.25345
3.25285
3.25216
3.25138
3.25051
3.24955
3.24851
3.24743
3.24632
3.24522
3.24415
3.24315
3.24222
3.2414
3.24068
3.24008
3.23957
3.23917
3.23886
3.23865
3.23853
3.23851
3.23859
3.23878
3.23907
3.23946
3.23993
3.24046
3.24101
3.24156
3.24208
3.24253
3.2429
3.24315
3.24328
3.30408
3.30414
3.30425
3.30443
3.30468
3.30503
3.30547
3.30601
3.30665
3.30739
3.30822
3.30912
3.31008
3.31109
3.31212
3.31318
3.31425
3.31534
3.31644
3.31759
3.31877
3.32002
3.32134
3.32274
3.32424
3.32583
3.3275
3.32924
3.33103
3.33284
3.33465
3.33644
3.33817
3.33983
3.34139
3.34283
3.34414
3.3453
3.34631
3.34715
3.34782
3.34832
3.34862
3.34875
3.34868
3.34842
3.34796
3.34731
3.34646
3.34542
3.34417
3.34273
3.34109
3.33926
3.33723
3.335
3.33259
3.32999
3.32721
3.32425
3.32113
3.31786
3.31445
3.31093
3.30731
3.30362
3.29989
3.29617
3.29248
3.28889
3.28543
3.28215
3.27909
3.2763
3.27379
3.27158
3.26967
3.26806
3.2667
3.26557
3.26463
3.26383
3.26312
3.26247
3.26184
3.26119
3.26051
3.25977
3.25897
3.25811
3.25719
3.25622
3.25522
3.2542
3.2532
3.25223
3.25131
3.25046
3.24969
3.24901
3.24842
3.24793
3.24752
3.24721
3.24699
3.24685
3.2468
3.24684
3.24698
3.2472
3.24749
3.24785
3.24826
3.24869
3.24912
3.24952
3.24987
3.25016
3.25035
3.25046
3.31151
3.31157
3.31169
3.31187
3.31213
3.31247
3.31289
3.3134
3.314
3.31469
3.31545
3.31628
3.31716
3.31809
3.31906
3.32005
3.32107
3.32211
3.32318
3.32428
3.32543
3.32663
3.3279
3.32923
3.33063
3.3321
3.33363
3.33522
3.33684
3.33847
3.3401
3.3417
3.34325
3.34473
3.34613
3.34742
3.34859
3.34962
3.35052
3.35126
3.35184
3.35226
3.35251
3.35259
3.35248
3.3522
3.35174
3.35109
3.35026
3.34924
3.34804
3.34665
3.34508
3.34332
3.34138
3.33927
3.33698
3.33452
3.3319
3.32912
3.3262
3.32314
3.31996
3.31669
3.31334
3.30993
3.3065
3.30307
3.29969
3.29639
3.2932
3.29018
3.28734
3.28472
3.28234
3.28021
3.27832
3.27668
3.27527
3.27404
3.27299
3.27206
3.27122
3.27045
3.26971
3.26897
3.26822
3.26744
3.26662
3.26577
3.26488
3.26396
3.26302
3.26207
3.26115
3.26025
3.2594
3.2586
3.25788
3.25724
3.25667
3.25619
3.25579
3.25547
3.25523
3.25508
3.255
3.25501
3.25509
3.25524
3.25546
3.25573
3.25604
3.25637
3.2567
3.25701
3.25728
3.2575
3.25765
3.25773
3.31887
3.31893
3.31906
3.31924
3.3195
3.31983
3.32023
3.32071
3.32127
3.32191
3.32261
3.32338
3.3242
3.32506
3.32596
3.32689
3.32786
3.32885
3.32988
3.33094
3.33204
3.33319
3.33438
3.33564
3.33695
3.33831
3.33972
3.34117
3.34264
3.34411
3.34558
3.34701
3.3484
3.34973
3.35097
3.35212
3.35316
3.35408
3.35487
3.35552
3.35603
3.35638
3.35657
3.3566
3.35647
3.35617
3.3557
3.35505
3.35424
3.35325
3.35208
3.35075
3.34924
3.34756
3.34572
3.34371
3.34154
3.33922
3.33675
3.33414
3.3314
3.32854
3.32558
3.32253
3.31942
3.31626
3.31309
3.30993
3.30681
3.30377
3.30082
3.29801
3.29536
3.2929
3.29063
3.28858
3.28673
3.28509
3.28363
3.28235
3.28121
3.28019
3.27926
3.27839
3.27757
3.27676
3.27596
3.27515
3.27431
3.27346
3.27259
3.27171
3.27082
3.26993
3.26906
3.26822
3.26743
3.26668
3.266
3.26538
3.26484
3.26437
3.26397
3.26365
3.2634
3.26322
3.26312
3.26309
3.26313
3.26323
3.26338
3.26357
3.2638
3.26405
3.2643
3.26453
3.26474
3.2649
3.26502
3.26508
3.32618
3.32624
3.32636
3.32654
3.32679
3.32711
3.32749
3.32795
3.32847
3.32906
3.32971
3.33042
3.33118
3.33199
3.33283
3.33371
3.33462
3.33556
3.33654
3.33755
3.3386
3.33969
3.34082
3.34199
3.34321
3.34447
3.34577
3.34709
3.34842
3.34976
3.35108
3.35237
3.35362
3.3548
3.35591
3.35694
3.35786
3.35867
3.35937
3.35993
3.36036
3.36065
3.36079
3.36079
3.36062
3.3603
3.35983
3.35919
3.35839
3.35743
3.3563
3.35502
3.35357
3.35197
3.35022
3.34831
3.34626
3.34406
3.34173
3.33928
3.33671
3.33404
3.33127
3.32844
3.32554
3.32262
3.31968
3.31675
3.31386
3.31104
3.30831
3.30569
3.30321
3.30088
3.29872
3.29674
3.29493
3.2933
3.29183
3.29051
3.28932
3.28823
3.28723
3.2863
3.28541
3.28455
3.28371
3.28287
3.28202
3.28118
3.28032
3.27946
3.27861
3.27777
3.27695
3.27616
3.2754
3.2747
3.27405
3.27346
3.27293
3.27247
3.27208
3.27175
3.27149
3.2713
3.27117
3.27111
3.2711
3.27115
3.27125
3.27138
3.27154
3.27172
3.2719
3.27208
3.27223
3.27236
3.27245
3.2725
3.33342
3.33348
3.3336
3.33378
3.33401
3.33431
3.33468
3.33511
3.3356
3.33615
3.33675
3.33741
3.33812
3.33887
3.33966
3.34049
3.34135
3.34224
3.34317
3.34412
3.34511
3.34614
3.3472
3.3483
3.34944
3.3506
3.35179
3.353
3.35421
3.35542
3.35661
3.35777
3.35889
3.35995
3.36094
3.36185
3.36267
3.36338
3.36399
3.36448
3.36484
3.36507
3.36517
3.36512
3.36493
3.3646
3.36411
3.36348
3.3627
3.36176
3.36068
3.35945
3.35806
3.35654
3.35487
3.35306
3.35111
3.34904
3.34684
3.34454
3.34213
3.33962
3.33704
3.3344
3.3317
3.32898
3.32625
3.32353
3.32085
3.31822
3.31567
3.31322
3.31089
3.30869
3.30663
3.30472
3.30296
3.30135
3.29988
3.29854
3.29731
3.29619
3.29514
3.29416
3.29322
3.29232
3.29145
3.29059
3.28974
3.28889
3.28805
3.28722
3.28639
3.28559
3.2848
3.28405
3.28333
3.28266
3.28203
3.28147
3.28095
3.2805
3.28011
3.27978
3.27951
3.27931
3.27916
3.27906
3.27902
3.27903
3.27908
3.27916
3.27927
3.27939
3.27952
3.27965
3.27976
3.27985
3.27992
3.27995
3.34061
3.34067
3.34078
3.34095
3.34117
3.34146
3.3418
3.3422
3.34266
3.34318
3.34374
3.34436
3.34502
3.34572
3.34646
3.34724
3.34805
3.34889
3.34976
3.35066
3.35159
3.35256
3.35355
3.35458
3.35563
3.35671
3.3578
3.3589
3.36
3.3611
3.36217
3.36321
3.36422
3.36516
3.36605
3.36685
3.36758
3.3682
3.36873
3.36915
3.36945
3.36962
3.36968
3.3696
3.36939
3.36904
3.36855
3.36793
3.36716
3.36625
3.36521
3.36402
3.3627
3.36124
3.35965
3.35794
3.35609
3.35414
3.35207
3.3499
3.34763
3.34529
3.34287
3.3404
3.33789
3.33535
3.33281
3.33028
3.32778
3.32532
3.32294
3.32064
3.31844
3.31636
3.31439
3.31255
3.31085
3.30926
3.3078
3.30646
3.30521
3.30406
3.30298
3.30196
3.301
3.30007
3.29918
3.2983
3.29745
3.2966
3.29577
3.29496
3.29416
3.29338
3.29262
3.2919
3.29121
3.29057
3.28997
3.28942
3.28892
3.28847
3.28809
3.28775
3.28748
3.28726
3.28709
3.28697
3.2869
3.28687
3.28687
3.28691
3.28698
3.28705
3.28714
3.28723
3.28731
3.28737
3.28742
3.28744
3.34774
3.34779
3.3479
3.34806
3.34827
3.34854
3.34887
3.34924
3.34967
3.35015
3.35068
3.35126
3.35187
3.35253
3.35322
3.35395
3.35471
3.3555
3.35632
3.35717
3.35804
3.35895
3.35987
3.36083
3.3618
3.36279
3.36379
3.3648
3.3658
3.36679
3.36776
3.3687
3.3696
3.37044
3.37123
3.37194
3.37258
3.37313
3.37358
3.37393
3.37417
3.3743
3.37432
3.37421
3.37397
3.37362
3.37313
3.37251
3.37176
3.37088
3.36987
3.36874
3.36747
3.36608
3.36457
3.36294
3.36119
3.35934
3.35739
3.35535
3.35322
3.35102
3.34876
3.34645
3.3441
3.34173
3.33936
3.33699
3.33465
3.33236
3.33012
3.32796
3.32588
3.3239
3.32202
3.32026
3.3186
3.31705
3.31561
3.31427
3.31302
3.31185
3.31075
3.30972
3.30873
3.30779
3.30688
3.306
3.30514
3.3043
3.30348
3.30268
3.3019
3.30114
3.30041
3.29972
3.29905
3.29843
3.29785
3.29731
3.29683
3.29639
3.296
3.29567
3.29538
3.29515
3.29496
3.29482
3.29472
3.29466
3.29464
3.29464
3.29467
3.29471
3.29476
3.29481
3.29486
3.29491
3.29494
3.29495
3.35481
3.35486
3.35497
3.35512
3.35532
3.35557
3.35588
3.35623
3.35663
3.35708
3.35757
3.35811
3.35869
3.3593
3.35995
3.36063
3.36134
3.36208
3.36285
3.36364
3.36446
3.36531
3.36617
3.36705
3.36795
3.36886
3.36978
3.3707
3.37161
3.37251
3.37338
3.37422
3.37503
3.37578
3.37648
3.37711
3.37767
3.37814
3.37853
3.37882
3.37901
3.3791
3.37908
3.37894
3.37869
3.37832
3.37783
3.37722
3.37649
3.37564
3.37467
3.37357
3.37236
3.37104
3.3696
3.36805
3.3664
3.36465
3.36281
3.36089
3.35889
3.35682
3.3547
3.35253
3.35033
3.34811
3.34589
3.34368
3.34149
3.33933
3.33723
3.33519
3.33322
3.33134
3.32955
3.32784
3.32624
3.32473
3.32332
3.32199
3.32074
3.31957
3.31847
3.31742
3.31643
3.31547
3.31456
3.31367
3.31281
3.31198
3.31117
3.31038
3.30962
3.30888
3.30817
3.3075
3.30685
3.30625
3.30568
3.30516
3.30468
3.30425
3.30387
3.30353
3.30324
3.30299
3.30279
3.30263
3.30251
3.30243
3.30237
3.30235
3.30234
3.30235
3.30237
3.3024
3.30243
3.30245
3.30247
3.30248
3.36184
3.36188
3.36198
3.36212
3.36231
3.36255
3.36284
3.36317
3.36354
3.36396
3.36442
3.36492
3.36546
3.36603
3.36664
3.36728
3.36794
3.36863
3.36935
3.37009
3.37086
3.37164
3.37245
3.37326
3.37409
3.37493
3.37577
3.3766
3.37743
3.37824
3.37903
3.37979
3.38051
3.38118
3.3818
3.38235
3.38283
3.38324
3.38357
3.38381
3.38395
3.384
3.38395
3.38379
3.38352
3.38315
3.38266
3.38206
3.38134
3.38052
3.37958
3.37853
3.37737
3.37611
3.37474
3.37327
3.3717
3.37005
3.36831
3.3665
3.36461
3.36267
3.36068
3.35864
3.35658
3.3545
3.35242
3.35034
3.34828
3.34626
3.34427
3.34235
3.34048
3.33869
3.33697
3.33534
3.33379
3.33232
3.33093
3.32962
3.32839
3.32722
3.32612
3.32507
3.32407
3.32312
3.3222
3.32132
3.32046
3.31964
3.31883
3.31806
3.31731
3.31659
3.3159
3.31524
3.31461
3.31403
3.31347
3.31296
3.3125
3.31207
3.31169
3.31135
3.31105
3.3108
3.31058
3.31041
3.31027
3.31016
3.31008
3.31003
3.31
3.30998
3.30998
3.30999
3.31
3.31001
3.31001
3.31002
3.36881
3.36886
3.36895
3.36908
3.36926
3.36948
3.36975
3.37006
3.37041
3.3708
3.37123
3.3717
3.3722
3.37273
3.3733
3.37389
3.37452
3.37516
3.37583
3.37652
3.37723
3.37796
3.3787
3.37946
3.38022
3.38099
3.38176
3.38252
3.38327
3.384
3.38471
3.38539
3.38603
3.38663
3.38717
3.38766
3.38808
3.38843
3.3887
3.38889
3.38899
3.38901
3.38892
3.38874
3.38846
3.38808
3.38759
3.387
3.38631
3.38551
3.3846
3.38359
3.38248
3.38128
3.37997
3.37858
3.37709
3.37553
3.37389
3.37217
3.3704
3.36857
3.36669
3.36478
3.36284
3.36089
3.35893
3.35698
3.35504
3.35313
3.35126
3.34944
3.34767
3.34596
3.34432
3.34275
3.34125
3.33982
3.33847
3.33719
3.33597
3.33482
3.33372
3.33268
3.33168
3.33073
3.32981
3.32893
3.32808
3.32726
3.32647
3.32571
3.32497
3.32427
3.32359
3.32295
3.32234
3.32176
3.32122
3.32072
3.32026
3.31984
3.31946
3.31912
3.31882
3.31855
3.31833
3.31814
3.31798
3.31786
3.31776
3.31769
3.31764
3.3176
3.31758
3.31757
3.31756
3.31756
3.31756
3.31756
3.37574
3.37578
3.37587
3.37599
3.37616
3.37637
3.37662
3.37691
3.37723
3.3776
3.378
3.37844
3.3789
3.3794
3.37993
3.38048
3.38106
3.38167
3.38229
3.38293
3.38359
3.38426
3.38495
3.38565
3.38635
3.38705
3.38775
3.38844
3.38912
3.38979
3.39042
3.39103
3.3916
3.39213
3.39261
3.39303
3.39339
3.39369
3.39391
3.39406
3.39412
3.3941
3.394
3.3938
3.39351
3.39312
3.39264
3.39205
3.39138
3.3906
3.38973
3.38876
3.3877
3.38654
3.3853
3.38397
3.38257
3.38108
3.37953
3.37791
3.37624
3.37451
3.37275
3.37095
3.36912
3.36729
3.36544
3.3636
3.36178
3.35998
3.35821
3.35648
3.35479
3.35316
3.35159
3.35008
3.34863
3.34725
3.34593
3.34468
3.34348
3.34235
3.34126
3.34023
3.33924
3.33829
3.33738
3.33651
3.33567
3.33486
3.33408
3.33333
3.33261
3.33192
3.33125
3.33062
3.33003
3.32946
3.32894
3.32844
3.32799
3.32757
3.32719
3.32685
3.32654
3.32627
3.32604
3.32584
3.32567
3.32553
3.32542
3.32533
3.32526
3.3252
3.32517
3.32514
3.32512
3.32511
3.3251
3.3251
3.38263
3.38267
3.38274
3.38286
3.38302
3.38321
3.38345
3.38372
3.38402
3.38436
3.38474
3.38514
3.38558
3.38604
3.38653
3.38705
3.38759
3.38815
3.38873
3.38932
3.38993
3.39056
3.39119
3.39183
3.39247
3.39311
3.39375
3.39438
3.395
3.39559
3.39616
3.39671
3.39721
3.39768
3.3981
3.39846
3.39877
3.39902
3.3992
3.39931
3.39934
3.39929
3.39916
3.39894
3.39864
3.39825
3.39777
3.3972
3.39654
3.39579
3.39495
3.39402
3.393
3.3919
3.39071
3.38945
3.38811
3.38671
3.38524
3.38371
3.38213
3.3805
3.37883
3.37714
3.37542
3.37369
3.37195
3.37021
3.36849
3.36678
3.36511
3.36346
3.36186
3.36031
3.3588
3.35735
3.35595
3.35462
3.35334
3.35211
3.35094
3.34982
3.34876
3.34774
3.34676
3.34582
3.34492
3.34406
3.34323
3.34243
3.34166
3.34092
3.34021
3.33953
3.33888
3.33827
3.33768
3.33713
3.33661
3.33613
3.33568
3.33526
3.33488
3.33454
3.33423
3.33396
3.33372
3.33351
3.33333
3.33318
3.33305
3.33294
3.33286
3.33279
3.33274
3.3327
3.33267
3.33266
3.33264
3.33264
3.38947
3.38951
3.38958
3.38969
3.38984
3.39002
3.39024
3.39049
3.39077
3.39109
3.39144
3.39182
3.39222
3.39265
3.39311
3.39359
3.39409
3.39461
3.39514
3.3957
3.39626
3.39683
3.39742
3.398
3.39859
3.39918
3.39976
3.40033
3.40089
3.40142
3.40193
3.40242
3.40287
3.40328
3.40364
3.40395
3.40422
3.40442
3.40456
3.40463
3.40463
3.40456
3.40441
3.40418
3.40387
3.40348
3.403
3.40244
3.4018
3.40107
3.40025
3.39936
3.39838
3.39733
3.3962
3.395
3.39373
3.3924
3.391
3.38956
3.38806
3.38652
3.38495
3.38335
3.38173
3.38009
3.37845
3.37681
3.37518
3.37356
3.37197
3.37041
3.36888
3.3674
3.36596
3.36456
3.36322
3.36192
3.36068
3.35949
3.35835
3.35725
3.3562
3.3552
3.35424
3.35331
3.35242
3.35157
3.35075
3.34996
3.34921
3.34848
3.34778
3.34712
3.34648
3.34587
3.3453
3.34476
3.34425
3.34377
3.34333
3.34292
3.34254
3.3422
3.34189
3.34161
3.34136
3.34115
3.34096
3.34079
3.34065
3.34054
3.34044
3.34036
3.3403
3.34025
3.34022
3.34019
3.34018
3.34017
3.39628
3.39631
3.39638
3.39648
3.39662
3.39679
3.39699
3.39723
3.39749
3.39779
3.39811
3.39846
3.39884
3.39924
3.39966
3.40011
3.40057
3.40105
3.40155
3.40206
3.40258
3.40311
3.40364
3.40418
3.40472
3.40525
3.40578
3.40629
3.40679
3.40727
3.40773
3.40816
3.40856
3.40891
3.40923
3.4095
3.40972
3.40988
3.40998
3.41002
3.40999
3.4099
3.40973
3.40949
3.40917
3.40878
3.40831
3.40776
3.40713
3.40643
3.40564
3.40478
3.40385
3.40284
3.40176
3.40062
3.39941
3.39815
3.39682
3.39545
3.39404
3.39258
3.39109
3.38958
3.38805
3.3865
3.38495
3.38339
3.38185
3.38032
3.37881
3.37732
3.37587
3.37445
3.37306
3.37173
3.37043
3.36918
3.36797
3.36682
3.3657
3.36463
3.3636
3.36262
3.36167
3.36076
3.35989
3.35905
3.35824
3.35747
3.35672
3.35601
3.35532
3.35467
3.35404
3.35345
3.35289
3.35235
3.35185
3.35138
3.35094
3.35054
3.35016
3.34982
3.34951
3.34923
3.34898
3.34875
3.34856
3.34839
3.34824
3.34811
3.34801
3.34792
3.34785
3.34779
3.34775
3.34772
3.3477
3.34769
3.40305
3.40308
3.40315
3.40324
3.40337
3.40353
3.40372
3.40393
3.40418
3.40445
3.40475
3.40508
3.40543
3.4058
3.40619
3.4066
3.40703
3.40748
3.40794
3.40841
3.40888
3.40937
3.40986
3.41035
3.41084
3.41133
3.4118
3.41227
3.41272
3.41315
3.41356
3.41394
3.41428
3.4146
3.41487
3.41509
3.41527
3.4154
3.41547
3.41548
3.41543
3.41531
3.41513
3.41488
3.41456
3.41416
3.4137
3.41316
3.41255
3.41186
3.41111
3.41028
3.40938
3.40842
3.40739
3.4063
3.40515
3.40395
3.40269
3.40139
3.40005
3.39867
3.39726
3.39583
3.39438
3.39291
3.39144
3.38997
3.38851
3.38705
3.38561
3.3842
3.38281
3.38145
3.38013
3.37884
3.3776
3.37639
3.37522
3.3741
3.37301
3.37197
3.37096
3.37
3.36907
3.36818
3.36732
3.3665
3.3657
3.36494
3.36421
3.36351
3.36283
3.36219
3.36158
3.36099
3.36044
3.35992
3.35942
3.35896
3.35853
3.35813
3.35775
3.35741
3.3571
3.35682
3.35656
3.35633
3.35613
3.35595
3.3558
3.35567
3.35555
3.35546
3.35538
3.35532
3.35527
3.35523
3.35521
3.3552
3.40979
3.40982
3.40988
3.40997
3.41009
3.41023
3.41041
3.41061
3.41084
3.41109
3.41137
3.41167
3.412
3.41234
3.4127
3.41308
3.41348
3.41389
3.41431
3.41474
3.41518
3.41563
3.41608
3.41653
3.41697
3.41741
3.41784
3.41826
3.41867
3.41905
3.41941
3.41974
3.42005
3.42032
3.42055
3.42073
3.42088
3.42097
3.42101
3.421
3.42092
3.42079
3.4206
3.42034
3.42001
3.41962
3.41916
3.41863
3.41803
3.41737
3.41664
3.41584
3.41498
3.41406
3.41308
3.41204
3.41094
3.4098
3.40861
3.40737
3.4061
3.40479
3.40346
3.4021
3.40072
3.39933
3.39794
3.39654
3.39515
3.39377
3.3924
3.39105
3.38973
3.38843
3.38716
3.38592
3.38472
3.38355
3.38243
3.38133
3.38028
3.37926
3.37828
3.37734
3.37643
3.37556
3.37472
3.37391
3.37313
3.37238
3.37166
3.37097
3.37031
3.36968
3.36908
3.36851
3.36796
3.36745
3.36696
3.36651
3.36608
3.36568
3.36531
3.36497
3.36466
3.36438
3.36412
3.36389
3.36368
3.3635
3.36334
3.3632
3.36308
3.36298
3.36289
3.36283
3.36277
3.36273
3.36271
3.3627
3.4165
3.41653
3.41658
3.41667
3.41678
3.41691
3.41707
3.41726
3.41747
3.41771
3.41797
3.41824
3.41854
3.41886
3.4192
3.41955
3.41991
3.42029
3.42068
3.42108
3.42148
3.42189
3.42229
3.4227
3.42311
3.4235
3.42389
3.42427
3.42463
3.42497
3.42529
3.42558
3.42584
3.42607
3.42627
3.42642
3.42653
3.42659
3.42661
3.42657
3.42648
3.42633
3.42612
3.42586
3.42553
3.42514
3.42469
3.42417
3.42359
3.42295
3.42224
3.42147
3.42065
3.41976
3.41882
3.41783
3.41679
3.4157
3.41456
3.41339
3.41218
3.41094
3.40967
3.40838
3.40708
3.40576
3.40443
3.40311
3.40178
3.40047
3.39917
3.39788
3.39661
3.39537
3.39415
3.39296
3.39181
3.39068
3.38959
3.38853
3.38751
3.38652
3.38557
3.38465
3.38376
3.3829
3.38208
3.38129
3.38053
3.37979
3.37909
3.37841
3.37776
3.37715
3.37655
3.37599
3.37546
3.37495
3.37447
3.37402
3.3736
3.37321
3.37284
3.37251
3.37219
3.37191
3.37165
3.37142
3.37121
3.37102
3.37086
3.37071
3.37059
3.37048
3.37039
3.37032
3.37026
3.37022
3.37019
3.37018
3.42318
3.42321
3.42326
3.42333
3.42344
3.42356
3.42371
3.42389
3.42408
3.4243
3.42454
3.42479
3.42507
3.42536
3.42567
3.426
3.42633
3.42668
3.42704
3.4274
3.42777
3.42814
3.42851
3.42888
3.42925
3.42961
3.42995
3.43029
3.43061
3.43091
3.43119
3.43145
3.43167
3.43187
3.43203
3.43215
3.43223
3.43227
3.43226
3.4322
3.43209
3.43193
3.43171
3.43144
3.43111
3.43072
3.43028
3.42977
3.4292
3.42858
3.4279
3.42716
3.42637
3.42552
3.42462
3.42367
3.42268
3.42164
3.42056
3.41944
3.41829
3.41711
3.41591
3.41468
3.41344
3.41219
3.41093
3.40967
3.40841
3.40716
3.40591
3.40469
3.40347
3.40228
3.40112
3.39998
3.39886
3.39778
3.39672
3.3957
3.39471
3.39375
3.39282
3.39192
3.39105
3.39022
3.38941