/*--------------------------------*- C++ -*----------------------------------*\
| =========                 |                                                 |
| \\      /  F ield         | OpenFOAM: The Open Source CFD Toolbox           |
|  \\    /   O peration     | Version:  2406                                  |
|   \\  /    A nd           | Website:  www.openfoam.com                      |
|    \\/     M anipulation  |                                                 |
\*---------------------------------------------------------------------------*/
FoamFile
{
    version     2.0;
    format      ascii;
    arch        "LSB;label=32;scalar=64";
    class       volScalarField;
    location    "1.25";
    object      C;
}
// * * * * * * * * * * * * * * * * * * * * * * * * * * * * * * * * * * * * * //

dimensions      [1 -3 0 0 0 0 0];

internalField   nonuniform List<scalar> 
14400
(
2.96485
2.96245
2.95743
2.94922
2.93667
2.91367
2.8829
2.87003
2.88692
2.92102
2.94671
2.96187
2.97298
2.98115
2.98697
2.99078
2.99269
2.99272
2.99072
2.98636
2.97898
2.96737
2.94537
2.91631
2.90624
2.92647
2.96397
2.99269
3.01082
3.0253
3.03726
3.04736
3.05601
3.06347
3.06993
3.07554
3.0804
3.08457
3.08813
3.09111
3.09356
3.0955
3.09696
3.09796
3.0985
3.09861
3.09828
3.09753
3.09634
3.09473
3.09269
3.09021
3.08728
3.08388
3.08001
3.07564
3.07075
3.06531
3.05928
3.05262
3.04527
3.03717
3.02824
3.01837
3.00742
2.99523
2.98156
2.96608
2.94832
2.92758
2.9027
2.86547
2.81343
2.76964
2.74755
2.74294
2.75561
2.78976
2.83341
2.8638
2.88208
2.89569
2.90591
2.91349
2.91892
2.92247
2.92435
2.92465
2.92339
2.92056
2.91604
2.90963
2.90098
2.88947
2.87401
2.84841
2.81402
2.79565
2.80631
2.83425
2.85454
2.8646
2.86991
2.87144
2.86947
2.86373
2.85328
2.8326
2.80416
2.7929
2.81067
2.84457
2.86981
2.88498
2.89623
2.90468
2.91095
2.91541
2.91827
2.91967
2.96724
2.96508
2.96062
2.95354
2.94335
2.92941
2.90809
2.89607
2.91201
2.93638
2.95299
2.96593
2.97592
2.98349
2.989
2.99266
2.99458
2.99475
2.99309
2.98936
2.98321
2.97409
2.96136
2.94159
2.93225
2.95154
2.97905
2.99848
3.01447
3.02782
3.03913
3.04881
3.05719
3.06446
3.07079
3.0763
3.08107
3.08519
3.0887
3.09164
3.09406
3.09598
3.09742
3.0984
3.09894
3.09904
3.09871
3.09795
3.09677
3.09516
3.09313
3.09065
3.08774
3.08436
3.08051
3.07617
3.07131
3.0659
3.05991
3.05331
3.04603
3.03801
3.02918
3.01944
3.00867
2.99671
2.98336
2.96836
2.95131
2.93171
2.9088
2.88143
2.84249
2.80347
2.78691
2.78249
2.78972
2.81916
2.8503
2.87084
2.88676
2.89908
2.90854
2.91565
2.92078
2.92416
2.92593
2.92619
2.92497
2.92224
2.91793
2.91187
2.90383
2.89341
2.88009
2.86315
2.83852
2.82133
2.83108
2.84984
2.86155
2.86934
2.87369
2.87494
2.87324
2.86845
2.86023
2.8481
2.82887
2.81853
2.83511
2.85929
2.87588
2.88889
2.89904
2.90686
2.91276
2.91699
2.91973
2.92108
2.97179
2.97001
2.96643
2.96099
2.95375
2.94522
2.93725
2.93187
2.94065
2.95159
2.96292
2.97295
2.98128
2.98789
2.99286
2.99628
2.9982
2.99863
2.99751
2.9948
2.99041
2.9844
2.97732
2.9711
2.96807
2.97978
2.99351
3.00769
3.02076
3.03238
3.0426
3.05158
3.05947
3.06639
3.07247
3.07778
3.08241
3.08641
3.08983
3.0927
3.09506
3.09694
3.09834
3.0993
3.09981
3.0999
3.09956
3.0988
3.09762
3.09602
3.094
3.09155
3.08865
3.08531
3.0815
3.0772
3.0724
3.06707
3.06117
3.05466
3.04751
3.03965
3.03102
3.02154
3.0111
2.99958
2.98683
2.97266
2.95686
2.93915
2.91933
2.89742
2.87442
2.84969
2.8381
2.83405
2.83672
2.8526
2.86791
2.8825
2.89503
2.90532
2.91351
2.9198
2.9244
2.92744
2.92902
2.92922
2.92805
2.92552
2.92156
2.91611
2.90905
2.90027
2.88977
2.8779
2.86624
2.85639
2.85986
2.86595
2.87247
2.87753
2.88055
2.88141
2.88008
2.8766
2.87108
2.86409
2.85752
2.8535
2.86281
2.87403
2.88552
2.89568
2.90415
2.91097
2.91624
2.92008
2.92258
2.92382
2.97811
2.97676
2.97409
2.97022
2.96545
2.96047
2.95664
2.95607
2.95967
2.96637
2.97414
2.98168
2.98836
2.99392
2.99827
3.00141
3.00333
3.00403
3.00354
3.0019
2.99921
2.9958
2.99239
2.99041
2.99204
2.99815
3.00749
3.01802
3.02849
3.03833
3.04733
3.05544
3.06271
3.06917
3.0749
3.07996
3.08438
3.08822
3.0915
3.09428
3.09655
3.09836
3.09972
3.10063
3.10112
3.10118
3.10083
3.10007
3.09889
3.09731
3.0953
3.09288
3.09002
3.08672
3.08297
3.07874
3.07403
3.0688
3.06302
3.05667
3.0497
3.04207
3.03372
3.02459
3.01461
3.00368
2.99172
2.97862
2.96429
2.94871
2.93196
2.91447
2.89732
2.88253
2.87201
2.86794
2.87021
2.87682
2.88623
2.89623
2.90555
2.91366
2.92037
2.92565
2.92957
2.93217
2.9335
2.93361
2.93251
2.9302
2.92669
2.92194
2.91598
2.90886
2.90082
2.89243
2.88492
2.88021
2.87938
2.88161
2.88486
2.88775
2.88958
2.89005
2.88909
2.88677
2.8834
2.87966
2.87692
2.87724
2.88144
2.8885
2.89647
2.90414
2.91093
2.91662
2.92113
2.92449
2.92671
2.92781
2.98578
2.98481
2.98295
2.98036
2.97737
2.97456
2.97277
2.97298
2.97557
2.98009
2.9856
2.99126
2.99655
3.00115
3.00491
3.00775
3.00966
3.01064
3.01073
3.01003
3.00874
3.00721
3.00602
3.00608
3.00838
3.01328
3.02028
3.02841
3.03686
3.04513
3.05294
3.06016
3.06674
3.07269
3.07802
3.08275
3.08693
3.09057
3.0937
3.09634
3.09851
3.10024
3.10153
3.10239
3.10284
3.10288
3.10251
3.10175
3.10058
3.09901
3.09703
3.09464
3.09183
3.08859
3.08491
3.08078
3.07617
3.07107
3.06545
3.05929
3.05255
3.0452
3.0372
3.0285
3.01905
3.00881
2.99773
2.98579
2.97299
2.95942
2.94532
2.93117
2.91783
2.90649
2.89837
2.89443
2.89468
2.89821
2.90394
2.91062
2.91729
2.9234
2.92864
2.93288
2.93605
2.93816
2.93921
2.9392
2.93817
2.9361
2.93304
2.929
2.92406
2.91837
2.91221
2.90609
2.90078
2.89721
2.89582
2.89626
2.89761
2.89902
2.89996
2.90013
2.89945
2.898
2.89608
2.89422
2.89327
2.89414
2.89722
2.90205
2.90773
2.91349
2.91882
2.92343
2.9272
2.93004
2.93194
2.93289
2.99442
2.99376
2.99253
2.99089
2.98911
2.98762
2.98692
2.98749
2.98953
2.99283
2.99689
3.00122
3.00542
3.00922
3.01246
3.01503
3.01692
3.01812
3.0187
3.01877
3.01852
3.01825
3.01841
3.01953
3.02211
3.02632
3.03194
3.03846
3.04541
3.05238
3.05913
3.0655
3.07141
3.07682
3.08172
3.08612
3.09001
3.09343
3.09637
3.09887
3.10092
3.10255
3.10376
3.10457
3.10497
3.10498
3.1046
3.10382
3.10266
3.10111
3.09916
3.09682
3.09406
3.0909
3.08731
3.08328
3.0788
3.07386
3.06842
3.06249
3.05601
3.04899
3.04137
3.03315
3.02429
3.01478
3.00462
2.99382
2.98245
2.97067
2.95874
2.94708
2.93632
2.92723
2.92054
2.91674
2.91585
2.91741
2.92072
2.92501
2.9296
2.93401
2.93792
2.94116
2.9436
2.94521
2.94596
2.94583
2.94484
2.94301
2.94036
2.93696
2.9329
2.92834
2.92356
2.91892
2.91492
2.91202
2.91043
2.91001
2.91028
2.91077
2.91111
2.91107
2.91058
2.90971
2.90869
2.90789
2.90779
2.90884
2.91124
2.91475
2.91892
2.92327
2.92741
2.9311
2.93417
2.93653
2.93812
2.93893
3.00371
3.00329
3.00253
3.00155
3.00058
2.99988
2.99978
3.00054
3.00224
3.00479
3.00792
3.01131
3.0147
3.01786
3.02066
3.023
3.02486
3.02623
3.02719
3.02782
3.0283
3.02888
3.02984
3.03152
3.03419
3.03795
3.04268
3.04811
3.05392
3.05986
3.0657
3.0713
3.07658
3.08147
3.08593
3.08997
3.09358
3.09675
3.0995
3.10183
3.10376
3.10528
3.1064
3.10714
3.1075
3.10747
3.10707
3.10629
3.10514
3.10361
3.10169
3.0994
3.09671
3.09363
3.09014
3.08623
3.0819
3.07713
3.0719
3.06621
3.06003
3.05335
3.04616
3.03844
3.03019
3.02141
3.01213
3.00241
2.99233
2.98207
2.97187
2.96208
2.95315
2.94558
2.93982
2.93615
2.93458
2.93485
2.93652
2.93909
2.94208
2.94511
2.94788
2.95022
2.952
2.95313
2.95358
2.95332
2.95237
2.95073
2.94844
2.94557
2.94222
2.93855
2.93476
2.93112
2.92795
2.9255
2.92389
2.92305
2.92274
2.92268
2.92263
2.92245
2.92208
2.92157
2.92108
2.92085
2.92114
2.92221
2.92413
2.92679
2.92993
2.93324
2.93647
2.93939
2.94186
2.94379
2.9451
2.94576
3.01341
3.01317
3.01273
3.01221
3.01175
3.01155
3.01179
3.01263
3.01411
3.01618
3.01868
3.02141
3.0242
3.02687
3.02931
3.03146
3.03328
3.03477
3.03598
3.03702
3.038
3.03911
3.04055
3.04253
3.0452
3.04862
3.05272
3.05735
3.06232
3.06743
3.07251
3.07744
3.08213
3.08652
3.09058
3.09426
3.09757
3.1005
3.10305
3.10521
3.10699
3.1084
3.10943
3.1101
3.1104
3.11034
3.10992
3.10913
3.10799
3.10648
3.10461
3.10237
3.09976
3.09676
3.09338
3.08961
3.08544
3.08086
3.07585
3.07042
3.06455
3.05823
3.05147
3.04425
3.0366
3.02854
3.02009
3.01135
3.0024
2.99341
2.98459
2.97622
2.96861
2.96211
2.957
2.95345
2.95146
2.95088
2.95143
2.95276
2.95453
2.95645
2.95829
2.95985
2.96103
2.96172
2.9619
2.96151
2.96057
2.95909
2.9571
2.95466
2.95188
2.94887
2.9458
2.94286
2.94026
2.93814
2.93659
2.93556
2.93494
2.93456
2.93429
2.93402
2.93371
2.93342
2.93322
2.93327
2.93373
2.93472
2.93629
2.93835
2.94075
2.94331
2.94582
2.94813
2.9501
2.95165
2.95272
2.95326
3.02336
3.02323
3.02302
3.0228
3.02268
3.02277
3.02321
3.02407
3.02539
3.02713
3.0292
3.03146
3.0338
3.0361
3.03827
3.04025
3.04201
3.04357
3.04497
3.04627
3.04757
3.04901
3.05072
3.05283
3.05545
3.05859
3.06223
3.06627
3.07058
3.07502
3.07946
3.08381
3.08799
3.09192
3.09558
3.09893
3.10195
3.10463
3.10697
3.10896
3.1106
3.11189
3.11283
3.11342
3.11366
3.11357
3.11312
3.11234
3.1112
3.10972
3.10789
3.10571
3.10318
3.10028
3.09702
3.09339
3.08939
3.085
3.08023
3.07507
3.06951
3.06356
3.05722
3.05051
3.04343
3.03603
3.02836
3.02048
3.01251
3.00458
2.99687
2.98959
2.98298
2.97726
2.97263
2.96919
2.96694
2.96579
2.96554
2.96597
2.96683
2.96788
2.96895
2.96987
2.97053
2.97085
2.97077
2.97026
2.96932
2.96795
2.9662
2.96411
2.96175
2.95925
2.95671
2.95427
2.95208
2.95022
2.94875
2.94766
2.94689
2.94635
2.94594
2.94561
2.94534
2.94516
2.94511
2.94529
2.94578
2.94666
2.94794
2.94956
2.95143
2.95341
2.95538
2.95719
2.95876
2.96
2.96086
2.96129
3.03343
3.03338
3.03332
3.0333
3.03338
3.03366
3.0342
3.03505
3.03625
3.03775
3.03951
3.04144
3.04345
3.04546
3.04741
3.04925
3.05096
3.05255
3.05405
3.05551
3.05701
3.05863
3.06048
3.06264
3.06516
3.06807
3.07135
3.07492
3.0787
3.0826
3.08651
3.09036
3.09407
3.0976
3.10089
3.10392
3.10667
3.10911
3.11125
3.11306
3.11455
3.11572
3.11657
3.11708
3.11727
3.11714
3.11667
3.11588
3.11476
3.11331
3.11153
3.10941
3.10696
3.10416
3.10103
3.09755
3.09371
3.08953
3.08499
3.0801
3.07486
3.06928
3.06336
3.05712
3.05059
3.04381
3.03682
3.02972
3.02257
3.01552
3.00871
3.00229
2.99644
2.99132
2.98706
2.98373
2.98133
2.97979
2.97899
2.97876
2.97892
2.97931
2.97976
2.98015
2.98038
2.98037
2.98007
2.97944
2.97849
2.97721
2.97563
2.9738
2.97179
2.96966
2.96751
2.96544
2.96355
2.9619
2.96054
2.95945
2.95862
2.95799
2.95751
2.95715
2.95689
2.95675
2.95677
2.95698
2.95745
2.95821
2.95924
2.96053
2.96199
2.96354
2.96508
2.96651
2.96775
2.96873
2.96942
2.96977
3.04354
3.04355
3.04358
3.04368
3.0439
3.04427
3.04486
3.0457
3.04679
3.04813
3.04966
3.05133
3.0531
3.05488
3.05665
3.05837
3.06002
3.06161
3.06316
3.06471
3.06631
3.06803
3.06994
3.07208
3.07449
3.07719
3.08016
3.08335
3.08671
3.09016
3.09362
3.09704
3.10035
3.10351
3.10647
3.1092
3.11168
3.1139
3.11584
3.11748
3.11883
3.11989
3.12063
3.12107
3.12121
3.12103
3.12055
3.11976
3.11865
3.11723
3.1155
3.11345
3.11108
3.10839
3.10538
3.10205
3.09839
3.09441
3.09011
3.08549
3.08056
3.07533
3.06981
3.06402
3.058
3.05178
3.04541
3.03898
3.03255
3.02623
3.02015
3.01442
3.00917
3.00452
3.00056
2.99733
2.99485
2.99305
2.99186
2.99115
2.99079
2.99066
2.99063
2.99059
2.99046
2.99018
2.98968
2.98896
2.98798
2.98676
2.98532
2.98369
2.98193
2.98008
2.97823
2.97644
2.97478
2.9733
2.97204
2.97099
2.97014
2.96948
2.96897
2.96858
2.96833
2.9682
2.96822
2.96843
2.96883
2.96946
2.9703
2.97132
2.97247
2.97368
2.97488
2.97601
2.97698
2.97776
2.97831
2.97859
3.05364
3.05368
3.05378
3.05395
3.05424
3.05468
3.05529
3.05609
3.0571
3.0583
3.05966
3.06114
3.06271
3.06433
3.06595
3.06756
3.06915
3.07071
3.07227
3.07385
3.0755
3.07725
3.07915
3.08124
3.08353
3.08604
3.08875
3.09163
3.09463
3.0977
3.10078
3.10383
3.10678
3.10961
3.11226
3.11472
3.11696
3.11897
3.12071
3.1222
3.12341
3.12435
3.125
3.12537
3.12545
3.12524
3.12474
3.12394
3.12285
3.12146
3.11978
3.1178
3.11551
3.11293
3.11005
3.10687
3.10339
3.09962
3.09555
3.09119
3.08656
3.08167
3.07652
3.07116
3.0656
3.05989
3.05408
3.04823
3.04241
3.03672
3.03123
3.02606
3.0213
3.01703
3.01332
3.0102
3.00768
3.00571
3.00424
3.00319
3.00244
3.00191
3.0015
3.00112
3.00071
3.00019
2.99954
2.99872
2.99772
2.99654
2.9952
2.99372
2.99214
2.99051
2.98888
2.98731
2.98583
2.98449
2.98332
2.98232
2.98149
2.98082
2.98029
2.97989
2.97962
2.97949
2.9795
2.97966
2.98
2.9805
2.98117
2.98198
2.98288
2.98383
2.98477
2.98565
2.98642
2.98703
2.98746
2.98768
3.0637
3.06376
3.06389
3.06411
3.06444
3.0649
3.06551
3.06628
3.06721
3.0683
3.06953
3.07087
3.07228
3.07376
3.07526
3.07677
3.07829
3.07982
3.08136
3.08294
3.08458
3.08632
3.08818
3.09019
3.09236
3.09469
3.09717
3.09978
3.10248
3.10522
3.10798
3.1107
3.11335
3.11588
3.11826
3.12047
3.12248
3.12428
3.12586
3.12719
3.12827
3.1291
3.12966
3.12996
3.12998
3.12974
3.12922
3.12842
3.12735
3.12599
3.12436
3.12244
3.12025
3.11778
3.11502
3.11199
3.10869
3.10511
3.10127
3.09717
3.09282
3.08825
3.08346
3.07848
3.07335
3.0681
3.06278
3.05744
3.05215
3.04698
3.042
3.0373
3.03294
3.02899
3.02549
3.02248
3.01995
3.01787
3.01621
3.01491
3.01388
3.01305
3.01234
3.01169
3.01104
3.01034
3.00955
3.00865
3.00763
3.00647
3.0052
3.00384
3.00241
3.00094
2.99948
2.99807
2.99674
2.99552
2.99443
2.99348
2.99267
2.99201
2.99147
2.99107
2.99079
2.99064
2.99061
2.99073
2.99099
2.99138
2.99191
2.99254
2.99324
2.99398
2.99472
2.9954
2.99601
2.99649
2.99683
2.997
3.07369
3.07377
3.07392
3.07416
3.07451
3.07498
3.07557
3.0763
3.07717
3.07817
3.07929
3.08051
3.0818
3.08316
3.08455
3.08598
3.08743
3.0889
3.09041
3.09196
3.09357
3.09527
3.09706
3.09898
3.10102
3.10318
3.10546
3.10783
3.11027
3.11274
3.11522
3.11765
3.12002
3.12229
3.12442
3.12641
3.12821
3.12983
3.13124
3.13242
3.13338
3.1341
3.13458
3.13481
3.13479
3.13451
3.13397
3.13318
3.13212
3.1308
3.12922
3.12737
3.12527
3.1229
3.12027
3.11739
3.11425
3.11087
3.10724
3.10339
3.09932
3.09504
3.09058
3.08597
3.08122
3.07639
3.0715
3.06661
3.06178
3.05705
3.0525
3.04819
3.04416
3.04048
3.03718
3.03427
3.03175
3.02962
3.02783
3.02635
3.02511
3.02405
3.02312
3.02227
3.02143
3.02058
3.01968
3.01871
3.01766
3.01652
3.01531
3.01403
3.01271
3.01137
3.01004
3.00875
3.00753
3.00641
3.00539
3.00449
3.00372
3.00306
3.00253
3.00212
3.00183
3.00165
3.00159
3.00166
3.00184
3.00214
3.00254
3.00302
3.00356
3.00414
3.00471
3.00524
3.00571
3.00609
3.00635
3.00649
3.08361
3.08369
3.08386
3.08411
3.08446
3.08492
3.08549
3.08618
3.087
3.08792
3.08895
3.09007
3.09126
3.09251
3.09382
3.09516
3.09654
3.09795
3.09941
3.10091
3.10247
3.10411
3.10583
3.10764
3.10956
3.11156
3.11366
3.11582
3.11803
3.12026
3.12248
3.12467
3.1268
3.12883
3.13074
3.13252
3.13414
3.13558
3.13683
3.13789
3.13873
3.13935
3.13975
3.13991
3.13984
3.13954
3.13898
3.13819
3.13715
3.13587
3.13434
3.13256
3.13054
3.12828
3.12577
3.12303
3.12006
3.11686
3.11345
3.10983
3.10601
3.10202
3.09786
3.09358
3.08918
3.08472
3.08022
3.07572
3.07128
3.06695
3.06276
3.05878
3.05505
3.0516
3.04846
3.04566
3.04318
3.04102
3.03915
3.03754
3.03615
3.03493
3.03383
3.03281
3.03184
3.03087
3.02988
3.02885
3.02778
3.02665
3.02548
3.02426
3.02302
3.02178
3.02055
3.01936
3.01824
3.01719
3.01623
3.01538
3.01463
3.014
3.01347
3.01305
3.01274
3.01254
3.01245
3.01246
3.01257
3.01278
3.01308
3.01344
3.01386
3.0143
3.01473
3.01515
3.01551
3.0158
3.016
3.01611
3.09346
3.09354
3.0937
3.09395
3.0943
3.09475
3.09529
3.09595
3.09671
3.09756
3.09851
3.09955
3.10065
3.10182
3.10304
3.10431
3.10562
3.10697
3.10836
3.1098
3.1113
3.11286
3.1145
3.11621
3.118
3.11986
3.12178
3.12376
3.12576
3.12778
3.12979
3.13176
3.13366
3.13549
3.1372
3.13879
3.14024
3.14152
3.14263
3.14356
3.14429
3.14483
3.14515
3.14525
3.14514
3.1448
3.14424
3.14345
3.14243
3.14118
3.1397
3.138
3.13606
3.1339
3.13151
3.12891
3.1261
3.12308
3.11986
3.11645
3.11288
3.10915
3.10528
3.10129
3.09722
3.09309
3.08893
3.08478
3.08069
3.07669
3.07282
3.06913
3.06565
3.0624
3.05942
3.05672
3.05429
3.05213
3.05021
3.04852
3.04702
3.04568
3.04446
3.04332
3.04223
3.04117
3.04012
3.03904
3.03795
3.03683
3.03568
3.03451
3.03334
3.03217
3.03102
3.02991
3.02886
3.02788
3.02698
3.02616
3.02544
3.02482
3.0243
3.02388
3.02355
3.02333
3.02319
3.02316
3.02321
3.02335
3.02355
3.02382
3.02412
3.02445
3.02478
3.0251
3.02538
3.0256
3.02576
3.02584
3.10321
3.10329
3.10346
3.10371
3.10404
3.10447
3.10499
3.10561
3.10632
3.10711
3.108
3.10896
3.10999
3.11108
3.11222
3.11341
3.11465
3.11593
3.11726
3.11863
3.12006
3.12155
3.12309
3.1247
3.12636
3.12809
3.12986
3.13166
3.13349
3.13532
3.13713
3.1389
3.14061
3.14225
3.14378
3.1452
3.14649
3.14763
3.14862
3.14943
3.15006
3.15051
3.15076
3.15081
3.15066
3.1503
3.14972
3.14894
3.14794
3.14673
3.1453
3.14366
3.1418
3.13974
3.13747
3.135
3.13234
3.12948
3.12645
3.12326
3.1199
3.11641
3.1128
3.10909
3.10531
3.10148
3.09763
3.09379
3.09
3.08629
3.0827
3.07926
3.076
3.07295
3.07011
3.0675
3.06513
3.06298
3.06105
3.05931
3.05774
3.05631
3.055
3.05377
3.0526
3.05147
3.05036
3.04926
3.04815
3.04703
3.0459
3.04477
3.04365
3.04254
3.04145
3.04041
3.03942
3.03848
3.03763
3.03685
3.03615
3.03554
3.03503
3.0346
3.03426
3.03401
3.03385
3.03377
3.03377
3.03384
3.03397
3.03415
3.03437
3.03461
3.03485
3.03509
3.03529
3.03546
3.03558
3.03564
3.11289
3.11297
3.11313
3.11337
3.11369
3.1141
3.11459
3.11517
3.11583
3.11658
3.1174
3.1183
3.11926
3.12028
3.12135
3.12247
3.12364
3.12485
3.12611
3.12741
3.12877
3.13017
3.13162
3.13312
3.13467
3.13627
3.1379
3.13955
3.14121
3.14287
3.1445
3.1461
3.14764
3.14911
3.15048
3.15175
3.15289
3.1539
3.15477
3.15547
3.15602
3.15638
3.15657
3.15657
3.15638
3.156
3.15542
3.15464
3.15366
3.15248
3.1511
3.14953
3.14775
3.14578
3.14363
3.14128
3.13876
3.13607
3.13322
3.13021
3.12707
3.1238
3.12043
3.11697
3.11345
3.10989
3.10631
3.10275
3.09923
3.09578
3.09244
3.08922
3.08616
3.08326
3.08056
3.07805
3.07574
3.07362
3.07169
3.06993
3.06831
3.06683
3.06545
3.06416
3.06293
3.06175
3.0606
3.05947
3.05835
3.05724
3.05613
3.05503
3.05394
3.05288
3.05184
3.05085
3.0499
3.04902
3.0482
3.04745
3.04677
3.04618
3.04566
3.04523
3.04488
3.04461
3.04442
3.0443
3.04425
3.04426
3.04433
3.04444
3.04459
3.04476
3.04493
3.0451
3.04525
3.04537
3.04546
3.04551
3.12249
3.12256
3.12271
3.12294
3.12325
3.12364
3.1241
3.12465
3.12527
3.12597
3.12674
3.12757
3.12847
3.12942
3.13043
3.13148
3.13258
3.13373
3.13491
3.13614
3.13742
3.13874
3.1401
3.1415
3.14294
3.14441
3.14591
3.14742
3.14893
3.15044
3.15192
3.15336
3.15474
3.15606
3.15728
3.15841
3.15943
3.16032
3.16108
3.16169
3.16214
3.16244
3.16257
3.16252
3.1623
3.1619
3.16131
3.16054
3.15958
3.15844
3.15711
3.15559
3.1539
3.15202
3.14997
3.14775
3.14536
3.14282
3.14013
3.1373
3.13435
3.13129
3.12814
3.12491
3.12163
3.11831
3.11498
3.11166
3.10838
3.10517
3.10204
3.09902
3.09614
3.0934
3.09082
3.0884
3.08616
3.08408
3.08216
3.08039
3.07875
3.07724
3.07582
3.07448
3.07322
3.072
3.07082
3.06967
3.06855
3.06744
3.06634
3.06527
3.06422
3.06319
3.06219
3.06124
3.06034
3.05948
3.05869
3.05797
3.05731
3.05673
3.05622
3.05578
3.05542
3.05513
3.05491
3.05476
3.05467
3.05463
3.05465
3.0547
3.05479
3.05489
3.05501
3.05513
3.05523
3.05532
3.05538
3.05542
3.13201
3.13208
3.13222
3.13244
3.13273
3.1331
3.13354
3.13405
3.13463
3.13528
3.136
3.13678
3.13762
3.13851
3.13945
3.14044
3.14148
3.14256
3.14367
3.14483
3.14603
3.14726
3.14854
3.14984
3.15117
3.15253
3.15391
3.15529
3.15667
3.15803
3.15937
3.16067
3.16191
3.16309
3.16419
3.16519
3.16609
3.16687
3.16753
3.16805
3.16843
3.16866
3.16873
3.16865
3.1684
3.16798
3.16739
3.16662
3.16569
3.16458
3.16329
3.16184
3.16022
3.15843
3.15648
3.15437
3.15211
3.14971
3.14717
3.14452
3.14175
3.13888
3.13592
3.1329
3.12984
3.12674
3.12363
3.12053
3.11747
3.11446
3.11153
3.10869
3.10597
3.10337
3.1009
3.09858
3.0964
3.09437
3.09248
3.09072
3.08908
3.08754
3.0861
3.08474
3.08345
3.08221
3.08101
3.07985
3.07872
3.07762
3.07654
3.07549
3.07446
3.07346
3.0725
3.07158
3.07071
3.06989
3.06912
3.06842
3.06778
3.0672
3.0667
3.06626
3.06588
3.06558
3.06533
3.06515
3.06503
3.06495
3.06492
3.06493
3.06496
3.06502
3.06509
3.06517
3.06523
3.06529
3.06533
3.06536
3.14145
3.14152
3.14166
3.14186
3.14214
3.14248
3.1429
3.14338
3.14392
3.14453
3.1452
3.14593
3.14671
3.14755
3.14843
3.14936
3.15033
3.15134
3.15239
3.15348
3.1546
3.15575
3.15694
3.15815
3.15938
3.16063
3.16189
3.16316
3.16441
3.16565
3.16686
3.16803
3.16915
3.1702
3.17118
3.17207
3.17286
3.17355
3.17411
3.17455
3.17486
3.17503
3.17506
3.17494
3.17466
3.17423
3.17363
3.17288
3.17196
3.17089
3.16965
3.16826
3.1667
3.165
3.16314
3.16114
3.159
3.15674
3.15434
3.15184
3.14924
3.14654
3.14378
3.14095
3.13807
3.13518
3.13227
3.12937
3.1265
3.12368
3.12093
3.11825
3.11567
3.1132
3.11085
3.10861
3.10651
3.10453
3.10267
3.10093
3.09929
3.09775
3.0963
3.09493
3.09362
3.09237
3.09117
3.09
3.08888
3.08778
3.08671
3.08568
3.08467
3.0837
3.08277
3.08188
3.08103
3.08023
3.07949
3.0788
3.07818
3.07761
3.07711
3.07666
3.07628
3.07596
3.0757
3.07549
3.07533
3.07523
3.07516
3.07512
3.07512
3.07514
3.07517
3.07521
3.07524
3.07528
3.0753
3.07532
3.15083
3.15089
3.15102
3.15122
3.15148
3.1518
3.15219
3.15264
3.15315
3.15372
3.15435
3.15503
3.15576
3.15654
3.15737
3.15823
3.15914
3.16009
3.16107
3.16209
3.16313
3.16421
3.16531
3.16643
3.16757
3.16872
3.16988
3.17103
3.17218
3.1733
3.17439
3.17545
3.17645
3.17739
3.17826
3.17905
3.17974
3.18034
3.18082
3.18119
3.18144
3.18155
3.18154
3.18138
3.18108
3.18063
3.18004
3.1793
3.1784
3.17736
3.17617
3.17483
3.17334
3.17172
3.16995
3.16805
3.16603
3.16388
3.16163
3.15927
3.15682
3.15429
3.15169
3.14903
3.14634
3.14362
3.1409
3.13818
3.13549
3.13283
3.13024
3.12771
3.12527
3.12292
3.12067
3.11852
3.11649
3.11456
3.11274
3.11102
3.1094
3.10787
3.10643
3.10505
3.10374
3.10248
3.10128
3.10012
3.09899
3.09791
3.09685
3.09583
3.09485
3.0939
3.09299
3.09213
3.0913
3.09053
3.0898
3.08913
3.08851
3.08795
3.08745
3.08701
3.08662
3.08628
3.08601
3.08578
3.08559
3.08546
3.08536
3.08529
3.08525
3.08524
3.08523
3.08524
3.08526
3.08527
3.08529
3.08529
3.16014
3.1602
3.16032
3.1605
3.16075
3.16105
3.16141
3.16184
3.16231
3.16285
3.16343
3.16407
3.16475
3.16548
3.16625
3.16707
3.16792
3.1688
3.16972
3.17067
3.17164
3.17264
3.17366
3.1747
3.17575
3.17681
3.17787
3.17892
3.17996
3.18098
3.18197
3.18291
3.18381
3.18465
3.18542
3.18611
3.18672
3.18724
3.18765
3.18795
3.18814
3.18821
3.18815
3.18796
3.18764
3.18719
3.18659
3.18586
3.18499
3.18398
3.18283
3.18154
3.18012
3.17857
3.17689
3.17509
3.17317
3.17114
3.16901
3.16678
3.16448
3.16209
3.15965
3.15716
3.15463
3.15208
3.14952
3.14696
3.14443
3.14193
3.13948
3.13709
3.13477
3.13253
3.13038
3.12832
3.12635
3.12448
3.12271
3.12102
3.11943
3.11791
3.11648
3.11511
3.1138
3.11255
3.11134
3.11019
3.10907
3.108
3.10696
3.10596
3.10499
3.10406
3.10317
3.10233
3.10152
3.10077
3.10006
3.0994
3.09879
3.09824
3.09774
3.09729
3.0969
3.09655
3.09626
3.09601
3.09581
3.09565
3.09552
3.09543
3.09536
3.09532
3.09529
3.09528
3.09527
3.09527
3.09527
3.09527
3.16939
3.16944
3.16956
3.16973
3.16996
3.17024
3.17058
3.17098
3.17142
3.17192
3.17247
3.17306
3.1737
3.17438
3.1751
3.17586
3.17665
3.17748
3.17833
3.17922
3.18012
3.18105
3.18199
3.18295
3.18392
3.18489
3.18586
3.18682
3.18776
3.18868
3.18957
3.19043
3.19123
3.19198
3.19266
3.19327
3.19379
3.19424
3.19458
3.19482
3.19496
3.19498
3.19489
3.19468
3.19434
3.19388
3.19329
3.19257
3.19172
3.19074
3.18963
3.18839
3.18703
3.18555
3.18395
3.18224
3.18042
3.1785
3.17648
3.17438
3.17221
3.16996
3.16766
3.16531
3.16294
3.16054
3.15813
3.15572
3.15334
3.15098
3.14866
3.1464
3.14419
3.14206
3.14
3.13802
3.13612
3.13431
3.13258
3.13094
3.12937
3.12788
3.12646
3.1251
3.1238
3.12256
3.12136
3.12022
3.11911
3.11805
3.11703
3.11604
3.11509
3.11418
3.11331
3.11248
3.1117
3.11096
3.11026
3.10962
3.10902
3.10847
3.10797
3.10753
3.10713
3.10677
3.10647
3.10621
3.10599
3.1058
3.10565
3.10554
3.10545
3.10538
3.10533
3.1053
3.10528
3.10526
3.10526
3.10525
3.17858
3.17863
3.17874
3.1789
3.17911
3.17938
3.1797
3.18006
3.18048
3.18095
3.18146
3.18201
3.18261
3.18324
3.18391
3.18462
3.18536
3.18613
3.18692
3.18774
3.18858
3.18944
3.19031
3.19119
3.19208
3.19297
3.19386
3.19473
3.19559
3.19642
3.19722
3.19799
3.1987
3.19937
3.19997
3.2005
3.20096
3.20133
3.20161
3.2018
3.20189
3.20188
3.20175
3.20152
3.20117
3.2007
3.20011
3.1994
3.19857
3.19762
3.19655
3.19537
3.19406
3.19265
3.19113
3.1895
3.18777
3.18595
3.18404
3.18206
3.18
3.17789
3.17572
3.17351
3.17126
3.169
3.16673
3.16447
3.16221
3.15998
3.15779
3.15564
3.15354
3.15151
3.14954
3.14763
3.14581
3.14405
3.14237
3.14077
3.13924
3.13777
3.13637
3.13503
3.13375
3.13252
3.13134
3.1302
3.12911
3.12806
3.12705
3.12608
3.12515
3.12426
3.12341
3.1226
3.12183
3.1211
3.12042
3.11979
3.1192
3.11865
3.11816
3.11771
3.1173
3.11694
3.11663
3.11636
3.11612
3.11592
3.11576
3.11562
3.11551
3.11542
3.11536
3.11531
3.11527
3.11525
3.11523
3.11523
3.18771
3.18776
3.18786
3.18801
3.18821
3.18846
3.18876
3.1891
3.18949
3.18992
3.1904
3.19092
3.19147
3.19206
3.19269
3.19335
3.19403
3.19475
3.19548
3.19624
3.19702
3.19781
3.19862
3.19943
3.20024
3.20106
3.20187
3.20266
3.20344
3.20419
3.20491
3.20559
3.20623
3.20682
3.20734
3.20781
3.2082
3.20851
3.20874
3.20888
3.20893
3.20888
3.20873
3.20847
3.20811
3.20763
3.20705
3.20635
3.20555
3.20463
3.20359
3.20245
3.20121
3.19985
3.1984
3.19685
3.19521
3.19349
3.19168
3.1898
3.18786
3.18586
3.18381
3.18173
3.17961
3.17748
3.17534
3.17319
3.17106
3.16895
3.16687
3.16483
3.16283
3.16089
3.159
3.15718
3.15542
3.15372
3.15209
3.15053
3.14903
3.1476
3.14622
3.1449
3.14364
3.14243
3.14126
3.14015
3.13907
3.13804
3.13704
3.13609
3.13517
3.1343
3.13346
3.13267
3.13191
3.1312
3.13053
3.1299
3.12932
3.12879
3.12829
3.12784
3.12744
3.12707
3.12675
3.12646
3.12622
3.12601
3.12582
3.12567
3.12555
3.12545
3.12537
3.1253
3.12526
3.12522
3.1252
3.12519
3.19679
3.19684
3.19693
3.19708
3.19726
3.19749
3.19777
3.19809
3.19845
3.19886
3.1993
3.19978
3.2003
3.20085
3.20143
3.20204
3.20268
3.20334
3.20402
3.20473
3.20544
3.20618
3.20692
3.20766
3.20841
3.20915
3.20989
3.21061
3.21131
3.21199
3.21263
3.21324
3.21381
3.21432
3.21478
3.21518
3.21552
3.21577
3.21595
3.21605
3.21606
3.21598
3.2158
3.21553
3.21516
3.21468
3.2141
3.21342
3.21263
3.21174
3.21074
3.20965
3.20845
3.20716
3.20577
3.2043
3.20274
3.2011
3.19939
3.19761
3.19577
3.19388
3.19195
3.18998
3.18798
3.18596
3.18394
3.18191
3.17989
3.17789
3.17592
3.17397
3.17207
3.17021
3.16841
3.16665
3.16496
3.16332
3.16174
3.16022
3.15876
3.15736
3.15602
3.15472
3.15348
3.15229
3.15114
3.15004
3.14898
3.14797
3.14699
3.14605
3.14515
3.14429
3.14347
3.14269
3.14195
3.14125
3.1406
3.13998
3.13941
3.13887
3.13838
3.13793
3.13753
3.13716
3.13683
3.13654
3.13628
3.13606
3.13586
3.1357
3.13556
3.13545
3.13536
3.13528
3.13523
3.13519
3.13516
3.13515
3.20583
3.20587
3.20596
3.20609
3.20627
3.20648
3.20674
3.20704
3.20738
3.20775
3.20816
3.20861
3.20909
3.2096
3.21014
3.21071
3.2113
3.21191
3.21254
3.21319
3.21385
3.21453
3.21521
3.21589
3.21657
3.21725
3.21792
3.21857
3.2192
3.21981
3.22039
3.22093
3.22143
3.22189
3.22229
3.22263
3.22291
3.22312
3.22325
3.22331
3.22329
3.22318
3.22298
3.22269
3.22231
3.22183
3.22126
3.22059
3.21982
3.21895
3.21799
3.21694
3.21579
3.21456
3.21323
3.21183
3.21035
3.20879
3.20717
3.20548
3.20374
3.20195
3.20012
3.19825
3.19636
3.19445
3.19253
3.19062
3.1887
3.1868
3.18493
3.18308
3.18126
3.17949
3.17776
3.17607
3.17444
3.17286
3.17133
3.16986
3.16844
3.16707
3.16575
3.16449
3.16327
3.1621
3.16098
3.1599
3.15886
3.15786
3.1569
3.15598
3.15509
3.15425
3.15345
3.15268
3.15195
3.15127
3.15062
3.15001
3.14944
3.14892
3.14843
3.14798
3.14757
3.1472
3.14687
3.14657
3.14631
3.14607
3.14587
3.1457
3.14555
3.14543
3.14533
3.14524
3.14518
3.14513
3.1451
3.14509
3.21482
3.21486
3.21494
3.21506
3.21523
3.21543
3.21567
3.21594
3.21626
3.21661
3.21699
3.2174
3.21785
3.21832
3.21882
3.21935
3.2199
3.22046
3.22105
3.22164
3.22225
3.22287
3.22349
3.22412
3.22474
3.22536
3.22596
3.22655
3.22712
3.22767
3.22818
3.22867
3.22911
3.2295
3.22985
3.23014
3.23036
3.23053
3.23062
3.23065
3.23059
3.23046
3.23024
3.22994
3.22955
3.22907
3.22851
3.22785
3.2271
3.22626
3.22534
3.22432
3.22322
3.22204
3.22078
3.21944
3.21802
3.21654
3.215
3.2134
3.21175
3.21005
3.20832
3.20655
3.20476
3.20295
3.20113
3.19931
3.1975
3.19569
3.19391
3.19215
3.19041
3.18872
3.18706
3.18544
3.18387
3.18234
3.18086
3.17944
3.17806
3.17673
3.17544
3.17421
3.17302
3.17187
3.17077
3.16971
3.16869
3.16771
3.16676
3.16586
3.165
3.16417
3.16338
3.16263
3.16191
3.16124
3.1606
3.16
3.15944
3.15892
3.15844
3.15799
3.15758
3.15721
3.15687
3.15657
3.1563
3.15606
3.15585
3.15567
3.15551
3.15538
3.15527
3.15518
3.15512
3.15506
3.15503
3.15502
3.22377
3.22381
3.22388
3.224
3.22415
3.22433
3.22456
3.22481
3.2251
3.22543
3.22578
3.22617
3.22658
3.22702
3.22748
3.22797
3.22847
3.229
3.22953
3.23008
3.23064
3.23121
3.23178
3.23235
3.23292
3.23348
3.23402
3.23456
3.23507
3.23555
3.23601
3.23644
3.23682
3.23717
3.23746
3.2377
3.23789
3.23801
3.23807
3.23806
3.23798
3.23782
3.23759
3.23728
3.23688
3.23641
3.23585
3.2352
3.23447
3.23366
3.23277
3.23179
3.23073
3.2296
3.22839
3.22712
3.22577
3.22436
3.22289
3.22137
3.21981
3.2182
3.21655
3.21487
3.21318
3.21146
3.20974
3.20801
3.20628
3.20457
3.20286
3.20118
3.19953
3.1979
3.19631
3.19476
3.19325
3.19178
3.19035
3.18896
3.18763
3.18633
3.18508
3.18388
3.18271
3.18159
3.18051
3.17948
3.17848
3.17751
3.17659
3.17571
3.17486
3.17405
3.17327
3.17253
3.17183
3.17117
3.17054
3.16995
3.1694
3.16888
3.16841
3.16796
3.16756
3.16718
3.16684
3.16654
3.16626
3.16602
3.1658
3.16562
3.16545
3.16531
3.1652
3.1651
3.16503
3.16498
3.16494
3.16492
3.23268
3.23271
3.23278
3.23289
3.23303
3.2332
3.23341
3.23365
3.23392
3.23422
3.23455
3.2349
3.23528
3.23569
3.23612
3.23657
3.23703
3.23751
3.23801
3.23851
3.23903
3.23954
3.24006
3.24058
3.2411
3.2416
3.2421
3.24258
3.24303
3.24347
3.24387
3.24425
3.24458
3.24488
3.24512
3.24532
3.24547
3.24556
3.24558
3.24555
3.24544
3.24527
3.24502
3.2447
3.2443
3.24382
3.24327
3.24264
3.24193
3.24114
3.24028
3.23934
3.23832
3.23724
3.23608
3.23486
3.23358
3.23224
3.23084
3.22939
3.2279
3.22637
3.22481
3.22322
3.22161
3.21998
3.21834
3.2167
3.21505
3.21342
3.2118
3.2102
3.20861
3.20706
3.20553
3.20404
3.20258
3.20117
3.19979
3.19845
3.19715
3.19589
3.19468
3.1935
3.19237
3.19128
3.19022
3.1892