/*--------------------------------*- C++ -*----------------------------------*\
| =========                 |                                                 |
| \\      /  F ield         | OpenFOAM: The Open Source CFD Toolbox           |
|  \\    /   O peration     | Version:  2406                                  |
|   \\  /    A nd           | Website:  www.openfoam.com                      |
|    \\/     M anipulation  |                                                 |
\*---------------------------------------------------------------------------*/
FoamFile
{
    version     2.0;
    format      ascii;
    arch        "LSB;label=32;scalar=64";
    class       volScalarField;
    location    "1.25";
    object      C_0_0;
}
// * * * * * * * * * * * * * * * * * * * * * * * * * * * * * * * * * * * * * //

dimensions      [1 -3 0 0 0 0 0];

internalField   nonuniform List<scalar> 
14400
(
2.98269
2.98034
2.97541
2.96734
2.95502
2.93263
2.90226
2.88928
2.90621
2.93983
2.96484
2.97975
2.99067
2.99869
3.00442
3.00816
3.01004
3.01008
3.00812
3.00383
2.99659
2.9852
2.96382
2.93511
2.92488
2.94508
2.98201
3.00998
3.0278
3.04202
3.05378
3.06369
3.07218
3.07951
3.08586
3.09137
3.09613
3.10023
3.10372
3.10664
3.10904
3.11095
3.11238
3.11335
3.11388
3.11398
3.11365
3.1129
3.11174
3.11015
3.10813
3.10569
3.1028
3.09946
3.09565
3.09135
3.08653
3.08118
3.07524
3.06869
3.06146
3.05349
3.0447
3.03498
3.02421
3.01221
2.99876
2.98353
2.96605
2.94563
2.92113
2.88482
2.83369
2.79008
2.76812
2.76359
2.77628
2.81041
2.85337
2.88297
2.90096
2.91434
2.92439
2.93185
2.93718
2.94068
2.94252
2.94281
2.94158
2.93879
2.93435
2.92804
2.91953
2.90821
2.89301
2.86805
2.83413
2.81574
2.82654
2.85418
2.87393
2.88381
2.88902
2.89053
2.88859
2.88295
2.87268
2.85255
2.82442
2.81302
2.83082
2.86427
2.88888
2.90379
2.91486
2.92317
2.92933
2.93371
2.93653
2.93791
2.98504
2.98292
2.97854
2.97159
2.96157
2.94789
2.9271
2.91519
2.93093
2.95472
2.97102
2.98374
2.99356
3.00099
3.00641
3.01001
3.0119
3.01207
3.01044
3.00678
3.00075
2.9918
2.97931
2.96004
2.95076
2.96976
2.9966
3.01568
3.03139
3.0445
3.05561
3.06512
3.07334
3.08049
3.0867
3.09211
3.0968
3.10084
3.10428
3.10717
3.10954
3.11142
3.11283
3.11379
3.11431
3.1144
3.11407
3.11332
3.11216
3.11057
3.10856
3.10613
3.10325
3.09993
3.09614
3.09186
3.08708
3.08176
3.07586
3.06936
3.0622
3.05431
3.04562
3.03603
3.02544
3.01367
3.00054
2.98577
2.969
2.94971
2.92716
2.90026
2.86222
2.82392
2.80756
2.80323
2.81039
2.83933
2.86972
2.88991
2.90556
2.91767
2.92698
2.93397
2.93902
2.94233
2.94408
2.94433
2.94313
2.94045
2.93621
2.93025
2.92234
2.9121
2.89899
2.88234
2.85829
2.84131
2.85101
2.8693
2.88081
2.88846
2.89273
2.89397
2.89229
2.88759
2.87951
2.86759
2.84883
2.83855
2.85494
2.87854
2.89485
2.90764
2.91762
2.92531
2.93111
2.93528
2.93797
2.93929
2.98951
2.98777
2.98424
2.9789
2.97179
2.96341
2.95556
2.9504
2.9589
2.96964
2.98078
2.99064
2.99882
3.00531
3.0102
3.01357
3.01546
3.01588
3.01479
3.01212
3.00781
3.00192
2.99496
2.98884
2.98598
2.99733
3.0108
3.02473
3.03757
3.04898
3.05902
3.06784
3.07559
3.08239
3.08835
3.09357
3.09811
3.10204
3.10539
3.10821
3.11053
3.11236
3.11374
3.11467
3.11517
3.11525
3.11491
3.11416
3.11299
3.11142
3.10942
3.107
3.10415
3.10086
3.09711
3.09288
3.08815
3.0829
3.0771
3.0707
3.06366
3.05592
3.04743
3.0381
3.02783
3.01649
3.00395
2.99001
2.97446
2.95704
2.93754
2.916
2.89339
2.86939
2.85819
2.85421
2.85669
2.87201
2.88705
2.90139
2.9137
2.92382
2.93186
2.93806
2.94257
2.94556
2.94712
2.94731
2.94616
2.94367
2.93978
2.93441
2.92747
2.91884
2.90851
2.89684
2.88537
2.87582
2.87913
2.88512
2.89154
2.89651
2.89948
2.90032
2.89902
2.89559
2.89017
2.88329
2.87682
2.87297
2.88199
2.89303
2.90432
2.91432
2.92265
2.92935
2.93453
2.93831
2.94077
2.94199
2.99572
2.99439
2.99177
2.98797
2.98328
2.97838
2.97461
2.97403
2.97758
2.98417
2.9918
2.99921
3.00577
3.01124
3.01552
3.0186
3.02049
3.02119
3.02071
3.01909
3.01645
3.0131
3.00975
3.00779
3.00937
3.01537
3.02454
3.03488
3.04517
3.05483
3.06367
3.07164
3.07877
3.08512
3.09074
3.0957
3.10005
3.10381
3.10704
3.10976
3.11199
3.11376
3.11509
3.11598
3.11645
3.11651
3.11616
3.1154
3.11424
3.11268
3.1107
3.10831
3.1055
3.10225
3.09855
3.0944
3.08975
3.0846
3.07892
3.07267
3.06581
3.0583
3.05009
3.0411
3.03128
3.02053
3.00876
2.99587
2.98178
2.96645
2.94998
2.93278
2.91592
2.90141
2.89111
2.88712
2.88932
2.89581
2.90505
2.91488
2.92405
2.93202
2.93861
2.94381
2.94766
2.95021
2.95152
2.95163
2.95054
2.94828
2.94482
2.94015
2.93429
2.92729
2.91938
2.91113
2.90374
2.89911
2.89831
2.90051
2.90371
2.90655
2.90835
2.90882
2.90787
2.90559
2.90227
2.89859
2.89589
2.89618
2.90032
2.90726
2.9151
2.92264
2.92932
2.93491
2.93935
2.94265
2.94483
2.94591
3.00325
3.0023
3.00047
2.99792
2.99499
2.99222
2.99046
2.99065
2.9932
2.99765
3.00306
3.00863
3.01382
3.01834
3.02204
3.02483
3.02671
3.02767
3.02776
3.02708
3.02581
3.0243
3.02313
3.02319
3.02543
3.03024
3.03711
3.04509
3.05339
3.06151
3.06918
3.07627
3.08273
3.08857
3.0938
3.09845
3.10255
3.10612
3.10919
3.11178
3.11392
3.11561
3.11687
3.11771
3.11815
3.11818
3.11781
3.11705
3.1159
3.11435
3.1124
3.11004
3.10728
3.10409
3.10046
3.09639
3.09186
3.08684
3.08131
3.07525
3.06862
3.06138
3.05351
3.04495
3.03566
3.02558
3.01468
3.00293
2.99034
2.977
2.96313
2.94922
2.9361
2.92497
2.91701
2.91315
2.91338
2.91685
2.92248
2.92903
2.93559
2.9416
2.94675
2.95091
2.95403
2.9561
2.95713
2.95713
2.95611
2.95408
2.95107
2.94709
2.94224
2.93664
2.93058
2.92456
2.91934
2.91583
2.91447
2.91491
2.91624
2.91763
2.91856
2.91873
2.91805
2.91663
2.91473
2.91291
2.91196
2.91281
2.91583
2.92058
2.92617
2.93183
2.93707
2.94161
2.94531
2.94811
2.94997
2.95091
3.01174
3.01109
3.00988
3.00827
3.00652
3.00505
3.00436
3.00492
3.00693
3.01016
3.01416
3.01841
3.02254
3.02628
3.02945
3.03199
3.03384
3.03502
3.03559
3.03566
3.03541
3.03515
3.0353
3.03639
3.03892
3.04305
3.04856
3.05497
3.06179
3.06864
3.07526
3.08152
3.08732
3.09263
3.09745
3.10176
3.10558
3.10893
3.11182
3.11427
3.11628
3.11788
3.11906
3.11985
3.12024
3.12024
3.11986
3.1191
3.11795
3.11642
3.1145
3.11218
3.10947
3.10635
3.10282
3.09886
3.09445
3.08958
3.08423
3.07839
3.07202
3.06511
3.05762
3.04953
3.04081
3.03145
3.02145
3.01083
2.99965
2.98807
2.97633
2.96487
2.9543
2.94537
2.9388
2.93507
2.93419
2.93572
2.93897
2.94318
2.94769
2.95203
2.95588
2.95905
2.96146
2.96304
2.96377
2.96365
2.96267
2.96087
2.95827
2.95492
2.95092
2.94645
2.94174
2.93718
2.93324
2.93039
2.92884
2.92843
2.9287
2.92918
2.92951
2.92947
2.92899
2.92814
2.92713
2.92634
2.92623
2.92727
2.92962
2.93307
2.93717
2.94145
2.94553
2.94915
2.95217
2.95449
2.95605
2.95684
3.02086
3.02045
3.0197
3.01874
3.01778
3.0171
3.017
3.01774
3.01942
3.02192
3.02499
3.02833
3.03166
3.03476
3.03751
3.03982
3.04164
3.04299
3.04392
3.04455
3.04502
3.04558
3.04653
3.04817
3.05079
3.05448
3.05912
3.06445
3.07016
3.07598
3.08172
3.08722
3.0924
3.0972
3.10158
3.10555
3.10909
3.1122
3.1149
3.11718
3.11907
3.12056
3.12166
3.12238
3.12272
3.12269
3.12229
3.12152
3.12038
3.11887
3.11699
3.11472
3.11208
3.10904
3.1056
3.10176
3.0975
3.0928
3.08766
3.08205
3.07597
3.0694
3.06232
3.05473
3.04661
3.03797
3.02885
3.01928
3.00937
2.99928
2.98925
2.97963
2.97085
2.96341
2.95775
2.95414
2.9526
2.95286
2.95451
2.95703
2.95997
2.96294
2.96567
2.96797
2.96971
2.97082
2.97126
2.97101
2.97007
2.96846
2.96621
2.96339
2.9601
2.95648
2.95275
2.94918
2.94606
2.94365
2.94208
2.94125
2.94094
2.94088
2.94084
2.94066
2.9403
2.9398
2.93931
2.93908
2.93937
2.94041
2.9423
2.94491
2.948
2.95126
2.95443
2.9573
2.95973
2.96162
2.96291
2.96356
3.0304
3.03016
3.02973
3.02922
3.02877
3.02857
3.0288
3.02962
3.03108
3.03311
3.03556
3.03825
3.04099
3.04361
3.04602
3.04812
3.04991
3.05137
3.05257
3.05358
3.05455
3.05563
3.05704
3.05898
3.0616
3.06496
3.06899
3.07353
3.07841
3.08342
3.08841
3.09325
3.09786
3.10217
3.10615
3.10976
3.11301
3.11589
3.11838
3.1205
3.12225
3.12362
3.12463
3.12528
3.12558
3.12551
3.12509
3.12432
3.12319
3.1217
3.11985
3.11764
3.11507
3.11212
3.1088
3.10508
3.10097
3.09646
3.09154
3.08619
3.08042
3.0742
3.06754
3.06045
3.05292
3.04498
3.03668
3.02807
3.01928
3.01044
3.00176
2.99353
2.98606
2.97967
2.97465
2.97115
2.9692
2.96863
2.96916
2.97047
2.97221
2.9741
2.9759
2.97744
2.97859
2.97928
2.97944
2.97907
2.97814
2.97668
2.97472
2.97233
2.96959
2.96663
2.96361
2.96073
2.95816
2.95608
2.95456
2.95355
2.95294
2.95257
2.9523
2.95203
2.95174
2.95144
2.95125
2.95129
2.95174
2.95272
2.95425
2.95628
2.95864
2.96115
2.96362
2.96589
2.96783
2.96936
2.9704
2.97094
3.04017
3.04004
3.03984
3.03962
3.0395
3.03959
3.04002
3.04086
3.04216
3.04387
3.0459
3.04813
3.05042
3.05268
3.05481
3.05676
3.05849
3.06002
3.06139
3.06267
3.06395
3.06536
3.06703
3.06911
3.07167
3.07476
3.07833
3.08229
3.08652
3.09088
3.09524
3.09951
3.10361
3.10747
3.11106
3.11435
3.11732
3.11995
3.12224
3.12419
3.12579
3.12705
3.12797
3.12855
3.12879
3.12868
3.12824
3.12746
3.12634
3.12488
3.12308
3.12093
3.11843
3.11558
3.11237
3.1088
3.10486
3.10054
3.09584
3.09076
3.0853
3.07944
3.07321
3.0666
3.05964
3.05236
3.04481
3.03706
3.02922
3.02142
3.01384
3.00668
3.00018
2.99456
2.99001
2.98663
2.98442
2.98329
2.98304
2.98346
2.9843
2.98534
2.98639
2.98729
2.98794
2.98825
2.98817
2.98767
2.98674
2.9854
2.98367
2.98161
2.9793
2.97684
2.97434
2.97195
2.96978
2.96796
2.96652
2.96545
2.96469
2.96416
2.96376
2.96343
2.96317
2.96298
2.96293
2.96311
2.9636
2.96446
2.96571
2.96731
2.96914
2.97109
2.97302
2.97481
2.97635
2.97757
2.97841
2.97884
3.05006
3.05002
3.04996
3.04993
3.05002
3.05029
3.05081
3.05166
3.05283
3.05431
3.05604
3.05793
3.0599
3.06188
3.06379
3.0656
3.06728
3.06884
3.07031
3.07174
3.07321
3.07481
3.07662
3.07874
3.08122
3.08407
3.08729
3.09079
3.0945
3.09833
3.10217
3.10595
3.10959
3.11305
3.11628
3.11926
3.12195
3.12435
3.12644
3.12822
3.12968
3.13082
3.13165
3.13215
3.13233
3.13219
3.13173
3.13095
3.12984
3.12841
3.12665
3.12457
3.12215
3.1194
3.11631
3.11288
3.10911
3.10499
3.10053
3.09572
3.09056
3.08506
3.07924
3.0731
3.06668
3.06
3.05314
3.04614
3.03912
3.03219
3.02548
3.01917
3.01342
3.00839
3.0042
3.00092
2.99856
2.99705
2.99626
2.99603
2.99619
2.99657
2.99701
2.9974
2.99762
2.99761
2.99731
2.9967
2.99576
2.9945
2.99295
2.99115
2.98917
2.98707
2.98496
2.98293
2.98107
2.97945
2.97811
2.97704
2.97622
2.9756
2.97513
2.97478
2.97452
2.97439
2.9744
2.97461
2.97507
2.97581
2.97683
2.97809
2.97953
2.98105
2.98256
2.98396
2.98518
2.98615
2.98683
2.98717
3.05999
3.06
3.06004
3.06014
3.06035
3.06072
3.0613
3.06212
3.06319
3.0645
3.066
3.06765
3.06938
3.07114
3.07287
3.07456
3.07618
3.07774
3.07926
3.08078
3.08236
3.08405
3.08591
3.08801
3.09038
3.09303
3.09595
3.09908
3.10237
3.10576
3.10916
3.11251
3.11576
3.11886
3.12176
3.12444
3.12688
3.12905
3.13095
3.13256
3.13389
3.13492
3.13564
3.13607
3.1362
3.13602
3.13554
3.13476
3.13367
3.13226
3.13056
3.12853
3.1262
3.12355
3.12059
3.11731
3.11371
3.10979
3.10556
3.10102
3.09616
3.09101
3.08558
3.07989
3.07396
3.06784
3.06158
3.05525
3.04893
3.04272
3.03673
3.0311
3.02594
3.02137
3.01747
3.0143
3.01186
3.01009
3.00891
3.00822
3.00787
3.00773
3.0077
3.00766
3.00754
3.00725
3.00677
3.00605
3.00509
3.00389
3.00248
3.00087
2.99914
2.99732
2.9955
2.99374
2.99211
2.99066
2.98941
2.98838
2.98755
2.9869
2.98639
2.98602
2.98576
2.98564
2.98566
2.98586
2.98626
2.98688
2.9877
2.9887
2.98983
2.99102
2.9922
2.99331
2.99427
2.99504
2.99557
2.99584
3.06992
3.06996
3.07006
3.07023
3.07051
3.07094
3.07154
3.07233
3.07332
3.07449
3.07583
3.07729
3.07883
3.08041
3.08201
3.08359
3.08515
3.08668
3.08821
3.08977
3.09138
3.0931
3.09497
3.09701
3.09926
3.10173
3.10438
3.10721
3.11015
3.11317
3.11619
3.11918
3.12208
3.12485
3.12746
3.12987
3.13207
3.13403
3.13574
3.1372
3.13839
3.1393
3.13994
3.1403
3.14037
3.14016
3.13966
3.13887
3.13779
3.13643
3.13477
3.13281
3.13056
3.12802
3.12518
3.12205
3.11863
3.11491
3.11091
3.10662
3.10206
3.09725
3.09219
3.08691
3.08144
3.07582
3.07011
3.06435
3.05863
3.05303
3.04763
3.04255
3.03787
3.03367
3.03002
3.02695
3.02447
3.02254
3.02109
3.02005
3.01932
3.0188
3.01839
3.01802
3.01761
3.0171
3.01646
3.01565
3.01466
3.0135
3.01219
3.01073
3.00918
3.00758
3.00598
3.00443
3.00297
3.00166
3.00051
2.99952
2.99871
2.99804
2.99752
2.99713
2.99687
2.99674
2.99675
2.99691
2.99724
2.99773
2.99839
2.99918
3.00007
3.001
3.00192
3.00279
3.00355
3.00415
3.00457
3.00479
3.0798
3.07986
3.08
3.08021
3.08053
3.08098
3.08158
3.08234
3.08325
3.08432
3.08553
3.08684
3.08823
3.08968
3.09115
3.09264
3.09413
3.09563
3.09714
3.09869
3.10031
3.10201
3.10384
3.10581
3.10794
3.11022
3.11266
3.11522
3.11786
3.12056
3.12327
3.12594
3.12853
3.13101
3.13335
3.13552
3.13749
3.13926
3.1408
3.1421
3.14316
3.14397
3.14452
3.1448
3.14483
3.14458
3.14406
3.14327
3.14221
3.14088
3.13927
3.13738
3.13522
3.13278
3.13007
3.12709
3.12383
3.12031
3.11653
3.1125
3.10822
3.10372
3.09901
3.09411
3.08906
3.0839
3.07866
3.07341
3.06821
3.06312
3.05823
3.0536
3.04931
3.04542
3.04199
3.03902
3.03653
3.0345
3.03286
3.03158
3.03056
3.02974
3.02905
3.02841
3.02777
3.02708
3.02631
3.02542
3.02441
3.02327
3.02203
3.02068
3.01928
3.01784
3.0164
3.01501
3.0137
3.0125
3.01143
3.01049
3.0097
3.00905
3.00852
3.00812
3.00785
3.0077
3.00768
3.00779
3.00804
3.00843
3.00895
3.00956
3.01025
3.01098
3.0117
3.01238
3.01297
3.01345
3.01378
3.01395
3.08962
3.0897
3.08985
3.09009
3.09043
3.09088
3.09147
3.09218
3.09304
3.09402
3.09512
3.09631
3.09758
3.09892
3.10029
3.10169
3.10311
3.10455
3.10603
3.10755
3.10914
3.1108
3.11257
3.11444
3.11645
3.11857
3.1208
3.12313
3.12552
3.12795
3.13038
3.13277
3.13509
3.13731
3.13941
3.14135
3.14312
3.14471
3.14609
3.14725
3.14818
3.14889
3.14935
3.14957
3.14955
3.14927
3.14874
3.14795
3.14691
3.1456
3.14404
3.14223
3.14015
3.13782
3.13523
3.13239
3.1293
3.12597
3.12241
3.11861
3.1146
3.1104
3.10601
3.10147
3.0968
3.09204
3.08724
3.08243
3.07767
3.07303
3.06855
3.06431
3.06035
3.05673
3.05348
3.05062
3.04814
3.04605
3.04429
3.04283
3.0416
3.04057
3.03965
3.03881
3.03799
3.03715
3.03627
3.03531
3.03428
3.03316
3.03196
3.0307
3.0294
3.02808
3.02678
3.02551
3.02432
3.02321
3.02221
3.02132
3.02056
3.01992
3.0194
3.01899
3.0187
3.01853
3.01847
3.01853
3.01871
3.019
3.0194
3.01987
3.02041
3.02097
3.02153
3.02205
3.02252
3.02289
3.02314
3.02328
3.09937
3.09945
3.09961
3.09986
3.1002
3.10065
3.10121
3.10189
3.10269
3.1036
3.10461
3.10571
3.10688
3.10811
3.10939
3.11071
3.11206
3.11345
3.11488
3.11635
3.11788
3.11949
3.12118
3.12296
3.12483
3.1268
3.12886
3.13098
3.13315
3.13534
3.13752
3.13966
3.14175
3.14374
3.14562
3.14736
3.14895
3.15036
3.15159
3.15262
3.15344
3.15405
3.15443
3.15459
3.15452
3.15421
3.15366
3.15288
3.15185
3.15059
3.14908
3.14733
3.14534
3.14311
3.14064
3.13794
3.13502
3.13187
3.12851
3.12494
3.12119
3.11726
3.11317
3.10895
3.10463
3.10024
3.09581
3.09139
3.08702
3.08276
3.07864
3.07472
3.07105
3.06766
3.06458
3.06182
3.05938
3.05725
3.05542
3.05383
3.05246
3.05126
3.05018
3.04918
3.04822
3.04726
3.04629
3.04528
3.04423
3.04312
3.04196
3.04076
3.03954
3.03832
3.03711
3.03595
3.03484
3.03381
3.03287
3.03203
3.0313
3.03067
3.03015
3.02974
3.02943
3.02924
3.02914
3.02915
3.02927
3.02947
3.02976
3.03012
3.03053
3.03096
3.03139
3.03179
3.03215
3.03243
3.03264
3.03274
3.10904
3.10912
3.10928
3.10953
3.10987
3.11031
3.11085
3.11149
3.11223
3.11307
3.11401
3.11502
3.11611
3.11726
3.11845
3.1197
3.12098
3.1223
3.12367
3.12509
3.12656
3.12809
3.1297
3.13137
3.13313
3.13495
3.13684
3.13878
3.14075
3.14273
3.14469
3.14662
3.14849
3.15028
3.15196
3.15352
3.15494
3.1562
3.15729
3.15819
3.15891
3.15943
3.15974
3.15984
3.15972
3.15939
3.15883
3.15805
3.15704
3.15581
3.15435
3.15267
3.15076
3.14863
3.14629
3.14372
3.14095
3.13798
3.13481
3.13146
3.12794
3.12427
3.12046
3.11654
3.11253
3.10847
3.10438
3.1003
3.09627
3.09233
3.08853
3.0849
3.08147
3.07828
3.07535
3.07269
3.0703
3.06817
3.06629
3.06463
3.06315
3.06183
3.06063
3.05951
3.05844
3.0574
3.05636
3.0553
3.05423
3.05312
3.05199
3.05084
3.04969
3.04854
3.04741
3.04632
3.04529
3.04432
3.04343
3.04263
3.04192
3.04131
3.0408
3.04038
3.04006
3.03984
3.03971
3.03967
3.03973
3.03986
3.04006
3.04032
3.04062
3.04094
3.04127
3.04158
3.04185
3.04207
3.04222
3.0423
3.11863
3.11871
3.11887
3.11911
3.11944
3.11986
3.12037
3.12098
3.12167
3.12246
3.12333
3.12427
3.12528
3.12635
3.12747
3.12864
3.12986
3.13111
3.13242
3.13376
3.13517
3.13662
3.13814
3.13971
3.14135
3.14304
3.14478
3.14655
3.14834
3.15013
3.15191
3.15364
3.15532
3.15693
3.15843
3.15982
3.16109
3.1622
3.16317
3.16396
3.16458
3.16501
3.16526
3.1653
3.16515
3.16479
3.16422
3.16344
3.16246
3.16126
3.15985
3.15823
3.15641
3.15438
3.15214
3.14971
3.14709
3.14428
3.1413
3.13815
3.13485
3.13141
3.12786
3.12421
3.12049
3.11672
3.11293
3.10915
3.10543
3.10178
3.09825
3.09487
3.09166
3.08865
3.08586
3.08329
3.08096
3.07885
3.07695
3.07524
3.07369
3.07229
3.07099
3.06978
3.06864
3.06752
3.06643
3.06534
3.06425
3.06315
3.06204
3.06093
3.05983
3.05873
3.05767
3.05664
3.05566
3.05475
3.0539
3.05314
3.05245
3.05185
3.05134
3.05092
3.05059
3.05034
3.05018
3.0501
3.0501
3.05017
3.0503
3.05048
3.05069
3.05093
3.05117
3.0514
3.0516
3.05177
3.05188
3.05194
3.12814
3.12821
3.12837
3.1286
3.12892
3.12932
3.12981
3.13038
3.13103
3.13176
3.13257
3.13344
3.13439
3.13539
3.13644
3.13754
3.13869
3.13988
3.14111
3.14239
3.14372
3.14509
3.14652
3.14799
3.14951
3.15108
3.15267
3.15429
3.15592
3.15755
3.15915
3.16072
3.16223
3.16367
3.16501
3.16626
3.16738
3.16837
3.16921
3.1699
3.17043
3.17079
3.17097
3.17096
3.17077
3.17039
3.16982
3.16905
3.16808
3.16692
3.16556
3.16401
3.16226
3.16032
3.15819
3.15589
3.1534
3.15075
3.14794
3.14499
3.14189
3.13868
3.13536
3.13196
3.12849
3.12498
3.12147
3.11796
3.1145
3.11111
3.10782
3.10465
3.10164
3.0988
3.09614
3.09367
3.09139
3.08931
3.08741
3.08567
3.08409
3.08263
3.08127
3.08
3.07879
3.07763
3.0765
3.07539
3.07428
3.07319
3.0721
3.07102
3.06995
3.0689
3.06788
3.06691
3.06598
3.0651
3.06429
3.06356
3.06289
3.06231
3.0618
3.06138
3.06103
3.06077
3.06058
3.06046
3.06041
3.06042
3.06049
3.0606
3.06074
3.06091
3.06108
3.06124
3.06139
3.06151
3.0616
3.06164
3.13757
3.13764
3.13779
3.13801
3.13832
3.1387
3.13915
3.13969
3.1403
3.14098
3.14174
3.14256
3.14344
3.14437
3.14536
3.14639
3.14747
3.1486
3.14976
3.15097
3.15222
3.15351
3.15485
3.15622
3.15764
3.15908
3.16055
3.16203
3.16352
3.16499
3.16644
3.16785
3.16921
3.1705
3.1717
3.17281
3.1738
3.17467
3.17541
3.17601
3.17645
3.17674
3.17686
3.17681
3.17659
3.17619
3.17561
3.17485
3.1739
3.17277
3.17146
3.16997
3.1683
3.16645
3.16443
3.16224
3.15989
3.15739
3.15474
3.15196
3.14906
3.14604
3.14294
3.13976
3.13653
3.13326
3.12999
3.12673
3.1235
3.12034
3.11726
3.11429
3.11145
3.10876
3.10622
3.10384
3.10164
3.09959
3.0977
3.09596
3.09435
3.09286
3.09146
3.09015
3.0889
3.08771
3.08655
3.08542
3.08431
3.08322
3.08214
3.08109
3.08005
3.07904
3.07806
3.07712
3.07623
3.07539
3.07462
3.0739
3.07326
3.07268
3.07218
3.07175
3.07139
3.07111
3.07089
3.07074
3.07065
3.07062
3.07063
3.07069
3.07077
3.07087
3.07099
3.0711
3.07121
3.07129
3.07136
3.07139
3.14692
3.14699
3.14713
3.14735
3.14763
3.14799
3.14842
3.14892
3.1495
3.15014
3.15084
3.15161
3.15243
3.1533
3.15423
3.1552
3.15622
3.15727
3.15837
3.15951
3.16068
3.16189
3.16314
3.16442
3.16573
3.16706
3.16841
3.16976
3.17111
3.17245
3.17376
3.17504
3.17626
3.17741
3.17848
3.17947
3.18034
3.18111
3.18175
3.18226
3.18263
3.18285
3.18292
3.18283
3.18258
3.18217
3.18158
3.18083
3.1799
3.17881
3.17754
3.17611
3.17451
3.17275
3.17083
3.16875
3.16653
3.16416
3.16167
3.15905
3.15633
3.1535
3.1506
3.14762
3.1446
3.14155
3.1385
3.13545
3.13244
3.12948
3.12659
3.1238
3.12112
3.11856
3.11614
3.11385
3.11171
3.10971
3.10785
3.10612
3.1045
3.10299
3.10157
3.10024
3.09896
3.09774
3.09657
3.09543
3.09432
3.09323
3.09217
3.09113
3.09012
3.08914
3.0882
3.08729
3.08643
3.08562
3.08487
3.08418
3.08355
3.08298
3.08248
3.08205
3.08168
3.08138
3.08114
3.08096
3.08084
3.08076
3.08073
3.08074
3.08078
3.08083
3.0809
3.08097
3.08104
3.0811
3.08114
3.08116
3.1562
3.15627
3.1564
3.15661
3.15688
3.15721
3.15762
3.15809
3.15863
3.15922
3.15988
3.1606
3.16137
3.16219
3.16305
3.16396
3.16491
3.16591
3.16694
3.168
3.1691
3.17023
3.17139
3.17258
3.17379
3.17502
3.17626
3.1775
3.17873
3.17994
3.18113
3.18227
3.18337
3.1844
3.18536
3.18623
3.187
3.18767
3.18822
3.18866
3.18896
3.18912
3.18914
3.18902
3.18874
3.18831
3.18772
3.18698
3.18608
3.18501
3.18379
3.18242
3.18089
3.17921
3.17738
3.17541
3.17331
3.17107
3.16872
3.16625
3.16369
3.16104
3.15831
3.15553
3.1527
3.14985
3.14699
3.14414
3.14132
3.13854
3.13583
3.1332
3.13066
3.12823
3.12591
3.12372
3.12165
3.1197
3.11787
3.11615
3.11454
3.11303
3.1116
3.11025
3.10897
3.10774
3.10655
3.10541
3.1043
3.10322
3.10217
3.10115
3.10016
3.09921
3.09829
3.09741
3.09658
3.0958
3.09507
3.09439
3.09377
3.09321
3.09272
3.09228
3.09191
3.09159
3.09133
3.09113
3.09097
3.09087
3.0908
3.09077
3.09076
3.09078
3.09081
3.09084
3.09088
3.09092
3.09094
3.09096
3.16541
3.16548
3.16561
3.1658
3.16605
3.16637
3.16675
3.16719
3.16769
3.16825
3.16887
3.16953
3.17025
3.17102
3.17183
3.17268
3.17357
3.1745
3.17547
3.17646
3.17749
3.17854
3.17962
3.18072
3.18184
3.18297
3.1841
3.18524
3.18636
3.18746
3.18853
3.18956
3.19054
3.19146
3.19231
3.19308
3.19376
3.19435
3.19482
3.19518
3.19542
3.19553
3.19551
3.19535
3.19505
3.19461
3.19402
3.19329
3.1924
3.19138
3.1902
3.18888
3.18742
3.18581
3.18407
3.1822
3.18021
3.1781
3.17588
3.17355
3.17114
3.16865
3.16609
3.16348
3.16083
3.15816
3.15547
3.1528
3.15015
3.14754
3.14499
3.1425
3.1401
3.13778
3.13557
3.13346
3.13146
3.12956
3.12777
3.12608
3.12449
3.12298
3.12156
3.12021
3.11891
3.11768
3.11649
3.11535
3.11425
3.11318
3.11214
3.11114
3.11017
3.10924
3.10834
3.10749
3.10668
3.10592
3.1052
3.10454
3.10394
3.10338
3.10289
3.10245
3.10207
3.10174
3.10147
3.10124
3.10106
3.10093
3.10083
3.10076
3.10072
3.10071
3.10071
3.10072
3.10073
3.10074
3.10076
3.10076
3.17456
3.17462
3.17474
3.17492
3.17516
3.17546
3.17582
3.17623
3.1767
3.17722
3.1778
3.17842
3.17909
3.17981
3.18056
3.18136
3.18219
3.18306
3.18396
3.18489
3.18585
3.18683
3.18783
3.18885
3.18988
3.19091
3.19195
3.19298
3.194
3.195
3.19597
3.1969
3.19778
3.1986
3.19935
3.20003
3.20062
3.20113
3.20153
3.20182
3.202
3.20207
3.20201
3.20182
3.2015
3.20105
3.20046
3.19974
3.19888
3.19788
3.19675
3.19548
3.19408
3.19255
3.1909
3.18912
3.18723
3.18523
3.18314
3.18094
3.17867
3.17633
3.17392
3.17147
3.16898
3.16647
3.16395
3.16144
3.15894
3.15649
3.15407
3.15172
3.14944
3.14724
3.14512
3.14309
3.14116
3.13932
3.13757
3.13592
3.13435
3.13286
3.13144
3.13009
3.12881
3.12757
3.12639
3.12525
3.12416
3.1231
3.12208
3.12109
3.12014
3.11923
3.11835
3.11752
3.11673
3.11598
3.11529
3.11464
3.11404
3.1135
3.11301
3.11257
3.11218
3.11184
3.11155
3.11131
3.11111
3.11095
3.11082
3.11073
3.11066
3.11062
3.11059
3.11058
3.11057
3.11057
3.11057
3.11057
3.18365
3.18371
3.18382
3.18399
3.18421
3.18449
3.18482
3.18521
3.18565
3.18614
3.18667
3.18726
3.18788
3.18855
3.18926
3.19
3.19078
3.19159
3.19243
3.19329
3.19418
3.19509
3.19602
3.19696
3.1979
3.19886
3.1998
3.20075
3.20167
3.20257
3.20345
3.20428
3.20507
3.2058
3.20646
3.20706
3.20758
3.20801
3.20834
3.20858
3.20871
3.20873
3.20863
3.20842
3.20809
3.20763
3.20704
3.20633
3.20549
3.20453
3.20343
3.20221
3.20087
3.19941
3.19784
3.19615
3.19436
3.19247
3.19048
3.18842
3.18627
3.18406
3.1818
3.17949
3.17715
3.17479
3.17242
3.17005
3.1677
3.16538
3.1631
3.16087
3.1587
3.1566
3.15458
3.15263
3.15076
3.14898
3.14728
3.14566
3.14412
3.14265
3.14125
3.13992
3.13864
3.13742
3.13624
3.13512
3.13403
3.13298
3.13197
3.131
3.13007
3.12918
3.12832
3.12751
3.12673
3.126
3.12532
3.12469
3.1241
3.12356
3.12307
3.12263
3.12223
3.12189
3.12158
3.12133
3.12111
3.12093
3.12078
3.12067
3.12058
3.12051
3.12047
3.12043
3.12041
3.1204
3.12039
3.12039
3.19268
3.19273
3.19284
3.193
3.19321
3.19347
3.19378
3.19414
3.19455
3.195
3.19551
3.19605
3.19663
3.19726
3.19792
3.19861
3.19933
3.20009
3.20087
3.20167
3.20249
3.20333
3.20419
3.20506
3.20593
3.2068
3.20767
3.20852
3.20936
3.21018
3.21096
3.21171
3.21241
3.21306
3.21365
3.21417
3.21461
3.21498
3.21525
3.21544
3.21552
3.2155
3.21538
3.21514
3.21479
3.21433
3.21375
3.21305
3.21223
3.21129
3.21024
3.20907
3.20779
3.20639
3.20489
3.20329
3.20159
3.19979
3.19792
3.19596
3.19394
3.19185
3.18972
3.18754
3.18534
3.18311
3.18088
3.17865
3.17643
3.17424
3.17208
3.16996
3.1679
3.16589
3.16395
3.16208
3.16029
3.15856
3.15691
3.15533
3.15382
3.15238
3.151
3.14968
3.14842
3.14721
3.14605
3.14493
3.14386
3.14283
3.14183
3.14088
3.13996
3.13909
3.13825
3.13745
3.13669
3.13598
3.13531
3.13468
3.1341
3.13357
3.13308
3.13264
3.13224
3.13189
3.13158
3.13131
3.13107
3.13088
3.13072
3.13058
3.13047
3.13039
3.13032
3.13028
3.13024
3.13022
3.1302
3.13019
3.20166
3.2017
3.2018
3.20195
3.20215
3.20239
3.20268
3.20302
3.2034
3.20383
3.20429
3.2048
3.20534
3.20592
3.20654
3.20718
3.20786
3.20856
3.20928
3.21002
3.21079
3.21156
3.21235
3.21315
3.21395
3.21474
3.21554
3.21631
3.21707
3.21781
3.21852
3.21918
3.21981
3.22038
3.2209
3.22135
3.22173
3.22204
3.22226
3.22239
3.22244
3.22239
3.22223
3.22198
3.22162
3.22115
3.22057
3.21988
3.21909
3.21818
3.21716
3.21604
3.21481
3.21347
3.21204
3.21052
3.2089
3.2072
3.20543
3.20358
3.20166
3.1997
3.19768
3.19563
3.19354
3.19144
3.18934
3.18723
3.18513
3.18305
3.18101
3.179
3.17703
3.17512
3.17326
3.17147
3.16973
3.16806
3.16646
3.16492
3.16345
3.16204
3.16069
3.15939
3.15815
3.15695
3.15581
3.15471
3.15365
3.15263
3.15165
3.15072
3.14982
3.14895
3.14813
3.14735
3.14661
3.14591
3.14525
3.14463
3.14406
3.14353
3.14304
3.1426
3.1422
3.14184
3.14153
3.14125
3.141
3.14079
3.14062
3.14047
3.14034
3.14024
3.14016
3.1401
3.14006
3.14002
3.14
3.13999
3.21058
3.21063
3.21072
3.21086
3.21104
3.21127
3.21154
3.21185
3.21221
3.21261
3.21304
3.21351
3.21402
3.21456
3.21513
3.21573
3.21635
3.217
3.21767
3.21836
3.21906
3.21978
3.22051
3.22124
3.22197
3.2227
3.22342
3.22412
3.22481
3.22547
3.22611
3.2267
3.22726
3.22776
3.22821
3.2286
3.22892
3.22917
3.22935
3.22944
3.22945
3.22937
3.22919
3.22892
3.22855
3.22807
3.2275
3.22683
3.22605
3.22517
3.22419
3.22311
3.22193
3.22066
3.21929
3.21784
3.2163
3.21469
3.213
3.21125
3.20944
3.20758
3.20568
3.20374
3.20177
3.19978
3.19779
3.1958
3.19381
3.19184
3.1899
3.18799
3.18612
3.18429
3.18251
3.18078
3.17911
3.1775
3.17595
3.17446
3.17302
3.17164
3.17032
3.16904
3.16782
3.16665
3.16552
3.16444
3.1634
3.1624
3.16143
3.16051
3.15963
3.15878
3.15798
3.15721
3.15648
3.15579
3.15514
3.15454
3.15397
3.15345
3.15297
3.15252
3.15212
3.15176
3.15144
3.15115
3.1509
3.15068
3.15049
3.15032
3.15019
3.15008
3.14999
3.14991
3.14986
3.14982
3.14979
3.14978
3.21946
3.2195
3.21959
3.21972
3.21989
3.2201
3.22035
3.22065
3.22098
3.22134
3.22175
3.22219
3.22266
3.22316
3.22369
3.22424
3.22482
3.22542
3.22604
3.22668
3.22733
3.22799
3.22865
3.22932
3.22999
3.23066
3.23131
3.23195
3.23257
3.23317
3.23373
3.23426
3.23475
3.23519
3.23558
3.23592
3.23619
3.23639
3.23652
3.23657
3.23655
3.23644
3.23624
3.23595
3.23557
3.2351
3.23454
3.23387
3.23312
3.23226
3.23132
3.23028
3.22915
3.22793
3.22663
3.22524
3.22378
3.22225
3.22065
3.21899
3.21727
3.21551
3.21371
3.21187
3.21001
3.20813
3.20625
3.20436
3.20247
3.20061
3.19876
3.19694
3.19515
3.19341
3.1917
3.19004
3.18844
3.18688
3.18538
3.18393
3.18253
3.18119
3.17989
3.17865
3.17745
3.1763
3.17519
3.17413
3.1731
3.17212
3.17118
3.17027
3.1694
3.16857
3.16778
3.16703
3.16631
3.16563
3.165
3.1644
3.16384
3.16332
3.16284
3.1624
3.162
3.16164
3.16131
3.16101
3.16075
3.16053
3.16033
3.16016
3.16001
3.15989
3.15979
3.15971
3.15965
3.1596
3.15957
3.15956
3.22829
3.22833
3.22841
3.22853
3.22869
3.22889
3.22913
3.2294
3.2297
3.23005
3.23042
3.23083
3.23127
3.23173
3.23222
3.23274
3.23327
3.23383
3.2344
3.23499
3.23558
3.23619
3.2368
3.23741
3.23802
3.23862
3.23922
3.23979
3.24035
3.24089
3.24139
3.24186
3.24229
3.24268
3.24301
3.24329
3.24352
3.24368
3.24377
3.24379
3.24373
3.2436
3.24338
3.24308
3.2427
3.24222
3.24166
3.24101
3.24027
3.23945
3.23853
3.23753
3.23645
3.23528
3.23404
3.23272
3.23133
3.22987
3.22835
3.22678
3.22515
3.22348
3.22177
3.22003
3.21827
3.21649
3.2147
3.21291
3.21112
3.20935
3.20759
3.20585
3.20415
3.20248
3.20085
3.19925
3.19771
3.19621
3.19475
3.19335
3.19199
3.19068
3.18942
3.1882
3.18703
3.1859
3.18482
3.18377
3.18277
3.1818
3.18088
3.17999
3.17914
3.17832
3.17754
3.17681
3.1761
3.17544
3.17481
3.17422
3.17367
3.17316
3.17268
3.17224
3.17184
3.17148
3.17114
3.17085
3.17058
3.17035
3.17014
3.16996
3.16981
3.16968
3.16957
3.16948
3.16941
3.16936
3.16933
3.16931
3.23709
3.23712
3.2372
3.23731
3.23746
3.23764
3.23786
3.23811
3.2384
3.23872
3.23906
3.23944
3.23985
3.24028
3.24073
3.24121
3.2417
3.24221
3.24274
3.24328
3.24383
3.24438
3.24494
3.2455
3.24605
3.2466
3.24714
3.24766
3.24816
3.24864
3.24908
3.2495
3.24988
3.25021
3.2505
3.25073
3.25091
3.25103
3.25109
3.25107
3.25099
3.25083
3.2506
3.25029
3.2499
3.24943
3.24888
3.24824
3.24752
3.24672
3.24584
3.24488
3.24383
3.24272
3.24153
3.24027
3.23894
3.23756
3.23611
3.23461
3.23307
3.23149
3.22986
3.22822
3.22654
3.22485
3.22316
3.22146
3.21976
3.21807
3.21639
3.21474
3.21311
3.21151
3.20995
3.20842
3.20693
3.20548
3.20408
3.20271
3.2014
3.20012
3.19889
3.19771
3.19656
3.19546
3.1944
3.19338
3.19239
3.19145
3.19054
3.18967
3.18883
3.18803
3.18727
3.18655
3.18586
3.1852
3.18459
3.18401
3.18346
3.18295
3.18248
3.18205
3.18165
3.18128
3.18095
3.18065
3.18038
3.18013
3.17992
3.17974
3.17958
3.17944
3.17933
3.17923
3.17916
3.17911
3.17907
3.17906
3.24584
3.24588
3.24595
3.24605
3.24619
3.24636
3.24656
3.24679
3.24706
3.24735
3.24768
3.24802
3.2484
3.2488
3.24922
3.24965
3.25011
3.25058
3.25107
3.25156
3.25206
3.25257
3.25308
3.25359
3.25409
3.25459
3.25507
3.25554
3.25599
3.25641
3.25681
3.25717
3.2575
3.25779
3.25803
3.25822
3.25836
3.25845
3.25847
3.25843
3.25832
3.25815
3.2579
3.25758
3.25719
3.25672
3.25617
3.25555
3.25485
3.25407
3.25322
3.25229
3.25129
3.25022
3.24909
3.24788
3.24662
3.2453
3.24392
3.2425
3.24103
3.23953
3.23799
3.23642
3.23483
3.23323
3.23162
3.23
3.22838
3.22677
3.22518
3.2236
3.22204
3.22051
3.21901
3.21754
3.21611
3.21471
3.21336
3.21204
3.21076
3.20952
3.20833
3.20717
3.20606